 Entering Gaussian System, Link 0=g09
 Input=mol_inp033.com
 Output=mol_inp033.log
 Initial command:
 /sw/target/amd/app/gaussian/Gaussian09RevA.02_gcc-4.9.2/g09/l1.exe /home/jschleinitz/optim_react/033/Gau-2804484.inp -scrdir=/home/jschleinitz/optim_react/033/
 Entering Link 1 = /sw/target/amd/app/gaussian/Gaussian09RevA.02_gcc-4.9.2/g09/l1.exe PID=   2804486.
  
 Copyright (c) 1988,1990,1992,1993,1995,1998,2003,2009, Gaussian, Inc.
                  All Rights Reserved.
  
 This is part of the Gaussian(R) 09 program.  It is based on
 the Gaussian(R) 03 system (copyright 2003, Gaussian, Inc.),
 the Gaussian(R) 98 system (copyright 1998, Gaussian, Inc.),
 the Gaussian(R) 94 system (copyright 1995, Gaussian, Inc.),
 the Gaussian 92(TM) system (copyright 1992, Gaussian, Inc.),
 the Gaussian 90(TM) system (copyright 1990, Gaussian, Inc.),
 the Gaussian 88(TM) system (copyright 1988, Gaussian, Inc.),
 the Gaussian 86(TM) system (copyright 1986, Carnegie Mellon
 University), and the Gaussian 82(TM) system (copyright 1983,
 Carnegie Mellon University). Gaussian is a federally registered
 trademark of Gaussian, Inc.
  
 This software contains proprietary and confidential information,
 including trade secrets, belonging to Gaussian, Inc.
  
 This software is provided under written license and may be
 used, copied, transmitted, or stored only in accord with that
 written license.
  
 The following legend is applicable only to US Government
 contracts under FAR:
  
                    RESTRICTED RIGHTS LEGEND
  
 Use, reproduction and disclosure by the US Government is
 subject to restrictions as set forth in subparagraphs (a)
 and (c) of the Commercial Computer Software - Restricted
 Rights clause in FAR 52.227-19.
  
 Gaussian, Inc.
 340 Quinnipiac St., Bldg. 40, Wallingford CT 06492
  
  
 ---------------------------------------------------------------
 Warning -- This program may not be used in any manner that
 competes with the business of Gaussian, Inc. or will provide
 assistance to any competitor of Gaussian, Inc.  The licensee
 of this program is prohibited from giving any competitor of
 Gaussian, Inc. access to this program.  By using this program,
 the user acknowledges that Gaussian, Inc. is engaged in the
 business of creating and licensing software in the field of
 computational chemistry and represents and warrants to the
 licensee that it is not a competitor of Gaussian, Inc. and that
 it will not use this program in any manner prohibited above.
 ---------------------------------------------------------------
  

 Cite this work as:
 Gaussian 09, Revision A.02,
 M. J. Frisch, G. W. Trucks, H. B. Schlegel, G. E. Scuseria, 
 M. A. Robb, J. R. Cheeseman, G. Scalmani, V. Barone, B. Mennucci, 
 G. A. Petersson, H. Nakatsuji, M. Caricato, X. Li, H. P. Hratchian, 
 A. F. Izmaylov, J. Bloino, G. Zheng, J. L. Sonnenberg, M. Hada, 
 M. Ehara, K. Toyota, R. Fukuda, J. Hasegawa, M. Ishida, T. Nakajima, 
 Y. Honda, O. Kitao, H. Nakai, T. Vreven, J. A. Montgomery, Jr., 
 J. E. Peralta, F. Ogliaro, M. Bearpark, J. J. Heyd, E. Brothers, 
 K. N. Kudin, V. N. Staroverov, R. Kobayashi, J. Normand, 
 K. Raghavachari, A. Rendell, J. C. Burant, S. S. Iyengar, J. Tomasi, 
 M. Cossi, N. Rega, J. M. Millam, M. Klene, J. E. Knox, J. B. Cross, 
 V. Bakken, C. Adamo, J. Jaramillo, R. Gomperts, R. E. Stratmann, 
 O. Yazyev, A. J. Austin, R. Cammi, C. Pomelli, J. W. Ochterski, 
 R. L. Martin, K. Morokuma, V. G. Zakrzewski, G. A. Voth, 
 P. Salvador, J. J. Dannenberg, S. Dapprich, A. D. Daniels, 
 O. Farkas, J. B. Foresman, J. V. Ortiz, J. Cioslowski, 
 and D. J. Fox, Gaussian, Inc., Wallingford CT, 2009.
 
 ******************************************
 Gaussian 09:  AM64L-G09RevA.02 11-Jun-2009
                 3-Sep-2021 
 ******************************************
 %chk=opt.chk
 %mem=2gb
 %nproc=1
 Will use up to    1 processors via shared memory.
 ----------------------------------
 #p b3lyp 6-31G* opt scf(xqc,tight)
 ----------------------------------
 1/14=-1,18=20,19=15,26=3,38=1/1,3;
 2/9=110,12=2,17=6,18=5,40=1/2;
 3/5=1,6=6,7=1,11=2,16=1,25=1,30=1,71=1,74=-5/1,2,3;
 4//1;
 5/5=2,8=3,13=1,32=2,38=5/2,8;
 6/7=2,8=2,9=2,10=2,28=1/1;
 7//1,2,3,16;
 1/14=-1,18=20,19=15/3(2);
 2/9=110/2;
 99//99;
 2/9=110/2;
 3/5=1,6=6,7=1,11=2,16=1,25=1,30=1,71=1,74=-5/1,2,3;
 4/5=5,16=3/1;
 5/5=2,8=3,13=1,32=2,38=5/2,8;
 7//1,2,3,16;
 1/14=-1,18=20,19=15/3(-5);
 2/9=110/2;
 6/7=2,8=2,9=2,10=2,19=2,28=1/1;
 99/9=1/99;
 Leave Link    1 at Fri Sep  3 00:07:37 2021, MaxMem=  268435456 cpu:       0.1
 (Enter /sw/target/amd/app/gaussian/Gaussian09RevA.02_gcc-4.9.2/g09/l101.exe)
 ---------------
 opt calculation
 ---------------
 Symbolic Z-matrix:
 Charge =  0 Multiplicity = 1
 C                     5.10771   1.29538   1.64493 
 O                     4.57514   0.46713   0.61903 
 C                     3.27942   0.05462   0.76667 
 C                     2.43187   0.37524   1.8299 
 C                     1.12227  -0.11468   1.85592 
 C                     0.65916  -0.91129   0.8101 
 O                    -0.61633  -1.41251   0.87038 
 C                    -1.57101  -0.76503   0.09126 
 N                    -2.7606   -1.35443   0.07925 
 C                    -3.66892  -0.72351  -0.65592 
 O                    -4.94595  -1.23507  -0.75298 
 C                    -5.13159  -2.43586  -0.01543 
 N                    -3.47626   0.39539  -1.33878 
 C                    -2.25057   0.88713  -1.24405 
 O                    -2.04455   2.05224  -1.95237 
 C                    -0.71053   2.53684  -1.86162 
 N                    -1.25522   0.35966  -0.54412 
 C                     1.5026   -1.25714  -0.2436 
 C                     2.8084   -0.76483  -0.26485 
 H                     6.14205   1.53366   1.37888 
 H                     4.55657   2.23888   1.71643 
 H                     5.12347   0.7719    2.60659 
 H                     2.75852   0.99998   2.65428 
 H                     0.46715   0.1303    2.68722 
 H                    -4.48201  -3.23594  -0.38733 
 H                    -6.16791  -2.75777  -0.15717 
 H                    -4.97904  -2.27188   1.05706 
 H                     0.0041    1.81695  -2.27601 
 H                    -0.64604   3.45021  -2.46096 
 H                    -0.45147   2.79832  -0.82961 
 H                     1.15145  -1.89996  -1.04516 
 H                     3.46811  -1.02394  -1.08949 
 
 NAtoms=     32 NQM=     32 NQMF=      0 NMic=      0 NMicF=      0 NTot=     32.
                    Isotopes and Nuclear Properties:
 (Nuclear quadrupole moments (NQMom) in fm**2, nuclear magnetic moments (NMagM)
  in nuclear magnetons)

  Atom         1           2           3           4           5           6           7           8           9          10
 IAtWgt=          12          16          12          12          12          12          16          12          14          12
 AtmWgt=  12.0000000  15.9949146  12.0000000  12.0000000  12.0000000  12.0000000  15.9949146  12.0000000  14.0030740  12.0000000
 NucSpn=           0           0           0           0           0           0           0           0           2           0
 AtZEff=   0.0000000   0.0000000   0.0000000   0.0000000   0.0000000   0.0000000   0.0000000   0.0000000   0.0000000   0.0000000
 NQMom=    0.0000000   0.0000000   0.0000000   0.0000000   0.0000000   0.0000000   0.0000000   0.0000000   2.0440000   0.0000000
 NMagM=    0.0000000   0.0000000   0.0000000   0.0000000   0.0000000   0.0000000   0.0000000   0.0000000   0.4037610   0.0000000

  Atom        11          12          13          14          15          16          17          18          19          20
 IAtWgt=          16          12          14          12          16          12          14          12          12           1
 AtmWgt=  15.9949146  12.0000000  14.0030740  12.0000000  15.9949146  12.0000000  14.0030740  12.0000000  12.0000000   1.0078250
 NucSpn=           0           0           2           0           0           0           2           0           0           1
 AtZEff=   0.0000000   0.0000000   0.0000000   0.0000000   0.0000000   0.0000000   0.0000000   0.0000000   0.0000000   0.0000000
 NQMom=    0.0000000   0.0000000   2.0440000   0.0000000   0.0000000   0.0000000   2.0440000   0.0000000   0.0000000   0.0000000
 NMagM=    0.0000000   0.0000000   0.4037610   0.0000000   0.0000000   0.0000000   0.4037610   0.0000000   0.0000000   2.7928460

  Atom        21          22          23          24          25          26          27          28          29          30
 IAtWgt=           1           1           1           1           1           1           1           1           1           1
 AtmWgt=   1.0078250   1.0078250   1.0078250   1.0078250   1.0078250   1.0078250   1.0078250   1.0078250   1.0078250   1.0078250
 NucSpn=           1           1           1           1           1           1           1           1           1           1
 AtZEff=   0.0000000   0.0000000   0.0000000   0.0000000   0.0000000   0.0000000   0.0000000   0.0000000   0.0000000   0.0000000
 NQMom=    0.0000000   0.0000000   0.0000000   0.0000000   0.0000000   0.0000000   0.0000000   0.0000000   0.0000000   0.0000000
 NMagM=    2.7928460   2.7928460   2.7928460   2.7928460   2.7928460   2.7928460   2.7928460   2.7928460   2.7928460   2.7928460

  Atom        31          32
 IAtWgt=           1           1
 AtmWgt=   1.0078250   1.0078250
 NucSpn=           1           1
 AtZEff=   0.0000000   0.0000000
 NQMom=    0.0000000   0.0000000
 NMagM=    2.7928460   2.7928460
 Leave Link  101 at Fri Sep  3 00:07:37 2021, MaxMem=  268435456 cpu:       0.2
 (Enter /sw/target/amd/app/gaussian/Gaussian09RevA.02_gcc-4.9.2/g09/l103.exe)

 GradGradGradGradGradGradGradGradGradGradGradGradGradGradGradGradGradGrad
 Berny optimization.
 Initialization pass.
                           ----------------------------
                           !    Initial Parameters    !
                           ! (Angstroms and Degrees)  !
 --------------------------                            --------------------------
 ! Name  Definition              Value          Derivative Info.                !
 --------------------------------------------------------------------------------
 ! R1    R(1,2)                  1.422          estimate D2E/DX2                !
 ! R2    R(1,20)                 1.0943         estimate D2E/DX2                !
 ! R3    R(1,21)                 1.095          estimate D2E/DX2                !
 ! R4    R(1,22)                 1.095          estimate D2E/DX2                !
 ! R5    R(2,3)                  1.3678         estimate D2E/DX2                !
 ! R6    R(3,4)                  1.397          estimate D2E/DX2                !
 ! R7    R(3,19)                 1.3991         estimate D2E/DX2                !
 ! R8    R(4,5)                  1.3985         estimate D2E/DX2                !
 ! R9    R(4,23)                 1.0847         estimate D2E/DX2                !
 ! R10   R(5,6)                  1.3938         estimate D2E/DX2                !
 ! R11   R(5,24)                 1.0864         estimate D2E/DX2                !
 ! R12   R(6,7)                  1.3718         estimate D2E/DX2                !
 ! R13   R(6,18)                 1.3933         estimate D2E/DX2                !
 ! R14   R(7,8)                  1.392          estimate D2E/DX2                !
 ! R15   R(8,9)                  1.3277         estimate D2E/DX2                !
 ! R16   R(8,17)                 1.3298         estimate D2E/DX2                !
 ! R17   R(9,10)                 1.328          estimate D2E/DX2                !
 ! R18   R(10,11)                1.3791         estimate D2E/DX2                !
 ! R19   R(10,13)                1.3249         estimate D2E/DX2                !
 ! R20   R(11,12)                1.4214         estimate D2E/DX2                !
 ! R21   R(12,25)                1.0956         estimate D2E/DX2                !
 ! R22   R(12,26)                1.0944         estimate D2E/DX2                !
 ! R23   R(12,27)                1.0956         estimate D2E/DX2                !
 ! R24   R(13,14)                1.324          estimate D2E/DX2                !
 ! R25   R(14,15)                1.379          estimate D2E/DX2                !
 ! R26   R(14,17)                1.3262         estimate D2E/DX2                !
 ! R27   R(15,16)                1.4222         estimate D2E/DX2                !
 ! R28   R(16,28)                1.0957         estimate D2E/DX2                !
 ! R29   R(16,29)                1.0944         estimate D2E/DX2                !
 ! R30   R(16,30)                1.0957         estimate D2E/DX2                !
 ! R31   R(18,19)                1.3957         estimate D2E/DX2                !
 ! R32   R(18,31)                1.0858         estimate D2E/DX2                !
 ! R33   R(19,32)                1.0874         estimate D2E/DX2                !
 ! A1    A(2,1,20)             107.7843         estimate D2E/DX2                !
 ! A2    A(2,1,21)             111.129          estimate D2E/DX2                !
 ! A3    A(2,1,22)             111.133          estimate D2E/DX2                !
 ! A4    A(20,1,21)            107.6978         estimate D2E/DX2                !
 ! A5    A(20,1,22)            107.6988         estimate D2E/DX2                !
 ! A6    A(21,1,22)            111.2112         estimate D2E/DX2                !
 ! A7    A(1,2,3)              116.9086         estimate D2E/DX2                !
 ! A8    A(2,3,4)              125.9915         estimate D2E/DX2                !
 ! A9    A(2,3,19)             114.5817         estimate D2E/DX2                !
 ! A10   A(4,3,19)             119.4264         estimate D2E/DX2                !
 ! A11   A(3,4,5)              120.1254         estimate D2E/DX2                !
 ! A12   A(3,4,23)             121.8644         estimate D2E/DX2                !
 ! A13   A(5,4,23)             118.0099         estimate D2E/DX2                !
 ! A14   A(4,5,6)              119.8277         estimate D2E/DX2                !
 ! A15   A(4,5,24)             119.9958         estimate D2E/DX2                !
 ! A16   A(6,5,24)             120.1758         estimate D2E/DX2                !
 ! A17   A(5,6,7)              118.9984         estimate D2E/DX2                !
 ! A18   A(5,6,18)             120.542          estimate D2E/DX2                !
 ! A19   A(7,6,18)             120.3584         estimate D2E/DX2                !
 ! A20   A(6,7,8)              116.3047         estimate D2E/DX2                !
 ! A21   A(7,8,9)              114.3982         estimate D2E/DX2                !
 ! A22   A(7,8,17)             119.8654         estimate D2E/DX2                !
 ! A23   A(9,8,17)             125.7273         estimate D2E/DX2                !
 ! A24   A(8,9,10)             114.0127         estimate D2E/DX2                !
 ! A25   A(9,10,11)            119.7411         estimate D2E/DX2                !
 ! A26   A(9,10,13)            125.9505         estimate D2E/DX2                !
 ! A27   A(11,10,13)           114.3084         estimate D2E/DX2                !
 ! A28   A(10,11,12)           113.4401         estimate D2E/DX2                !
 ! A29   A(11,12,25)           111.3058         estimate D2E/DX2                !
 ! A30   A(11,12,26)           107.7564         estimate D2E/DX2                !
 ! A31   A(11,12,27)           111.304          estimate D2E/DX2                !
 ! A32   A(25,12,26)           107.6173         estimate D2E/DX2                !
 ! A33   A(25,12,27)           111.0401         estimate D2E/DX2                !
 ! A34   A(26,12,27)           107.6171         estimate D2E/DX2                !
 ! A35   A(10,13,14)           114.2921         estimate D2E/DX2                !
 ! A36   A(13,14,15)           114.5409         estimate D2E/DX2                !
 ! A37   A(13,14,17)           125.79           estimate D2E/DX2                !
 ! A38   A(15,14,17)           119.669          estimate D2E/DX2                !
 ! A39   A(14,15,16)           113.2815         estimate D2E/DX2                !
 ! A40   A(15,16,28)           111.3309         estimate D2E/DX2                !
 ! A41   A(15,16,29)           107.741          estimate D2E/DX2                !
 ! A42   A(15,16,30)           111.2964         estimate D2E/DX2                !
 ! A43   A(28,16,29)           107.625          estimate D2E/DX2                !
 ! A44   A(28,16,30)           111.0257         estimate D2E/DX2                !
 ! A45   A(29,16,30)           107.6214         estimate D2E/DX2                !
 ! A46   A(8,17,14)            114.2247         estimate D2E/DX2                !
 ! A47   A(6,18,19)            119.362          estimate D2E/DX2                !
 ! A48   A(6,18,31)            120.6274         estimate D2E/DX2                !
 ! A49   A(19,18,31)           120.0101         estimate D2E/DX2                !
 ! A50   A(3,19,18)            120.6882         estimate D2E/DX2                !
 ! A51   A(3,19,32)            119.633          estimate D2E/DX2                !
 ! A52   A(18,19,32)           119.6784         estimate D2E/DX2                !
 ! D1    D(20,1,2,3)           179.9474         estimate D2E/DX2                !
 ! D2    D(21,1,2,3)           -62.2633         estimate D2E/DX2                !
 ! D3    D(22,1,2,3)            62.1547         estimate D2E/DX2                !
 ! D4    D(1,2,3,4)              0.1829         estimate D2E/DX2                !
 ! D5    D(1,2,3,19)          -179.5744         estimate D2E/DX2                !
 ! D6    D(2,3,4,5)            179.9133         estimate D2E/DX2                !
 ! D7    D(2,3,4,23)            -0.2786         estimate D2E/DX2                !
 ! D8    D(19,3,4,5)            -0.3402         estimate D2E/DX2                !
 ! D9    D(19,3,4,23)          179.4679         estimate D2E/DX2                !
 ! D10   D(2,3,19,18)         -179.9193         estimate D2E/DX2                !
 ! D11   D(2,3,19,32)            0.3309         estimate D2E/DX2                !
 ! D12   D(4,3,19,18)            0.3062         estimate D2E/DX2                !
 ! D13   D(4,3,19,32)         -179.4435         estimate D2E/DX2                !
 ! D14   D(3,4,5,6)             -0.7526         estimate D2E/DX2                !
 ! D15   D(3,4,5,24)           179.5744         estimate D2E/DX2                !
 ! D16   D(23,4,5,6)           179.432          estimate D2E/DX2                !
 ! D17   D(23,4,5,24)           -0.241          estimate D2E/DX2                !
 ! D18   D(4,5,6,7)            178.2552         estimate D2E/DX2                !
 ! D19   D(4,5,6,18)             1.9003         estimate D2E/DX2                !
 ! D20   D(24,5,6,7)            -2.0724         estimate D2E/DX2                !
 ! D21   D(24,5,6,18)         -178.4272         estimate D2E/DX2                !
 ! D22   D(5,6,7,8)            102.3098         estimate D2E/DX2                !
 ! D23   D(18,6,7,8)           -81.3284         estimate D2E/DX2                !
 ! D24   D(5,6,18,19)           -1.9269         estimate D2E/DX2                !
 ! D25   D(5,6,18,31)          178.3124         estimate D2E/DX2                !
 ! D26   D(7,6,18,19)         -178.2321         estimate D2E/DX2                !
 ! D27   D(7,6,18,31)            2.0073         estimate D2E/DX2                !
 ! D28   D(6,7,8,9)            173.9763         estimate D2E/DX2                !
 ! D29   D(6,7,8,17)            -7.0606         estimate D2E/DX2                !
 ! D30   D(7,8,9,10)           179.3892         estimate D2E/DX2                !
 ! D31   D(17,8,9,10)            0.4969         estimate D2E/DX2                !
 ! D32   D(7,8,17,14)         -179.4749         estimate D2E/DX2                !
 ! D33   D(9,8,17,14)           -0.6381         estimate D2E/DX2                !
 ! D34   D(8,9,10,11)          179.8933         estimate D2E/DX2                !
 ! D35   D(8,9,10,13)           -0.1098         estimate D2E/DX2                !
 ! D36   D(9,10,11,12)          -0.0923         estimate D2E/DX2                !
 ! D37   D(13,10,11,12)        179.9105         estimate D2E/DX2                !
 ! D38   D(9,10,13,14)          -0.0755         estimate D2E/DX2                !
 ! D39   D(11,10,13,14)        179.9215         estimate D2E/DX2                !
 ! D40   D(10,11,12,25)        -62.1912         estimate D2E/DX2                !
 ! D41   D(10,11,12,26)       -179.966          estimate D2E/DX2                !
 ! D42   D(10,11,12,27)         62.2604         estimate D2E/DX2                !
 ! D43   D(10,13,14,15)       -179.9682         estimate D2E/DX2                !
 ! D44   D(10,13,14,17)         -0.0922         estimate D2E/DX2                !
 ! D45   D(13,14,15,16)       -178.381          estimate D2E/DX2                !
 ! D46   D(17,14,15,16)          1.7348         estimate D2E/DX2                !
 ! D47   D(13,14,17,8)           0.4177         estimate D2E/DX2                !
 ! D48   D(15,14,17,8)        -179.7122         estimate D2E/DX2                !
 ! D49   D(14,15,16,28)         61.5845         estimate D2E/DX2                !
 ! D50   D(14,15,16,29)        179.3736         estimate D2E/DX2                !
 ! D51   D(14,15,16,30)        -62.8613         estimate D2E/DX2                !
 ! D52   D(6,18,19,3)            0.8192         estimate D2E/DX2                !
 ! D53   D(6,18,19,32)        -179.4312         estimate D2E/DX2                !
 ! D54   D(31,18,19,3)        -179.4187         estimate D2E/DX2                !
 ! D55   D(31,18,19,32)          0.3309         estimate D2E/DX2                !
 --------------------------------------------------------------------------------
 Trust Radius=3.00D-01 FncErr=1.00D-07 GrdErr=1.00D-06
 Number of steps in this run= 150 maximum allowed number of steps= 192.
 GradGradGradGradGradGradGradGradGradGradGradGradGradGradGradGradGradGrad

 Leave Link  103 at Fri Sep  3 00:07:37 2021, MaxMem=  268435456 cpu:       0.0
 (Enter /sw/target/amd/app/gaussian/Gaussian09RevA.02_gcc-4.9.2/g09/l202.exe)
                          Input orientation:                          
 ---------------------------------------------------------------------
 Center     Atomic      Atomic             Coordinates (Angstroms)
 Number     Number       Type             X           Y           Z
 ---------------------------------------------------------------------
      1          6           0        5.107707    1.295376    1.644929
      2          8           0        4.575139    0.467125    0.619025
      3          6           0        3.279424    0.054622    0.766666
      4          6           0        2.431871    0.375241    1.829901
      5          6           0        1.122269   -0.114679    1.855919
      6          6           0        0.659161   -0.911287    0.810097
      7          8           0       -0.616329   -1.412509    0.870382
      8          6           0       -1.571011   -0.765026    0.091260
      9          7           0       -2.760602   -1.354430    0.079254
     10          6           0       -3.668921   -0.723507   -0.655924
     11          8           0       -4.945949   -1.235069   -0.752982
     12          6           0       -5.131592   -2.435860   -0.015426
     13          7           0       -3.476255    0.395394   -1.338781
     14          6           0       -2.250574    0.887129   -1.244053
     15          8           0       -2.044548    2.052241   -1.952370
     16          6           0       -0.710526    2.536841   -1.861619
     17          7           0       -1.255219    0.359662   -0.544117
     18          6           0        1.502600   -1.257138   -0.243601
     19          6           0        2.808396   -0.764833   -0.264852
     20          1           0        6.142054    1.533658    1.378880
     21          1           0        4.556574    2.238883    1.716427
     22          1           0        5.123466    0.771902    2.606590
     23          1           0        2.758517    0.999978    2.654284
     24          1           0        0.467148    0.130298    2.687221
     25          1           0       -4.482012   -3.235943   -0.387330
     26          1           0       -6.167906   -2.757774   -0.157168
     27          1           0       -4.979044   -2.271880    1.057062
     28          1           0        0.004104    1.816951   -2.276008
     29          1           0       -0.646036    3.450212   -2.460957
     30          1           0       -0.451465    2.798319   -0.829611
     31          1           0        1.151445   -1.899962   -1.045162
     32          1           0        3.468114   -1.023937   -1.089487
 ---------------------------------------------------------------------
                    Distance matrix (angstroms):
                    1          2          3          4          5
     1  C    0.000000
     2  O    1.422008   0.000000
     3  C    2.377695   1.367784   0.000000
     4  C    2.835659   2.463384   1.397001   0.000000
     5  C    4.232787   3.713585   2.422489   1.398483   0.000000
     6  C    5.035461   4.155889   2.792963   2.416124   1.393843
     7  O    6.379432   5.526983   4.164147   3.661728   2.382933
     8  C    7.159917   6.290619   4.965352   4.510670   3.284925
     9  N    8.448852   7.577764   6.240182   5.746155   4.446370
    10  C    9.295107   8.426602   7.135036   6.678790   5.443852
    11  O   10.640918   9.768878   8.463415   7.981016   6.699620
    12  C   11.023708  10.151378   8.806779   8.277288   6.928246
    13  N    9.132190   8.286320   7.084365   6.704245   5.622518
    14  C    7.915629   7.087864   5.942805   5.624635   4.689298
    15  O    8.041651   7.276326   6.303040   6.095591   5.406231
    16  C    6.905719   6.194802   5.384143   5.307965   4.920344
    17  N    6.793696   5.946219   4.730136   4.385298   3.411396
    18  C    4.804026   3.627355   2.428674   2.797788   2.420299
    19  C    3.630228   2.328162   1.399072   2.414442   2.786287
    20  H    1.094273   2.042081   3.279787   3.912903   5.304981
    21  H    1.095018   2.084169   2.702620   2.828498   4.165713
    22  H    1.095018   2.084218   2.701907   2.829358   4.166427
    23  H    2.573859   2.779627   2.174430   1.084713   2.134749
    24  H    4.896792   4.611559   3.406340   2.157575   1.086398
    25  H   10.799335   9.836536   8.508784   8.109164   6.795765
    26  H   12.116725  11.243463   9.900257   9.365916   8.011562
    27  H   10.715104   9.948690   8.584826   7.907350   6.520560
    28  H    6.456977   5.576523   4.805350   4.983078   4.696201
    29  H    7.389667   6.756165   6.112022   6.110681   5.871181
    30  H    6.267901   5.727107   4.898521   4.610633   4.263129
    31  H    5.753154   4.482667   3.410486   3.883559   3.406517
    32  H    3.942653   2.523447   2.155040   3.399165   3.873649
                    6          7          8          9         10
     6  C    0.000000
     7  O    1.371763   0.000000
     8  C    2.347719   1.392007   0.000000
     9  N    3.524952   2.286299   1.327655   0.000000
    10  C    4.573486   3.481760   2.227383   1.328004   0.000000
    11  O    5.827976   4.627354   3.510540   2.341496   1.379100
    12  C    6.044719   4.713757   3.934565   2.607690   2.341324
    13  N    4.840120   4.040803   2.649820   2.363232   1.324897
    14  C    3.990036   3.525610   2.230355   2.652519   2.225253
    15  O    4.870705   4.691719   3.512500   4.030588   3.467584
    16  C    4.572056   4.803131   3.931475   4.807472   4.564611
    17  N    2.667219   2.355754   1.329794   2.364927   2.647964
    18  C    1.393299   2.398949   3.130717   4.276516   5.215305
    19  C    2.407525   3.665649   4.393862   5.610684   6.489243
    20  H    6.030206   7.390143   8.150662   9.449199  10.270854
    21  H    5.092625   6.388066   7.015122   8.314644   9.058839
    22  H    5.098091   6.382109   7.314715   8.547938   9.496648
    23  H    3.385448   4.515749   5.331899   6.529525   7.432351
    24  H    2.155310   2.618221   3.419753   4.407298   5.386341
    25  H    5.767973   4.455363   3.848169   2.592498   2.654354
    26  H    7.138204   5.803930   5.016394   3.692559   3.260663
    27  H    5.805305   4.450466   3.849425   2.592163   2.654845
    28  H    4.170902   4.551277   3.840775   4.821671   4.750759
    29  H    5.605890   5.894468   5.013743   5.831693   5.460395
    30  H    4.205153   4.544032   3.846923   4.837714   4.773411
    31  H    2.159122   2.651781   3.160902   4.106827   4.977096
    32  H    3.392835   4.546949   5.182083   6.346029   7.156501
                   11         12         13         14         15
    11  O    0.000000
    12  C    1.421391   0.000000
    13  N    2.271909   3.536581   0.000000
    14  C    3.465533   4.566404   1.324036   0.000000
    15  O    4.545665   5.781405   2.274075   1.379002   0.000000
    16  C    5.778857   6.905216   3.536723   2.339805   1.422212
    17  N    4.025951   4.808402   2.359188   1.326221   2.339026
    18  C    6.468674   6.741955   5.359037   4.436789   5.143359
    19  C    7.783910   8.117755   6.480454   5.411191   5.859581
    20  H   11.625597  12.033132  10.059483   8.816688   8.853621
    21  H   10.414618  10.895554   8.789715   7.545127   7.554450
    22  H   10.803137  11.060331   9.469050   8.319687   8.590914
    23  H    8.715715   9.010336   7.428491   6.348288   6.737800
    24  H    6.557503   6.725724   5.641755   4.838773   5.615005
    25  H    2.086249   1.095627   3.886311   4.765817   6.029550
    26  H    2.041275   1.094379   4.310877   5.460048   6.584913
    27  H    2.086224   1.095623   3.887517   4.766447   6.030420
    28  H    6.011444   7.040739   3.874547   2.648221   2.087361
    29  H    6.584701   7.794016   4.312926   3.259569   2.041769
    30  H    6.039410   7.068459   3.896493   2.657292   2.086896
    31  H    6.140494   6.389374   5.174020   4.402405   5.163071
    32  H    8.423436   8.780779   7.092313   6.031538   6.371568
                   16         17         18         19         20
    16  C    0.000000
    17  N    2.602424   0.000000
    18  C    4.680832   3.210906   0.000000
    19  C    5.082669   4.225570   1.395679   0.000000
    20  H    7.646245   7.732776   5.652037   4.370148   0.000000
    21  H    6.374444   6.512946   5.038912   4.000488   1.767775
    22  H    7.557471   7.126326   5.035004   3.995783   1.767785
    23  H    5.898270   5.172026   3.881963   3.411510   3.655105
    24  H    5.279234   3.668883   3.403947   3.872652   5.990470
    25  H    7.051430   4.833751   6.304911   7.698794  11.778768
    26  H    7.792374   5.831177   7.816396   9.195510  13.126726
    27  H    7.061356   4.832769   6.688283   8.041323  11.758593
    28  H    1.095744   2.590180   3.978215   4.309804   7.149328
    29  H    1.094354   3.687395   5.629605   5.875592   8.030921
    30  H    1.095684   2.583520   4.539660   4.862273   7.067623
    31  H    4.880447   3.339009   1.085833   2.154736   6.524715
    32  H    5.544038   4.951934   2.152476   1.087376   4.447930
                   21         22         23         24         25
    21  H    0.000000
    22  H    1.807150   0.000000
    23  H    2.376441   2.376400   0.000000
    24  H    4.702337   4.701006   2.451081   0.000000
    25  H   10.774765  10.830124   8.922987   6.728940   0.000000
    26  H   11.978790  12.148747  10.084939   7.775310   1.767444
    27  H   10.569284  10.664256   8.551376   6.171619   1.806302
    28  H    6.069806   7.151207   5.706314   5.262400   7.015987
    29  H    6.781225   8.132683   6.615158   6.226134   7.982438
    30  H    5.645860   6.855195   5.067104   4.508913   7.270023
    31  H    6.029205   6.020889   4.967719   4.303592   5.826957
    32  H    4.438907   4.430148   4.314578   4.959998   8.281938
                   26         27         28         29         30
    26  H    0.000000
    27  H    1.767439   0.000000
    28  H    7.969398   7.256697   0.000000
    29  H    8.621925   7.993357   1.767606   0.000000
    30  H    8.000003   7.054461   1.806292   1.767516   0.000000
    31  H    7.422754   6.491576   4.080051   5.818915   4.968866
    32  H    9.835054   8.804517   4.634419   6.230985   5.480901
                   31         32
    31  H    0.000000
    32  H    2.477164   0.000000
 Stoichiometry    C12H13N3O4
 Framework group  C1[X(C12H13N3O4)]
 Deg. of freedom    90
 Full point group                 C1      NOp   1
 Largest Abelian subgroup         C1      NOp   1
 Largest concise Abelian subgroup C1      NOp   1
                         Standard orientation:                         
 ---------------------------------------------------------------------
 Center     Atomic      Atomic             Coordinates (Angstroms)
 Number     Number       Type             X           Y           Z
 ---------------------------------------------------------------------
      1          6           0       -5.835857    0.198995   -0.624769
      2          8           0       -4.972240    0.082831    0.498966
      3          6           0       -3.692117   -0.332917    0.255507
      4          6           0       -3.155657   -0.649847   -0.994844
      5          6           0       -1.823810   -1.062438   -1.103051
      6          6           0       -1.027668   -1.141727    0.038294
      7          8           0        0.265576   -1.582977   -0.082329
      8          6           0        1.255976   -0.605177   -0.055883
      9          7           0        2.495678   -1.080313   -0.048578
     10          6           0        3.434368   -0.141003   -0.036256
     11          8           0        4.764913   -0.503562   -0.025416
     12          6           0        4.967620   -1.910423   -0.026951
     13          7           0        3.225554    1.167332   -0.033121
     14          6           0        1.948052    1.515058   -0.045184
     15          8           0        1.724810    2.875868   -0.042684
     16          6           0        0.344836    3.219082   -0.018917
     17          7           0        0.917262    0.680745   -0.061198
     18          6           0       -1.558367   -0.851051    1.293343
     19          6           0       -2.887948   -0.439092    1.395438
     20          1           0       -6.811554    0.537362   -0.262889
     21          1           0       -5.464921    0.948311   -1.331873
     22          1           0       -5.979955   -0.770109   -1.113786
     23          1           0       -3.745716   -0.589732   -1.903038
     24          1           0       -1.410773   -1.315033   -2.075602
     25          1           0        4.545142   -2.374477    0.871139
     26          1           0        6.046763   -2.092145   -0.017276
     27          1           0        4.562088   -2.370031   -0.935078
     28          1           0       -0.143405    2.844845    0.887848
     29          1           0        0.272935    4.311011   -0.007389
     30          1           0       -0.169516    2.862278   -0.918171
     31          1           0       -0.946873   -0.938698    2.186330
     32          1           0       -3.304699   -0.201983    2.371390
 ---------------------------------------------------------------------
 Rotational constants (GHZ):      0.8079042      0.1835507      0.1594295
 Leave Link  202 at Fri Sep  3 00:07:37 2021, MaxMem=  268435456 cpu:       0.0
 (Enter /sw/target/amd/app/gaussian/Gaussian09RevA.02_gcc-4.9.2/g09/l301.exe)
 Standard basis: 6-31G(d) (6D, 7F)
 Ernie: Thresh=  0.10000D-02 Tol=  0.10000D-05 Strict=F.
 There are   311 symmetry adapted basis functions of A   symmetry.
 Integral buffers will be    131072 words long.
 Raffenetti 2 integral format.
 Two-electron integral symmetry is turned on.
   311 basis functions,   584 primitive gaussians,   311 cartesian basis functions
    69 alpha electrons       69 beta electrons
       nuclear repulsion energy      1402.7071923715 Hartrees.
 IExCor=  402 DFT=T Ex+Corr=B3LYP ExCW=0 ScaHFX=  0.200000
 ScaDFX=  0.800000  0.720000  1.000000  0.810000 ScalE2=  1.000000  1.000000
 IRadAn=      0 IRanWt=     -1 IRanGd=            0 ICorTp=0
 NAtoms=   32 NActive=   32 NUniq=   32 SFac= 7.50D-01 NAtFMM=   80 NAOKFM=F Big=F
 Leave Link  301 at Fri Sep  3 00:07:37 2021, MaxMem=  268435456 cpu:       0.1
 (Enter /sw/target/amd/app/gaussian/Gaussian09RevA.02_gcc-4.9.2/g09/l302.exe)
 NPDir=0 NMtPBC=     1 NCelOv=     1 NCel=       1 NClECP=     1 NCelD=      1
         NCelK=      1 NCelE2=     1 NClLst=     1 CellRange=     0.0.
 One-electron integrals computed using PRISM.
 NBasis=   311 RedAO= T  NBF=   311
 NBsUse=   311 1.00D-06 NBFU=   311
 Precomputing XC quadrature grid using
 IXCGrd= 2 IRadAn=           0 IRanWt=          -1 IRanGd=           0 AccXCQ= 1.00D-10.
 NRdTot=    2046 NPtTot=      260810 NUsed=      275561 NTot=      275593
 NSgBfM=   306   306   306   306   306 NAtAll=    32    32.
 Leave Link  302 at Fri Sep  3 00:07:39 2021, MaxMem=  268435456 cpu:       1.9
 (Enter /sw/target/amd/app/gaussian/Gaussian09RevA.02_gcc-4.9.2/g09/l303.exe)
 DipDrv:  MaxL=1.
 Leave Link  303 at Fri Sep  3 00:07:39 2021, MaxMem=  268435456 cpu:       0.1
 (Enter /sw/target/amd/app/gaussian/Gaussian09RevA.02_gcc-4.9.2/g09/l401.exe)
 Harris functional with IExCor=  402 diagonalized for initial guess.
 ExpMin= 1.61D-01 ExpMax= 5.48D+03 ExpMxC= 8.25D+02 IAcc=1 IRadAn=         1 AccDes= 0.00D+00
 HarFok:  IExCor=  402 AccDes= 0.00D+00 IRadAn=         1 IDoV= 1
 ScaDFX=  1.000000  1.000000  1.000000  1.000000
 FoFCou: FMM=F IPFlag=           0 FMFlag=      100000 FMFlg1=           0
         NFxFlg=           0 DoJE=T BraDBF=F KetDBF=T FulRan=T
         Omega=  0.000000  0.000000  1.000000  0.000000  0.000000 ICntrl=     500 IOpCl=  0
         NMat0=    1 NMatS0=    1 NMatT0=    0 NMatD0=    1 NMtDS0=    0 NMtDT0=    0
         I1Cent=           4 NGrid=           0.
 Petite list used in FoFCou.
 Harris En= -930.302968280763    
 Initial guess orbital symmetries:
       Occupied  (A) (A) (A) (A) (A) (A) (A) (A) (A) (A) (A) (A)
                 (A) (A) (A) (A) (A) (A) (A) (A) (A) (A) (A) (A)
                 (A) (A) (A) (A) (A) (A) (A) (A) (A) (A) (A) (A)
                 (A) (A) (A) (A) (A) (A) (A) (A) (A) (A) (A) (A)
                 (A) (A) (A) (A) (A) (A) (A) (A) (A) (A) (A) (A)
                 (A) (A) (A) (A) (A) (A) (A) (A) (A)
       Virtual   (A) (A) (A) (A) (A) (A) (A) (A) (A) (A) (A) (A)
                 (A) (A) (A) (A) (A) (A) (A) (A) (A) (A) (A) (A)
                 (A) (A) (A) (A) (A) (A) (A) (A) (A) (A) (A) (A)
                 (A) (A) (A) (A) (A) (A) (A) (A) (A) (A) (A) (A)
                 (A) (A) (A) (A) (A) (A) (A) (A) (A) (A) (A) (A)
                 (A) (A) (A) (A) (A) (A) (A) (A) (A) (A) (A) (A)
                 (A) (A) (A) (A) (A) (A) (A) (A) (A) (A) (A) (A)
                 (A) (A) (A) (A) (A) (A) (A) (A) (A) (A) (A) (A)
                 (A) (A) (A) (A) (A) (A) (A) (A) (A) (A) (A) (A)
                 (A) (A) (A) (A) (A) (A) (A) (A) (A) (A) (A) (A)
                 (A) (A) (A) (A) (A) (A) (A) (A) (A) (A) (A) (A)
                 (A) (A) (A) (A) (A) (A) (A) (A) (A) (A) (A) (A)
                 (A) (A) (A) (A) (A) (A) (A) (A) (A) (A) (A) (A)
                 (A) (A) (A) (A) (A) (A) (A) (A) (A) (A) (A) (A)
                 (A) (A) (A) (A) (A) (A) (A) (A) (A) (A) (A) (A)
                 (A) (A) (A) (A) (A) (A) (A) (A) (A) (A) (A) (A)
                 (A) (A) (A) (A) (A) (A) (A) (A) (A) (A) (A) (A)
                 (A) (A) (A) (A) (A) (A) (A) (A) (A) (A) (A) (A)
                 (A) (A) (A) (A) (A) (A) (A) (A) (A) (A) (A) (A)
                 (A) (A) (A) (A) (A) (A) (A) (A) (A) (A) (A) (A)
                 (A) (A)
 The electronic state of the initial guess is 1-A.
 Leave Link  401 at Fri Sep  3 00:07:49 2021, MaxMem=  268435456 cpu:       9.5
 (Enter /sw/target/amd/app/gaussian/Gaussian09RevA.02_gcc-4.9.2/g09/l502.exe)
 Closed shell SCF:
 Requested convergence on RMS density matrix=1.00D-08 within  64 cycles.
 Requested convergence on MAX density matrix=1.00D-06.
 Requested convergence on             energy=1.00D-06.
 No special actions if energy rises.
 Using DIIS extrapolation, IDIIS=  1040.
 Integral symmetry usage will be decided dynamically.
       275260 words used for storage of precomputed grid.
 IEnd=      575170 IEndB=      575170 NGot=   268435456 MDV=   267961543
 LenX=   267961543 LenY=   267864381
 Fock matrices will be formed incrementally for  20 cycles.
 Integral accuracy reduced to 1.0D-05 until final iterations.

 Cycle   1  Pass 0  IDiag  1:
 FoFCou: FMM=F IPFlag=           0 FMFlag=      100000 FMFlg1=           0
         NFxFlg=           0 DoJE=F BraDBF=F KetDBF=F FulRan=T
         Omega=  0.000000  0.000000  1.000000  0.000000  0.000000 ICntrl=       0 IOpCl=  0
         NMat0=    1 NMatS0=    1 NMatT0=    0 NMatD0=    1 NMtDS0=    0 NMtDT0=    0
         I1Cent=           0 NGrid=           0.
 Symmetry not used in FoFCou.
 E= -929.839575028458    
 DIIS: error= 3.82D-02 at cycle   1 NSaved=   1.
 NSaved= 1 IEnMin= 1 EnMin= -929.839575028458     IErMin= 1 ErrMin= 3.82D-02
 ErrMax= 3.82D-02 EMaxC= 1.00D-01 BMatC= 4.39D-01 BMatP= 4.39D-01
 IDIUse=3 WtCom= 6.18D-01 WtEn= 3.82D-01
 Coeff-Com:  0.100D+01
 Coeff-En:   0.100D+01
 Coeff:      0.100D+01
 Gap=     0.244 Goal=   None    Shift=    0.000
 GapD=    0.244 DampG=1.000 DampE=0.500 DampFc=0.5000 IDamp=-1.
 Damping current iteration by 5.00D-01
 RMSDP=4.15D-03 MaxDP=1.73D-01              OVMax= 1.97D-01

 Cycle   2  Pass 0  IDiag  1:
 RMSU=  1.44D-03    CP:  9.82D-01
 E= -930.007752229315     Delta-E=       -0.168177200856 Rises=F Damp=T
 DIIS: error= 7.05D-03 at cycle   2 NSaved=   2.
 NSaved= 2 IEnMin= 2 EnMin= -930.007752229315     IErMin= 2 ErrMin= 7.05D-03
 ErrMax= 7.05D-03 EMaxC= 1.00D-01 BMatC= 3.05D-02 BMatP= 4.39D-01
 IDIUse=3 WtCom= 9.29D-01 WtEn= 7.05D-02
 Coeff-Com:  0.101D+00 0.899D+00
 Coeff-En:   0.160D+00 0.840D+00
 Coeff:      0.105D+00 0.895D+00
 Gap=     0.206 Goal=   None    Shift=    0.000
 RMSDP=9.22D-04 MaxDP=5.00D-02 DE=-1.68D-01 OVMax= 1.65D-01

 Cycle   3  Pass 0  IDiag  1:
 RMSU=  6.43D-04    CP:  9.79D-01  9.33D-01
 E= -930.223808030381     Delta-E=       -0.216055801066 Rises=F Damp=F
 DIIS: error= 4.54D-03 at cycle   3 NSaved=   3.
 NSaved= 3 IEnMin= 3 EnMin= -930.223808030381     IErMin= 3 ErrMin= 4.54D-03
 ErrMax= 4.54D-03 EMaxC= 1.00D-01 BMatC= 1.55D-02 BMatP= 3.05D-02
 IDIUse=3 WtCom= 9.55D-01 WtEn= 4.54D-02
 Coeff-Com:  0.391D-02 0.400D+00 0.596D+00
 Coeff-En:   0.000D+00 0.000D+00 0.100D+01
 Coeff:      0.373D-02 0.382D+00 0.615D+00
 Gap=     0.199 Goal=   None    Shift=    0.000
 RMSDP=5.92D-04 MaxDP=2.90D-02 DE=-2.16D-01 OVMax= 4.83D-02

 Cycle   4  Pass 0  IDiag  1:
 RMSU=  2.89D-04    CP:  9.81D-01  9.58D-01  5.34D-01
 E= -930.233644382490     Delta-E=       -0.009836352109 Rises=F Damp=F
 DIIS: error= 3.35D-03 at cycle   4 NSaved=   4.
 NSaved= 4 IEnMin= 4 EnMin= -930.233644382490     IErMin= 4 ErrMin= 3.35D-03
 ErrMax= 3.35D-03 EMaxC= 1.00D-01 BMatC= 4.73D-03 BMatP= 1.55D-02
 IDIUse=3 WtCom= 9.67D-01 WtEn= 3.35D-02
 Coeff-Com: -0.609D-02 0.118D+00 0.371D+00 0.517D+00
 Coeff-En:   0.000D+00 0.000D+00 0.255D+00 0.745D+00
 Coeff:     -0.589D-02 0.114D+00 0.367D+00 0.525D+00
 Gap=     0.193 Goal=   None    Shift=    0.000
 RMSDP=2.95D-04 MaxDP=1.22D-02 DE=-9.84D-03 OVMax= 2.70D-02

 Cycle   5  Pass 0  IDiag  1:
 RMSU=  9.58D-05    CP:  9.80D-01  9.42D-01  6.84D-01  4.61D-01
 E= -930.237595643054     Delta-E=       -0.003951260564 Rises=F Damp=F
 DIIS: error= 1.73D-03 at cycle   5 NSaved=   5.
 NSaved= 5 IEnMin= 5 EnMin= -930.237595643054     IErMin= 5 ErrMin= 1.73D-03
 ErrMax= 1.73D-03 EMaxC= 1.00D-01 BMatC= 6.76D-04 BMatP= 4.73D-03
 IDIUse=3 WtCom= 9.83D-01 WtEn= 1.73D-02
 Coeff-Com: -0.298D-02 0.238D-01 0.154D+00 0.331D+00 0.494D+00
 Coeff-En:   0.000D+00 0.000D+00 0.000D+00 0.121D+00 0.879D+00
 Coeff:     -0.293D-02 0.234D-01 0.151D+00 0.327D+00 0.501D+00
 Gap=     0.193 Goal=   None    Shift=    0.000
 RMSDP=9.72D-05 MaxDP=3.11D-03 DE=-3.95D-03 OVMax= 8.50D-03

 Cycle   6  Pass 0  IDiag  1:
 RMSU=  2.94D-05    CP:  9.80D-01  9.51D-01  6.69D-01  5.73D-01  4.74D-01
 E= -930.238238046877     Delta-E=       -0.000642403824 Rises=F Damp=F
 DIIS: error= 3.33D-04 at cycle   6 NSaved=   6.
 NSaved= 6 IEnMin= 6 EnMin= -930.238238046877     IErMin= 6 ErrMin= 3.33D-04
 ErrMax= 3.33D-04 EMaxC= 1.00D-01 BMatC= 3.05D-05 BMatP= 6.76D-04
 IDIUse=3 WtCom= 9.97D-01 WtEn= 3.33D-03
 Coeff-Com: -0.995D-03 0.327D-02 0.487D-01 0.126D+00 0.261D+00 0.562D+00
 Coeff-En:   0.000D+00 0.000D+00 0.000D+00 0.000D+00 0.000D+00 0.100D+01
 Coeff:     -0.991D-03 0.326D-02 0.485D-01 0.125D+00 0.261D+00 0.563D+00
 Gap=     0.194 Goal=   None    Shift=    0.000
 RMSDP=2.24D-05 MaxDP=9.11D-04 DE=-6.42D-04 OVMax= 2.44D-03

 Cycle   7  Pass 0  IDiag  1:
 RMSU=  9.38D-06    CP:  9.80D-01  9.50D-01  6.73D-01  5.67D-01  5.40D-01
                    CP:  6.43D-01
 E= -930.238265418541     Delta-E=       -0.000027371664 Rises=F Damp=F
 DIIS: error= 1.01D-04 at cycle   7 NSaved=   7.
 NSaved= 7 IEnMin= 7 EnMin= -930.238265418541     IErMin= 7 ErrMin= 1.01D-04
 ErrMax= 1.01D-04 EMaxC= 1.00D-01 BMatC= 3.21D-06 BMatP= 3.05D-05
 IDIUse=3 WtCom= 9.99D-01 WtEn= 1.01D-03
 Coeff-Com: -0.397D-03 0.172D-03 0.175D-01 0.503D-01 0.120D+00 0.333D+00
 Coeff-Com:  0.479D+00
 Coeff-En:   0.000D+00 0.000D+00 0.000D+00 0.000D+00 0.000D+00 0.186D-01
 Coeff-En:   0.981D+00
 Coeff:     -0.397D-03 0.172D-03 0.175D-01 0.503D-01 0.120D+00 0.333D+00
 Coeff:      0.480D+00
 Gap=     0.194 Goal=   None    Shift=    0.000
 RMSDP=6.83D-06 MaxDP=2.79D-04 DE=-2.74D-05 OVMax= 6.98D-04

 Initial convergence to 1.0D-05 achieved.  Increase integral accuracy.
 Cycle   8  Pass 1  IDiag  1:
 E= -930.238295270299     Delta-E=       -0.000029851758 Rises=F Damp=F
 DIIS: error= 2.83D-05 at cycle   1 NSaved=   1.
 NSaved= 1 IEnMin= 1 EnMin= -930.238295270299     IErMin= 1 ErrMin= 2.83D-05
 ErrMax= 2.83D-05 EMaxC= 1.00D-01 BMatC= 4.11D-07 BMatP= 4.11D-07
 IDIUse=1 WtCom= 1.00D+00 WtEn= 0.00D+00
 Coeff-Com:  0.100D+01
 Coeff:      0.100D+01
 Gap=     0.194 Goal=   None    Shift=    0.000
 RMSDP=6.83D-06 MaxDP=2.79D-04 DE=-2.99D-05 OVMax= 3.86D-04

 Cycle   9  Pass 1  IDiag  1:
 RMSU=  9.47D-06    CP:  1.00D+00
 E= -930.238295231193     Delta-E=        0.000000039106 Rises=F Damp=F
 DIIS: error= 3.93D-05 at cycle   2 NSaved=   2.
 NSaved= 2 IEnMin= 1 EnMin= -930.238295270299     IErMin= 1 ErrMin= 2.83D-05
 ErrMax= 3.93D-05 EMaxC= 1.00D-01 BMatC= 5.14D-07 BMatP= 4.11D-07
 IDIUse=1 WtCom= 1.00D+00 WtEn= 0.00D+00
 Coeff-Com:  0.535D+00 0.465D+00
 Coeff:      0.535D+00 0.465D+00
 Gap=     0.194 Goal=   None    Shift=    0.000
 RMSDP=3.09D-06 MaxDP=1.14D-04 DE= 3.91D-08 OVMax= 3.36D-04

 Cycle  10  Pass 1  IDiag  1:
 RMSU=  2.14D-06    CP:  1.00D+00  9.57D-01
 E= -930.238295651532     Delta-E=       -0.000000420339 Rises=F Damp=F
 DIIS: error= 1.64D-05 at cycle   3 NSaved=   3.
 NSaved= 3 IEnMin= 3 EnMin= -930.238295651532     IErMin= 3 ErrMin= 1.64D-05
 ErrMax= 1.64D-05 EMaxC= 1.00D-01 BMatC= 6.99D-08 BMatP= 4.11D-07
 IDIUse=1 WtCom= 1.00D+00 WtEn= 0.00D+00
 Coeff-Com:  0.362D-01 0.266D+00 0.698D+00
 Coeff:      0.362D-01 0.266D+00 0.698D+00
 Gap=     0.194 Goal=   None    Shift=    0.000
 RMSDP=1.13D-06 MaxDP=4.36D-05 DE=-4.20D-07 OVMax= 1.35D-04

 Cycle  11  Pass 1  IDiag  1:
 RMSU=  4.52D-07    CP:  1.00D+00  9.83D-01  7.14D-01
 E= -930.238295713254     Delta-E=       -0.000000061722 Rises=F Damp=F
 DIIS: error= 4.08D-06 at cycle   4 NSaved=   4.
 NSaved= 4 IEnMin= 4 EnMin= -930.238295713254     IErMin= 4 ErrMin= 4.08D-06
 ErrMax= 4.08D-06 EMaxC= 1.00D-01 BMatC= 1.05D-08 BMatP= 6.99D-08
 IDIUse=1 WtCom= 1.00D+00 WtEn= 0.00D+00
 Coeff-Com: -0.114D-01 0.133D+00 0.429D+00 0.449D+00
 Coeff:     -0.114D-01 0.133D+00 0.429D+00 0.449D+00
 Gap=     0.194 Goal=   None    Shift=    0.000
 RMSDP=3.83D-07 MaxDP=1.49D-05 DE=-6.17D-08 OVMax= 3.33D-05

 Cycle  12  Pass 1  IDiag  1:
 RMSU=  1.17D-07    CP:  1.00D+00  9.83D-01  7.55D-01  4.98D-01
 E= -930.238295723034     Delta-E=       -0.000000009779 Rises=F Damp=F
 DIIS: error= 1.19D-06 at cycle   5 NSaved=   5.
 NSaved= 5 IEnMin= 5 EnMin= -930.238295723034     IErMin= 5 ErrMin= 1.19D-06
 ErrMax= 1.19D-06 EMaxC= 1.00D-01 BMatC= 4.71D-10 BMatP= 1.05D-08
 IDIUse=1 WtCom= 1.00D+00 WtEn= 0.00D+00
 Coeff-Com: -0.844D-02 0.661D-01 0.221D+00 0.265D+00 0.457D+00
 Coeff:     -0.844D-02 0.661D-01 0.221D+00 0.265D+00 0.457D+00
 Gap=     0.194 Goal=   None    Shift=    0.000
 RMSDP=8.42D-08 MaxDP=3.94D-06 DE=-9.78D-09 OVMax= 8.14D-06

 Cycle  13  Pass 1  IDiag  1:
 RMSU=  4.28D-08    CP:  1.00D+00  9.84D-01  7.54D-01  5.15D-01  6.58D-01
 E= -930.238295723439     Delta-E=       -0.000000000405 Rises=F Damp=F
 DIIS: error= 2.55D-07 at cycle   6 NSaved=   6.
 NSaved= 6 IEnMin= 6 EnMin= -930.238295723439     IErMin= 6 ErrMin= 2.55D-07
 ErrMax= 2.55D-07 EMaxC= 1.00D-01 BMatC= 2.57D-11 BMatP= 4.71D-10
 IDIUse=1 WtCom= 1.00D+00 WtEn= 0.00D+00
 Coeff-Com: -0.275D-02 0.174D-01 0.593D-01 0.778D-01 0.232D+00 0.616D+00
 Coeff:     -0.275D-02 0.174D-01 0.593D-01 0.778D-01 0.232D+00 0.616D+00
 Gap=     0.194 Goal=   None    Shift=    0.000
 RMSDP=2.06D-08 MaxDP=1.29D-06 DE=-4.05D-10 OVMax= 2.18D-06

 Cycle  14  Pass 1  IDiag  1:
 RMSU=  9.95D-09    CP:  1.00D+00  9.84D-01  7.54D-01  5.13D-01  7.18D-01
                    CP:  8.18D-01
 E= -930.238295723485     Delta-E=       -0.000000000046 Rises=F Damp=F
 DIIS: error= 7.24D-08 at cycle   7 NSaved=   7.
 NSaved= 7 IEnMin= 7 EnMin= -930.238295723485     IErMin= 7 ErrMin= 7.24D-08
 ErrMax= 7.24D-08 EMaxC= 1.00D-01 BMatC= 3.69D-12 BMatP= 2.57D-11
 IDIUse=1 WtCom= 1.00D+00 WtEn= 0.00D+00
 Coeff-Com: -0.625D-03 0.268D-02 0.937D-02 0.147D-01 0.831D-01 0.346D+00
 Coeff-Com:  0.545D+00
 Coeff:     -0.625D-03 0.268D-02 0.937D-02 0.147D-01 0.831D-01 0.346D+00
 Coeff:      0.545D+00
 Gap=     0.194 Goal=   None    Shift=    0.000
 RMSDP=7.16D-09 MaxDP=3.69D-07 DE=-4.59D-11 OVMax= 5.65D-07

 SCF Done:  E(RB3LYP) =  -930.238295723     A.U. after   14 cycles
             Convg  =    0.7158D-08             -V/T =  2.0092
 KE= 9.217729327654D+02 PE=-4.974267110097D+03 EE= 1.719548689237D+03
 Leave Link  502 at Fri Sep  3 00:14:04 2021, MaxMem=  268435456 cpu:     373.7
 (Enter /sw/target/amd/app/gaussian/Gaussian09RevA.02_gcc-4.9.2/g09/l508.exe)
 QCSCF skips out because SCF is already converged.
 Leave Link  508 at Fri Sep  3 00:14:04 2021, MaxMem=  268435456 cpu:       0.0
 (Enter /sw/target/amd/app/gaussian/Gaussian09RevA.02_gcc-4.9.2/g09/l601.exe)
 Copying SCF densities to generalized density rwf, IOpCl= 0 IROHF=0.

 **********************************************************************

            Population analysis using the SCF density.

 **********************************************************************

 Orbital symmetries:
       Occupied  (A) (A) (A) (A) (A) (A) (A) (A) (A) (A) (A) (A)
                 (A) (A) (A) (A) (A) (A) (A) (A) (A) (A) (A) (A)
                 (A) (A) (A) (A) (A) (A) (A) (A) (A) (A) (A) (A)
                 (A) (A) (A) (A) (A) (A) (A) (A) (A) (A) (A) (A)
                 (A) (A) (A) (A) (A) (A) (A) (A) (A) (A) (A) (A)
                 (A) (A) (A) (A) (A) (A) (A) (A) (A)
       Virtual   (A) (A) (A) (A) (A) (A) (A) (A) (A) (A) (A) (A)
                 (A) (A) (A) (A) (A) (A) (A) (A) (A) (A) (A) (A)
                 (A) (A) (A) (A) (A) (A) (A) (A) (A) (A) (A) (A)
                 (A) (A) (A) (A) (A) (A) (A) (A) (A) (A) (A) (A)
                 (A) (A) (A) (A) (A) (A) (A) (A) (A) (A) (A) (A)
                 (A) (A) (A) (A) (A) (A) (A) (A) (A) (A) (A) (A)
                 (A) (A) (A) (A) (A) (A) (A) (A) (A) (A) (A) (A)
                 (A) (A) (A) (A) (A) (A) (A) (A) (A) (A) (A) (A)
                 (A) (A) (A) (A) (A) (A) (A) (A) (A) (A) (A) (A)
                 (A) (A) (A) (A) (A) (A) (A) (A) (A) (A) (A) (A)
                 (A) (A) (A) (A) (A) (A) (A) (A) (A) (A) (A) (A)
                 (A) (A) (A) (A) (A) (A) (A) (A) (A) (A) (A) (A)
                 (A) (A) (A) (A) (A) (A) (A) (A) (A) (A) (A) (A)
                 (A) (A) (A) (A) (A) (A) (A) (A) (A) (A) (A) (A)
                 (A) (A) (A) (A) (A) (A) (A) (A) (A) (A) (A) (A)
                 (A) (A) (A) (A) (A) (A) (A) (A) (A) (A) (A) (A)
                 (A) (A) (A) (A) (A) (A) (A) (A) (A) (A) (A) (A)
                 (A) (A) (A) (A) (A) (A) (A) (A) (A) (A) (A) (A)
                 (A) (A) (A) (A) (A) (A) (A) (A) (A) (A) (A) (A)
                 (A) (A) (A) (A) (A) (A) (A) (A) (A) (A) (A) (A)
                 (A) (A)
 The electronic state is 1-A.
 Alpha  occ. eigenvalues --  -19.20605 -19.19622 -19.19497 -19.18353 -14.34596
 Alpha  occ. eigenvalues --  -14.34321 -14.33488 -10.33794 -10.32856 -10.32728
 Alpha  occ. eigenvalues --  -10.25317 -10.24627 -10.24580 -10.23705 -10.23569
 Alpha  occ. eigenvalues --  -10.19911 -10.19842 -10.19766 -10.19342  -1.10952
 Alpha  occ. eigenvalues --   -1.09078  -1.08231  -1.06825  -1.00737  -0.90903
 Alpha  occ. eigenvalues --   -0.90629  -0.85539  -0.76437  -0.75573  -0.74043
 Alpha  occ. eigenvalues --   -0.71333  -0.70693  -0.67158  -0.63787  -0.62484
 Alpha  occ. eigenvalues --   -0.60317  -0.58257  -0.56341  -0.53756  -0.51945
 Alpha  occ. eigenvalues --   -0.50761  -0.50291  -0.49381  -0.47577  -0.47359
 Alpha  occ. eigenvalues --   -0.45947  -0.44858  -0.44764  -0.43690  -0.43376
 Alpha  occ. eigenvalues --   -0.42653  -0.42336  -0.40099  -0.39142  -0.38996
 Alpha  occ. eigenvalues --   -0.37845  -0.36744  -0.36600  -0.35637  -0.35373
 Alpha  occ. eigenvalues --   -0.33660  -0.32036  -0.30543  -0.28428  -0.28373
 Alpha  occ. eigenvalues --   -0.27619  -0.27380  -0.25806  -0.22077
 Alpha virt. eigenvalues --   -0.02691  -0.01926  -0.00711   0.00807   0.08405
 Alpha virt. eigenvalues --    0.10154   0.11223   0.11972   0.12482   0.12744
 Alpha virt. eigenvalues --    0.13704   0.14180   0.14294   0.14676   0.14890
 Alpha virt. eigenvalues --    0.15647   0.15917   0.16366   0.16668   0.17531
 Alpha virt. eigenvalues --    0.17711   0.17820   0.19707   0.22599   0.23470
 Alpha virt. eigenvalues --    0.24771   0.26876   0.28333   0.29482   0.30113
 Alpha virt. eigenvalues --    0.31033   0.33155   0.34310   0.35765   0.40016
 Alpha virt. eigenvalues --    0.42456   0.46135   0.48665   0.48919   0.50532
 Alpha virt. eigenvalues --    0.51180   0.51649   0.52450   0.53776   0.53796
 Alpha virt. eigenvalues --    0.54054   0.54662   0.54707   0.55197   0.55485
 Alpha virt. eigenvalues --    0.56932   0.57893   0.58273   0.58539   0.59098
 Alpha virt. eigenvalues --    0.60300   0.60630   0.61056   0.61457   0.63410
 Alpha virt. eigenvalues --    0.63600   0.65108   0.66331   0.66884   0.67971
 Alpha virt. eigenvalues --    0.68346   0.69139   0.70463   0.73967   0.76815
 Alpha virt. eigenvalues --    0.78401   0.79166   0.80598   0.81991   0.82714
 Alpha virt. eigenvalues --    0.83048   0.83517   0.83779   0.85128   0.85667
 Alpha virt. eigenvalues --    0.85895   0.86113   0.86710   0.87318   0.88301
 Alpha virt. eigenvalues --    0.89587   0.91707   0.92102   0.92529   0.93108
 Alpha virt. eigenvalues --    0.93632   0.93905   0.95745   0.96487   0.97668
 Alpha virt. eigenvalues --    0.98860   1.00817   1.01249   1.02072   1.03324
 Alpha virt. eigenvalues --    1.04996   1.05421   1.06556   1.07240   1.09135
 Alpha virt. eigenvalues --    1.12038   1.15145   1.15383   1.15748   1.20227
 Alpha virt. eigenvalues --    1.20788   1.23838   1.25073   1.26819   1.28229
 Alpha virt. eigenvalues --    1.29285   1.32410   1.33627   1.36777   1.37397
 Alpha virt. eigenvalues --    1.38292   1.38996   1.42500   1.44168   1.44445
 Alpha virt. eigenvalues --    1.44877   1.45712   1.47877   1.48513   1.49309
 Alpha virt. eigenvalues --    1.49857   1.50008   1.50696   1.51551   1.52009
 Alpha virt. eigenvalues --    1.54175   1.57955   1.60520   1.62997   1.67116
 Alpha virt. eigenvalues --    1.69090   1.72754   1.75107   1.77525   1.79013
 Alpha virt. eigenvalues --    1.79585   1.81194   1.82270   1.84979   1.85746
 Alpha virt. eigenvalues --    1.86453   1.87586   1.88248   1.92969   1.94847
 Alpha virt. eigenvalues --    1.96373   1.97688   1.98802   1.99464   1.99619
 Alpha virt. eigenvalues --    2.00775   2.02562   2.03969   2.04912   2.06872
 Alpha virt. eigenvalues --    2.08143   2.08337   2.08951   2.10164   2.11659
 Alpha virt. eigenvalues --    2.12007   2.14378   2.15793   2.18443   2.21498
 Alpha virt. eigenvalues --    2.21552   2.23821   2.24194   2.25429   2.26550
 Alpha virt. eigenvalues --    2.28170   2.29196   2.29523   2.31904   2.34484
 Alpha virt. eigenvalues --    2.34759   2.36033   2.42954   2.43824   2.44608
 Alpha virt. eigenvalues --    2.44940   2.47894   2.49558   2.50203   2.51750
 Alpha virt. eigenvalues --    2.52862   2.54689   2.59232   2.60457   2.62907
 Alpha virt. eigenvalues --    2.64693   2.65474   2.67552   2.67978   2.68948
 Alpha virt. eigenvalues --    2.73064   2.73884   2.75396   2.77682   2.78253
 Alpha virt. eigenvalues --    2.82430   2.84579   2.87494   2.95043   2.97331
 Alpha virt. eigenvalues --    2.99316   3.02728   3.18857   3.21452   3.22912
 Alpha virt. eigenvalues --    3.28484   3.43101   3.48198   4.01438   4.03650
 Alpha virt. eigenvalues --    4.04589   4.10504   4.11559   4.12896   4.14555
 Alpha virt. eigenvalues --    4.22198   4.24223   4.26200   4.28882   4.29995
 Alpha virt. eigenvalues --    4.32679   4.36258   4.47412   4.54981   4.68145
 Alpha virt. eigenvalues --    4.71407   4.84370
          Condensed to atoms (all electrons):
              1          2          3          4          5          6
     1  C    4.896865   0.248432  -0.043424  -0.006573   0.000331  -0.000010
     2  O    0.248432   8.199030   0.281792  -0.061907   0.003672   0.000154
     3  C   -0.043424   0.281792   4.508577   0.467436  -0.005782  -0.036217
     4  C   -0.006573  -0.061907   0.467436   5.126631   0.462208  -0.013958
     5  C    0.000331   0.003672  -0.005782   0.462208   4.978857   0.550453
     6  C   -0.000010   0.000154  -0.036217  -0.013958   0.550453   4.530801
     7  O   -0.000000   0.000000   0.000128   0.004591  -0.049196   0.188085
     8  C   -0.000000  -0.000000   0.000049   0.000075  -0.005105  -0.017876
     9  N   -0.000000   0.000000   0.000000   0.000002  -0.000213   0.001004
    10  C    0.000000   0.000000  -0.000000  -0.000000   0.000010   0.000119
    11  O    0.000000   0.000000  -0.000000   0.000000   0.000000  -0.000000
    12  C   -0.000000   0.000000   0.000000   0.000000  -0.000000   0.000000
    13  N   -0.000000  -0.000000   0.000000   0.000000  -0.000004   0.000019
    14  C   -0.000000  -0.000000   0.000000   0.000001  -0.000022   0.000574
    15  O    0.000000   0.000000  -0.000000   0.000000   0.000002   0.000006
    16  C    0.000000   0.000000  -0.000005  -0.000005  -0.000011  -0.000054
    17  N   -0.000000  -0.000000   0.000078  -0.000234   0.002613  -0.000304
    18  C   -0.000127   0.003244  -0.019769  -0.038166  -0.064416   0.528154
    19  C    0.004314  -0.055334   0.540520  -0.064039  -0.035605  -0.013926
    20  H    0.384297  -0.030937   0.003217   0.000163   0.000001  -0.000000
    21  H    0.364081  -0.036020  -0.004908   0.005087  -0.000145  -0.000003
    22  H    0.364419  -0.035941  -0.004825   0.005011  -0.000137  -0.000008
    23  H    0.005719  -0.007115  -0.045320   0.351649  -0.034148   0.003239
    24  H   -0.000006  -0.000041   0.003285  -0.038416   0.349572  -0.035223
    25  H    0.000000   0.000000   0.000000  -0.000000  -0.000000   0.000000
    26  H   -0.000000   0.000000  -0.000000   0.000000  -0.000000   0.000000
    27  H   -0.000000   0.000000   0.000000  -0.000000   0.000000   0.000000
    28  H    0.000000  -0.000000   0.000005  -0.000008  -0.000026   0.000046
    29  H   -0.000000  -0.000000   0.000000  -0.000000   0.000000   0.000000
    30  H   -0.000000  -0.000000   0.000002   0.000032   0.000177   0.000095
    31  H    0.000003  -0.000053   0.004275   0.000022   0.006366  -0.038189
    32  H   -0.000179  -0.000175  -0.035098   0.007246   0.000136   0.003798
              7          8          9         10         11         12
     1  C   -0.000000  -0.000000  -0.000000   0.000000   0.000000  -0.000000
     2  O    0.000000  -0.000000   0.000000   0.000000   0.000000   0.000000
     3  C    0.000128   0.000049   0.000000  -0.000000  -0.000000   0.000000
     4  C    0.004591   0.000075   0.000002  -0.000000   0.000000   0.000000
     5  C   -0.049196  -0.005105  -0.000213   0.000010   0.000000  -0.000000
     6  C    0.188085  -0.017876   0.001004   0.000119  -0.000000   0.000000
     7  O    8.311393   0.291636  -0.079071   0.001187  -0.000011  -0.000018
     8  C    0.291636   4.313604   0.459406  -0.042324   0.001295   0.000639
     9  N   -0.079071   0.459406   6.997681   0.378298  -0.079924  -0.008215
    10  C    0.001187  -0.042324   0.378298   4.333793   0.311769  -0.031501
    11  O   -0.000011   0.001295  -0.079924   0.311769   8.173584   0.227530
    12  C   -0.000018   0.000639  -0.008215  -0.031501   0.227530   4.895898
    13  N   -0.000177  -0.032269  -0.073803   0.457920  -0.079664   0.004676
    14  C    0.001142  -0.040715  -0.031623  -0.046496   0.001819  -0.000142
    15  O   -0.000012   0.000867  -0.000200   0.001932  -0.000006   0.000000
    16  C   -0.000006   0.000715   0.000085  -0.000145   0.000000  -0.000000
    17  N   -0.080320   0.417570  -0.076938  -0.031371  -0.000201   0.000088
    18  C   -0.048992  -0.005621  -0.000233   0.000025   0.000000  -0.000000
    19  C    0.004420  -0.000007  -0.000000  -0.000000   0.000000   0.000000
    20  H   -0.000000  -0.000000  -0.000000  -0.000000   0.000000  -0.000000
    21  H    0.000000   0.000000  -0.000000  -0.000000  -0.000000  -0.000000
    22  H    0.000000  -0.000000   0.000000   0.000000   0.000000   0.000000
    23  H   -0.000066  -0.000007  -0.000000   0.000000  -0.000000  -0.000000
    24  H   -0.002078   0.000395  -0.000083   0.000001  -0.000000  -0.000000
    25  H    0.000001   0.000015   0.006934  -0.007862  -0.031528   0.373723
    26  H   -0.000000  -0.000004   0.000955   0.004177  -0.030525   0.374765
    27  H    0.000002   0.000026   0.006877  -0.007875  -0.031505   0.373794
    28  H   -0.000004  -0.000055  -0.000015   0.000046   0.000000  -0.000000
    29  H   -0.000000  -0.000006   0.000001   0.000003  -0.000000  -0.000000
    30  H   -0.000006  -0.000100  -0.000013   0.000048   0.000000   0.000000
    31  H   -0.003377   0.001343  -0.000188   0.000006  -0.000000  -0.000000
    32  H   -0.000055  -0.000009  -0.000000   0.000000  -0.000000  -0.000000
             13         14         15         16         17         18
     1  C   -0.000000  -0.000000   0.000000   0.000000  -0.000000  -0.000127
     2  O   -0.000000  -0.000000   0.000000   0.000000  -0.000000   0.003244
     3  C    0.000000   0.000000  -0.000000  -0.000005   0.000078  -0.019769
     4  C    0.000000   0.000001   0.000000  -0.000005  -0.000234  -0.038166
     5  C   -0.000004  -0.000022   0.000002  -0.000011   0.002613  -0.064416
     6  C    0.000019   0.000574   0.000006  -0.000054  -0.000304   0.528154
     7  O   -0.000177   0.001142  -0.000012  -0.000006  -0.080320  -0.048992
     8  C   -0.032269  -0.040715   0.000867   0.000715   0.417570  -0.005621
     9  N   -0.073803  -0.031623  -0.000200   0.000085  -0.076938  -0.000233
    10  C    0.457920  -0.046496   0.001932  -0.000145  -0.031371   0.000025
    11  O   -0.079664   0.001819  -0.000006   0.000000  -0.000201   0.000000
    12  C    0.004676  -0.000142   0.000000  -0.000000   0.000088  -0.000000
    13  N    6.890326   0.461769  -0.080617   0.004672  -0.075710  -0.000010
    14  C    0.461769   4.320873   0.309610  -0.031208   0.389020  -0.000053
    15  O   -0.080617   0.309610   8.178451   0.226757  -0.080841   0.000003
    16  C    0.004672  -0.031208   0.226757   4.898176  -0.008186  -0.000067
    17  N   -0.075710   0.389020  -0.080841  -0.008186   7.024242   0.003705
    18  C   -0.000010  -0.000053   0.000003  -0.000067   0.003705   4.968039
    19  C   -0.000000  -0.000001   0.000000  -0.000024  -0.000504   0.497897
    20  H   -0.000000  -0.000000   0.000000   0.000000  -0.000000   0.000003
    21  H    0.000000   0.000000  -0.000000  -0.000000   0.000000  -0.000000
    22  H   -0.000000  -0.000000   0.000000   0.000000  -0.000000   0.000002
    23  H   -0.000000  -0.000000   0.000000   0.000000  -0.000002   0.000606
    24  H    0.000000  -0.000008   0.000000  -0.000000   0.000036   0.006252
    25  H   -0.000123   0.000047   0.000000   0.000000  -0.000010  -0.000000
    26  H   -0.000010   0.000002  -0.000000  -0.000000   0.000001  -0.000000
    27  H   -0.000127   0.000047   0.000000   0.000000  -0.000010  -0.000000
    28  H   -0.000102  -0.007674  -0.031362   0.373234   0.006260   0.000466
    29  H   -0.000011   0.004170  -0.030375   0.374655   0.000922   0.000001
    30  H   -0.000144  -0.008239  -0.031304   0.373546   0.006770  -0.000013
    31  H   -0.000000  -0.000030   0.000000  -0.000003   0.000135   0.351193
    32  H   -0.000000  -0.000000   0.000000  -0.000000  -0.000003  -0.037604
             19         20         21         22         23         24
     1  C    0.004314   0.384297   0.364081   0.364419   0.005719  -0.000006
     2  O   -0.055334  -0.030937  -0.036020  -0.035941  -0.007115  -0.000041
     3  C    0.540520   0.003217  -0.004908  -0.004825  -0.045320   0.003285
     4  C   -0.064039   0.000163   0.005087   0.005011   0.351649  -0.038416
     5  C   -0.035605   0.000001  -0.000145  -0.000137  -0.034148   0.349572
     6  C   -0.013926  -0.000000  -0.000003  -0.000008   0.003239  -0.035223
     7  O    0.004420  -0.000000   0.000000   0.000000  -0.000066  -0.002078
     8  C   -0.000007  -0.000000   0.000000  -0.000000  -0.000007   0.000395
     9  N   -0.000000  -0.000000  -0.000000   0.000000  -0.000000  -0.000083
    10  C   -0.000000  -0.000000  -0.000000   0.000000   0.000000   0.000001
    11  O    0.000000   0.000000  -0.000000   0.000000  -0.000000  -0.000000
    12  C    0.000000  -0.000000  -0.000000   0.000000  -0.000000  -0.000000
    13  N   -0.000000  -0.000000   0.000000  -0.000000  -0.000000   0.000000
    14  C   -0.000001  -0.000000   0.000000  -0.000000  -0.000000  -0.000008
    15  O    0.000000   0.000000  -0.000000   0.000000   0.000000   0.000000
    16  C   -0.000024   0.000000  -0.000000   0.000000   0.000000  -0.000000
    17  N   -0.000504  -0.000000   0.000000  -0.000000  -0.000002   0.000036
    18  C    0.497897   0.000003  -0.000000   0.000002   0.000606   0.006252
    19  C    5.002157  -0.000111   0.000059   0.000055   0.004442   0.000258
    20  H   -0.000111   0.540219  -0.033773  -0.033514  -0.000127  -0.000000
    21  H    0.000059  -0.033773   0.597324  -0.046380   0.001686   0.000001
    22  H    0.000055  -0.033514  -0.046380   0.594952   0.001892   0.000003
    23  H    0.004442  -0.000127   0.001686   0.001892   0.585998  -0.005901
    24  H    0.000258  -0.000000   0.000001   0.000003  -0.005901   0.579440
    25  H   -0.000000  -0.000000   0.000000  -0.000000  -0.000000   0.000000
    26  H    0.000000   0.000000  -0.000000   0.000000  -0.000000  -0.000000
    27  H    0.000000   0.000000  -0.000000   0.000000   0.000000   0.000000
    28  H    0.000148  -0.000000   0.000000  -0.000000  -0.000000  -0.000000
    29  H    0.000000  -0.000000   0.000000  -0.000000  -0.000000  -0.000000
    30  H   -0.000010  -0.000000   0.000000  -0.000000   0.000000   0.000003
    31  H   -0.039154  -0.000000  -0.000000   0.000000   0.000014  -0.000164
    32  H    0.344289  -0.000028   0.000028   0.000029  -0.000166   0.000014
             25         26         27         28         29         30
     1  C    0.000000  -0.000000  -0.000000   0.000000  -0.000000  -0.000000
     2  O    0.000000   0.000000   0.000000  -0.000000  -0.000000  -0.000000
     3  C    0.000000  -0.000000   0.000000   0.000005   0.000000   0.000002
     4  C   -0.000000   0.000000  -0.000000  -0.000008  -0.000000   0.000032
     5  C   -0.000000  -0.000000   0.000000  -0.000026   0.000000   0.000177
     6  C    0.000000   0.000000   0.000000   0.000046   0.000000   0.000095
     7  O    0.000001  -0.000000   0.000002  -0.000004  -0.000000  -0.000006
     8  C    0.000015  -0.000004   0.000026  -0.000055  -0.000006  -0.000100
     9  N    0.006934   0.000955   0.006877  -0.000015   0.000001  -0.000013
    10  C   -0.007862   0.004177  -0.007875   0.000046   0.000003   0.000048
    11  O   -0.031528  -0.030525  -0.031505   0.000000  -0.000000   0.000000
    12  C    0.373723   0.374765   0.373794  -0.000000  -0.000000   0.000000
    13  N   -0.000123  -0.000010  -0.000127  -0.000102  -0.000011  -0.000144
    14  C    0.000047   0.000002   0.000047  -0.007674   0.004170  -0.008239
    15  O    0.000000  -0.000000   0.000000  -0.031362  -0.030375  -0.031304
    16  C    0.000000  -0.000000   0.000000   0.373234   0.374655   0.373546
    17  N   -0.000010   0.000001  -0.000010   0.006260   0.000922   0.006770
    18  C   -0.000000  -0.000000  -0.000000   0.000466   0.000001  -0.000013
    19  C   -0.000000   0.000000   0.000000   0.000148   0.000000  -0.000010
    20  H   -0.000000   0.000000   0.000000  -0.000000  -0.000000  -0.000000
    21  H    0.000000  -0.000000  -0.000000   0.000000   0.000000   0.000000
    22  H   -0.000000   0.000000   0.000000  -0.000000  -0.000000  -0.000000
    23  H   -0.000000  -0.000000   0.000000  -0.000000  -0.000000   0.000000
    24  H    0.000000  -0.000000   0.000000  -0.000000  -0.000000   0.000003
    25  H    0.561631  -0.034358  -0.035769   0.000000   0.000000   0.000000
    26  H   -0.034358   0.555123  -0.034386   0.000000  -0.000000   0.000000
    27  H   -0.035769  -0.034386   0.561479  -0.000000   0.000000   0.000000
    28  H    0.000000   0.000000  -0.000000   0.561086  -0.034168  -0.035861
    29  H    0.000000  -0.000000   0.000000  -0.034168   0.555041  -0.034466
    30  H    0.000000   0.000000   0.000000  -0.035861  -0.034466   0.562244
    31  H    0.000000  -0.000000   0.000000   0.000019  -0.000000   0.000000
    32  H    0.000000  -0.000000  -0.000000   0.000001  -0.000000  -0.000000
             31         32
     1  C    0.000003  -0.000179
     2  O   -0.000053  -0.000175
     3  C    0.004275  -0.035098
     4  C    0.000022   0.007246
     5  C    0.006366   0.000136
     6  C   -0.038189   0.003798
     7  O   -0.003377  -0.000055
     8  C    0.001343  -0.000009
     9  N   -0.000188  -0.000000
    10  C    0.000006   0.000000
    11  O   -0.000000  -0.000000
    12  C   -0.000000  -0.000000
    13  N   -0.000000  -0.000000
    14  C   -0.000030  -0.000000
    15  O    0.000000   0.000000
    16  C   -0.000003  -0.000000
    17  N    0.000135  -0.000003
    18  C    0.351193  -0.037604
    19  C   -0.039154   0.344289
    20  H   -0.000000  -0.000028
    21  H   -0.000000   0.000028
    22  H    0.000000   0.000029
    23  H    0.000014  -0.000166
    24  H   -0.000164   0.000014
    25  H    0.000000   0.000000
    26  H   -0.000000  -0.000000
    27  H    0.000000  -0.000000
    28  H    0.000019   0.000001
    29  H   -0.000000  -0.000000
    30  H    0.000000  -0.000000
    31  H    0.582573  -0.006395
    32  H   -0.006395   0.579528
 Mulliken atomic charges:
              1
     1  C   -0.218142
     2  O   -0.508802
     3  C    0.385982
     4  C   -0.206848
     5  C   -0.159592
     6  C    0.349220
     7  O   -0.539193
     8  C    0.656465
     9  N   -0.500724
    10  C    0.678241
    11  O   -0.462635
    12  C   -0.211238
    13  N   -0.476609
    14  C    0.677136
    15  O   -0.462912
    16  C   -0.212126
    17  N   -0.496806
    18  C   -0.144518
    19  C   -0.189845
    20  H    0.170589
    21  H    0.152962
    22  H    0.154440
    23  H    0.137608
    24  H    0.142661
    25  H    0.167298
    26  H    0.164261
    27  H    0.167447
    28  H    0.167963
    29  H    0.164236
    30  H    0.167238
    31  H    0.141603
    32  H    0.144642
 Sum of Mulliken atomic charges =  -0.00000
 Mulliken charges with hydrogens summed into heavy atoms:
              1
     1  C    0.259848
     2  O   -0.508802
     3  C    0.385982
     4  C   -0.069241
     5  C   -0.016930
     6  C    0.349220
     7  O   -0.539193
     8  C    0.656465
     9  N   -0.500724
    10  C    0.678241
    11  O   -0.462635
    12  C    0.287769
    13  N   -0.476609
    14  C    0.677136
    15  O   -0.462912
    16  C    0.287309
    17  N   -0.496806
    18  C   -0.002915
    19  C   -0.045203
 Sum of Mulliken charges with hydrogens summed into heavy atoms =  -0.00000
 Electronic spatial extent (au):  <R**2>=           6607.3953
 Charge=             -0.0000 electrons
 Dipole moment (field-independent basis, Debye):
    X=             -3.5947    Y=             -0.5363    Z=             -1.0067  Tot=              3.7713
 Quadrupole moment (field-independent basis, Debye-Ang):
   XX=           -100.6878   YY=           -109.0515   ZZ=           -101.5004
   XY=            -14.3682   XZ=              7.2906   YZ=              0.2991
 Traceless Quadrupole moment (field-independent basis, Debye-Ang):
   XX=              3.0587   YY=             -5.3049   ZZ=              2.2462
   XY=            -14.3682   XZ=              7.2906   YZ=              0.2991
 Octapole moment (field-independent basis, Debye-Ang**2):
  XXX=            -85.7370  YYY=             23.9280  ZZZ=              2.6465  XYY=              1.1147
  XXY=            -57.7557  XXZ=            -40.3247  XZZ=             -1.8262  YZZ=             -1.8221
  YYZ=             -1.1416  XYZ=             -0.3945
 Hexadecapole moment (field-independent basis, Debye-Ang**3):
 XXXX=          -6001.4170 YYYY=          -1358.9904 ZZZZ=           -371.6348 XXXY=           -372.4836
 XXXZ=            213.9440 YYYX=            -95.3229 YYYZ=              1.8324 ZZZX=            -10.4685
 ZZZY=              3.5875 XXYY=          -1340.5838 XXZZ=          -1149.1168 YYZZ=           -298.9923
 XXYZ=              1.9182 YYXZ=              3.8881 ZZXY=             -2.2027
 N-N= 1.402707192372D+03 E-N=-4.974267102407D+03  KE= 9.217729327654D+02
 No NMR shielding tensors so no spin-rotation constants.
 Leave Link  601 at Fri Sep  3 00:14:05 2021, MaxMem=  268435456 cpu:       0.6
 (Enter /sw/target/amd/app/gaussian/Gaussian09RevA.02_gcc-4.9.2/g09/l701.exe)
 Compute integral first derivatives.
 ... and contract with generalized density number  0.
 Leave Link  701 at Fri Sep  3 00:14:05 2021, MaxMem=  268435456 cpu:       0.5
 (Enter /sw/target/amd/app/gaussian/Gaussian09RevA.02_gcc-4.9.2/g09/l702.exe)
 L702 exits ... SP integral derivatives will be done elsewhere.
 Leave Link  702 at Fri Sep  3 00:14:05 2021, MaxMem=  268435456 cpu:       0.1
 (Enter /sw/target/amd/app/gaussian/Gaussian09RevA.02_gcc-4.9.2/g09/l703.exe)
 Compute integral first derivatives, UseDBF=F ICtDFT=           0.
 Integral derivatives from FoFDir, PRISM(SPDF).
 Calling FoFJK, ICntrl=      2127 FMM=F ISym2X=0 I1Cent= 0 IOpClX= 0 NMat=1 NMatS=1 NMatT=0.
 FoFCou: FMM=F IPFlag=           0 FMFlag=      100000 FMFlg1=         800
         NFxFlg=           0 DoJE=F BraDBF=F KetDBF=F FulRan=T
         Omega=  0.000000  0.000000  1.000000  0.000000  0.000000 ICntrl=    2127 IOpCl=  0
         NMat0=    1 NMatS0=    1 NMatT0=    0 NMatD0=    1 NMtDS0=    0 NMtDT0=    0
         I1Cent=           0 NGrid=           0.
 Symmetry not used in FoFCou.
 Leave Link  703 at Fri Sep  3 00:16:29 2021, MaxMem=  268435456 cpu:     143.4
 (Enter /sw/target/amd/app/gaussian/Gaussian09RevA.02_gcc-4.9.2/g09/l716.exe)
 Dipole        =-1.41426304D+00-2.10993923D-01-3.96048500D-01
 ***** Axes restored to original set *****
 -------------------------------------------------------------------
 Center     Atomic                   Forces (Hartrees/Bohr)
 Number     Number              X              Y              Z
 -------------------------------------------------------------------
      1        6           0.004734616    0.000097382   -0.002842295
      2        8           0.001241176    0.003858846    0.005443683
      3        6           0.002886954   -0.001853141   -0.005208573
      4        6          -0.001193264    0.001543477    0.005412070
      5        6           0.001916584   -0.000895317   -0.004945189
      6        6           0.018475033    0.007204412    0.006965597
      7        8          -0.038538629    0.009464178   -0.020346150
      8        6           0.008673882   -0.008669766    0.011676594
      9        7           0.003514312   -0.010200697    0.007491681
     10        6          -0.026091601   -0.002775345   -0.006431134
     11        8           0.033588867    0.011617716    0.003707645
     12        6          -0.010442394   -0.012936850    0.005080835
     13        7          -0.008936588    0.006637619   -0.007673864
     14        6          -0.007882520    0.021670778   -0.016957254
     15        8          -0.002804252   -0.030026341    0.018601903
     16        6           0.011547736    0.012306621   -0.004162151
     17        7           0.014413422   -0.003637189    0.006284495
     18        6           0.008019780    0.003708636   -0.000405150
     19        6          -0.007771999   -0.006751059   -0.004640701
     20        1          -0.001476073   -0.002760384   -0.003616508
     21        1          -0.002362346    0.000340140    0.003080735
     22        1          -0.002725701    0.001135926    0.002521586
     23        1           0.001782587   -0.000228091   -0.001029972
     24        1          -0.000594197   -0.000505374   -0.001448347
     25        1           0.002156351    0.002070511    0.003693754
     26        1          -0.000499474    0.005561008   -0.003883719
     27        1           0.004060734   -0.001634919   -0.001847433
     28        1          -0.000293789   -0.000615916    0.004809152
     29        1          -0.006574523   -0.001163627   -0.001300123
     30        1           0.001584205   -0.004450904   -0.000963694
     31        1          -0.001327696    0.000415558    0.000696580
     32        1           0.000918804    0.001472111    0.002235946
 -------------------------------------------------------------------
 Cartesian Forces:  Max     0.038538629 RMS     0.009496326
 Leave Link  716 at Fri Sep  3 00:16:29 2021, MaxMem=  268435456 cpu:       0.1
 (Enter /sw/target/amd/app/gaussian/Gaussian09RevA.02_gcc-4.9.2/g09/l103.exe)

 GradGradGradGradGradGradGradGradGradGradGradGradGradGradGradGradGradGrad
 Berny optimization.
 Internal  Forces:  Max     0.028938925 RMS     0.006013382
 Search for a local minimum.
 Step number   1 out of a maximum of  150
 All quantities printed in internal units (Hartrees-Bohrs-Radians)
 RMS Force = .60134D-02 SwitMx=.10000D-02 MixMth= 1
 Mixed Optimization -- RFO/linear search
 Second derivative matrix not updated -- first step.
     Eigenvalues ---    0.01398   0.01401   0.01409   0.01798   0.01968
     Eigenvalues ---    0.01970   0.02065   0.02112   0.02117   0.02118
     Eigenvalues ---    0.02119   0.02126   0.02134   0.02141   0.02159
     Eigenvalues ---    0.02161   0.02172   0.02409   0.02477   0.02491
     Eigenvalues ---    0.02638   0.02658   0.02686   0.09955   0.09961
     Eigenvalues ---    0.09989   0.10533   0.10536   0.10543   0.16000
     Eigenvalues ---    0.16000   0.16000   0.16000   0.16000   0.16000
     Eigenvalues ---    0.16000   0.16000   0.16000   0.16000   0.16000
     Eigenvalues ---    0.16000   0.16000   0.21997   0.22978   0.23992
     Eigenvalues ---    0.24949   0.24998   0.24999   0.25000   0.25000
     Eigenvalues ---    0.25000   0.25000   0.25000   0.25000   0.25000
     Eigenvalues ---    0.25000   0.25000   0.34157   0.34164   0.34170
[...]
 Alpha virt. eigenvalues --    2.26695   2.27058   2.29680   2.31978   2.34117
 Alpha virt. eigenvalues --    2.35284   2.37435   2.43108   2.43886   2.44475
 Alpha virt. eigenvalues --    2.47462   2.49151   2.51830   2.53316   2.53930
 Alpha virt. eigenvalues --    2.55280   2.58058   2.59023   2.62394   2.63316
 Alpha virt. eigenvalues --    2.63910   2.65428   2.67485   2.68340   2.70522
 Alpha virt. eigenvalues --    2.72670   2.74106   2.75383   2.77305   2.78170
 Alpha virt. eigenvalues --    2.82778   2.84592   2.88950   2.94912   2.97028
 Alpha virt. eigenvalues --    2.98705   3.02524   3.19152   3.25024   3.26638
 Alpha virt. eigenvalues --    3.30472   3.43204   3.46797   4.01774   4.04314
 Alpha virt. eigenvalues --    4.04416   4.10450   4.11609   4.13805   4.15908
 Alpha virt. eigenvalues --    4.22297   4.23820   4.25199   4.29054   4.31738
 Alpha virt. eigenvalues --    4.33242   4.35555   4.47549   4.55514   4.70892
 Alpha virt. eigenvalues --    4.75203   4.84833
          Condensed to atoms (all electrons):
              1          2          3          4          5          6
     1  C    4.895028   0.248816  -0.043171  -0.006664   0.000340  -0.000011
     2  O    0.248816   8.197255   0.282567  -0.061568   0.003932   0.000145
     3  C   -0.043171   0.282567   4.504612   0.471948  -0.004756  -0.036305
     4  C   -0.006664  -0.061568   0.471948   5.127542   0.460120  -0.014814
     5  C    0.000340   0.003932  -0.004756   0.460120   4.976281   0.553617
     6  C   -0.000011   0.000145  -0.036305  -0.014814   0.553617   4.527303
     7  O   -0.000000   0.000000   0.000095   0.004311  -0.047824   0.184158
     8  C   -0.000000  -0.000000   0.000040   0.000016  -0.002701  -0.015051
     9  N   -0.000000   0.000000   0.000000   0.000002  -0.000220   0.001252
    10  C    0.000000  -0.000000  -0.000000  -0.000000   0.000008   0.000084
    11  O   -0.000000  -0.000000  -0.000000   0.000000  -0.000000  -0.000000
    12  C   -0.000000   0.000000   0.000000   0.000000  -0.000000   0.000000
    13  N   -0.000000  -0.000000   0.000000   0.000000  -0.000003   0.000022
    14  C   -0.000000  -0.000000   0.000000   0.000001  -0.000041   0.000511
    15  O    0.000000   0.000000  -0.000000  -0.000000   0.000002   0.000002
    16  C    0.000000   0.000000  -0.000001  -0.000001  -0.000005  -0.000055
    17  N   -0.000000  -0.000000   0.000049  -0.000141   0.001218   0.001659
    18  C   -0.000115   0.003193  -0.018217  -0.039347  -0.063419   0.526520
    19  C    0.004172  -0.054160   0.536501  -0.063711  -0.036592  -0.014631
    20  H    0.386662  -0.033357   0.003208   0.000219   0.000002  -0.000000
    21  H    0.362526  -0.035547  -0.004531   0.004834  -0.000164  -0.000002
    22  H    0.362905  -0.035491  -0.004419   0.004753  -0.000171  -0.000007
    23  H    0.006084  -0.007719  -0.044707   0.352237  -0.034548   0.003161
    24  H   -0.000006  -0.000042   0.003216  -0.038450   0.348930  -0.035047
    25  H    0.000000   0.000000   0.000000   0.000000  -0.000000   0.000000
    26  H   -0.000000   0.000000   0.000000   0.000000  -0.000000   0.000000
    27  H   -0.000000  -0.000000  -0.000000  -0.000000   0.000000  -0.000000
    28  H    0.000000  -0.000000   0.000001  -0.000003  -0.000009   0.000040
    29  H   -0.000000  -0.000000   0.000000  -0.000000  -0.000000   0.000000
    30  H    0.000000  -0.000000   0.000000   0.000004   0.000068   0.000096
    31  H    0.000003  -0.000050   0.004169   0.000043   0.006481  -0.036526
    32  H   -0.000215   0.000128  -0.035274   0.007393   0.000093   0.003738
              7          8          9         10         11         12
     1  C   -0.000000  -0.000000  -0.000000   0.000000  -0.000000  -0.000000
     2  O    0.000000  -0.000000   0.000000  -0.000000  -0.000000   0.000000
     3  C    0.000095   0.000040   0.000000  -0.000000  -0.000000   0.000000
     4  C    0.004311   0.000016   0.000002  -0.000000   0.000000   0.000000
     5  C   -0.047824  -0.002701  -0.000220   0.000008  -0.000000  -0.000000
     6  C    0.184158  -0.015051   0.001252   0.000084  -0.000000   0.000000
     7  O    8.302841   0.304828  -0.085771   0.001261  -0.000014  -0.000022
     8  C    0.304828   4.287831   0.455098  -0.042512   0.001516   0.000620
     9  N   -0.085771   0.455098   7.028697   0.382874  -0.084858  -0.006477
    10  C    0.001261  -0.042512   0.382874   4.315901   0.330015  -0.030236
    11  O   -0.000014   0.001516  -0.084858   0.330015   8.160669   0.225760
    12  C   -0.000022   0.000620  -0.006477  -0.030236   0.225760   4.893430
    13  N   -0.000199  -0.030584  -0.074034   0.445522  -0.083878   0.004846
    14  C    0.001309  -0.041322  -0.030203  -0.045702   0.001745  -0.000164
    15  O   -0.000018   0.000964  -0.000186   0.001892  -0.000005   0.000000
    16  C   -0.000010   0.000695   0.000079  -0.000168   0.000000  -0.000000
    17  N   -0.084832   0.420435  -0.079142  -0.029617  -0.000185   0.000082
    18  C   -0.044559  -0.004821  -0.000168   0.000022   0.000000  -0.000000
    19  C    0.004256  -0.000015   0.000001  -0.000000   0.000000   0.000000
    20  H   -0.000000  -0.000000  -0.000000  -0.000000   0.000000  -0.000000
    21  H    0.000000   0.000000  -0.000000  -0.000000  -0.000000  -0.000000
    22  H    0.000000  -0.000000   0.000000   0.000000   0.000000   0.000000
    23  H   -0.000058  -0.000004  -0.000000   0.000000  -0.000000  -0.000000
    24  H   -0.002074   0.000464  -0.000105   0.000002  -0.000000  -0.000000
    25  H    0.000001  -0.000047   0.007139  -0.005775  -0.030348   0.371893
    26  H   -0.000000  -0.000003   0.000917   0.003698  -0.033205   0.378434
    27  H    0.000000  -0.000026   0.007172  -0.005795  -0.030372   0.371797
    28  H   -0.000004  -0.000116  -0.000011   0.000046   0.000000   0.000000
    29  H   -0.000000  -0.000004   0.000001   0.000002  -0.000000  -0.000000
    30  H   -0.000005  -0.000106  -0.000011   0.000047   0.000000   0.000000
    31  H   -0.003911   0.001532  -0.000167   0.000005  -0.000000  -0.000000
    32  H   -0.000047  -0.000007  -0.000000   0.000000  -0.000000  -0.000000
             13         14         15         16         17         18
     1  C   -0.000000  -0.000000   0.000000   0.000000  -0.000000  -0.000115
     2  O   -0.000000  -0.000000   0.000000   0.000000  -0.000000   0.003193
     3  C    0.000000   0.000000  -0.000000  -0.000001   0.000049  -0.018217
     4  C    0.000000   0.000001  -0.000000  -0.000001  -0.000141  -0.039347
     5  C   -0.000003  -0.000041   0.000002  -0.000005   0.001218  -0.063419
     6  C    0.000022   0.000511   0.000002  -0.000055   0.001659   0.526520
     7  O   -0.000199   0.001309  -0.000018  -0.000010  -0.084832  -0.044559
     8  C   -0.030584  -0.041322   0.000964   0.000695   0.420435  -0.004821
     9  N   -0.074034  -0.030203  -0.000186   0.000079  -0.079142  -0.000168
    10  C    0.445522  -0.045702   0.001892  -0.000168  -0.029617   0.000022
    11  O   -0.083878   0.001745  -0.000005   0.000000  -0.000185   0.000000
    12  C    0.004846  -0.000164   0.000000  -0.000000   0.000082  -0.000000
    13  N    6.930580   0.452679  -0.085096   0.004829  -0.076164  -0.000006
    14  C    0.452679   4.304942   0.327131  -0.029962   0.389342  -0.000039
    15  O   -0.085096   0.327131   8.165765   0.225435  -0.085298   0.000002
    16  C    0.004829  -0.029962   0.225435   4.894233  -0.006400  -0.000050
    17  N   -0.076164   0.389342  -0.085298  -0.006400   7.057345   0.003756
    18  C   -0.000006  -0.000039   0.000002  -0.000050   0.003756   4.957697
    19  C   -0.000000   0.000003   0.000000  -0.000012  -0.000373   0.501944
    20  H   -0.000000  -0.000000   0.000000   0.000000  -0.000000   0.000004
    21  H    0.000000   0.000000  -0.000000  -0.000000   0.000000  -0.000001
    22  H   -0.000000  -0.000000   0.000000   0.000000  -0.000000  -0.000001
    23  H   -0.000000  -0.000000  -0.000000  -0.000000  -0.000001   0.000572
    24  H   -0.000000  -0.000006   0.000000   0.000000   0.000059   0.006349
    25  H   -0.000134   0.000047   0.000000   0.000000  -0.000008  -0.000000
    26  H   -0.000003   0.000002  -0.000000  -0.000000   0.000001  -0.000000
    27  H   -0.000134   0.000047   0.000000   0.000000  -0.000007   0.000000
    28  H   -0.000132  -0.005783  -0.030209   0.371268   0.006730   0.000368
    29  H   -0.000003   0.003672  -0.033104   0.378701   0.000869   0.000001
    30  H   -0.000135  -0.005842  -0.030344   0.371660   0.006857  -0.000001
    31  H   -0.000000  -0.000052   0.000000  -0.000005   0.000338   0.351627
    32  H   -0.000000  -0.000000   0.000000   0.000000  -0.000003  -0.038117
             19         20         21         22         23         24
     1  C    0.004172   0.386662   0.362526   0.362905   0.006084  -0.000006
     2  O   -0.054160  -0.033357  -0.035547  -0.035491  -0.007719  -0.000042
     3  C    0.536501   0.003208  -0.004531  -0.004419  -0.044707   0.003216
     4  C   -0.063711   0.000219   0.004834   0.004753   0.352237  -0.038450
     5  C   -0.036592   0.000002  -0.000164  -0.000171  -0.034548   0.348930
     6  C   -0.014631  -0.000000  -0.000002  -0.000007   0.003161  -0.035047
     7  O    0.004256  -0.000000   0.000000   0.000000  -0.000058  -0.002074
     8  C   -0.000015  -0.000000   0.000000  -0.000000  -0.000004   0.000464
     9  N    0.000001  -0.000000  -0.000000   0.000000  -0.000000  -0.000105
    10  C   -0.000000  -0.000000  -0.000000   0.000000   0.000000   0.000002
    11  O    0.000000   0.000000  -0.000000   0.000000  -0.000000  -0.000000
    12  C    0.000000  -0.000000  -0.000000   0.000000  -0.000000  -0.000000
    13  N   -0.000000  -0.000000   0.000000  -0.000000  -0.000000  -0.000000
    14  C    0.000003  -0.000000   0.000000  -0.000000  -0.000000  -0.000006
    15  O    0.000000   0.000000  -0.000000   0.000000  -0.000000   0.000000
    16  C   -0.000012   0.000000  -0.000000   0.000000  -0.000000   0.000000
    17  N   -0.000373  -0.000000   0.000000  -0.000000  -0.000001   0.000059
    18  C    0.501944   0.000004  -0.000001  -0.000001   0.000572   0.006349
    19  C    5.001339  -0.000109   0.000040   0.000032   0.004530   0.000281
    20  H   -0.000109   0.534338  -0.031635  -0.031451  -0.000118  -0.000000
    21  H    0.000040  -0.031635   0.599961  -0.049637   0.001810   0.000002
    22  H    0.000032  -0.031451  -0.049637   0.598006   0.001903   0.000003
    23  H    0.004530  -0.000118   0.001810   0.001903   0.584522  -0.005656
    24  H    0.000281  -0.000000   0.000002   0.000003  -0.005656   0.577293
    25  H   -0.000000  -0.000000   0.000000  -0.000000  -0.000000   0.000000
    26  H    0.000000   0.000000  -0.000000   0.000000  -0.000000  -0.000000
    27  H    0.000000   0.000000  -0.000000   0.000000   0.000000   0.000000
    28  H    0.000061  -0.000000   0.000000  -0.000000  -0.000000  -0.000000
    29  H    0.000000  -0.000000   0.000000  -0.000000  -0.000000  -0.000000
    30  H   -0.000004  -0.000000  -0.000000   0.000000   0.000000   0.000000
    31  H   -0.040474  -0.000000  -0.000000  -0.000000   0.000014  -0.000173
    32  H    0.344362  -0.000031   0.000030   0.000030  -0.000169   0.000014
             25         26         27         28         29         30
     1  C    0.000000  -0.000000  -0.000000   0.000000  -0.000000   0.000000
     2  O    0.000000   0.000000  -0.000000  -0.000000  -0.000000  -0.000000
     3  C    0.000000   0.000000  -0.000000   0.000001   0.000000   0.000000
     4  C    0.000000   0.000000  -0.000000  -0.000003  -0.000000   0.000004
     5  C   -0.000000  -0.000000   0.000000  -0.000009  -0.000000   0.000068
     6  C    0.000000   0.000000  -0.000000   0.000040   0.000000   0.000096
     7  O    0.000001  -0.000000   0.000000  -0.000004  -0.000000  -0.000005
     8  C   -0.000047  -0.000003  -0.000026  -0.000116  -0.000004  -0.000106
     9  N    0.007139   0.000917   0.007172  -0.000011   0.000001  -0.000011
    10  C   -0.005775   0.003698  -0.005795   0.000046   0.000002   0.000047
    11  O   -0.030348  -0.033205  -0.030372   0.000000  -0.000000   0.000000
    12  C    0.371893   0.378434   0.371797   0.000000  -0.000000   0.000000
    13  N   -0.000134  -0.000003  -0.000134  -0.000132  -0.000003  -0.000135
    14  C    0.000047   0.000002   0.000047  -0.005783   0.003672  -0.005842
    15  O    0.000000  -0.000000   0.000000  -0.030209  -0.033104  -0.030344
    16  C    0.000000  -0.000000   0.000000   0.371268   0.378701   0.371660
    17  N   -0.000008   0.000001  -0.000007   0.006730   0.000869   0.006857
    18  C   -0.000000  -0.000000   0.000000   0.000368   0.000001  -0.000001
    19  C   -0.000000   0.000000   0.000000   0.000061   0.000000  -0.000004
    20  H   -0.000000   0.000000   0.000000  -0.000000  -0.000000  -0.000000
    21  H    0.000000  -0.000000  -0.000000   0.000000   0.000000  -0.000000
    22  H   -0.000000   0.000000   0.000000  -0.000000  -0.000000   0.000000
    23  H   -0.000000  -0.000000   0.000000  -0.000000  -0.000000   0.000000
    24  H    0.000000  -0.000000   0.000000  -0.000000  -0.000000   0.000000
    25  H    0.553698  -0.031012  -0.037320  -0.000000  -0.000000   0.000000
    26  H   -0.031012   0.543900  -0.031024  -0.000000  -0.000000  -0.000000
    27  H   -0.037320  -0.031024   0.554119   0.000000  -0.000000  -0.000000
    28  H   -0.000000  -0.000000   0.000000   0.554750  -0.030914  -0.037569
    29  H   -0.000000  -0.000000  -0.000000  -0.030914   0.543037  -0.031061
    30  H    0.000000  -0.000000  -0.000000  -0.037569  -0.031061   0.555277
    31  H   -0.000000  -0.000000   0.000000   0.000040  -0.000000  -0.000000
    32  H    0.000000  -0.000000  -0.000000   0.000000  -0.000000  -0.000000
             31         32
     1  C    0.000003  -0.000215
     2  O   -0.000050   0.000128
     3  C    0.004169  -0.035274
     4  C    0.000043   0.007393
     5  C    0.006481   0.000093
     6  C   -0.036526   0.003738
     7  O   -0.003911  -0.000047
     8  C    0.001532  -0.000007
     9  N   -0.000167  -0.000000
    10  C    0.000005   0.000000
    11  O   -0.000000  -0.000000
    12  C   -0.000000  -0.000000
    13  N   -0.000000  -0.000000
    14  C   -0.000052  -0.000000
    15  O    0.000000   0.000000
    16  C   -0.000005   0.000000
    17  N    0.000338  -0.000003
    18  C    0.351627  -0.038117
    19  C   -0.040474   0.344362
    20  H   -0.000000  -0.000031
    21  H   -0.000000   0.000030
    22  H   -0.000000   0.000030
    23  H    0.000014  -0.000169
    24  H   -0.000173   0.000014
    25  H   -0.000000   0.000000
    26  H   -0.000000  -0.000000
    27  H    0.000000  -0.000000
    28  H    0.000040   0.000000
    29  H   -0.000000  -0.000000
    30  H   -0.000000  -0.000000
    31  H    0.578997  -0.006215
    32  H   -0.006215   0.578801
 Mulliken atomic charges:
              1
     1  C   -0.216353
     2  O   -0.508100
     3  C    0.384973
     4  C   -0.208725
     5  C   -0.160638
     6  C    0.350139
     7  O   -0.533712
     8  C    0.663282
     9  N   -0.521882
    10  C    0.678427
    11  O   -0.456840
    12  C   -0.209963
    13  N   -0.487974
    14  C    0.677685
    15  O   -0.456933
    16  C   -0.210233
    17  N   -0.526570
    18  C   -0.143194
    19  C   -0.187440
    20  H    0.172268
    21  H    0.152315
    22  H    0.153545
    23  H    0.138147
    24  H    0.144946
    25  H    0.171865
    26  H    0.168293
    27  H    0.171544
    28  H    0.171444
    29  H    0.168803
    30  H    0.171068
    31  H    0.144325
    32  H    0.145488
 Sum of Mulliken atomic charges =  -0.00000
 Mulliken charges with hydrogens summed into heavy atoms:
              1
     1  C    0.261776
     2  O   -0.508100
     3  C    0.384973
     4  C   -0.070578
     5  C   -0.015692
     6  C    0.350139
     7  O   -0.533712
     8  C    0.663282
     9  N   -0.521882
    10  C    0.678427
    11  O   -0.456840
    12  C    0.301738
    13  N   -0.487974
    14  C    0.677685
    15  O   -0.456933
    16  C    0.301082
    17  N   -0.526570
    18  C    0.001132
    19  C   -0.041952
 Sum of Mulliken charges with hydrogens summed into heavy atoms =  -0.00000
 Electronic spatial extent (au):  <R**2>=           6767.3418
 Charge=             -0.0000 electrons
 Dipole moment (field-independent basis, Debye):
    X=             -3.7115    Y=             -0.5055    Z=             -1.0088  Tot=              3.8792
 Quadrupole moment (field-independent basis, Debye-Ang):
   XX=           -100.0253   YY=           -105.8089   ZZ=           -101.4806
   XY=            -13.1333   XZ=              7.8580   YZ=              1.6404
 Traceless Quadrupole moment (field-independent basis, Debye-Ang):
   XX=              2.4130   YY=             -3.3707   ZZ=              0.9577
   XY=            -13.1333   XZ=              7.8580   YZ=              1.6404
 Octapole moment (field-independent basis, Debye-Ang**2):
  XXX=            -89.9247  YYY=             28.8575  ZZZ=              2.8446  XYY=             10.3419
  XXY=            -69.8060  XXZ=            -39.1379  XZZ=             -3.4098  YZZ=             -0.9180
  YYZ=             -3.3448  XYZ=             -1.4113
 Hexadecapole moment (field-independent basis, Debye-Ang**3):
 XXXX=          -6134.0663 YYYY=          -1333.8134 ZZZZ=           -372.5276 XXXY=           -357.0090
 XXXZ=            239.1811 YYYX=            -84.7927 YYYZ=              0.5310 ZZZX=             -9.1822
 ZZZY=              6.4577 XXYY=          -1356.8046 XXZZ=          -1171.0027 YYZZ=           -302.9233
 XXYZ=             15.6037 YYXZ=              5.2531 ZZXY=             -4.4892
 N-N= 1.397272566130D+03 E-N=-4.963725381101D+03  KE= 9.218748761922D+02
 No NMR shielding tensors so no spin-rotation constants.
 Leave Link  601 at Fri Sep  3 01:54:01 2021, MaxMem=  268435456 cpu:       0.6
 (Enter /sw/target/amd/app/gaussian/Gaussian09RevA.02_gcc-4.9.2/g09/l9999.exe)
 1\1\GINC-HERMITE\FOpt\RB3LYP\6-31G(d)\C12H13N3O4\JSCHLEINITZ\03-Sep-20
 21\0\\#p b3lyp 6-31G* opt scf(xqc,tight)\\opt calculation\\0,1\C,5.186
 7500049,1.1696680956,1.8599888127\O,4.6577941137,0.4493681052,0.758476
 4704\C,3.3500854304,0.0601709438,0.8097158263\C,2.4811327968,0.3236332
 914,1.8745855743\C,1.157624676,-0.1244449767,1.8162171083\C,0.71267783
 53,-0.8260669128,0.7057619331\O,-0.5869822945,-1.3499060633,0.71538676
 22\C,-1.5578933358,-0.7429615638,0.0070533285\N,-2.7396979612,-1.35396
 74762,0.0810435724\C,-3.6972603678,-0.7383729938,-0.6233348576\O,-4.92
 57825815,-1.2559707878,-0.6250860778\C,-5.1452248545,-2.4514602755,0.1
 369466369\N,-3.566020107,0.3727546123,-1.3521303947\C,-2.331005007,0.8
 689920561,-1.3318102508\O,-2.1649618884,1.9801319446,-2.0498971233\C,-
 0.8578995782,2.5712573367,-2.0701205379\N,-1.2754844218,0.3653828553,-
 0.6734363759\C,1.5732724823,-1.1020276223,-0.3572048838\C,2.8872774048
 ,-0.6569682083,-0.3051358238\H,6.2293205032,1.3749890865,1.6106112282\
 H,4.6572376483,2.1194902467,2.0136000164\H,5.1451071805,0.5803899337,2
 .7857508728\H,2.8159232231,0.8691257407,2.7490983994\H,0.4738590831,0.
 0669253722,2.6371559093\H,-4.5160681731,-3.2676387105,-0.227666484\H,-
 6.2003140779,-2.6868252325,-0.0078576421\H,-4.9308238559,-2.2840894605
 ,1.1957038077\H,-0.1206979081,1.8764846487,-2.4808663588\H,-0.95647414
 7,3.4483443745,-2.7108516098\H,-0.5462151542,2.8639277142,-1.064018366
 1\H,1.2112750017,-1.6633855136,-1.212478679\H,3.5794683296,-0.85695256
 09,-1.1167517936\\Version=AM64L-G09RevA.02\State=1-A\HF=-930.2475604\R
 MSD=2.962e-09\RMSF=4.437e-06\Dipole=1.2971417,0.2716555,0.7568955\Quad
 rupole=-0.8238278,0.6412812,0.1825466,10.9683543,-1.4500739,3.6046047\
 PG=C01 [X(C12H13N3O4)]\\@


 Sometimes the fool who rushes in gets the job done.
                                    -- Al Bernstein
 Job cpu time:  0 days  1 hours 45 minutes 52.6 seconds.
 File lengths (MBytes):  RWF=     68 Int=      0 D2E=      0 Chk=      7 Scr=      1
 Normal termination of Gaussian 09 at Fri Sep  3 01:54:01 2021.
