 Entering Gaussian System, Link 0=g09
 Input=mol_inp026.com
 Output=mol_inp026.log
 Initial command:
 /sw/target/amd/app/gaussian/Gaussian09RevA.02_gcc-4.9.2/g09/l1.exe /home/jschleinitz/optim_react/026/Gau-2804233.inp -scrdir=/home/jschleinitz/optim_react/026/
 Entering Link 1 = /sw/target/amd/app/gaussian/Gaussian09RevA.02_gcc-4.9.2/g09/l1.exe PID=   2804235.
  
 Copyright (c) 1988,1990,1992,1993,1995,1998,2003,2009, Gaussian, Inc.
                  All Rights Reserved.
  
 This is part of the Gaussian(R) 09 program.  It is based on
 the Gaussian(R) 03 system (copyright 2003, Gaussian, Inc.),
 the Gaussian(R) 98 system (copyright 1998, Gaussian, Inc.),
 the Gaussian(R) 94 system (copyright 1995, Gaussian, Inc.),
 the Gaussian 92(TM) system (copyright 1992, Gaussian, Inc.),
 the Gaussian 90(TM) system (copyright 1990, Gaussian, Inc.),
 the Gaussian 88(TM) system (copyright 1988, Gaussian, Inc.),
 the Gaussian 86(TM) system (copyright 1986, Carnegie Mellon
 University), and the Gaussian 82(TM) system (copyright 1983,
 Carnegie Mellon University). Gaussian is a federally registered
 trademark of Gaussian, Inc.
  
 This software contains proprietary and confidential information,
 including trade secrets, belonging to Gaussian, Inc.
  
 This software is provided under written license and may be
 used, copied, transmitted, or stored only in accord with that
 written license.
  
 The following legend is applicable only to US Government
 contracts under FAR:
  
                    RESTRICTED RIGHTS LEGEND
  
 Use, reproduction and disclosure by the US Government is
 subject to restrictions as set forth in subparagraphs (a)
 and (c) of the Commercial Computer Software - Restricted
 Rights clause in FAR 52.227-19.
  
 Gaussian, Inc.
 340 Quinnipiac St., Bldg. 40, Wallingford CT 06492
  
  
 ---------------------------------------------------------------
 Warning -- This program may not be used in any manner that
 competes with the business of Gaussian, Inc. or will provide
 assistance to any competitor of Gaussian, Inc.  The licensee
 of this program is prohibited from giving any competitor of
 Gaussian, Inc. access to this program.  By using this program,
 the user acknowledges that Gaussian, Inc. is engaged in the
 business of creating and licensing software in the field of
 computational chemistry and represents and warrants to the
 licensee that it is not a competitor of Gaussian, Inc. and that
 it will not use this program in any manner prohibited above.
 ---------------------------------------------------------------
  

 Cite this work as:
 Gaussian 09, Revision A.02,
 M. J. Frisch, G. W. Trucks, H. B. Schlegel, G. E. Scuseria, 
 M. A. Robb, J. R. Cheeseman, G. Scalmani, V. Barone, B. Mennucci, 
 G. A. Petersson, H. Nakatsuji, M. Caricato, X. Li, H. P. Hratchian, 
 A. F. Izmaylov, J. Bloino, G. Zheng, J. L. Sonnenberg, M. Hada, 
 M. Ehara, K. Toyota, R. Fukuda, J. Hasegawa, M. Ishida, T. Nakajima, 
 Y. Honda, O. Kitao, H. Nakai, T. Vreven, J. A. Montgomery, Jr., 
 J. E. Peralta, F. Ogliaro, M. Bearpark, J. J. Heyd, E. Brothers, 
 K. N. Kudin, V. N. Staroverov, R. Kobayashi, J. Normand, 
 K. Raghavachari, A. Rendell, J. C. Burant, S. S. Iyengar, J. Tomasi, 
 M. Cossi, N. Rega, J. M. Millam, M. Klene, J. E. Knox, J. B. Cross, 
 V. Bakken, C. Adamo, J. Jaramillo, R. Gomperts, R. E. Stratmann, 
 O. Yazyev, A. J. Austin, R. Cammi, C. Pomelli, J. W. Ochterski, 
 R. L. Martin, K. Morokuma, V. G. Zakrzewski, G. A. Voth, 
 P. Salvador, J. J. Dannenberg, S. Dapprich, A. D. Daniels, 
 O. Farkas, J. B. Foresman, J. V. Ortiz, J. Cioslowski, 
 and D. J. Fox, Gaussian, Inc., Wallingford CT, 2009.
 
 ******************************************
 Gaussian 09:  AM64L-G09RevA.02 11-Jun-2009
                 3-Sep-2021 
 ******************************************
 %chk=opt.chk
 %mem=2gb
 %nproc=1
 Will use up to    1 processors via shared memory.
 ----------------------------------
 #p b3lyp 6-31G* opt scf(xqc,tight)
 ----------------------------------
 1/14=-1,18=20,19=15,26=3,38=1/1,3;
 2/9=110,12=2,17=6,18=5,40=1/2;
 3/5=1,6=6,7=1,11=2,16=1,25=1,30=1,71=1,74=-5/1,2,3;
 4//1;
 5/5=2,8=3,13=1,32=2,38=5/2,8;
 6/7=2,8=2,9=2,10=2,28=1/1;
 7//1,2,3,16;
 1/14=-1,18=20,19=15/3(2);
 2/9=110/2;
 99//99;
 2/9=110/2;
 3/5=1,6=6,7=1,11=2,16=1,25=1,30=1,71=1,74=-5/1,2,3;
 4/5=5,16=3/1;
 5/5=2,8=3,13=1,32=2,38=5/2,8;
 7//1,2,3,16;
 1/14=-1,18=20,19=15/3(-5);
 2/9=110/2;
 6/7=2,8=2,9=2,10=2,19=2,28=1/1;
 99/9=1/99;
 Leave Link    1 at Fri Sep  3 00:06:21 2021, MaxMem=  268435456 cpu:       0.0
 (Enter /sw/target/amd/app/gaussian/Gaussian09RevA.02_gcc-4.9.2/g09/l101.exe)
 ---------------
 opt calculation
 ---------------
 Symbolic Z-matrix:
 Charge =  0 Multiplicity = 1
 C                    -5.50183  -0.33672   1.22398 
 O                    -4.62286   0.61495   0.63955 
 C                    -4.70444   0.60427  -0.78296 
 C                    -3.7447    1.64355  -1.35676 
 C                    -2.28932   1.49056  -0.90008 
 C                    -1.67214   0.14461  -1.28633 
 C                    -0.20512   0.08251  -0.93779 
 C                     0.76945   0.33269  -1.90766 
 C                     2.12575   0.28551  -1.5758 
 C                     2.53818  -0.00796  -0.26628 
 C                     3.9021   -0.05802   0.08035 
 C                     4.29807  -0.34845   1.38748 
 O                     5.58633  -0.42492   1.84161 
 C                     6.61861  -0.18064   0.89503 
 C                     3.32515  -0.59057   2.35681 
 C                     1.96823  -0.54486   2.03053 
 C                     1.55946  -0.2553    0.72143 
 C                     0.19903  -0.2052    0.37385 
 H                    -5.24054  -1.34862   0.89966 
 H                    -5.39694  -0.28041   2.31072 
 H                    -6.53988  -0.11218   0.9606 
 H                    -5.72757   0.84976  -1.09083 
 H                    -4.46353  -0.39489  -1.16225 
 H                    -3.79402   1.61436  -2.45148 
 H                    -4.08339   2.64005  -1.04661 
 H                    -1.70439   2.30388  -1.34919 
 H                    -2.22501   1.63486   0.1857 
 H                    -2.18616  -0.67935  -0.77703 
 H                    -1.80256  -0.0335   -2.36113 
 H                     0.48124   0.56798  -2.92954 
 H                     2.8611    0.48313  -2.35244 
 H                     4.63821   0.13509  -0.69304 
 H                     7.57733  -0.27712   1.41368 
 H                     6.5998   -0.9227    0.09002 
 H                     6.55673   0.83763   0.49705 
 H                     3.62535  -0.81657   3.37699 
 H                     1.23346  -0.73711   2.80873 
 H                    -0.55918  -0.3894    1.13344 
 
 NAtoms=     38 NQM=     38 NQMF=      0 NMic=      0 NMicF=      0 NTot=     38.
                    Isotopes and Nuclear Properties:
 (Nuclear quadrupole moments (NQMom) in fm**2, nuclear magnetic moments (NMagM)
  in nuclear magnetons)

  Atom         1           2           3           4           5           6           7           8           9          10
 IAtWgt=          12          16          12          12          12          12          12          12          12          12
 AtmWgt=  12.0000000  15.9949146  12.0000000  12.0000000  12.0000000  12.0000000  12.0000000  12.0000000  12.0000000  12.0000000
 NucSpn=           0           0           0           0           0           0           0           0           0           0
 AtZEff=   0.0000000   0.0000000   0.0000000   0.0000000   0.0000000   0.0000000   0.0000000   0.0000000   0.0000000   0.0000000
 NQMom=    0.0000000   0.0000000   0.0000000   0.0000000   0.0000000   0.0000000   0.0000000   0.0000000   0.0000000   0.0000000
 NMagM=    0.0000000   0.0000000   0.0000000   0.0000000   0.0000000   0.0000000   0.0000000   0.0000000   0.0000000   0.0000000

  Atom        11          12          13          14          15          16          17          18          19          20
 IAtWgt=          12          12          16          12          12          12          12          12           1           1
 AtmWgt=  12.0000000  12.0000000  15.9949146  12.0000000  12.0000000  12.0000000  12.0000000  12.0000000   1.0078250   1.0078250
 NucSpn=           0           0           0           0           0           0           0           0           1           1
 AtZEff=   0.0000000   0.0000000   0.0000000   0.0000000   0.0000000   0.0000000   0.0000000   0.0000000   0.0000000   0.0000000
 NQMom=    0.0000000   0.0000000   0.0000000   0.0000000   0.0000000   0.0000000   0.0000000   0.0000000   0.0000000   0.0000000
 NMagM=    0.0000000   0.0000000   0.0000000   0.0000000   0.0000000   0.0000000   0.0000000   0.0000000   2.7928460   2.7928460

  Atom        21          22          23          24          25          26          27          28          29          30
 IAtWgt=           1           1           1           1           1           1           1           1           1           1
 AtmWgt=   1.0078250   1.0078250   1.0078250   1.0078250   1.0078250   1.0078250   1.0078250   1.0078250   1.0078250   1.0078250
 NucSpn=           1           1           1           1           1           1           1           1           1           1
 AtZEff=   0.0000000   0.0000000   0.0000000   0.0000000   0.0000000   0.0000000   0.0000000   0.0000000   0.0000000   0.0000000
 NQMom=    0.0000000   0.0000000   0.0000000   0.0000000   0.0000000   0.0000000   0.0000000   0.0000000   0.0000000   0.0000000
 NMagM=    2.7928460   2.7928460   2.7928460   2.7928460   2.7928460   2.7928460   2.7928460   2.7928460   2.7928460   2.7928460

  Atom        31          32          33          34          35          36          37          38
 IAtWgt=           1           1           1           1           1           1           1           1
 AtmWgt=   1.0078250   1.0078250   1.0078250   1.0078250   1.0078250   1.0078250   1.0078250   1.0078250
 NucSpn=           1           1           1           1           1           1           1           1
 AtZEff=   0.0000000   0.0000000   0.0000000   0.0000000   0.0000000   0.0000000   0.0000000   0.0000000
 NQMom=    0.0000000   0.0000000   0.0000000   0.0000000   0.0000000   0.0000000   0.0000000   0.0000000
 NMagM=    2.7928460   2.7928460   2.7928460   2.7928460   2.7928460   2.7928460   2.7928460   2.7928460
 Leave Link  101 at Fri Sep  3 00:06:21 2021, MaxMem=  268435456 cpu:       0.1
 (Enter /sw/target/amd/app/gaussian/Gaussian09RevA.02_gcc-4.9.2/g09/l103.exe)

 GradGradGradGradGradGradGradGradGradGradGradGradGradGradGradGradGradGrad
 Berny optimization.
 Initialization pass.
                           ----------------------------
                           !    Initial Parameters    !
                           ! (Angstroms and Degrees)  !
 --------------------------                            --------------------------
 ! Name  Definition              Value          Derivative Info.                !
 --------------------------------------------------------------------------------
 ! R1    R(1,2)                  1.4212         estimate D2E/DX2                !
 ! R2    R(1,19)                 1.0943         estimate D2E/DX2                !
 ! R3    R(1,20)                 1.0932         estimate D2E/DX2                !
 ! R4    R(1,21)                 1.0942         estimate D2E/DX2                !
 ! R5    R(2,3)                  1.4249         estimate D2E/DX2                !
 ! R6    R(3,4)                  1.5266         estimate D2E/DX2                !
 ! R7    R(3,22)                 1.0963         estimate D2E/DX2                !
 ! R8    R(3,23)                 1.0955         estimate D2E/DX2                !
 ! R9    R(4,5)                  1.533          estimate D2E/DX2                !
 ! R10   R(4,24)                 1.0962         estimate D2E/DX2                !
 ! R11   R(4,25)                 1.0972         estimate D2E/DX2                !
 ! R12   R(5,6)                  1.5303         estimate D2E/DX2                !
 ! R13   R(5,26)                 1.0979         estimate D2E/DX2                !
 ! R14   R(5,27)                 1.0972         estimate D2E/DX2                !
 ! R15   R(6,7)                  1.5091         estimate D2E/DX2                !
 ! R16   R(6,28)                 1.0966         estimate D2E/DX2                !
 ! R17   R(6,29)                 1.0972         estimate D2E/DX2                !
 ! R18   R(7,8)                  1.3975         estimate D2E/DX2                !
 ! R19   R(7,18)                 1.4023         estimate D2E/DX2                !
 ! R20   R(8,9)                  1.3971         estimate D2E/DX2                !
 ! R21   R(8,30)                 1.0875         estimate D2E/DX2                !
 ! R22   R(9,10)                 1.4039         estimate D2E/DX2                !
 ! R23   R(9,31)                 1.0876         estimate D2E/DX2                !
 ! R24   R(10,11)                1.4082         estimate D2E/DX2                !
 ! R25   R(10,17)                1.4123         estimate D2E/DX2                !
 ! R26   R(11,12)                1.3963         estimate D2E/DX2                !
 ! R27   R(11,32)                1.085          estimate D2E/DX2                !
 ! R28   R(12,13)                1.3681         estimate D2E/DX2                !
 ! R29   R(12,15)                1.3946         estimate D2E/DX2                !
 ! R30   R(13,14)                1.4217         estimate D2E/DX2                !
 ! R31   R(14,33)                1.0943         estimate D2E/DX2                !
 ! R32   R(14,34)                1.095          estimate D2E/DX2                !
 ! R33   R(14,35)                1.095          estimate D2E/DX2                !
 ! R34   R(15,16)                1.3963         estimate D2E/DX2                !
 ! R35   R(15,36)                1.0872         estimate D2E/DX2                !
 ! R36   R(16,17)                1.4017         estimate D2E/DX2                !
 ! R37   R(16,37)                1.0874         estimate D2E/DX2                !
 ! R38   R(17,18)                1.405          estimate D2E/DX2                !
 ! R39   R(18,38)                1.0889         estimate D2E/DX2                !
 ! A1    A(2,1,19)             110.4672         estimate D2E/DX2                !
 ! A2    A(2,1,20)             108.3573         estimate D2E/DX2                !
 ! A3    A(2,1,21)             110.507          estimate D2E/DX2                !
 ! A4    A(19,1,20)            108.6233         estimate D2E/DX2                !
 ! A5    A(19,1,21)            110.1785         estimate D2E/DX2                !
 ! A6    A(20,1,21)            108.6457         estimate D2E/DX2                !
 ! A7    A(1,2,3)              111.7222         estimate D2E/DX2                !
 ! A8    A(2,3,4)              109.5209         estimate D2E/DX2                !
 ! A9    A(2,3,22)             109.3973         estimate D2E/DX2                !
 ! A10   A(2,3,23)             109.8699         estimate D2E/DX2                !
 ! A11   A(4,3,22)             109.1914         estimate D2E/DX2                !
 ! A12   A(4,3,23)             110.6412         estimate D2E/DX2                !
 ! A13   A(22,3,23)            108.193          estimate D2E/DX2                !
 ! A14   A(3,4,5)              114.6414         estimate D2E/DX2                !
 ! A15   A(3,4,24)             109.2043         estimate D2E/DX2                !
 ! A16   A(3,4,25)             108.5408         estimate D2E/DX2                !
 ! A17   A(5,4,24)             109.7278         estimate D2E/DX2                !
 ! A18   A(5,4,25)             107.4262         estimate D2E/DX2                !
 ! A19   A(24,4,25)            107.0128         estimate D2E/DX2                !
 ! A20   A(4,5,6)              113.2959         estimate D2E/DX2                !
 ! A21   A(4,5,26)             108.0599         estimate D2E/DX2                !
 ! A22   A(4,5,27)             109.7133         estimate D2E/DX2                !
 ! A23   A(6,5,26)             109.4783         estimate D2E/DX2                !
 ! A24   A(6,5,27)             109.9874         estimate D2E/DX2                !
 ! A25   A(26,5,27)            106.0315         estimate D2E/DX2                !
 ! A26   A(5,6,7)              111.7131         estimate D2E/DX2                !
 ! A27   A(5,6,28)             110.7693         estimate D2E/DX2                !
 ! A28   A(5,6,29)             110.004          estimate D2E/DX2                !
 ! A29   A(7,6,28)             108.5108         estimate D2E/DX2                !
 ! A30   A(7,6,29)             109.5782         estimate D2E/DX2                !
 ! A31   A(28,6,29)            106.0966         estimate D2E/DX2                !
 ! A32   A(6,7,8)              120.6806         estimate D2E/DX2                !
 ! A33   A(6,7,18)             120.3062         estimate D2E/DX2                !
 ! A34   A(8,7,18)             119.004          estimate D2E/DX2                !
 ! A35   A(7,8,9)              120.4041         estimate D2E/DX2                !
 ! A36   A(7,8,30)             120.4004         estimate D2E/DX2                !
 ! A37   A(9,8,30)             119.1954         estimate D2E/DX2                !
 ! A38   A(8,9,10)             120.9174         estimate D2E/DX2                !
 ! A39   A(8,9,31)             118.724          estimate D2E/DX2                !
 ! A40   A(10,9,31)            120.3584         estimate D2E/DX2                !
 ! A41   A(9,10,11)            121.4374         estimate D2E/DX2                !
 ! A42   A(9,10,17)            119.0354         estimate D2E/DX2                !
 ! A43   A(11,10,17)           119.5271         estimate D2E/DX2                !
 ! A44   A(10,11,12)           120.8306         estimate D2E/DX2                !
 ! A45   A(10,11,32)           118.3805         estimate D2E/DX2                !
 ! A46   A(12,11,32)           120.7889         estimate D2E/DX2                !
 ! A47   A(11,12,13)           126.1145         estimate D2E/DX2                !
 ! A48   A(11,12,15)           119.2709         estimate D2E/DX2                !
 ! A49   A(13,12,15)           114.6145         estimate D2E/DX2                !
 ! A50   A(12,13,14)           116.9421         estimate D2E/DX2                !
 ! A51   A(13,14,33)           107.7832         estimate D2E/DX2                !
 ! A52   A(13,14,34)           111.1348         estimate D2E/DX2                !
 ! A53   A(13,14,35)           111.1448         estimate D2E/DX2                !
 ! A54   A(33,14,34)           107.6822         estimate D2E/DX2                !
 ! A55   A(33,14,35)           107.6831         estimate D2E/DX2                !
 ! A56   A(34,14,35)           111.2238         estimate D2E/DX2                !
 ! A57   A(12,15,16)           120.6546         estimate D2E/DX2                !
 ! A58   A(12,15,36)           119.7148         estimate D2E/DX2                !
 ! A59   A(16,15,36)           119.6306         estimate D2E/DX2                !
 ! A60   A(15,16,17)           120.5569         estimate D2E/DX2                !
 ! A61   A(15,16,37)           118.9224         estimate D2E/DX2                !
 ! A62   A(17,16,37)           120.5208         estimate D2E/DX2                !
 ! A63   A(10,17,16)           119.1598         estimate D2E/DX2                !
 ! A64   A(10,17,18)           119.455          estimate D2E/DX2                !
 ! A65   A(16,17,18)           121.3852         estimate D2E/DX2                !
 ! A66   A(7,18,17)            121.182          estimate D2E/DX2                !
 ! A67   A(7,18,38)            119.109          estimate D2E/DX2                !
 ! A68   A(17,18,38)           119.7087         estimate D2E/DX2                !
 ! D1    D(19,1,2,3)            61.2545         estimate D2E/DX2                !
 ! D2    D(20,1,2,3)          -179.8648         estimate D2E/DX2                !
 ! D3    D(21,1,2,3)           -60.9334         estimate D2E/DX2                !
 ! D4    D(1,2,3,4)            179.9029         estimate D2E/DX2                !
 ! D5    D(1,2,3,22)            60.2601         estimate D2E/DX2                !
 ! D6    D(1,2,3,23)           -58.3738         estimate D2E/DX2                !
 ! D7    D(2,3,4,5)             55.0857         estimate D2E/DX2                !
 ! D8    D(2,3,4,24)           178.661          estimate D2E/DX2                !
 ! D9    D(2,3,4,25)           -65.0045         estimate D2E/DX2                !
 ! D10   D(22,3,4,5)           174.8548         estimate D2E/DX2                !
 ! D11   D(22,3,4,24)          -61.5698         estimate D2E/DX2                !
 ! D12   D(22,3,4,25)           54.7646         estimate D2E/DX2                !
 ! D13   D(23,3,4,5)           -66.1729         estimate D2E/DX2                !
 ! D14   D(23,3,4,24)           57.4024         estimate D2E/DX2                !
 ! D15   D(23,3,4,25)          173.7369         estimate D2E/DX2                !
 ! D16   D(3,4,5,6)             60.1712         estimate D2E/DX2                !
 ! D17   D(3,4,5,26)          -178.3446         estimate D2E/DX2                !
 ! D18   D(3,4,5,27)           -63.1687         estimate D2E/DX2                !
 ! D19   D(24,4,5,6)           -63.1239         estimate D2E/DX2                !
 ! D20   D(24,4,5,26)           58.3603         estimate D2E/DX2                !
 ! D21   D(24,4,5,27)          173.5361         estimate D2E/DX2                !
 ! D22   D(25,4,5,6)          -179.1218         estimate D2E/DX2                !
 ! D23   D(25,4,5,26)          -57.6376         estimate D2E/DX2                !
 ! D24   D(25,4,5,27)           57.5382         estimate D2E/DX2                !
 ! D25   D(4,5,6,7)            174.564          estimate D2E/DX2                !
 ! D26   D(4,5,6,28)           -64.338          estimate D2E/DX2                !
 ! D27   D(4,5,6,29)            52.6389         estimate D2E/DX2                !
 ! D28   D(26,5,6,7)            53.8794         estimate D2E/DX2                !
 ! D29   D(26,5,6,28)          174.9774         estimate D2E/DX2                !
 ! D30   D(26,5,6,29)          -68.0457         estimate D2E/DX2                !
 ! D31   D(27,5,6,7)           -62.2469         estimate D2E/DX2                !
 ! D32   D(27,5,6,28)           58.8511         estimate D2E/DX2                !
 ! D33   D(27,5,6,29)          175.828          estimate D2E/DX2                !
 ! D34   D(5,6,7,8)            -97.9275         estimate D2E/DX2                !
 ! D35   D(5,6,7,18)            80.9559         estimate D2E/DX2                !
 ! D36   D(28,6,7,8)           139.6719         estimate D2E/DX2                !
 ! D37   D(28,6,7,18)          -41.4447         estimate D2E/DX2                !
 ! D38   D(29,6,7,8)            24.2424         estimate D2E/DX2                !
 ! D39   D(29,6,7,18)         -156.8742         estimate D2E/DX2                !
 ! D40   D(6,7,8,9)            179.4191         estimate D2E/DX2                !
 ! D41   D(6,7,8,30)            -0.4855         estimate D2E/DX2                !
 ! D42   D(18,7,8,9)             0.5214         estimate D2E/DX2                !
 ! D43   D(18,7,8,30)         -179.3832         estimate D2E/DX2                !
 ! D44   D(6,7,18,17)         -179.3993         estimate D2E/DX2                !
 ! D45   D(6,7,18,38)            0.4181         estimate D2E/DX2                !
 ! D46   D(8,7,18,17)           -0.4973         estimate D2E/DX2                !
 ! D47   D(8,7,18,38)          179.3201         estimate D2E/DX2                !
 ! D48   D(7,8,9,10)            -0.2322         estimate D2E/DX2                !
 ! D49   D(7,8,9,31)           179.9009         estimate D2E/DX2                !
 ! D50   D(30,8,9,10)          179.6735         estimate D2E/DX2                !
 ! D51   D(30,8,9,31)           -0.1934         estimate D2E/DX2                !
 ! D52   D(8,9,10,11)         -179.983          estimate D2E/DX2                !
 ! D53   D(8,9,10,17)           -0.092          estimate D2E/DX2                !
 ! D54   D(31,9,10,11)          -0.1183         estimate D2E/DX2                !
 ! D55   D(31,9,10,17)         179.7727         estimate D2E/DX2                !
 ! D56   D(9,10,11,12)         179.8677         estimate D2E/DX2                !
 ! D57   D(9,10,11,32)          -0.1042         estimate D2E/DX2                !
 ! D58   D(17,10,11,12)         -0.0228         estimate D2E/DX2                !
 ! D59   D(17,10,11,32)       -179.9947         estimate D2E/DX2                !
 ! D60   D(9,10,17,16)        -179.8227         estimate D2E/DX2                !
 ! D61   D(9,10,17,18)           0.1182         estimate D2E/DX2                !
 ! D62   D(11,10,17,16)          0.0704         estimate D2E/DX2                !
 ! D63   D(11,10,17,18)       -179.9887         estimate D2E/DX2                !
 ! D64   D(10,11,12,13)        179.9896         estimate D2E/DX2                !
 ! D65   D(10,11,12,15)         -0.018          estimate D2E/DX2                !
 ! D66   D(32,11,12,13)         -0.0391         estimate D2E/DX2                !
 ! D67   D(32,11,12,15)        179.9532         estimate D2E/DX2                !
 ! D68   D(11,12,13,14)          0.2616         estimate D2E/DX2                !
 ! D69   D(15,12,13,14)       -179.7311         estimate D2E/DX2                !
 ! D70   D(11,12,15,16)          0.0107         estimate D2E/DX2                !
 ! D71   D(11,12,15,36)       -179.9487         estimate D2E/DX2                !
 ! D72   D(13,12,15,16)       -179.9961         estimate D2E/DX2                !
 ! D73   D(13,12,15,36)          0.0445         estimate D2E/DX2                !
 ! D74   D(12,13,14,33)        179.8633         estimate D2E/DX2                !
 ! D75   D(12,13,14,34)        -62.3638         estimate D2E/DX2                !
 ! D76   D(12,13,14,35)         62.0835         estimate D2E/DX2                !
 ! D77   D(12,15,16,17)          0.0381         estimate D2E/DX2                !
 ! D78   D(12,15,16,37)       -179.9333         estimate D2E/DX2                !
 ! D79   D(36,15,16,17)        179.9975         estimate D2E/DX2                !
 ! D80   D(36,15,16,37)          0.0261         estimate D2E/DX2                !
 ! D81   D(15,16,17,10)         -0.0784         estimate D2E/DX2                !
 ! D82   D(15,16,17,18)        179.9819         estimate D2E/DX2                !
 ! D83   D(37,16,17,10)        179.8925         estimate D2E/DX2                !
 ! D84   D(37,16,17,18)         -0.0472         estimate D2E/DX2                !
 ! D85   D(10,17,18,7)           0.1783         estimate D2E/DX2                !
 ! D86   D(10,17,18,38)       -179.638          estimate D2E/DX2                !
 ! D87   D(16,17,18,7)        -179.8822         estimate D2E/DX2                !
 ! D88   D(16,17,18,38)          0.3015         estimate D2E/DX2                !
 --------------------------------------------------------------------------------
 Trust Radius=3.00D-01 FncErr=1.00D-07 GrdErr=1.00D-06
 Number of steps in this run= 205 maximum allowed number of steps= 228.
 GradGradGradGradGradGradGradGradGradGradGradGradGradGradGradGradGradGrad

 Leave Link  103 at Fri Sep  3 00:06:21 2021, MaxMem=  268435456 cpu:       0.0
 (Enter /sw/target/amd/app/gaussian/Gaussian09RevA.02_gcc-4.9.2/g09/l202.exe)
                          Input orientation:                          
 ---------------------------------------------------------------------
 Center     Atomic      Atomic             Coordinates (Angstroms)
 Number     Number       Type             X           Y           Z
 ---------------------------------------------------------------------
      1          6           0       -5.501827   -0.336721    1.223976
      2          8           0       -4.622864    0.614952    0.639551
      3          6           0       -4.704437    0.604271   -0.782958
      4          6           0       -3.744697    1.643554   -1.356760
      5          6           0       -2.289318    1.490564   -0.900077
      6          6           0       -1.672142    0.144611   -1.286326
      7          6           0       -0.205118    0.082511   -0.937786
      8          6           0        0.769450    0.332690   -1.907661
      9          6           0        2.125755    0.285512   -1.575795
     10          6           0        2.538181   -0.007958   -0.266281
     11          6           0        3.902096   -0.058015    0.080352
     12          6           0        4.298074   -0.348453    1.387479
     13          8           0        5.586327   -0.424919    1.841612
     14          6           0        6.618606   -0.180639    0.895027
     15          6           0        3.325145   -0.590569    2.356809
     16          6           0        1.968230   -0.544857    2.030533
     17          6           0        1.559458   -0.255296    0.721430
     18          6           0        0.199034   -0.205195    0.373849
     19          1           0       -5.240536   -1.348623    0.899656
     20          1           0       -5.396936   -0.280406    2.310723
     21          1           0       -6.539880   -0.112178    0.960595
     22          1           0       -5.727571    0.849761   -1.090835
     23          1           0       -4.463531   -0.394886   -1.162252
     24          1           0       -3.794021    1.614355   -2.451481
     25          1           0       -4.083387    2.640046   -1.046608
     26          1           0       -1.704389    2.303876   -1.349194
     27          1           0       -2.225012    1.634861    0.185700
     28          1           0       -2.186162   -0.679345   -0.777030
     29          1           0       -1.802558   -0.033500   -2.361128
     30          1           0        0.481238    0.567983   -2.929539
     31          1           0        2.861098    0.483127   -2.352441
     32          1           0        4.638207    0.135093   -0.693036
     33          1           0        7.577328   -0.277119    1.413676
     34          1           0        6.599800   -0.922703    0.090015
     35          1           0        6.556729    0.837626    0.497049
     36          1           0        3.625351   -0.816567    3.376987
     37          1           0        1.233460   -0.737112    2.808730
     38          1           0       -0.559182   -0.389397    1.133440
 ---------------------------------------------------------------------
                    Distance matrix (angstroms):
                    1          2          3          4          5
     1  C    0.000000
     2  O    1.421200   0.000000
     3  C    2.355649   1.424886   0.000000
     4  C    3.697187   2.411319   1.526584   0.000000
     5  C    4.262720   2.929605   2.575273   1.533001   0.000000
     6  C    4.604322   3.554853   3.107970   2.558764   1.530256
     7  C    5.736209   4.721013   4.532116   3.891146   2.515537
     8  C    7.041603   5.970344   5.594833   4.732798   3.422274
     9  C    8.148981   7.110566   6.883438   6.029466   4.626188
    10  C    8.183562   7.244937   7.286789   6.587199   5.094312
    11  C    9.477306   8.569745   8.675041   7.964551   6.457007
    12  C    9.801272   9.003926   9.309333   8.728408   7.211701
    13  O   11.105693  10.332176  10.669931  10.078501   8.556385
    14  C   12.125901  11.272483  11.473579  10.760868   9.239395
    15  C    8.902987   8.220286   8.704020   8.292440   6.816202
    16  C    7.516356   6.835386   7.332170   6.992884   5.555009
    17  C    7.079614   6.243808   6.499109   6.004878   4.526631
    18  C    5.765399   4.898361   5.102692   4.686779   3.269615
    19  H    1.094259   2.074801   2.632943   4.035105   4.473221
    20  H    1.093249   2.047845   3.291363   4.458918   4.806544
    21  H    1.094232   2.075268   2.630994   4.033085   4.908988
    22  H    2.610948   2.066337   1.096292   2.152351   3.502656
    23  H    2.602984   2.071631   1.095543   2.170206   2.889785
    24  H    4.498031   3.352651   2.152463   1.096221   2.164789
    25  H    4.003582   2.689828   2.144666   1.097224   2.135758
    26  H    5.292872   3.914724   3.494219   2.144514   1.097873
    27  H    3.962659   2.644974   2.854464   2.165341   1.097209
    28  H    3.887808   3.101519   2.826555   2.856743   2.175842
    29  H    5.160378   4.168776   3.364264   2.755571   2.166651
    30  H    7.339431   6.228360   5.612517   4.635624   3.556101
    31  H    9.132438   8.060960   7.727566   6.780450   5.445280
    32  H   10.330432   9.368751   9.354850   8.543364   7.061924
    33  H   13.080666  12.257232  12.507750  11.813236  10.287315
    34  H   12.168756  11.340836  11.440258  10.755810   9.263939
    35  H   12.137392  11.182718  11.336081  10.497881   8.979468
    36  H    9.389946   8.807716   9.418561   9.098251   7.655027
    37  H    6.930790   6.389831   7.068108   6.913821   5.579225
    38  H    4.943755   4.214992   4.673660   4.525648   3.265397
                    6          7          8          9         10
     6  C    0.000000
     7  C    1.509137   0.000000
     8  C    2.526421   1.397508   0.000000
     9  C    3.811518   2.425126   1.397113   0.000000
    10  C    4.334811   2.825738   2.436920   1.403940   0.000000
    11  C    5.742908   4.233859   3.730726   2.452799   1.408163
    12  C    6.560170   5.086386   4.875766   3.728522   2.438869
    13  O    7.924250   6.443863   6.150880   4.915175   3.729378
    14  C    8.579079   7.070478   6.506243   5.148589   4.245977
    15  C    6.227825   4.875464   5.056648   4.203740   2.799884
    16  C    4.972849   3.732017   4.209101   3.704042   2.426615
    17  C    3.825474   2.445576   2.807483   2.427016   1.412320
    18  C    2.525835   1.402319   2.412464   2.784629   2.433162
    19  H    4.443163   5.547952   6.843082   7.941064   7.979049
    20  H    5.195526   6.135103   7.496330   8.486234   8.347530
    21  H    5.367445   6.615963   7.864547   9.037957   9.161183
    22  H    4.120917   5.577597   6.568550   7.888491   8.350942
    23  H    2.845752   4.290964   5.335644   6.637217   7.069402
    24  H    2.831979   4.185456   4.771129   6.129959   6.892299
    25  H    3.478328   4.646913   5.441997   6.661630   7.173981
    26  H    2.160421   2.711371   3.212061   4.335337   4.951432
    27  H    2.166419   2.784238   3.878738   4.883931   5.058769
    28  H    1.096587   2.128568   3.322376   4.490167   4.799067
    29  H    1.097238   2.142703   2.637224   4.018726   4.819860
    30  H    2.741612   2.161908   1.087503   2.148685   3.414040
    31  H    4.669203   3.400503   2.143701   1.087640   2.167372
    32  H    6.338185   4.849790   4.059759   2.667265   2.147718
    33  H    9.644717   8.137885   7.599365   6.242847   5.318619
    34  H    8.453313   6.955123   6.289650   4.924610   4.178571
    35  H    8.448373   6.953526   6.287304   4.922910   4.176890
    36  H    7.122765   5.839358   6.115919   5.290880   3.887054
    37  H    5.097984   4.096056   4.858408   4.589772   3.419014
    38  H    2.716452   2.153610   3.396317   3.873544   3.420288
                   11         12         13         14         15
    11  C    0.000000
    12  C    1.396329   0.000000
    13  O    2.464404   1.368093   0.000000
    14  C    2.838690   2.378138   1.421723   0.000000
    15  C    2.408058   1.394565   2.325040   3.626532   0.000000
    16  C    2.789276   2.424926   3.625011   4.800836   1.396339
    17  C    2.436771   2.819985   4.183211   5.062676   2.429922
    18  C    3.717589   4.224938   5.587981   6.440740   3.721991
    19  H    9.269555   9.603301  10.906946  11.916520   8.721745
    20  H    9.565355   9.739108  10.994226  12.099066   8.727716
    21  H   10.479152  10.848931  12.162191  13.158827   9.974818
    22  H    9.743009  10.396697  11.757055  12.547249   9.793491
    23  H    8.464116   9.125185  10.489221  11.273511   8.549009
    24  H    8.272679   9.169091  10.515713  11.083498   8.869265
    25  H    8.503970   9.225226  10.546999  11.236497   8.769633
    26  H    6.249384   7.110119   8.413210   8.971153   6.885382
    27  H    6.357545   6.923038   8.246318   9.055869   6.361643
    28  H    6.179647   6.843969   8.205706   8.975991   6.340610
    29  H    6.205200   7.167214   8.509515   9.029961   6.990178
    30  H    4.599303   5.834787   7.057738   7.270146   6.113553
    31  H    2.700925   4.091873   5.083454   5.010539   4.852339
    32  H    1.085025   2.162880   2.763510   2.558048   3.398863
    33  H    3.915749   3.280134   2.041827   1.094282   4.366785
    34  H    2.832911   2.703908   2.083989   1.095015   3.996503
    35  H    2.832470   2.702068   2.084118   1.095025   3.992691
    36  H    3.394082   2.151704   2.521149   3.940064   1.087181
    37  H    3.876446   3.400422   4.469925   5.742101   2.144960
    38  H    4.595847   4.864067   6.186279   7.184780   4.077389
                   16         17         18         19         20
    16  C    0.000000
    17  C    1.401674   0.000000
    18  C    2.447453   1.405018   0.000000
    19  H    7.341065   6.889633   5.583263   0.000000
    20  H    7.375236   7.135678   5.922163   1.776699   0.000000
    21  H    8.586030   8.104132   6.765049   1.794660   1.776926
    22  H    8.421001   7.589878   6.195392   3.005354   3.599610
    23  H    7.182194   6.312221   4.912749   2.401003   3.598042
    24  H    7.612764   6.497899   5.218979   4.701251   5.370106
    25  H    7.498965   6.584122   5.334063   4.586547   4.639625
    26  H    5.746822   4.635681   3.589893   5.558994   5.805894
    27  H    5.073249   4.264025   3.049132   4.301662   4.271425
    28  H    5.015922   4.056460   2.690446   3.548015   4.472409
    29  H    5.810939   4.566674   3.393516   4.917515   5.899721
    30  H    5.296402   3.894858   3.404382   7.146664   7.920419
    31  H    4.589600   3.418804   3.872083   8.920085   9.514368
    32  H    3.874137   3.410544   4.578242  10.115713  10.483287
    33  H    5.649263   6.057594   7.451553  12.872839  13.005239
    34  H    5.035853   5.123394   6.447107  11.875626  12.217437
    35  H    5.031616   5.120307   6.443830  12.004884  12.142056
    36  H    2.152397   3.411000   4.596984   9.220857   9.100882
    37  H    1.087400   2.166851   2.698447   6.777251   6.664739
    38  H    2.686402   2.162492   1.088945   4.784333   4.980134
                   21         22         23         24         25
    21  H    0.000000
    22  H    2.406977   0.000000
    23  H    2.982889   1.775400   0.000000
    24  H    4.707751   2.484870   2.479396   0.000000
    25  H    4.199757   2.431135   3.060832   1.763361   0.000000
    26  H    5.878300   4.285696   3.864082   2.461105   2.421611
    27  H    4.719184   3.809704   3.308748   3.068702   2.445923
    28  H    4.721851   3.870170   2.327170   3.263442   3.832818
    29  H    5.786385   4.218948   2.940864   2.586410   3.752065
    30  H    8.055548   6.481477   5.338648   4.427333   5.354874
    31  H    9.985439   8.688573   7.472459   6.751303   7.388056
    32  H   11.302445  10.397997   9.129221   8.739726   9.081079
    33  H   14.125440  13.585388  12.313877  12.158318  12.269276
    34  H   13.193409  12.510000  11.146482  10.996699  11.318815
    35  H   13.139185  12.386507  11.212426  10.790513  10.901544
    36  H   10.472203  10.498344   9.285070   9.743075   9.536299
    37  H    8.014422   8.135154   6.952807   7.646881   7.384964
    38  H    5.989614   5.761524   4.529257   5.227893   5.133240
                   26         27         28         29         30
    26  H    0.000000
    27  H    1.753433   0.000000
    28  H    3.075562   2.506772   0.000000
    29  H    2.548916   3.073797   1.753178   0.000000
    30  H    3.207457   4.262245   3.647485   2.429114   0.000000
    31  H    5.016503   5.799756   5.413695   4.692192   2.450301
    32  H    6.735183   7.079919   6.873309   6.655404   4.740225
    33  H   10.022238  10.062279  10.014326  10.113889   8.362548
    34  H    9.024505   9.188449   8.831994   8.797636   6.984028
    35  H    8.590959   8.823350   8.964520   8.877258   6.980387
    36  H    7.776894   7.100744   7.144814   7.937339   7.181552
    37  H    5.930168   4.946471   4.955283   6.036548   5.932693
    38  H    3.837798   2.787619   2.526070   3.726211   4.301959
                   31         32         33         34         35
    31  H    0.000000
    32  H    2.456190   0.000000
    33  H    6.083127   3.639586   0.000000
    34  H    4.681863   2.362191   1.767602   0.000000
    35  H    4.680059   2.364441   1.767621   1.807288   0.000000
    36  H    5.924494   4.300770   4.445640   4.434275   4.429828
    37  H    5.547601   4.961392   6.511715   6.018593   6.013390
    38  H    4.960945   5.533892   8.142109   7.254252   7.248915
                   36         37         38
    36  H    0.000000
    37  H    2.459750   0.000000
    38  H    4.767210   2.478118   0.000000
 Stoichiometry    C16H20O2
 Framework group  C1[X(C16H20O2)]
 Deg. of freedom   108
 Full point group                 C1      NOp   1
 Largest Abelian subgroup         C1      NOp   1
 Largest concise Abelian subgroup C1      NOp   1
                         Standard orientation:                         
 ---------------------------------------------------------------------
 Center     Atomic      Atomic             Coordinates (Angstroms)
 Number     Number       Type             X           Y           Z
 ---------------------------------------------------------------------
      1          6           0        5.610166    2.142457   -0.419170
      2          8           0        4.919075    1.172191    0.355934
      3          6           0        5.202684   -0.153261   -0.083434
      4          6           0        4.438857   -1.152047    0.782276
      5          6           0        2.925094   -0.917912    0.843888
      6          6           0        2.244228   -0.997480   -0.524240
      7          6           0        0.743194   -0.893420   -0.407766
      8          6           0       -0.053638   -2.041493   -0.411771
      9          6           0       -1.441793   -1.939143   -0.291454
     10          6           0       -2.064089   -0.687580   -0.159610
     11          6           0       -3.462135   -0.571730   -0.037252
     12          6           0       -4.067598    0.679430    0.095967
     13          8           0       -5.409071    0.916801    0.221604
     14          6           0       -6.266658   -0.217148    0.221751
     15          6           0       -3.271532    1.824401    0.107572
     16          6           0       -1.883719    1.727847   -0.012500
     17          6           0       -1.265454    0.477190   -0.147769
     18          6           0        0.129293    0.359856   -0.270198
     19          1           0        5.302830    2.084146   -1.467762
     20          1           0        5.356158    3.134173   -0.035540
     21          1           0        6.691919    2.001103   -0.334475
     22          1           0        6.278129   -0.345081    0.008650
     23          1           0        4.924538   -0.263727   -1.137306
     24          1           0        4.641862   -2.168270    0.424813
     25          1           0        4.822998   -1.089874    1.808177
     26          1           0        2.491004   -1.672130    1.513250
     27          1           0        2.719596    0.054310    1.309099
     28          1           0        2.598813   -0.195155   -1.182303
     29          1           0        2.510045   -1.938696   -1.021618
     30          1           0        0.399449   -3.025516   -0.507028
     31          1           0       -2.035745   -2.850251   -0.299449
     32          1           0       -4.057742   -1.478595   -0.048531
     33          1           0       -7.294708    0.141337    0.331544
     34          1           0       -6.203321   -0.760192   -0.727011
     35          1           0       -6.051418   -0.875069    1.070215
     36          1           0       -3.735303    2.802165    0.211765
     37          1           0       -1.290043    2.638782    0.001094
     38          1           0        0.749505    1.254800   -0.255633
 ---------------------------------------------------------------------
 Rotational constants (GHZ):      1.1356312      0.1446005      0.1314230
 Leave Link  202 at Fri Sep  3 00:06:21 2021, MaxMem=  268435456 cpu:       0.0
 (Enter /sw/target/amd/app/gaussian/Gaussian09RevA.02_gcc-4.9.2/g09/l301.exe)
 Standard basis: 6-31G(d) (6D, 7F)
 Ernie: Thresh=  0.10000D-02 Tol=  0.10000D-05 Strict=F.
 There are   310 symmetry adapted basis functions of A   symmetry.
 Integral buffers will be    131072 words long.
 Raffenetti 2 integral format.
 Two-electron integral symmetry is turned on.
   310 basis functions,   584 primitive gaussians,   310 cartesian basis functions
    66 alpha electrons       66 beta electrons
       nuclear repulsion energy      1224.4111059104 Hartrees.
 IExCor=  402 DFT=T Ex+Corr=B3LYP ExCW=0 ScaHFX=  0.200000
 ScaDFX=  0.800000  0.720000  1.000000  0.810000 ScalE2=  1.000000  1.000000
 IRadAn=      0 IRanWt=     -1 IRanGd=            0 ICorTp=0
 NAtoms=   38 NActive=   38 NUniq=   38 SFac= 7.50D-01 NAtFMM=   80 NAOKFM=F Big=F
 Leave Link  301 at Fri Sep  3 00:06:21 2021, MaxMem=  268435456 cpu:       0.1
 (Enter /sw/target/amd/app/gaussian/Gaussian09RevA.02_gcc-4.9.2/g09/l302.exe)
 NPDir=0 NMtPBC=     1 NCelOv=     1 NCel=       1 NClECP=     1 NCelD=      1
         NCelK=      1 NCelE2=     1 NClLst=     1 CellRange=     0.0.
 One-electron integrals computed using PRISM.
 NBasis=   310 RedAO= T  NBF=   310
 NBsUse=   310 1.00D-06 NBFU=   310
 Precomputing XC quadrature grid using
 IXCGrd= 2 IRadAn=           0 IRanWt=          -1 IRanGd=           0 AccXCQ= 1.00D-10.
 NRdTot=    2434 NPtTot=      310816 NUsed=      328361 NTot=      328393
 NSgBfM=   305   306   306   306   306 NAtAll=    38    38.
 Leave Link  302 at Fri Sep  3 00:06:23 2021, MaxMem=  268435456 cpu:       2.0
 (Enter /sw/target/amd/app/gaussian/Gaussian09RevA.02_gcc-4.9.2/g09/l303.exe)
 DipDrv:  MaxL=1.
 Leave Link  303 at Fri Sep  3 00:06:23 2021, MaxMem=  268435456 cpu:       0.1
 (Enter /sw/target/amd/app/gaussian/Gaussian09RevA.02_gcc-4.9.2/g09/l401.exe)
 Harris functional with IExCor=  402 diagonalized for initial guess.
 ExpMin= 1.61D-01 ExpMax= 5.48D+03 ExpMxC= 8.25D+02 IAcc=1 IRadAn=         1 AccDes= 0.00D+00
 HarFok:  IExCor=  402 AccDes= 0.00D+00 IRadAn=         1 IDoV= 1
 ScaDFX=  1.000000  1.000000  1.000000  1.000000
 FoFCou: FMM=F IPFlag=           0 FMFlag=      100000 FMFlg1=           0
         NFxFlg=           0 DoJE=T BraDBF=F KetDBF=T FulRan=T
         Omega=  0.000000  0.000000  1.000000  0.000000  0.000000 ICntrl=     500 IOpCl=  0
         NMat0=    1 NMatS0=    1 NMatT0=    0 NMatD0=    1 NMtDS0=    0 NMtDT0=    0
         I1Cent=           4 NGrid=           0.
 Petite list used in FoFCou.
 Harris En= -772.276984425412    
 Initial guess orbital symmetries:
       Occupied  (A) (A) (A) (A) (A) (A) (A) (A) (A) (A) (A) (A)
                 (A) (A) (A) (A) (A) (A) (A) (A) (A) (A) (A) (A)
                 (A) (A) (A) (A) (A) (A) (A) (A) (A) (A) (A) (A)
                 (A) (A) (A) (A) (A) (A) (A) (A) (A) (A) (A) (A)
                 (A) (A) (A) (A) (A) (A) (A) (A) (A) (A) (A) (A)
                 (A) (A) (A) (A) (A) (A)
       Virtual   (A) (A) (A) (A) (A) (A) (A) (A) (A) (A) (A) (A)
                 (A) (A) (A) (A) (A) (A) (A) (A) (A) (A) (A) (A)
                 (A) (A) (A) (A) (A) (A) (A) (A) (A) (A) (A) (A)
                 (A) (A) (A) (A) (A) (A) (A) (A) (A) (A) (A) (A)
                 (A) (A) (A) (A) (A) (A) (A) (A) (A) (A) (A) (A)
                 (A) (A) (A) (A) (A) (A) (A) (A) (A) (A) (A) (A)
                 (A) (A) (A) (A) (A) (A) (A) (A) (A) (A) (A) (A)
                 (A) (A) (A) (A) (A) (A) (A) (A) (A) (A) (A) (A)
                 (A) (A) (A) (A) (A) (A) (A) (A) (A) (A) (A) (A)
                 (A) (A) (A) (A) (A) (A) (A) (A) (A) (A) (A) (A)
                 (A) (A) (A) (A) (A) (A) (A) (A) (A) (A) (A) (A)
                 (A) (A) (A) (A) (A) (A) (A) (A) (A) (A) (A) (A)
                 (A) (A) (A) (A) (A) (A) (A) (A) (A) (A) (A) (A)
                 (A) (A) (A) (A) (A) (A) (A) (A) (A) (A) (A) (A)
                 (A) (A) (A) (A) (A) (A) (A) (A) (A) (A) (A) (A)
                 (A) (A) (A) (A) (A) (A) (A) (A) (A) (A) (A) (A)
                 (A) (A) (A) (A) (A) (A) (A) (A) (A) (A) (A) (A)
                 (A) (A) (A) (A) (A) (A) (A) (A) (A) (A) (A) (A)
                 (A) (A) (A) (A) (A) (A) (A) (A) (A) (A) (A) (A)
                 (A) (A) (A) (A) (A) (A) (A) (A) (A) (A) (A) (A)
                 (A) (A) (A) (A)
 The electronic state of the initial guess is 1-A.
 Leave Link  401 at Fri Sep  3 00:06:33 2021, MaxMem=  268435456 cpu:       9.8
 (Enter /sw/target/amd/app/gaussian/Gaussian09RevA.02_gcc-4.9.2/g09/l502.exe)
 Closed shell SCF:
 Requested convergence on RMS density matrix=1.00D-08 within  64 cycles.
 Requested convergence on MAX density matrix=1.00D-06.
 Requested convergence on             energy=1.00D-06.
 No special actions if energy rises.
 Using DIIS extrapolation, IDIIS=  1040.
 Integral symmetry usage will be decided dynamically.
       328006 words used for storage of precomputed grid.
 IEnd=      626062 IEndB=      626062 NGot=   268435456 MDV=   267910029
 LenX=   267910029 LenY=   267813488
 Fock matrices will be formed incrementally for  20 cycles.
 Integral accuracy reduced to 1.0D-05 until final iterations.

 Cycle   1  Pass 0  IDiag  1:
 FoFCou: FMM=F IPFlag=           0 FMFlag=      100000 FMFlg1=           0
         NFxFlg=           0 DoJE=F BraDBF=F KetDBF=F FulRan=T
         Omega=  0.000000  0.000000  1.000000  0.000000  0.000000 ICntrl=       0 IOpCl=  0
         NMat0=    1 NMatS0=    1 NMatT0=    0 NMatD0=    1 NMtDS0=    0 NMtDT0=    0
         I1Cent=           0 NGrid=           0.
 Symmetry not used in FoFCou.
 E= -771.747794076202    
 DIIS: error= 3.31D-02 at cycle   1 NSaved=   1.
 NSaved= 1 IEnMin= 1 EnMin= -771.747794076202     IErMin= 1 ErrMin= 3.31D-02
 ErrMax= 3.31D-02 EMaxC= 1.00D-01 BMatC= 3.94D-01 BMatP= 3.94D-01
 IDIUse=3 WtCom= 6.69D-01 WtEn= 3.31D-01
 Coeff-Com:  0.100D+01
 Coeff-En:   0.100D+01
 Coeff:      0.100D+01
 Gap=     0.178 Goal=   None    Shift=    0.000
 GapD=    0.178 DampG=1.000 DampE=0.500 DampFc=0.5000 IDamp=-1.
 Damping current iteration by 5.00D-01
 RMSDP=5.12D-03 MaxDP=1.38D-01              OVMax= 1.65D-01

 Cycle   2  Pass 0  IDiag  1:
 RMSU=  1.77D-03    CP:  9.73D-01
 E= -771.950847484337     Delta-E=       -0.203053408136 Rises=F Damp=T
 DIIS: error= 6.56D-03 at cycle   2 NSaved=   2.
 NSaved= 2 IEnMin= 2 EnMin= -771.950847484337     IErMin= 2 ErrMin= 6.56D-03
 ErrMax= 6.56D-03 EMaxC= 1.00D-01 BMatC= 2.19D-02 BMatP= 3.94D-01
 IDIUse=3 WtCom= 9.34D-01 WtEn= 6.56D-02
 Coeff-Com:  0.223D-01 0.978D+00
 Coeff-En:   0.309D-01 0.969D+00
 Coeff:      0.229D-01 0.977D+00
 Gap=     0.172 Goal=   None    Shift=    0.000
 RMSDP=1.47D-03 MaxDP=3.98D-02 DE=-2.03D-01 OVMax= 1.46D-01

 Cycle   3  Pass 0  IDiag  1:
 RMSU=  1.01D-03    CP:  9.59D-01  9.26D-01
 E= -772.166691148801     Delta-E=       -0.215843664464 Rises=F Damp=F
 DIIS: error= 6.12D-03 at cycle   3 NSaved=   3.
 NSaved= 3 IEnMin= 3 EnMin= -772.166691148801     IErMin= 3 ErrMin= 6.12D-03
 ErrMax= 6.12D-03 EMaxC= 1.00D-01 BMatC= 1.58D-02 BMatP= 2.19D-02
 IDIUse=3 WtCom= 9.39D-01 WtEn= 6.12D-02
 Coeff-Com: -0.301D-01 0.460D+00 0.570D+00
 Coeff-En:   0.000D+00 0.000D+00 0.100D+01
 Coeff:     -0.283D-01 0.431D+00 0.597D+00
 Gap=     0.165 Goal=   None    Shift=    0.000
 RMSDP=7.12D-04 MaxDP=3.25D-02 DE=-2.16D-01 OVMax= 6.91D-02

 Cycle   4  Pass 0  IDiag  1:
 RMSU=  3.59D-04    CP:  9.61D-01  9.82D-01  6.67D-01
 E= -772.176617649958     Delta-E=       -0.009926501157 Rises=F Damp=F
 DIIS: error= 3.68D-03 at cycle   4 NSaved=   4.
 NSaved= 4 IEnMin= 4 EnMin= -772.176617649958     IErMin= 4 ErrMin= 3.68D-03
 ErrMax= 3.68D-03 EMaxC= 1.00D-01 BMatC= 5.89D-03 BMatP= 1.58D-02
 IDIUse=3 WtCom= 9.63D-01 WtEn= 3.68D-02
 Coeff-Com: -0.190D-01 0.115D+00 0.387D+00 0.517D+00
 Coeff-En:   0.000D+00 0.000D+00 0.307D+00 0.693D+00
 Coeff:     -0.183D-01 0.111D+00 0.384D+00 0.523D+00
 Gap=     0.163 Goal=   None    Shift=    0.000
 RMSDP=3.11D-04 MaxDP=1.44D-02 DE=-9.93D-03 OVMax= 3.72D-02

 Cycle   5  Pass 0  IDiag  1:
 RMSU=  9.65D-05    CP:  9.60D-01  9.77D-01  7.60D-01  5.18D-01
 E= -772.182424619312     Delta-E=       -0.005806969354 Rises=F Damp=F
 DIIS: error= 8.41D-04 at cycle   5 NSaved=   5.
 NSaved= 5 IEnMin= 5 EnMin= -772.182424619312     IErMin= 5 ErrMin= 8.41D-04
 ErrMax= 8.41D-04 EMaxC= 1.00D-01 BMatC= 3.40D-04 BMatP= 5.89D-03
 IDIUse=3 WtCom= 9.92D-01 WtEn= 8.41D-03
 Coeff-Com: -0.742D-02 0.308D-01 0.173D+00 0.291D+00 0.512D+00
 Coeff-En:   0.000D+00 0.000D+00 0.000D+00 0.000D+00 0.100D+01
 Coeff:     -0.736D-02 0.305D-01 0.171D+00 0.289D+00 0.517D+00
 Gap=     0.162 Goal=   None    Shift=    0.000
 RMSDP=8.13D-05 MaxDP=3.58D-03 DE=-5.81D-03 OVMax= 8.69D-03

 Cycle   6  Pass 0  IDiag  1:
 RMSU=  3.22D-05    CP:  9.60D-01  9.77D-01  7.54D-01  5.82D-01  5.72D-01
 E= -772.182750729808     Delta-E=       -0.000326110495 Rises=F Damp=F
 DIIS: error= 3.29D-04 at cycle   6 NSaved=   6.
 NSaved= 6 IEnMin= 6 EnMin= -772.182750729808     IErMin= 6 ErrMin= 3.29D-04
 ErrMax= 3.29D-04 EMaxC= 1.00D-01 BMatC= 3.29D-05 BMatP= 3.40D-04
 IDIUse=3 WtCom= 9.97D-01 WtEn= 3.29D-03
 Coeff-Com: -0.170D-02 0.279D-02 0.490D-01 0.967D-01 0.289D+00 0.564D+00
 Coeff-En:   0.000D+00 0.000D+00 0.000D+00 0.000D+00 0.340D-01 0.966D+00
 Coeff:     -0.169D-02 0.278D-02 0.488D-01 0.964D-01 0.288D+00 0.566D+00
 Gap=     0.162 Goal=   None    Shift=    0.000
 RMSDP=2.00D-05 MaxDP=8.68D-04 DE=-3.26D-04 OVMax= 1.88D-03

 Cycle   7  Pass 0  IDiag  1:
 RMSU=  6.55D-06    CP:  9.60D-01  9.77D-01  7.60D-01  5.74D-01  6.26D-01
                    CP:  7.03D-01
 E= -772.182779071435     Delta-E=       -0.000028341628 Rises=F Damp=F
 DIIS: error= 7.85D-05 at cycle   7 NSaved=   7.
 NSaved= 7 IEnMin= 7 EnMin= -772.182779071435     IErMin= 7 ErrMin= 7.85D-05
 ErrMax= 7.85D-05 EMaxC= 1.00D-01 BMatC= 1.51D-06 BMatP= 3.29D-05
 IDIUse=1 WtCom= 1.00D+00 WtEn= 0.00D+00
 Coeff-Com: -0.500D-03 0.131D-03 0.176D-01 0.366D-01 0.128D+00 0.293D+00
 Coeff-Com:  0.525D+00
 Coeff:     -0.500D-03 0.131D-03 0.176D-01 0.366D-01 0.128D+00 0.293D+00
 Coeff:      0.525D+00
 Gap=     0.162 Goal=   None    Shift=    0.000
 RMSDP=4.73D-06 MaxDP=1.87D-04 DE=-2.83D-05 OVMax= 2.27D-04

 Initial convergence to 1.0D-05 achieved.  Increase integral accuracy.
 Cycle   8  Pass 1  IDiag  1:
 E= -772.182798095477     Delta-E=       -0.000019024042 Rises=F Damp=F
 DIIS: error= 3.34D-05 at cycle   1 NSaved=   1.
 NSaved= 1 IEnMin= 1 EnMin= -772.182798095477     IErMin= 1 ErrMin= 3.34D-05
 ErrMax= 3.34D-05 EMaxC= 1.00D-01 BMatC= 2.62D-07 BMatP= 2.62D-07
 IDIUse=1 WtCom= 1.00D+00 WtEn= 0.00D+00
 Coeff-Com:  0.100D+01
 Coeff:      0.100D+01
 Gap=     0.162 Goal=   None    Shift=    0.000
 RMSDP=4.73D-06 MaxDP=1.87D-04 DE=-1.90D-05 OVMax= 2.33D-04

 Cycle   9  Pass 1  IDiag  1:
 RMSU=  1.48D-05    CP:  1.00D+00
 E= -772.182798222904     Delta-E=       -0.000000127427 Rises=F Damp=F
 DIIS: error= 2.21D-05 at cycle   2 NSaved=   2.
 NSaved= 2 IEnMin= 2 EnMin= -772.182798222904     IErMin= 2 ErrMin= 2.21D-05
 ErrMax= 2.21D-05 EMaxC= 1.00D-01 BMatC= 1.73D-07 BMatP= 2.62D-07
 IDIUse=1 WtCom= 1.00D+00 WtEn= 0.00D+00
 Coeff-Com:  0.429D+00 0.571D+00
 Coeff:      0.429D+00 0.571D+00
 Gap=     0.162 Goal=   None    Shift=    0.000
 RMSDP=2.32D-06 MaxDP=7.93D-05 DE=-1.27D-07 OVMax= 2.45D-04

 Cycle  10  Pass 1  IDiag  1:
 RMSU=  1.64D-06    CP:  1.00D+00  9.97D-01
 E= -772.182798326612     Delta-E=       -0.000000103708 Rises=F Damp=F
 DIIS: error= 1.85D-05 at cycle   3 NSaved=   3.
 NSaved= 3 IEnMin= 3 EnMin= -772.182798326612     IErMin= 3 ErrMin= 1.85D-05
 ErrMax= 1.85D-05 EMaxC= 1.00D-01 BMatC= 6.50D-08 BMatP= 1.73D-07
 IDIUse=1 WtCom= 1.00D+00 WtEn= 0.00D+00
 Coeff-Com:  0.257D-01 0.375D+00 0.599D+00
 Coeff:      0.257D-01 0.375D+00 0.599D+00
 Gap=     0.162 Goal=   None    Shift=    0.000
 RMSDP=1.16D-06 MaxDP=4.60D-05 DE=-1.04D-07 OVMax= 1.50D-04

 Cycle  11  Pass 1  IDiag  1:
 RMSU=  3.91D-07    CP:  1.00D+00  1.01D+00  5.70D-01
 E= -772.182798388022     Delta-E=       -0.000000061410 Rises=F Damp=F
 DIIS: error= 6.84D-06 at cycle   4 NSaved=   4.
 NSaved= 4 IEnMin= 4 EnMin= -772.182798388022     IErMin= 4 ErrMin= 6.84D-06
 ErrMax= 6.84D-06 EMaxC= 1.00D-01 BMatC= 8.26D-09 BMatP= 6.50D-08
 IDIUse=1 WtCom= 1.00D+00 WtEn= 0.00D+00
 Coeff-Com: -0.916D-02 0.210D+00 0.390D+00 0.409D+00
 Coeff:     -0.916D-02 0.210D+00 0.390D+00 0.409D+00
 Gap=     0.162 Goal=   None    Shift=    0.000
 RMSDP=3.54D-07 MaxDP=1.57D-05 DE=-6.14D-08 OVMax= 4.46D-05

 Cycle  12  Pass 1  IDiag  1:
 RMSU=  9.76D-08    CP:  1.00D+00  1.01D+00  6.31D-01  4.71D-01
 E= -772.182798396864     Delta-E=       -0.000000008842 Rises=F Damp=F
 DIIS: error= 8.02D-07 at cycle   5 NSaved=   5.
 NSaved= 5 IEnMin= 5 EnMin= -772.182798396864     IErMin= 5 ErrMin= 8.02D-07
 ErrMax= 8.02D-07 EMaxC= 1.00D-01 BMatC= 1.54D-10 BMatP= 8.26D-09
 IDIUse=1 WtCom= 1.00D+00 WtEn= 0.00D+00
 Coeff-Com: -0.583D-02 0.859D-01 0.164D+00 0.203D+00 0.554D+00
 Coeff:     -0.583D-02 0.859D-01 0.164D+00 0.203D+00 0.554D+00
 Gap=     0.162 Goal=   None    Shift=    0.000
 RMSDP=5.63D-08 MaxDP=2.11D-06 DE=-8.84D-09 OVMax= 5.76D-06

 Cycle  13  Pass 1  IDiag  1:
 RMSU=  3.13D-08    CP:  1.00D+00  1.01D+00  6.25D-01  4.88D-01  7.77D-01
 E= -772.182798396985     Delta-E=       -0.000000000121 Rises=F Damp=F
 DIIS: error= 2.30D-07 at cycle   6 NSaved=   6.
 NSaved= 6 IEnMin= 6 EnMin= -772.182798396985     IErMin= 6 ErrMin= 2.30D-07
 ErrMax= 2.30D-07 EMaxC= 1.00D-01 BMatC= 2.08D-11 BMatP= 1.54D-10
 IDIUse=1 WtCom= 1.00D+00 WtEn= 0.00D+00
 Coeff-Com: -0.246D-02 0.285D-01 0.552D-01 0.750D-01 0.316D+00 0.528D+00
 Coeff:     -0.246D-02 0.285D-01 0.552D-01 0.750D-01 0.316D+00 0.528D+00
 Gap=     0.162 Goal=   None    Shift=    0.000
 RMSDP=1.89D-08 MaxDP=6.89D-07 DE=-1.21D-10 OVMax= 1.61D-06

 Cycle  14  Pass 1  IDiag  1:
 RMSU=  1.06D-08    CP:  1.00D+00  1.01D+00  6.26D-01  4.89D-01  8.16D-01
                    CP:  7.77D-01
 E= -772.182798397005     Delta-E=       -0.000000000020 Rises=F Damp=F
 DIIS: error= 8.66D-08 at cycle   7 NSaved=   7.
 NSaved= 7 IEnMin= 7 EnMin= -772.182798397005     IErMin= 7 ErrMin= 8.66D-08
 ErrMax= 8.66D-08 EMaxC= 1.00D-01 BMatC= 1.69D-12 BMatP= 2.08D-11
 IDIUse=1 WtCom= 1.00D+00 WtEn= 0.00D+00
 Coeff-Com: -0.534D-03 0.430D-02 0.867D-02 0.134D-01 0.949D-01 0.266D+00
 Coeff-Com:  0.613D+00
 Coeff:     -0.534D-03 0.430D-02 0.867D-02 0.134D-01 0.949D-01 0.266D+00
 Coeff:      0.613D+00
 Gap=     0.162 Goal=   None    Shift=    0.000
 RMSDP=6.68D-09 MaxDP=2.59D-07 DE=-1.96D-11 OVMax= 6.53D-07

 SCF Done:  E(RB3LYP) =  -772.182798397     A.U. after   14 cycles
             Convg  =    0.6680D-08             -V/T =  2.0093
 KE= 7.650360401170D+02 PE=-4.242430847536D+03 EE= 1.480800903111D+03
 Leave Link  502 at Fri Sep  3 00:12:42 2021, MaxMem=  268435456 cpu:     368.0
 (Enter /sw/target/amd/app/gaussian/Gaussian09RevA.02_gcc-4.9.2/g09/l508.exe)
 QCSCF skips out because SCF is already converged.
 Leave Link  508 at Fri Sep  3 00:12:42 2021, MaxMem=  268435456 cpu:       0.0
 (Enter /sw/target/amd/app/gaussian/Gaussian09RevA.02_gcc-4.9.2/g09/l601.exe)
 Copying SCF densities to generalized density rwf, IOpCl= 0 IROHF=0.

 **********************************************************************

            Population analysis using the SCF density.

 **********************************************************************

 Orbital symmetries:
       Occupied  (A) (A) (A) (A) (A) (A) (A) (A) (A) (A) (A) (A)
                 (A) (A) (A) (A) (A) (A) (A) (A) (A) (A) (A) (A)
                 (A) (A) (A) (A) (A) (A) (A) (A) (A) (A) (A) (A)
                 (A) (A) (A) (A) (A) (A) (A) (A) (A) (A) (A) (A)
                 (A) (A) (A) (A) (A) (A) (A) (A) (A) (A) (A) (A)
                 (A) (A) (A) (A) (A) (A)
       Virtual   (A) (A) (A) (A) (A) (A) (A) (A) (A) (A) (A) (A)
                 (A) (A) (A) (A) (A) (A) (A) (A) (A) (A) (A) (A)
                 (A) (A) (A) (A) (A) (A) (A) (A) (A) (A) (A) (A)
                 (A) (A) (A) (A) (A) (A) (A) (A) (A) (A) (A) (A)
                 (A) (A) (A) (A) (A) (A) (A) (A) (A) (A) (A) (A)
                 (A) (A) (A) (A) (A) (A) (A) (A) (A) (A) (A) (A)
                 (A) (A) (A) (A) (A) (A) (A) (A) (A) (A) (A) (A)
                 (A) (A) (A) (A) (A) (A) (A) (A) (A) (A) (A) (A)
                 (A) (A) (A) (A) (A) (A) (A) (A) (A) (A) (A) (A)
                 (A) (A) (A) (A) (A) (A) (A) (A) (A) (A) (A) (A)
                 (A) (A) (A) (A) (A) (A) (A) (A) (A) (A) (A) (A)
                 (A) (A) (A) (A) (A) (A) (A) (A) (A) (A) (A) (A)
                 (A) (A) (A) (A) (A) (A) (A) (A) (A) (A) (A) (A)
                 (A) (A) (A) (A) (A) (A) (A) (A) (A) (A) (A) (A)
                 (A) (A) (A) (A) (A) (A) (A) (A) (A) (A) (A) (A)
                 (A) (A) (A) (A) (A) (A) (A) (A) (A) (A) (A) (A)
                 (A) (A) (A) (A) (A) (A) (A) (A) (A) (A) (A) (A)
                 (A) (A) (A) (A) (A) (A) (A) (A) (A) (A) (A) (A)
                 (A) (A) (A) (A) (A) (A) (A) (A) (A) (A) (A) (A)
                 (A) (A) (A) (A) (A) (A) (A) (A) (A) (A) (A) (A)
                 (A) (A) (A) (A)
 The electronic state is 1-A.
 Alpha  occ. eigenvalues --  -19.17536 -19.14314 -10.24139 -10.23781 -10.22506
 Alpha  occ. eigenvalues --  -10.22424 -10.18691 -10.18541 -10.18351 -10.18212
 Alpha  occ. eigenvalues --  -10.18144 -10.18080 -10.18016 -10.17947 -10.17831
 Alpha  occ. eigenvalues --  -10.17770 -10.17756 -10.17358  -1.05932  -1.02277
 Alpha  occ. eigenvalues --   -0.86797  -0.82120  -0.79208  -0.76564  -0.75493
 Alpha  occ. eigenvalues --   -0.72431  -0.70652  -0.69278  -0.66501  -0.63175
 Alpha  occ. eigenvalues --   -0.61760  -0.59286  -0.58261  -0.56030  -0.52306
 Alpha  occ. eigenvalues --   -0.50400  -0.49854  -0.48326  -0.47839  -0.46734
 Alpha  occ. eigenvalues --   -0.46153  -0.45397  -0.44504  -0.43823  -0.42872
 Alpha  occ. eigenvalues --   -0.41924  -0.41035  -0.40132  -0.39583  -0.39138
 Alpha  occ. eigenvalues --   -0.38382  -0.37565  -0.36030  -0.35407  -0.34891
 Alpha  occ. eigenvalues --   -0.33910  -0.33753  -0.32395  -0.31822  -0.31615
 Alpha  occ. eigenvalues --   -0.30633  -0.28821  -0.26761  -0.25175  -0.22207
 Alpha  occ. eigenvalues --   -0.19360
 Alpha virt. eigenvalues --   -0.03148   0.01024   0.04132   0.08122   0.09948
 Alpha virt. eigenvalues --    0.10696   0.10995   0.11272   0.12091   0.12516
 Alpha virt. eigenvalues --    0.13813   0.14017   0.14594   0.15132   0.15549
 Alpha virt. eigenvalues --    0.16051   0.16649   0.17196   0.17431   0.17990
 Alpha virt. eigenvalues --    0.18812   0.19084   0.19412   0.20109   0.20833
 Alpha virt. eigenvalues --    0.21560   0.21825   0.23056   0.25144   0.25653
 Alpha virt. eigenvalues --    0.26324   0.27015   0.28279   0.28674   0.31790
 Alpha virt. eigenvalues --    0.33477   0.34747   0.35672   0.37151   0.40256
 Alpha virt. eigenvalues --    0.47925   0.49017   0.50487   0.51324   0.51791
 Alpha virt. eigenvalues --    0.52115   0.52490   0.53008   0.53981   0.54478
 Alpha virt. eigenvalues --    0.55219   0.55649   0.56325   0.56667   0.57039
 Alpha virt. eigenvalues --    0.57163   0.58050   0.58560   0.59429   0.60229
 Alpha virt. eigenvalues --    0.61914   0.62180   0.62745   0.62972   0.63894
 Alpha virt. eigenvalues --    0.64534   0.65237   0.66360   0.66394   0.68062
 Alpha virt. eigenvalues --    0.69283   0.70457   0.71796   0.73553   0.75383
 Alpha virt. eigenvalues --    0.76610   0.78941   0.81008   0.81755   0.82422
 Alpha virt. eigenvalues --    0.82968   0.83561   0.83931   0.84113   0.85218
 Alpha virt. eigenvalues --    0.85686   0.85793   0.86680   0.87448   0.87720
 Alpha virt. eigenvalues --    0.88278   0.88847   0.89771   0.89997   0.91843
 Alpha virt. eigenvalues --    0.92110   0.92922   0.93277   0.95094   0.95685
 Alpha virt. eigenvalues --    0.95897   0.96125   0.98016   0.98456   0.99540
 Alpha virt. eigenvalues --    1.00943   1.02947   1.05033   1.05343   1.06500
 Alpha virt. eigenvalues --    1.07732   1.09550   1.11613   1.13020   1.16011
 Alpha virt. eigenvalues --    1.18198   1.19102   1.19447   1.20939   1.24195
 Alpha virt. eigenvalues --    1.24630   1.25421   1.26596   1.28217   1.33278
 Alpha virt. eigenvalues --    1.37696   1.37776   1.39273   1.40380   1.42992
 Alpha virt. eigenvalues --    1.44048   1.45215   1.46343   1.46999   1.47895
 Alpha virt. eigenvalues --    1.49276   1.49933   1.50271   1.50765   1.52247
 Alpha virt. eigenvalues --    1.53060   1.54212   1.55712   1.58176   1.64164
 Alpha virt. eigenvalues --    1.69369   1.71290   1.75480   1.77521   1.78359
 Alpha virt. eigenvalues --    1.79981   1.82139   1.83022   1.85116   1.86973
 Alpha virt. eigenvalues --    1.87579   1.87758   1.89339   1.92544   1.93155
 Alpha virt. eigenvalues --    1.94486   1.94636   1.95472   1.96855   1.97850
 Alpha virt. eigenvalues --    1.98523   1.98870   2.01623   2.03177   2.04856
 Alpha virt. eigenvalues --    2.05565   2.06938   2.07331   2.08786   2.09660
 Alpha virt. eigenvalues --    2.11548   2.11783   2.12909   2.13309   2.16272
 Alpha virt. eigenvalues --    2.18161   2.19257   2.23152   2.23781   2.25449
 Alpha virt. eigenvalues --    2.26218   2.28191   2.29470   2.30855   2.32902
 Alpha virt. eigenvalues --    2.33979   2.34167   2.35134   2.36068   2.38229
 Alpha virt. eigenvalues --    2.39573   2.41523   2.42864   2.45647   2.46311
 Alpha virt. eigenvalues --    2.50469   2.51336   2.54783   2.57671   2.60031
 Alpha virt. eigenvalues --    2.64240   2.65577   2.66317   2.68084   2.70643
 Alpha virt. eigenvalues --    2.71265   2.73023   2.77989   2.79391   2.80877
 Alpha virt. eigenvalues --    2.83735   2.87395   2.89214   2.92629   2.95532
 Alpha virt. eigenvalues --    2.96855   3.02506   3.10663   3.15060   3.41070
 Alpha virt. eigenvalues --    3.50882   3.91858   4.05863   4.10623   4.11904
 Alpha virt. eigenvalues --    4.13909   4.14483   4.17788   4.22435   4.24746
 Alpha virt. eigenvalues --    4.27567   4.32087   4.35703   4.41981   4.45349
 Alpha virt. eigenvalues --    4.47701   4.55322   4.64547   4.86454
          Condensed to atoms (all electrons):
              1          2          3          4          5          6
     1  C    4.874496   0.257813  -0.041447   0.005754   0.000109  -0.000021
     2  O    0.257813   8.197412   0.242373  -0.048407   0.001465  -0.001953
     3  C   -0.041447   0.242373   4.841376   0.382202  -0.039885  -0.003203
     4  C    0.005754  -0.048407   0.382202   5.059961   0.345292  -0.040711
     5  C    0.000109   0.001465  -0.039885   0.345292   5.025949   0.364845
     6  C   -0.000021  -0.001953  -0.003203  -0.040711   0.364845   5.149143
     7  C    0.000001  -0.000005   0.000198   0.004086  -0.041690   0.357198
     8  C    0.000000  -0.000000  -0.000001   0.000012  -0.002971  -0.055213
     9  C   -0.000000  -0.000000  -0.000000   0.000003  -0.000157   0.006839
    10  C    0.000000   0.000000   0.000000  -0.000000   0.000020   0.000871
    11  C   -0.000000   0.000000   0.000000  -0.000000   0.000000  -0.000000
    12  C   -0.000000  -0.000000  -0.000000   0.000000  -0.000000  -0.000000
    13  O   -0.000000   0.000000  -0.000000  -0.000000   0.000000   0.000000
    14  C    0.000000   0.000000   0.000000  -0.000000   0.000000  -0.000000
    15  C   -0.000000   0.000000   0.000000   0.000000   0.000000   0.000002
    16  C   -0.000000  -0.000000   0.000000  -0.000000   0.000001  -0.000244
    17  C    0.000000  -0.000000  -0.000000   0.000003  -0.000036   0.004898
    18  C   -0.000000  -0.000027  -0.000008   0.000163  -0.003635  -0.052887
    19  H    0.361981  -0.039177  -0.009274   0.000175  -0.000156   0.000052
    20  H    0.383786  -0.031450   0.006014  -0.000252   0.000011   0.000003
    21  H    0.361964  -0.039473  -0.008630  -0.000216   0.000060  -0.000007
    22  H   -0.006673  -0.041556   0.360227  -0.037540   0.006326  -0.000186
    23  H   -0.006699  -0.043974   0.352731  -0.037450  -0.011609   0.005535
    24  H   -0.000206   0.002936  -0.034019   0.361108  -0.037014  -0.005628
    25  H   -0.000050   0.001220  -0.034532   0.366098  -0.035809   0.004913
    26  H    0.000001   0.000148   0.005129  -0.036146   0.371812  -0.043590
    27  H   -0.000307   0.009070  -0.009445  -0.032701   0.374905  -0.036701
    28  H    0.000062   0.002240   0.003265  -0.007294  -0.033447   0.357178
    29  H   -0.000000   0.000075  -0.001113  -0.002901  -0.040596   0.358709
    30  H   -0.000000   0.000000   0.000000  -0.000053   0.000403  -0.009450
    31  H    0.000000  -0.000000   0.000000  -0.000000   0.000000  -0.000200
    32  H    0.000000  -0.000000  -0.000000   0.000000  -0.000000   0.000000
    33  H    0.000000   0.000000   0.000000   0.000000   0.000000   0.000000
    34  H   -0.000000  -0.000000   0.000000  -0.000000   0.000000   0.000000
    35  H    0.000000   0.000000  -0.000000   0.000000  -0.000000  -0.000000
    36  H    0.000000   0.000000  -0.000000  -0.000000   0.000000  -0.000000
    37  H    0.000000  -0.000000   0.000000  -0.000000  -0.000001  -0.000007
    38  H    0.000005   0.000081   0.000011  -0.000111   0.000536  -0.008378
              7          8          9         10         11         12
     1  C    0.000001   0.000000  -0.000000   0.000000  -0.000000  -0.000000
     2  O   -0.000005  -0.000000  -0.000000   0.000000   0.000000  -0.000000
     3  C    0.000198  -0.000001  -0.000000   0.000000   0.000000  -0.000000
     4  C    0.004086   0.000012   0.000003  -0.000000  -0.000000   0.000000
     5  C   -0.041690  -0.002971  -0.000157   0.000020   0.000000  -0.000000
     6  C    0.357198  -0.055213   0.006839   0.000871  -0.000000  -0.000000
     7  C    4.680386   0.513960  -0.011447  -0.030491  -0.000585   0.000033
     8  C    0.513960   5.002779   0.482228  -0.010663   0.008411  -0.000267
     9  C   -0.011447   0.482228   5.157647   0.453555  -0.094375   0.007247
    10  C   -0.030491  -0.010663   0.453555   4.670562   0.390925   0.023996
    11  C   -0.000585   0.008411  -0.094375   0.390925   5.425056   0.421754
    12  C    0.000033  -0.000267   0.007247   0.023996   0.421754   4.560615
    13  O   -0.000000   0.000000  -0.000052   0.002930  -0.056579   0.275994
    14  C    0.000000  -0.000000  -0.000021   0.000574  -0.007517  -0.045134
    15  C   -0.000285   0.000040  -0.000521  -0.034996  -0.057880   0.502928
    16  C    0.007873  -0.000244   0.017125  -0.027009  -0.078435  -0.004798
    17  C    0.001797  -0.045204  -0.020615   0.490432  -0.035241  -0.036668
    18  C    0.503029  -0.025792  -0.084742  -0.031192   0.018400  -0.000637
    19  H    0.000000   0.000000   0.000000  -0.000000  -0.000000   0.000000
    20  H    0.000000   0.000000   0.000000  -0.000000  -0.000000   0.000000
    21  H   -0.000000  -0.000000  -0.000000   0.000000   0.000000  -0.000000
    22  H   -0.000001  -0.000000  -0.000000   0.000000   0.000000  -0.000000
    23  H   -0.000004   0.000001  -0.000000  -0.000000  -0.000000  -0.000000
    24  H   -0.000027   0.000001   0.000000   0.000000   0.000000   0.000000
    25  H   -0.000123  -0.000002  -0.000000  -0.000000  -0.000000  -0.000000
    26  H   -0.001039   0.003305  -0.000131  -0.000009  -0.000000   0.000000
    27  H   -0.003334  -0.000115   0.000003   0.000002  -0.000000   0.000000
    28  H   -0.027346   0.003736  -0.000251   0.000021   0.000000  -0.000000
    29  H   -0.032335  -0.005522   0.000233  -0.000016  -0.000000   0.000000
    30  H   -0.042032   0.351668  -0.040664   0.002769  -0.000192   0.000003
    31  H    0.003439  -0.041532   0.348110  -0.039396  -0.009185   0.000182
    32  H    0.000019   0.000147  -0.008976  -0.036869   0.346133  -0.049653
    33  H    0.000000   0.000000   0.000000   0.000007   0.000184   0.003066
    34  H    0.000000  -0.000000  -0.000011  -0.000188   0.005367  -0.004492
    35  H   -0.000000  -0.000000  -0.000011  -0.000197   0.005389  -0.004433
    36  H    0.000003  -0.000000   0.000007   0.000406   0.007405  -0.035673
    37  H    0.000163   0.000014  -0.000206   0.004701   0.000394   0.003960
    38  H   -0.046004   0.005782   0.000358   0.004443  -0.000194   0.000012
             13         14         15         16         17         18
     1  C   -0.000000   0.000000  -0.000000  -0.000000   0.000000  -0.000000
     2  O    0.000000   0.000000   0.000000  -0.000000  -0.000000  -0.000027
     3  C   -0.000000   0.000000   0.000000   0.000000  -0.000000  -0.000008
     4  C   -0.000000  -0.000000   0.000000  -0.000000   0.000003   0.000163
     5  C    0.000000   0.000000   0.000000   0.000001  -0.000036  -0.003635
     6  C    0.000000  -0.000000   0.000002  -0.000244   0.004898  -0.052887
     7  C   -0.000000   0.000000  -0.000285   0.007873   0.001797   0.503029
     8  C    0.000000  -0.000000   0.000040  -0.000244  -0.045204  -0.025792
     9  C   -0.000052  -0.000021  -0.000521   0.017125  -0.020615  -0.084742
    10  C    0.002930   0.000574  -0.034996  -0.027009   0.490432  -0.031192
    11  C   -0.056579  -0.007517  -0.057880  -0.078435  -0.035241   0.018400
    12  C    0.275994  -0.045134   0.502928  -0.004798  -0.036668  -0.000637
    13  O    8.199896   0.250199  -0.052837   0.002946   0.000347   0.000001
    14  C    0.250199   4.894258   0.004372  -0.000134   0.000005  -0.000000
    15  C   -0.052837   0.004372   5.015879   0.497569  -0.007139   0.008266
    16  C    0.002946  -0.000134   0.497569   5.143727   0.432765  -0.097414
    17  C    0.000347   0.000005  -0.007139   0.432765   4.713799   0.412735
    18  C    0.000001  -0.000000   0.008266  -0.097414   0.412735   5.267779
    19  H    0.000000  -0.000000   0.000000   0.000000  -0.000000   0.000000
    20  H    0.000000   0.000000  -0.000000  -0.000000   0.000000   0.000000
    21  H    0.000000   0.000000   0.000000  -0.000000  -0.000000  -0.000000
    22  H    0.000000  -0.000000   0.000000  -0.000000  -0.000000  -0.000000
    23  H   -0.000000   0.000000  -0.000000   0.000000  -0.000000  -0.000000
    24  H    0.000000  -0.000000  -0.000000  -0.000000  -0.000000   0.000002
    25  H    0.000000   0.000000  -0.000000   0.000000  -0.000000  -0.000004
    26  H   -0.000000  -0.000000   0.000000   0.000000  -0.000032  -0.000226
    27  H   -0.000000  -0.000000  -0.000000  -0.000006  -0.000098   0.004198
    28  H   -0.000000   0.000000  -0.000000   0.000001  -0.000023  -0.006051
    29  H   -0.000000   0.000000  -0.000000   0.000003  -0.000126   0.004209
    30  H   -0.000000  -0.000000  -0.000001   0.000012   0.000807   0.005716
    31  H   -0.000000  -0.000004   0.000015  -0.000211   0.004689   0.000884
    32  H   -0.007191   0.006170   0.004549   0.000526   0.004924  -0.000204
    33  H   -0.031182   0.383627  -0.000115   0.000004  -0.000000  -0.000000
    34  H   -0.036027   0.363962   0.000019  -0.000002   0.000003   0.000000
    35  H   -0.035995   0.363951   0.000028  -0.000002   0.000003   0.000000
    36  H    0.000062  -0.000190   0.342811  -0.037337   0.003353  -0.000168
    37  H   -0.000062   0.000003  -0.042760   0.354900  -0.039737  -0.008566
    38  H    0.000000   0.000000   0.000189  -0.007856  -0.044193   0.351036
             19         20         21         22         23         24
     1  C    0.361981   0.383786   0.361964  -0.006673  -0.006699  -0.000206
     2  O   -0.039177  -0.031450  -0.039473  -0.041556  -0.043974   0.002936
     3  C   -0.009274   0.006014  -0.008630   0.360227   0.352731  -0.034019
     4  C    0.000175  -0.000252  -0.000216  -0.037540  -0.037450   0.361108
     5  C   -0.000156   0.000011   0.000060   0.006326  -0.011609  -0.037014
     6  C    0.000052   0.000003  -0.000007  -0.000186   0.005535  -0.005628
     7  C    0.000000   0.000000  -0.000000  -0.000001  -0.000004  -0.000027
     8  C    0.000000   0.000000  -0.000000  -0.000000   0.000001   0.000001
     9  C    0.000000   0.000000  -0.000000  -0.000000  -0.000000   0.000000
    10  C   -0.000000  -0.000000   0.000000   0.000000  -0.000000   0.000000
    11  C   -0.000000  -0.000000   0.000000   0.000000  -0.000000   0.000000
    12  C    0.000000   0.000000  -0.000000  -0.000000  -0.000000   0.000000
    13  O    0.000000   0.000000   0.000000   0.000000  -0.000000   0.000000
    14  C   -0.000000   0.000000   0.000000  -0.000000   0.000000  -0.000000
    15  C    0.000000  -0.000000   0.000000   0.000000  -0.000000  -0.000000
    16  C    0.000000  -0.000000  -0.000000  -0.000000   0.000000  -0.000000
    17  C   -0.000000   0.000000  -0.000000  -0.000000  -0.000000  -0.000000
    18  C    0.000000   0.000000  -0.000000  -0.000000  -0.000000   0.000002
    19  H    0.626410  -0.034988  -0.048843  -0.002664   0.014816   0.000016
    20  H   -0.034988   0.554805  -0.034852  -0.000136  -0.000145   0.000003
    21  H   -0.048843  -0.034852   0.626765   0.014169  -0.002949   0.000003
    22  H   -0.002664  -0.000136   0.014169   0.655546  -0.059219  -0.000107
    23  H    0.014816  -0.000145  -0.002949  -0.059219   0.661879  -0.000544
    24  H    0.000016   0.000003   0.000003  -0.000107  -0.000544   0.609984
    25  H    0.000038   0.000003  -0.000061  -0.007783   0.006391  -0.033109
    26  H   -0.000001  -0.000000   0.000001  -0.000086  -0.000079  -0.004465
    27  H    0.000028  -0.000004   0.000016   0.000176   0.000329   0.005498
    28  H   -0.000065  -0.000010   0.000021   0.000165  -0.000562  -0.000276
    29  H   -0.000004   0.000000   0.000000  -0.000023   0.000516   0.005256
    30  H   -0.000000  -0.000000   0.000000  -0.000000   0.000000   0.000003
    31  H    0.000000   0.000000  -0.000000   0.000000   0.000000  -0.000000
    32  H    0.000000   0.000000  -0.000000  -0.000000   0.000000  -0.000000
    33  H    0.000000   0.000000   0.000000   0.000000   0.000000  -0.000000
    34  H   -0.000000  -0.000000   0.000000  -0.000000  -0.000000  -0.000000
    35  H    0.000000   0.000000   0.000000   0.000000   0.000000   0.000000
    36  H   -0.000000  -0.000000   0.000000   0.000000   0.000000   0.000000
    37  H    0.000000   0.000000  -0.000000  -0.000000   0.000000  -0.000000
    38  H   -0.000003   0.000000   0.000000   0.000000  -0.000006   0.000000
             25         26         27         28         29         30
     1  C   -0.000050   0.000001  -0.000307   0.000062  -0.000000  -0.000000
     2  O    0.001220   0.000148   0.009070   0.002240   0.000075   0.000000
     3  C   -0.034532   0.005129  -0.009445   0.003265  -0.001113   0.000000
     4  C    0.366098  -0.036146  -0.032701  -0.007294  -0.002901  -0.000053
     5  C   -0.035809   0.371812   0.374905  -0.033447  -0.040596   0.000403
     6  C    0.004913  -0.043590  -0.036701   0.357178   0.358709  -0.009450
     7  C   -0.000123  -0.001039  -0.003334  -0.027346  -0.032335  -0.042032
     8  C   -0.000002   0.003305  -0.000115   0.003736  -0.005522   0.351668
     9  C   -0.000000  -0.000131   0.000003  -0.000251   0.000233  -0.040664
    10  C   -0.000000  -0.000009   0.000002   0.000021  -0.000016   0.002769
    11  C   -0.000000  -0.000000  -0.000000   0.000000  -0.000000  -0.000192
    12  C   -0.000000   0.000000   0.000000  -0.000000   0.000000   0.000003
    13  O    0.000000  -0.000000  -0.000000  -0.000000  -0.000000  -0.000000
    14  C    0.000000  -0.000000  -0.000000   0.000000   0.000000  -0.000000
    15  C   -0.000000   0.000000  -0.000000  -0.000000  -0.000000  -0.000001
    16  C    0.000000   0.000000  -0.000006   0.000001   0.000003   0.000012
[...]
    26  H   -0.003538   0.004569  -0.000150  -0.000008  -0.000000   0.000000
    27  H   -0.000652  -0.000291  -0.000013  -0.000004  -0.000000   0.000000
    28  H   -0.030163   0.004330  -0.000203   0.000010   0.000000   0.000000
    29  H   -0.029933  -0.005084   0.000119  -0.000003  -0.000000  -0.000000
    30  H   -0.044178   0.351593  -0.040785   0.003017  -0.000188   0.000003
    31  H    0.003320  -0.041816   0.348209  -0.039619  -0.008989   0.000169
    32  H    0.000017   0.000123  -0.008335  -0.037062   0.346871  -0.049125
    33  H    0.000000   0.000000  -0.000000   0.000007   0.000215   0.003138
    34  H    0.000000  -0.000000  -0.000009  -0.000206   0.005457  -0.004399
    35  H   -0.000000  -0.000000  -0.000008  -0.000210   0.005434  -0.004381
    36  H    0.000002  -0.000000   0.000007   0.000322   0.007427  -0.035497
    37  H    0.000115   0.000014  -0.000202   0.004842   0.000391   0.004007
    38  H   -0.044673   0.006086   0.000341   0.004465  -0.000181   0.000015
             13         14         15         16         17         18
     1  C   -0.000000  -0.000000  -0.000000  -0.000000   0.000000  -0.000000
     2  O    0.000000   0.000000   0.000000  -0.000000  -0.000000  -0.000001
     3  C    0.000000   0.000000   0.000000   0.000000  -0.000000  -0.000006
     4  C   -0.000000  -0.000000   0.000000  -0.000000   0.000002   0.000046
     5  C    0.000000   0.000000   0.000000   0.000002  -0.000167  -0.003210
     6  C    0.000000  -0.000000   0.000002  -0.000219   0.005413  -0.046062
     7  C   -0.000000   0.000000  -0.000252   0.007256  -0.002429   0.523152
     8  C    0.000000  -0.000000   0.000032  -0.000179  -0.045578  -0.025446
     9  C   -0.000054  -0.000018  -0.000286   0.014510  -0.022345  -0.078049
    10  C    0.003021   0.000566  -0.034475  -0.027815   0.493519  -0.034243
    11  C   -0.057544  -0.007329  -0.060987  -0.069651  -0.040401   0.015669
    12  C    0.276270  -0.045062   0.494347  -0.006122  -0.034447  -0.000585
    13  O    8.197848   0.249886  -0.051085   0.002956   0.000375   0.000001
    14  C    0.249886   4.893293   0.004295  -0.000129   0.000001  -0.000000
    15  C   -0.051085   0.004295   5.004830   0.513799  -0.011821   0.007748
    16  C    0.002956  -0.000129   0.513799   5.103595   0.435812  -0.084727
    17  C    0.000375   0.000001  -0.011821   0.435812   4.735746   0.412831
    18  C    0.000001  -0.000000   0.007748  -0.084727   0.412831   5.232227
    19  H    0.000000   0.000000  -0.000000  -0.000000  -0.000000  -0.000000
    20  H   -0.000000  -0.000000  -0.000000  -0.000000   0.000000   0.000000
    21  H    0.000000   0.000000   0.000000  -0.000000  -0.000000   0.000000
    22  H    0.000000   0.000000  -0.000000  -0.000000   0.000000   0.000000
    23  H   -0.000000   0.000000   0.000000   0.000000  -0.000000  -0.000003
    24  H   -0.000000  -0.000000  -0.000000  -0.000000  -0.000000  -0.000001
    25  H    0.000000   0.000000  -0.000000   0.000000  -0.000000  -0.000001
    26  H   -0.000000  -0.000000  -0.000000   0.000000   0.000005  -0.000026
    27  H   -0.000000  -0.000000  -0.000000  -0.000001  -0.000085   0.002900
    28  H   -0.000000  -0.000000   0.000000  -0.000002   0.000126  -0.005059
    29  H    0.000000   0.000000  -0.000000   0.000003  -0.000156   0.002994
    30  H   -0.000000  -0.000000  -0.000000   0.000011   0.000838   0.005826
    31  H    0.000000  -0.000003   0.000013  -0.000205   0.004704   0.000830
    32  H   -0.007692   0.006255   0.004438   0.000411   0.004553  -0.000173
    33  H   -0.033515   0.386091  -0.000112   0.000004  -0.000000  -0.000000
    34  H   -0.035674   0.362382  -0.000005  -0.000001   0.000002   0.000000
    35  H   -0.035675   0.362520  -0.000005  -0.000002   0.000001   0.000000
    36  H    0.000721  -0.000244   0.343749  -0.038199   0.003268  -0.000144
    37  H   -0.000061   0.000003  -0.043644   0.352634  -0.039446  -0.008374
    38  H    0.000000   0.000000   0.000143  -0.007930  -0.045034   0.347865
             19         20         21         22         23         24
     1  C    0.359177   0.385302   0.359789  -0.006406  -0.006500  -0.000222
     2  O   -0.038363  -0.033809  -0.038689  -0.041137  -0.043883   0.003148
     3  C   -0.008945   0.006214  -0.008598   0.356622   0.351932  -0.035079
     4  C    0.000168  -0.000277  -0.000167  -0.036179  -0.036949   0.358619
     5  C   -0.000150   0.000015   0.000045   0.006077  -0.011688  -0.037982
     6  C    0.000026   0.000002  -0.000004  -0.000137   0.004259  -0.005948
     7  C    0.000000   0.000000  -0.000000  -0.000002   0.000032   0.000038
     8  C    0.000000   0.000000  -0.000000   0.000000  -0.000001   0.000000
     9  C   -0.000000  -0.000000  -0.000000  -0.000000  -0.000000  -0.000000
    10  C    0.000000  -0.000000   0.000000  -0.000000   0.000000   0.000000
    11  C   -0.000000  -0.000000   0.000000  -0.000000   0.000000  -0.000000
    12  C   -0.000000   0.000000  -0.000000   0.000000  -0.000000   0.000000
    13  O    0.000000  -0.000000   0.000000   0.000000  -0.000000  -0.000000
    14  C    0.000000  -0.000000   0.000000   0.000000   0.000000  -0.000000
    15  C   -0.000000  -0.000000   0.000000  -0.000000   0.000000  -0.000000
    16  C   -0.000000  -0.000000  -0.000000  -0.000000   0.000000  -0.000000
    17  C   -0.000000   0.000000  -0.000000   0.000000  -0.000000  -0.000000
    18  C   -0.000000   0.000000   0.000000   0.000000  -0.000003  -0.000001
    19  H    0.635353  -0.034264  -0.052298  -0.002716   0.014613   0.000016
    20  H   -0.034264   0.553975  -0.034329  -0.000153  -0.000157   0.000004
    21  H   -0.052298  -0.034329   0.634781   0.013974  -0.002856   0.000005
    22  H   -0.002716  -0.000153   0.013974   0.661396  -0.060924  -0.000491
    23  H    0.014613  -0.000157  -0.002856  -0.060924   0.665421  -0.000057
    24  H    0.000016   0.000004   0.000005  -0.000491  -0.000057   0.614863
    25  H    0.000042   0.000002  -0.000060  -0.007042   0.006381  -0.033024
    26  H   -0.000001  -0.000001   0.000001  -0.000092  -0.000072  -0.003083
    27  H    0.000028  -0.000005   0.000022   0.000248   0.000339   0.005536
    28  H   -0.000027  -0.000003   0.000007   0.000047   0.001244  -0.000243
    29  H   -0.000001   0.000000  -0.000000  -0.000031   0.000367   0.005713
    30  H   -0.000000  -0.000000  -0.000000  -0.000000   0.000000   0.000007
    31  H    0.000000   0.000000   0.000000   0.000000   0.000000  -0.000000
    32  H    0.000000   0.000000  -0.000000  -0.000000   0.000000   0.000000
    33  H    0.000000   0.000000   0.000000   0.000000   0.000000  -0.000000
    34  H    0.000000  -0.000000   0.000000  -0.000000  -0.000000  -0.000000
    35  H   -0.000000   0.000000   0.000000   0.000000   0.000000   0.000000
    36  H   -0.000000  -0.000000   0.000000  -0.000000   0.000000   0.000000
    37  H   -0.000000   0.000000  -0.000000   0.000000   0.000000  -0.000000
    38  H    0.000001  -0.000000   0.000000   0.000000   0.000004   0.000000
             25         26         27         28         29         30
     1  C   -0.000029   0.000001  -0.000363   0.000023   0.000000  -0.000000
     2  O    0.001376   0.000134   0.010402   0.000871   0.000025  -0.000000
     3  C   -0.035783   0.004833  -0.010220   0.002762  -0.000724   0.000001
     4  C    0.366861  -0.034639  -0.035533  -0.005601  -0.003046  -0.000094
     5  C   -0.033998   0.371556   0.373151  -0.035320  -0.043487   0.000469
     6  C    0.004439  -0.043190  -0.038027   0.358077   0.356827  -0.008250
     7  C   -0.000099  -0.003538  -0.000652  -0.030163  -0.029933  -0.044178
     8  C   -0.000005   0.004569  -0.000291   0.004330  -0.005084   0.351593
     9  C   -0.000000  -0.000150  -0.000013  -0.000203   0.000119  -0.040785
    10  C    0.000000  -0.000008  -0.000004   0.000010  -0.000003   0.003017
    11  C   -0.000000  -0.000000  -0.000000   0.000000  -0.000000  -0.000188
    12  C   -0.000000   0.000000   0.000000   0.000000  -0.000000   0.000003
    13  O    0.000000  -0.000000  -0.000000  -0.000000   0.000000  -0.000000
    14  C    0.000000  -0.000000  -0.000000  -0.000000   0.000000  -0.000000
    15  C   -0.000000  -0.000000  -0.000000   0.000000  -0.000000  -0.000000
    16  C    0.000000   0.000000  -0.000001  -0.000002   0.000003   0.000011
    17  C   -0.000000   0.000005  -0.000085   0.000126  -0.000156   0.000838
    18  C   -0.000001  -0.000026   0.002900  -0.005059   0.002994   0.005826
    19  H    0.000042  -0.000001   0.000028  -0.000027  -0.000001  -0.000000
    20  H    0.000002  -0.000001  -0.000005  -0.000003   0.000000  -0.000000
    21  H   -0.000060   0.000001   0.000022   0.000007  -0.000000  -0.000000
    22  H   -0.007042  -0.000092   0.000248   0.000047  -0.000031  -0.000000
    23  H    0.006381  -0.000072   0.000339   0.001244   0.000367   0.000000
    24  H   -0.033024  -0.003083   0.005536  -0.000243   0.005713   0.000007
    25  H    0.592030  -0.004282  -0.002037  -0.000068   0.000013   0.000003
    26  H   -0.004282   0.607872  -0.035405   0.005794  -0.004463   0.001362
    27  H   -0.002037  -0.035405   0.568655  -0.005355   0.005832   0.000036
    28  H   -0.000068   0.005794  -0.005355   0.595814  -0.037937   0.000040
    29  H    0.000013  -0.004463   0.005832  -0.037937   0.615005   0.004340
    30  H    0.000003   0.001362   0.000036   0.000040   0.004340   0.612470
    31  H    0.000000   0.000005   0.000000   0.000003  -0.000005  -0.005449
    32  H    0.000000  -0.000000   0.000000   0.000000   0.000000  -0.000012
    33  H    0.000000  -0.000000   0.000000  -0.000000   0.000000  -0.000000
    34  H    0.000000  -0.000000  -0.000000  -0.000000  -0.000000   0.000000
    35  H   -0.000000   0.000000   0.000000   0.000000   0.000000   0.000000
    36  H    0.000000   0.000000   0.000000  -0.000000   0.000000   0.000000
    37  H    0.000000   0.000000   0.000000   0.000001   0.000000  -0.000000
    38  H    0.000001   0.000026   0.000266   0.006569   0.000045  -0.000195
             31         32         33         34         35         36
     1  C    0.000000   0.000000   0.000000  -0.000000   0.000000   0.000000
     2  O   -0.000000  -0.000000   0.000000   0.000000   0.000000   0.000000
     3  C    0.000000  -0.000000   0.000000   0.000000  -0.000000  -0.000000
     4  C   -0.000000  -0.000000   0.000000  -0.000000   0.000000  -0.000000
     5  C   -0.000001   0.000000   0.000000   0.000000  -0.000000   0.000000
     6  C   -0.000181   0.000000   0.000000   0.000000  -0.000000  -0.000000
     7  C    0.003320   0.000017   0.000000   0.000000  -0.000000   0.000002
     8  C   -0.041816   0.000123   0.000000  -0.000000  -0.000000  -0.000000
     9  C    0.348209  -0.008335  -0.000000  -0.000009  -0.000008   0.000007
    10  C   -0.039619  -0.037062   0.000007  -0.000206  -0.000210   0.000322
    11  C   -0.008989   0.346871   0.000215   0.005457   0.005434   0.007427
    12  C    0.000169  -0.049125   0.003138  -0.004399  -0.004381  -0.035497
    13  O    0.000000  -0.007692  -0.033515  -0.035674  -0.035675   0.000721
    14  C   -0.000003   0.006255   0.386091   0.362382   0.362520  -0.000244
    15  C    0.000013   0.004438  -0.000112  -0.000005  -0.000005   0.343749
    16  C   -0.000205   0.000411   0.000004  -0.000001  -0.000002  -0.038199
    17  C    0.004704   0.004553  -0.000000   0.000002   0.000001   0.003268
    18  C    0.000830  -0.000173  -0.000000   0.000000   0.000000  -0.000144
    19  H    0.000000   0.000000   0.000000   0.000000  -0.000000  -0.000000
    20  H    0.000000   0.000000   0.000000  -0.000000   0.000000  -0.000000
    21  H    0.000000  -0.000000   0.000000   0.000000   0.000000   0.000000
    22  H    0.000000  -0.000000   0.000000  -0.000000   0.000000  -0.000000
    23  H    0.000000   0.000000   0.000000  -0.000000   0.000000   0.000000
    24  H   -0.000000   0.000000  -0.000000  -0.000000   0.000000   0.000000
    25  H    0.000000   0.000000   0.000000   0.000000  -0.000000   0.000000
    26  H    0.000005  -0.000000  -0.000000  -0.000000   0.000000   0.000000
    27  H    0.000000   0.000000   0.000000  -0.000000   0.000000   0.000000
    28  H    0.000003   0.000000  -0.000000  -0.000000   0.000000  -0.000000
    29  H   -0.000005   0.000000   0.000000  -0.000000   0.000000   0.000000
    30  H   -0.005449  -0.000012  -0.000000   0.000000   0.000000   0.000000
    31  H    0.610208   0.006731   0.000000  -0.000004  -0.000004  -0.000000
    32  H    0.006731   0.602578  -0.000129   0.002017   0.002014  -0.000166
    33  H    0.000000  -0.000129   0.539732  -0.031892  -0.031884  -0.000031
    34  H   -0.000004   0.002017  -0.031892   0.600412  -0.049924   0.000031
    35  H   -0.000004   0.002014  -0.031884  -0.049924   0.600027   0.000031
    36  H   -0.000000  -0.000166  -0.000031   0.000031   0.000031   0.586789
    37  H    0.000003   0.000019  -0.000000  -0.000000  -0.000000  -0.006022
    38  H    0.000023   0.000003   0.000000  -0.000000   0.000000  -0.000010
             37         38
     1  C   -0.000000   0.000001
     2  O   -0.000000   0.000004
     3  C   -0.000000   0.000001
     4  C   -0.000000  -0.000034
     5  C   -0.000000   0.000310
     6  C   -0.000005  -0.009567
     7  C    0.000115  -0.044673
     8  C    0.000014   0.006086
     9  C   -0.000202   0.000341
    10  C    0.004842   0.004465
    11  C    0.000391  -0.000181
    12  C    0.004007   0.000015
    13  O   -0.000061   0.000000
    14  C    0.000003   0.000000
    15  C   -0.043644   0.000143
    16  C    0.352634  -0.007930
    17  C   -0.039446  -0.045034
    18  C   -0.008374   0.347865
    19  H   -0.000000   0.000001
    20  H    0.000000  -0.000000
    21  H   -0.000000   0.000000
    22  H    0.000000   0.000000
    23  H    0.000000   0.000004
    24  H   -0.000000   0.000000
    25  H    0.000000   0.000001
    26  H    0.000000   0.000026
    27  H    0.000000   0.000266
    28  H    0.000001   0.006569
    29  H    0.000000   0.000045
    30  H   -0.000000  -0.000195
    31  H    0.000003   0.000023
    32  H    0.000019   0.000003
    33  H   -0.000000   0.000000
    34  H   -0.000000  -0.000000
    35  H   -0.000000   0.000000
    36  H   -0.006022  -0.000010
    37  H    0.598881   0.006578
    38  H    0.006578   0.613839
 Mulliken atomic charges:
              1
     1  C   -0.189659
     2  O   -0.458295
     3  C   -0.013030
     4  C   -0.276845
     5  C   -0.248614
     6  C   -0.354368
     7  C    0.174186
     8  C   -0.181305
     9  C   -0.197077
    10  C    0.136723
    11  C   -0.278166
    12  C    0.373817
    13  O   -0.509776
    14  C   -0.212509
    15  C   -0.170726
    16  C   -0.195809
    17  C    0.144715
    18  C   -0.265980
    19  H    0.127341
    20  H    0.157485
    21  H    0.128377
    22  H    0.116946
    23  H    0.118499
    24  H    0.128180
    25  H    0.145280
    26  H    0.132791
    27  H    0.160576
    28  H    0.144263
    29  H    0.133589
    30  H    0.119137
    31  H    0.122059
    32  H    0.126665
    33  H    0.168376
    34  H    0.151814
    35  H    0.152067
    36  H    0.137966
    37  H    0.130267
    38  H    0.121039
 Sum of Mulliken atomic charges =  -0.00000
 Mulliken charges with hydrogens summed into heavy atoms:
              1
     1  C    0.223544
     2  O   -0.458295
     3  C    0.222415
     4  C   -0.003384
     5  C    0.044752
     6  C   -0.076515
     7  C    0.174186
     8  C   -0.062168
     9  C   -0.075018
    10  C    0.136723
    11  C   -0.151501
    12  C    0.373817
    13  O   -0.509776
    14  C    0.259748
    15  C   -0.032759
    16  C   -0.065542
    17  C    0.144715
    18  C   -0.144941
 Sum of Mulliken charges with hydrogens summed into heavy atoms =  -0.00000
 Electronic spatial extent (au):  <R**2>=           8225.9935
 Charge=             -0.0000 electrons
 Dipole moment (field-independent basis, Debye):
    X=              0.3046    Y=             -0.8762    Z=             -0.6058  Tot=              1.1079
 Quadrupole moment (field-independent basis, Debye-Ang):
   XX=            -87.5820   YY=            -99.4628   ZZ=           -111.6992
   XY=              7.7251   XZ=             -7.2291   YZ=             -2.2467
 Traceless Quadrupole moment (field-independent basis, Debye-Ang):
   XX=             11.9994   YY=              0.1185   ZZ=            -12.1179
   XY=              7.7251   XZ=             -7.2291   YZ=             -2.2467
 Octapole moment (field-independent basis, Debye-Ang**2):
  XXX=            -35.4727  YYY=             16.4523  ZZZ=              8.1322  XYY=             13.4118
  XXY=            -24.1232  XXZ=             -3.5446  XZZ=              3.1009  YZZ=              2.5558
  YYZ=              0.9166  XYZ=              1.2050
 Hexadecapole moment (field-independent basis, Debye-Ang**3):
 XXXX=          -8236.4670 YYYY=          -1154.2644 ZZZZ=           -271.7599 XXXY=            337.7279
 XXXZ=           -198.2823 YYYX=             45.3612 YYYZ=              3.1169 ZZZX=             -0.2738
 ZZZY=              1.5224 XXYY=          -1667.3116 XXZZ=          -1639.2740 YYZZ=           -257.9531
 XXYZ=            -29.0349 YYXZ=              7.7727 ZZXY=              4.6380
 N-N= 1.216834644798D+03 E-N=-4.227052642186D+03  KE= 7.648584577749D+02
 No NMR shielding tensors so no spin-rotation constants.
 Leave Link  601 at Fri Sep  3 01:55:12 2021, MaxMem=  268435456 cpu:       0.6
 (Enter /sw/target/amd/app/gaussian/Gaussian09RevA.02_gcc-4.9.2/g09/l9999.exe)
 1\1\GINC-HERMITE\FOpt\RB3LYP\6-31G(d)\C16H20O2\JSCHLEINITZ\03-Sep-2021
 \0\\#p b3lyp 6-31G* opt scf(xqc,tight)\\opt calculation\\0,1\C,-5.5955
 286495,0.1458935724,1.392969357\O,-4.7203232477,0.920235101,0.60435182
 65\C,-4.7533998234,0.5643519458,-0.7666956541\C,-3.7817521124,1.458048
 0074,-1.5320609189\C,-2.3201958353,1.3721574289,-1.0646636\C,-1.656659
 0714,-0.0014135882,-1.2982891996\C,-0.1909269507,-0.0167350053,-0.9206
 901254\C,0.7822913244,0.5123604632,-1.8114539288\C,2.1184493552,0.5420
 146737,-1.4820517824\C,2.5745436841,0.0429972339,-0.2330877748\C,3.949
 3754116,0.0597447499,0.132676372\C,4.3487938154,-0.4386541437,1.356532
 4227\O,5.6356550635,-0.4734077402,1.8124458708\C,6.6532285829,0.040803
 7692,0.9698240379\C,3.3886533051,-0.9733651193,2.259928408\C,2.0597723
 049,-0.9985622245,1.9232320918\C,1.6058799614,-0.4938204702,0.67208399
 21\C,0.2381370906,-0.5086671013,0.2969754375\H,-5.3450334809,-0.927108
 4744,1.3506765356\H,-5.4953189348,0.4923016859,2.4252068097\H,-6.64510
 13228,0.2652097293,1.0770397839\H,-5.7743099047,0.6905331344,-1.167862
 4719\H,-4.4925776795,-0.5014976098,-0.8875691913\H,-3.8518544143,1.199
 6946766,-2.5983938016\H,-4.1267899074,2.4952742523,-1.4350671267\H,-1.
 7379634622,2.1394396378,-1.5916104045\H,-2.2676519308,1.6191738981,0.0
 015004043\H,-2.1858222603,-0.7683261573,-0.7202772738\H,-1.7663316761,
 -0.2758837193,-2.3576239042\H,0.4584551416,0.8961242132,-2.7768924071\
 H,2.8453048018,0.946950879,-2.1828529156\H,4.6653419665,0.4715014248,-
 0.5704728687\H,7.5892021589,-0.082867289,1.5178411253\H,6.7098942866,-
 0.5128336825,0.0229705416\H,6.4963111187,1.106000421,0.7530951417\H,3.
 7427498593,-1.355514992,3.2123393392\H,1.3314787953,-1.408671601,2.618
 9717208\H,-0.4859783635,-0.9225469798,0.9969551311\\Version=AM64L-G09R
 evA.02\State=1-A\HF=-772.1882107\RMSD=5.863e-09\RMSF=1.159e-06\Dipole=
 -0.0709509,-0.0968049,-0.4190437\Quadrupole=11.122907,-8.2526278,-2.87
 02792,5.6290464,-2.1362092,-2.960463\PG=C01 [X(C16H20O2)]\\@


 GARLIC THEN HAVE POWER TO SAVE FROM DEATH
 BEAR WITH IT THOUGH IT MAKETH UNSAVORY BREATH,
 AND SCORN NOT GARLIC LIKE SOME THAT THINK
 IT ONLY MAKETH MEN WINK AND DRINK AND STINK.
   --  SIR JOHN HARRINGTON,
       "THE ENGLISHMAN'S DOCTOR", 1609
 Job cpu time:  0 days  1 hours 48 minutes 15.5 seconds.
 File lengths (MBytes):  RWF=     68 Int=      0 D2E=      0 Chk=      7 Scr=      1
 Normal termination of Gaussian 09 at Fri Sep  3 01:55:12 2021.
