 Entering Gaussian System, Link 0=g09
 Input=mol_inp036.com
 Output=mol_inp036.log
 Initial command:
 /sw/target/amd/app/gaussian/Gaussian09RevA.02_gcc-4.9.2/g09/l1.exe /home/jschleinitz/optim_react/036/Gau-2804568.inp -scrdir=/home/jschleinitz/optim_react/036/
 Entering Link 1 = /sw/target/amd/app/gaussian/Gaussian09RevA.02_gcc-4.9.2/g09/l1.exe PID=   2804570.
  
 Copyright (c) 1988,1990,1992,1993,1995,1998,2003,2009, Gaussian, Inc.
                  All Rights Reserved.
  
 This is part of the Gaussian(R) 09 program.  It is based on
 the Gaussian(R) 03 system (copyright 2003, Gaussian, Inc.),
 the Gaussian(R) 98 system (copyright 1998, Gaussian, Inc.),
 the Gaussian(R) 94 system (copyright 1995, Gaussian, Inc.),
 the Gaussian 92(TM) system (copyright 1992, Gaussian, Inc.),
 the Gaussian 90(TM) system (copyright 1990, Gaussian, Inc.),
 the Gaussian 88(TM) system (copyright 1988, Gaussian, Inc.),
 the Gaussian 86(TM) system (copyright 1986, Carnegie Mellon
 University), and the Gaussian 82(TM) system (copyright 1983,
 Carnegie Mellon University). Gaussian is a federally registered
 trademark of Gaussian, Inc.
  
 This software contains proprietary and confidential information,
 including trade secrets, belonging to Gaussian, Inc.
  
 This software is provided under written license and may be
 used, copied, transmitted, or stored only in accord with that
 written license.
  
 The following legend is applicable only to US Government
 contracts under FAR:
  
                    RESTRICTED RIGHTS LEGEND
  
 Use, reproduction and disclosure by the US Government is
 subject to restrictions as set forth in subparagraphs (a)
 and (c) of the Commercial Computer Software - Restricted
 Rights clause in FAR 52.227-19.
  
 Gaussian, Inc.
 340 Quinnipiac St., Bldg. 40, Wallingford CT 06492
  
  
 ---------------------------------------------------------------
 Warning -- This program may not be used in any manner that
 competes with the business of Gaussian, Inc. or will provide
 assistance to any competitor of Gaussian, Inc.  The licensee
 of this program is prohibited from giving any competitor of
 Gaussian, Inc. access to this program.  By using this program,
 the user acknowledges that Gaussian, Inc. is engaged in the
 business of creating and licensing software in the field of
 computational chemistry and represents and warrants to the
 licensee that it is not a competitor of Gaussian, Inc. and that
 it will not use this program in any manner prohibited above.
 ---------------------------------------------------------------
  

 Cite this work as:
 Gaussian 09, Revision A.02,
 M. J. Frisch, G. W. Trucks, H. B. Schlegel, G. E. Scuseria, 
 M. A. Robb, J. R. Cheeseman, G. Scalmani, V. Barone, B. Mennucci, 
 G. A. Petersson, H. Nakatsuji, M. Caricato, X. Li, H. P. Hratchian, 
 A. F. Izmaylov, J. Bloino, G. Zheng, J. L. Sonnenberg, M. Hada, 
 M. Ehara, K. Toyota, R. Fukuda, J. Hasegawa, M. Ishida, T. Nakajima, 
 Y. Honda, O. Kitao, H. Nakai, T. Vreven, J. A. Montgomery, Jr., 
 J. E. Peralta, F. Ogliaro, M. Bearpark, J. J. Heyd, E. Brothers, 
 K. N. Kudin, V. N. Staroverov, R. Kobayashi, J. Normand, 
 K. Raghavachari, A. Rendell, J. C. Burant, S. S. Iyengar, J. Tomasi, 
 M. Cossi, N. Rega, J. M. Millam, M. Klene, J. E. Knox, J. B. Cross, 
 V. Bakken, C. Adamo, J. Jaramillo, R. Gomperts, R. E. Stratmann, 
 O. Yazyev, A. J. Austin, R. Cammi, C. Pomelli, J. W. Ochterski, 
 R. L. Martin, K. Morokuma, V. G. Zakrzewski, G. A. Voth, 
 P. Salvador, J. J. Dannenberg, S. Dapprich, A. D. Daniels, 
 O. Farkas, J. B. Foresman, J. V. Ortiz, J. Cioslowski, 
 and D. J. Fox, Gaussian, Inc., Wallingford CT, 2009.
 
 ******************************************
 Gaussian 09:  AM64L-G09RevA.02 11-Jun-2009
                 3-Sep-2021 
 ******************************************
 %chk=opt.chk
 %mem=2gb
 %nproc=1
 Will use up to    1 processors via shared memory.
 ----------------------------------
 #p b3lyp 6-31G* opt scf(xqc,tight)
 ----------------------------------
 1/14=-1,18=20,19=15,26=3,38=1/1,3;
 2/9=110,12=2,17=6,18=5,40=1/2;
 3/5=1,6=6,7=1,11=2,16=1,25=1,30=1,71=1,74=-5/1,2,3;
 4//1;
 5/5=2,8=3,13=1,32=2,38=5/2,8;
 6/7=2,8=2,9=2,10=2,28=1/1;
 7//1,2,3,16;
 1/14=-1,18=20,19=15/3(2);
 2/9=110/2;
 99//99;
 2/9=110/2;
 3/5=1,6=6,7=1,11=2,16=1,25=1,30=1,71=1,74=-5/1,2,3;
 4/5=5,16=3/1;
 5/5=2,8=3,13=1,32=2,38=5/2,8;
 7//1,2,3,16;
 1/14=-1,18=20,19=15/3(-5);
 2/9=110/2;
 6/7=2,8=2,9=2,10=2,19=2,28=1/1;
 99/9=1/99;
 Leave Link    1 at Fri Sep  3 00:07:54 2021, MaxMem=  268435456 cpu:       0.1
 (Enter /sw/target/amd/app/gaussian/Gaussian09RevA.02_gcc-4.9.2/g09/l101.exe)
 ---------------
 opt calculation
 ---------------
 Symbolic Z-matrix:
 Charge =  0 Multiplicity = 1
 C                     5.5682   -0.32086   0.8532 
 O                     4.73908  -1.07653  -0.02063 
 C                     3.4229   -0.7105   -0.09328 
 C                     2.83359   0.36991   0.56884 
 C                     1.47054   0.6361    0.40521 
 C                     0.70172  -0.19357  -0.40841 
 O                    -0.65376   0.06619  -0.64364 
 C                    -1.4924    0.05501   0.47158 
 O                    -1.14721  -0.17161   1.62463 
 C                    -2.92944   0.36865   0.03786 
 C                    -3.849     0.35423   1.26967 
 C                    -2.97867   1.76136  -0.60419 
 C                    -3.40997  -0.69773  -0.95523 
 C                     1.27794  -1.26009  -1.09099 
 C                     2.63915  -1.51819  -0.92502 
 H                     5.21507  -0.3847    1.88781 
 H                     6.57288  -0.75307   0.81742 
 H                     5.64222   0.7206    0.52329 
 H                     3.40511   1.02484   1.21761 
 H                     1.01972   1.47978   0.91924 
 H                    -3.53323   1.09858   2.00993 
 H                    -4.88636   0.5756    0.99466 
 H                    -3.83569  -0.62415   1.76398 
 H                    -4.00525   2.04178  -0.8651 
 H                    -2.38155   1.80499  -1.52198 
 H                    -2.58218   2.52301   0.07709 
 H                    -2.81833  -0.68747  -1.87754 
 H                    -3.32382  -1.70258  -0.52595 
 H                    -4.45747  -0.53711  -1.23364 
 H                     0.67955  -1.88769  -1.74371 
 H                     3.09666  -2.35479  -1.44741 
 
 NAtoms=     31 NQM=     31 NQMF=      0 NMic=      0 NMicF=      0 NTot=     31.
                    Isotopes and Nuclear Properties:
 (Nuclear quadrupole moments (NQMom) in fm**2, nuclear magnetic moments (NMagM)
  in nuclear magnetons)

  Atom         1           2           3           4           5           6           7           8           9          10
 IAtWgt=          12          16          12          12          12          12          16          12          16          12
 AtmWgt=  12.0000000  15.9949146  12.0000000  12.0000000  12.0000000  12.0000000  15.9949146  12.0000000  15.9949146  12.0000000
 NucSpn=           0           0           0           0           0           0           0           0           0           0
 AtZEff=   0.0000000   0.0000000   0.0000000   0.0000000   0.0000000   0.0000000   0.0000000   0.0000000   0.0000000   0.0000000
 NQMom=    0.0000000   0.0000000   0.0000000   0.0000000   0.0000000   0.0000000   0.0000000   0.0000000   0.0000000   0.0000000
 NMagM=    0.0000000   0.0000000   0.0000000   0.0000000   0.0000000   0.0000000   0.0000000   0.0000000   0.0000000   0.0000000

  Atom        11          12          13          14          15          16          17          18          19          20
 IAtWgt=          12          12          12          12          12           1           1           1           1           1
 AtmWgt=  12.0000000  12.0000000  12.0000000  12.0000000  12.0000000   1.0078250   1.0078250   1.0078250   1.0078250   1.0078250
 NucSpn=           0           0           0           0           0           1           1           1           1           1
 AtZEff=   0.0000000   0.0000000   0.0000000   0.0000000   0.0000000   0.0000000   0.0000000   0.0000000   0.0000000   0.0000000
 NQMom=    0.0000000   0.0000000   0.0000000   0.0000000   0.0000000   0.0000000   0.0000000   0.0000000   0.0000000   0.0000000
 NMagM=    0.0000000   0.0000000   0.0000000   0.0000000   0.0000000   2.7928460   2.7928460   2.7928460   2.7928460   2.7928460

  Atom        21          22          23          24          25          26          27          28          29          30
 IAtWgt=           1           1           1           1           1           1           1           1           1           1
 AtmWgt=   1.0078250   1.0078250   1.0078250   1.0078250   1.0078250   1.0078250   1.0078250   1.0078250   1.0078250   1.0078250
 NucSpn=           1           1           1           1           1           1           1           1           1           1
 AtZEff=   0.0000000   0.0000000   0.0000000   0.0000000   0.0000000   0.0000000   0.0000000   0.0000000   0.0000000   0.0000000
 NQMom=    0.0000000   0.0000000   0.0000000   0.0000000   0.0000000   0.0000000   0.0000000   0.0000000   0.0000000   0.0000000
 NMagM=    2.7928460   2.7928460   2.7928460   2.7928460   2.7928460   2.7928460   2.7928460   2.7928460   2.7928460   2.7928460

  Atom        31
 IAtWgt=           1
 AtmWgt=   1.0078250
 NucSpn=           1
 AtZEff=   0.0000000
 NQMom=    0.0000000
 NMagM=    2.7928460
 Leave Link  101 at Fri Sep  3 00:07:54 2021, MaxMem=  268435456 cpu:       0.2
 (Enter /sw/target/amd/app/gaussian/Gaussian09RevA.02_gcc-4.9.2/g09/l103.exe)

 GradGradGradGradGradGradGradGradGradGradGradGradGradGradGradGradGradGrad
 Berny optimization.
 Initialization pass.
                           ----------------------------
                           !    Initial Parameters    !
                           ! (Angstroms and Degrees)  !
 --------------------------                            --------------------------
 ! Name  Definition              Value          Derivative Info.                !
 --------------------------------------------------------------------------------
 ! R1    R(1,2)                  1.422          estimate D2E/DX2                !
 ! R2    R(1,16)                 1.0951         estimate D2E/DX2                !
 ! R3    R(1,17)                 1.0943         estimate D2E/DX2                !
 ! R4    R(1,18)                 1.095          estimate D2E/DX2                !
 ! R5    R(2,3)                  1.3681         estimate D2E/DX2                !
 ! R6    R(3,4)                  1.3975         estimate D2E/DX2                !
 ! R7    R(3,15)                 1.3994         estimate D2E/DX2                !
 ! R8    R(4,5)                  1.3984         estimate D2E/DX2                !
 ! R9    R(4,19)                 1.0847         estimate D2E/DX2                !
 ! R10   R(5,6)                  1.3933         estimate D2E/DX2                !
 ! R11   R(5,20)                 1.0859         estimate D2E/DX2                !
 ! R12   R(6,7)                  1.4001         estimate D2E/DX2                !
 ! R13   R(6,14)                 1.3912         estimate D2E/DX2                !
 ! R14   R(7,8)                  1.3954         estimate D2E/DX2                !
 ! R15   R(8,9)                  1.2248         estimate D2E/DX2                !
 ! R16   R(8,10)                 1.5335         estimate D2E/DX2                !
 ! R17   R(10,11)                1.5373         estimate D2E/DX2                !
 ! R18   R(10,12)                1.5344         estimate D2E/DX2                !
 ! R19   R(10,13)                1.5344         estimate D2E/DX2                !
 ! R20   R(11,21)                1.0962         estimate D2E/DX2                !
 ! R21   R(11,22)                1.0958         estimate D2E/DX2                !
 ! R22   R(11,23)                1.0962         estimate D2E/DX2                !
 ! R23   R(12,24)                1.0957         estimate D2E/DX2                !
 ! R24   R(12,25)                1.0958         estimate D2E/DX2                !
 ! R25   R(12,26)                1.0961         estimate D2E/DX2                !
 ! R26   R(13,27)                1.0958         estimate D2E/DX2                !
 ! R27   R(13,28)                1.0961         estimate D2E/DX2                !
 ! R28   R(13,29)                1.0957         estimate D2E/DX2                !
 ! R29   R(14,15)                1.3954         estimate D2E/DX2                !
 ! R30   R(14,30)                1.0854         estimate D2E/DX2                !
 ! R31   R(15,31)                1.0873         estimate D2E/DX2                !
 ! A1    A(2,1,16)             111.1972         estimate D2E/DX2                !
 ! A2    A(2,1,17)             107.7787         estimate D2E/DX2                !
 ! A3    A(2,1,18)             111.0828         estimate D2E/DX2                !
 ! A4    A(16,1,17)            107.6937         estimate D2E/DX2                !
 ! A5    A(16,1,18)            111.2169         estimate D2E/DX2                !
 ! A6    A(17,1,18)            107.683          estimate D2E/DX2                !
 ! A7    A(1,2,3)              116.8343         estimate D2E/DX2                !
 ! A8    A(2,3,4)              125.9723         estimate D2E/DX2                !
 ! A9    A(2,3,15)             114.5791         estimate D2E/DX2                !
 ! A10   A(4,3,15)             119.4475         estimate D2E/DX2                !
 ! A11   A(3,4,5)              120.1826         estimate D2E/DX2                !
 ! A12   A(3,4,19)             121.8708         estimate D2E/DX2                !
 ! A13   A(5,4,19)             117.9466         estimate D2E/DX2                !
 ! A14   A(4,5,6)              119.5257         estimate D2E/DX2                !
 ! A15   A(4,5,20)             119.8115         estimate D2E/DX2                !
 ! A16   A(6,5,20)             120.6603         estimate D2E/DX2                !
 ! A17   A(5,6,7)              121.4563         estimate D2E/DX2                !
 ! A18   A(5,6,14)             120.9604         estimate D2E/DX2                !
 ! A19   A(7,6,14)             117.4394         estimate D2E/DX2                !
 ! A20   A(6,7,8)              116.4941         estimate D2E/DX2                !
 ! A21   A(7,8,9)              125.7682         estimate D2E/DX2                !
 ! A22   A(7,8,10)             109.6042         estimate D2E/DX2                !
 ! A23   A(9,8,10)             124.6274         estimate D2E/DX2                !
 ! A24   A(8,10,11)            109.391          estimate D2E/DX2                !
 ! A25   A(8,10,12)            109.516          estimate D2E/DX2                !
 ! A26   A(8,10,13)            109.5355         estimate D2E/DX2                !
 ! A27   A(11,10,12)           108.9427         estimate D2E/DX2                !
 ! A28   A(11,10,13)           108.9515         estimate D2E/DX2                !
 ! A29   A(12,10,13)           110.484          estimate D2E/DX2                !
 ! A30   A(10,11,21)           111.2486         estimate D2E/DX2                !
 ! A31   A(10,11,22)           111.3028         estimate D2E/DX2                !
 ! A32   A(10,11,23)           111.2496         estimate D2E/DX2                !
 ! A33   A(21,11,22)           107.7575         estimate D2E/DX2                !
 ! A34   A(21,11,23)           107.3379         estimate D2E/DX2                !
 ! A35   A(22,11,23)           107.7558         estimate D2E/DX2                !
 ! A36   A(10,12,24)           111.223          estimate D2E/DX2                !
 ! A37   A(10,12,25)           111.6616         estimate D2E/DX2                !
 ! A38   A(10,12,26)           111.0399         estimate D2E/DX2                !
 ! A39   A(24,12,25)           107.5124         estimate D2E/DX2                !
 ! A40   A(24,12,26)           108.0035         estimate D2E/DX2                !
 ! A41   A(25,12,26)           107.2054         estimate D2E/DX2                !
 ! A42   A(10,13,27)           111.6639         estimate D2E/DX2                !
 ! A43   A(10,13,28)           111.0412         estimate D2E/DX2                !
 ! A44   A(10,13,29)           111.2214         estimate D2E/DX2                !
 ! A45   A(27,13,28)           107.2042         estimate D2E/DX2                !
 ! A46   A(27,13,29)           107.5132         estimate D2E/DX2                !
 ! A47   A(28,13,29)           108.0016         estimate D2E/DX2                !
 ! A48   A(6,14,15)            119.1759         estimate D2E/DX2                !
 ! A49   A(6,14,30)            120.6643         estimate D2E/DX2                !
 ! A50   A(15,14,30)           120.1596         estimate D2E/DX2                !
 ! A51   A(3,15,14)            120.6823         estimate D2E/DX2                !
 ! A52   A(3,15,31)            119.6039         estimate D2E/DX2                !
 ! A53   A(14,15,31)           119.7138         estimate D2E/DX2                !
 ! D1    D(16,1,2,3)            60.6562         estimate D2E/DX2                !
 ! D2    D(17,1,2,3)           178.4757         estimate D2E/DX2                !
 ! D3    D(18,1,2,3)           -63.7824         estimate D2E/DX2                !
 ! D4    D(1,2,3,4)              2.8372         estimate D2E/DX2                !
 ! D5    D(1,2,3,15)          -177.5527         estimate D2E/DX2                !
 ! D6    D(2,3,4,5)            179.895          estimate D2E/DX2                !
 ! D7    D(2,3,4,19)            -0.0177         estimate D2E/DX2                !
 ! D8    D(15,3,4,5)             0.3021         estimate D2E/DX2                !
 ! D9    D(15,3,4,19)         -179.6106         estimate D2E/DX2                !
 ! D10   D(2,3,15,14)          179.9347         estimate D2E/DX2                !
 ! D11   D(2,3,15,31)           -0.1092         estimate D2E/DX2                !
 ! D12   D(4,3,15,14)           -0.4277         estimate D2E/DX2                !
 ! D13   D(4,3,15,31)          179.5284         estimate D2E/DX2                !
 ! D14   D(3,4,5,6)              0.8298         estimate D2E/DX2                !
 ! D15   D(3,4,5,20)          -179.7384         estimate D2E/DX2                !
 ! D16   D(19,4,5,6)          -179.2541         estimate D2E/DX2                !
 ! D17   D(19,4,5,20)            0.1777         estimate D2E/DX2                !
 ! D18   D(4,5,6,7)           -177.3971         estimate D2E/DX2                !
 ! D19   D(4,5,6,14)            -1.8706         estimate D2E/DX2                !
 ! D20   D(20,5,6,7)             3.176          estimate D2E/DX2                !
 ! D21   D(20,5,6,14)          178.7025         estimate D2E/DX2                !
 ! D22   D(5,6,7,8)            -61.6022         estimate D2E/DX2                !
 ! D23   D(14,6,7,8)           122.7199         estimate D2E/DX2                !
 ! D24   D(5,6,14,15)            1.7424         estimate D2E/DX2                !
 ! D25   D(5,6,14,30)         -178.4014         estimate D2E/DX2                !
 ! D26   D(7,6,14,15)          177.4429         estimate D2E/DX2                !
 ! D27   D(7,6,14,30)           -2.7009         estimate D2E/DX2                !
 ! D28   D(6,7,8,9)             -0.6437         estimate D2E/DX2                !
 ! D29   D(6,7,8,10)           179.4913         estimate D2E/DX2                !
 ! D30   D(7,8,10,11)          179.9659         estimate D2E/DX2                !
 ! D31   D(7,8,10,12)          -60.7018         estimate D2E/DX2                !
 ! D32   D(7,8,10,13)           60.6112         estimate D2E/DX2                !
 ! D33   D(9,8,10,11)            0.099          estimate D2E/DX2                !
 ! D34   D(9,8,10,12)          119.4313         estimate D2E/DX2                !
 ! D35   D(9,8,10,13)         -119.2558         estimate D2E/DX2                !
 ! D36   D(8,10,11,21)          59.7891         estimate D2E/DX2                !
 ! D37   D(8,10,11,22)         179.9787         estimate D2E/DX2                !
 ! D38   D(8,10,11,23)         -59.8333         estimate D2E/DX2                !
 ! D39   D(12,10,11,21)        -59.8965         estimate D2E/DX2                !
 ! D40   D(12,10,11,22)         60.2931         estimate D2E/DX2                !
 ! D41   D(12,10,11,23)       -179.5188         estimate D2E/DX2                !
 ! D42   D(13,10,11,21)        179.5037         estimate D2E/DX2                !
 ! D43   D(13,10,11,22)        -60.3067         estimate D2E/DX2                !
 ! D44   D(13,10,11,23)         59.8813         estimate D2E/DX2                !
 ! D45   D(8,10,12,24)        -176.2546         estimate D2E/DX2                !
 ! D46   D(8,10,12,25)          63.6415         estimate D2E/DX2                !
 ! D47   D(8,10,12,26)         -55.9483         estimate D2E/DX2                !
 ! D48   D(11,10,12,24)        -56.6466         estimate D2E/DX2                !
 ! D49   D(11,10,12,25)       -176.7505         estimate D2E/DX2                !
 ! D50   D(11,10,12,26)         63.6598         estimate D2E/DX2                !
 ! D51   D(13,10,12,24)         63.0067         estimate D2E/DX2                !
 ! D52   D(13,10,12,25)        -57.0972         estimate D2E/DX2                !
 ! D53   D(13,10,12,26)       -176.687          estimate D2E/DX2                !
 ! D54   D(8,10,13,27)         -63.6006         estimate D2E/DX2                !
 ! D55   D(8,10,13,28)          55.9901         estimate D2E/DX2                !
 ! D56   D(8,10,13,29)         176.294          estimate D2E/DX2                !
 ! D57   D(11,10,13,27)        176.7744         estimate D2E/DX2                !
 ! D58   D(11,10,13,28)        -63.6349         estimate D2E/DX2                !
 ! D59   D(11,10,13,29)         56.669          estimate D2E/DX2                !
 ! D60   D(12,10,13,27)         57.1264         estimate D2E/DX2                !
 ! D61   D(12,10,13,28)        176.7171         estimate D2E/DX2                !
 ! D62   D(12,10,13,29)        -62.979          estimate D2E/DX2                !
 ! D63   D(6,14,15,3)           -0.5821         estimate D2E/DX2                !
 ! D64   D(6,14,15,31)         179.4619         estimate D2E/DX2                !
 ! D65   D(30,14,15,3)         179.5609         estimate D2E/DX2                !
 ! D66   D(30,14,15,31)         -0.3951         estimate D2E/DX2                !
 --------------------------------------------------------------------------------
 Trust Radius=3.00D-01 FncErr=1.00D-07 GrdErr=1.00D-06
 Number of steps in this run= 160 maximum allowed number of steps= 186.
 GradGradGradGradGradGradGradGradGradGradGradGradGradGradGradGradGradGrad

 Leave Link  103 at Fri Sep  3 00:07:54 2021, MaxMem=  268435456 cpu:       0.0
 (Enter /sw/target/amd/app/gaussian/Gaussian09RevA.02_gcc-4.9.2/g09/l202.exe)
                          Input orientation:                          
 ---------------------------------------------------------------------
 Center     Atomic      Atomic             Coordinates (Angstroms)
 Number     Number       Type             X           Y           Z
 ---------------------------------------------------------------------
      1          6           0        5.568200   -0.320862    0.853197
      2          8           0        4.739078   -1.076528   -0.020628
      3          6           0        3.422900   -0.710495   -0.093278
      4          6           0        2.833585    0.369909    0.568841
      5          6           0        1.470544    0.636097    0.405209
      6          6           0        0.701721   -0.193569   -0.408413
      7          8           0       -0.653763    0.066190   -0.643638
      8          6           0       -1.492403    0.055006    0.471581
      9          8           0       -1.147210   -0.171612    1.624629
     10          6           0       -2.929436    0.368650    0.037863
     11          6           0       -3.849002    0.354229    1.269668
     12          6           0       -2.978672    1.761363   -0.604194
     13          6           0       -3.409967   -0.697729   -0.955228
     14          6           0        1.277941   -1.260089   -1.090991
     15          6           0        2.639152   -1.518186   -0.925015
     16          1           0        5.215070   -0.384695    1.887811
     17          1           0        6.572876   -0.753073    0.817421
     18          1           0        5.642225    0.720601    0.523289
     19          1           0        3.405108    1.024839    1.217607
     20          1           0        1.019718    1.479778    0.919243
     21          1           0       -3.533228    1.098576    2.009927
     22          1           0       -4.886361    0.575602    0.994662
     23          1           0       -3.835692   -0.624147    1.763983
     24          1           0       -4.005251    2.041779   -0.865100
     25          1           0       -2.381554    1.804993   -1.521981
     26          1           0       -2.582181    2.523009    0.077087
     27          1           0       -2.818326   -0.687474   -1.877542
     28          1           0       -3.323815   -1.702581   -0.525949
     29          1           0       -4.457468   -0.537106   -1.233637
     30          1           0        0.679551   -1.887691   -1.743713
     31          1           0        3.096662   -2.354786   -1.447413
 ---------------------------------------------------------------------
                    Distance matrix (angstroms):
                    1          2          3          4          5
     1  C    0.000000
     2  O    1.421986   0.000000
     3  C    2.376960   1.368058   0.000000
     4  C    2.834809   2.463850   1.397486   0.000000
     5  C    4.231696   3.714530   2.423529   1.398396   0.000000
     6  C    5.028964   4.150933   2.787712   2.411924   1.393347
     7  O    6.411174   5.547673   4.186325   3.704585   2.436710
     8  C    7.080891   6.352479   5.006522   4.338525   3.020120
     9  O    6.761221   6.178522   4.911976   4.153873   2.998669
    10  C    8.564462   7.803721   6.444682   5.787430   4.423380
    11  C    9.450550   8.801537   7.474745   6.719254   5.396694
    12  C    8.916763   8.243655   6.881224   6.090524   4.699004
    13  C    9.166238   8.211206   6.887031   6.514950   5.239205
    14  C    4.802951   3.627512   2.428649   2.798565   2.423062
    15  C    3.629731   2.328662   1.399433   2.415432   2.788562
    16  H    1.095081   2.085028   2.691233   2.824992   4.154708
    17  H    1.094285   2.042000   3.279258   3.912183   5.304103
    18  H    1.094972   2.083553   2.711751   2.830816   4.174207
    19  H    2.573455   2.780008   2.174884   1.084652   2.133928
    20  H    4.892377   4.609956   3.405551   2.155158   1.085943
    21  H    9.283793   8.791205   7.488920   6.568409   5.275106
    22  H   10.493879   9.818830   8.478294   7.734417   6.384462
    23  H    9.452761   8.770186   7.492932   6.848048   5.620554
    24  H   10.009275   9.322031   7.959155   7.184777   5.794304
    25  H    8.565005   7.826917   6.485411   5.799024   4.463075
    26  H    8.667102   8.158863   6.822431   5.848776   4.482486
    27  H    8.827523   7.791909   6.491304   6.248756   5.035593
    28  H    9.103797   8.102934   6.832979   6.588426   5.415011
    29  H   10.242834   9.291869   7.964338   7.565121   6.261274
    30  H    5.753067   4.484057   3.411113   3.883880   3.407791
    31  H    3.941846   2.523329   2.154949   3.399772   3.875803
                    6          7          8          9         10
     6  C    0.000000
     7  O    1.400051   0.000000
     8  C    2.377048   1.395405   0.000000
     9  O    2.748143   2.333468   1.224759   0.000000
    10  C    3.701426   2.394705   1.533476   2.446638   0.000000
    11  C    4.881098   3.735406   2.506000   2.775281   1.537255
    12  C    4.171976   2.877563   2.505582   3.472506   1.534376
    13  C    4.178416   2.877033   2.505882   3.471675   1.534374
    14  C    1.391189   2.385502   3.441789   3.800096   4.650712
    15  C    2.403149   3.665066   4.636287   4.759252   5.957890
    16  H    5.067494   6.407397   6.869442   6.371285   8.385870
    17  H    6.023801   7.418234   8.113034   7.783920   9.599995
    18  H    5.110025   6.436570   7.165794   6.935807   8.592606
    19  H    3.381828   4.567020   5.048044   4.724485   6.476791
    20  H    2.159602   2.690979   2.922521   2.814291   4.196100
    21  H    5.045077   4.049512   2.760528   2.730369   2.187783
    22  H    5.812650   4.567101   3.473267   3.864769   2.188115
    23  H    5.049041   4.049429   2.760898   2.729861   2.187793
    24  H    5.230768   3.896725   3.471079   4.389333   2.184509
    25  H    3.839384   2.603879   2.797737   3.915575   2.190061
    26  H    4.289466   3.205339   2.726588   3.422720   2.182519
    27  H    3.846169   2.603048   2.797808   3.914581   2.190096
    28  H    4.300683   3.204930   2.727315   3.421471   2.182525
    29  H    5.236052   3.896182   3.471307   4.388745   2.184488
    30  H    2.157213   2.608743   3.660462   4.198537   4.614095
    31  H    3.389118   4.535732   5.527129   5.675750   6.777684
                   11         12         13         14         15
    11  C    0.000000
    12  C    2.499772   0.000000
    13  C    2.499906   2.521185   0.000000
    14  C    5.870628   5.242604   4.723469   0.000000
    15  C    7.100614   6.512934   6.104581   1.395370   0.000000
    16  H    9.115125   8.829103   9.086921   5.014036   3.978963
    17  H   10.490290   9.978750  10.139157   5.651145   4.369859
    18  H    9.527576   8.756384   9.281156   5.057273   4.015993
    19  H    7.285228   6.679377   7.357561   3.882700   3.412403
    20  H    5.009400   4.288038   5.279895   3.408019   3.874486
    21  H    1.096243   2.753261   3.469013   6.190827   7.318443
    22  H    1.095786   2.757108   2.757387   6.761533   8.043784
    23  H    1.096241   3.468920   2.753319   5.891056   7.067788
    24  H    2.725706   1.095705   2.804887   6.234218   7.538238
    25  H    3.471516   1.095804   2.764500   4.792951   6.050403
    26  H    2.780412   1.096108   3.481962   5.529627   6.678157
    27  H    3.471652   2.764766   1.095814   4.210220   5.601915
    28  H    2.780383   3.481976   1.096098   4.657384   5.979150
    29  H    2.726031   2.804638   1.095705   5.782557   7.170759
    30  H    5.883406   5.291190   4.331498   1.085357   2.155652
    31  H    7.934957   7.386703   6.732333   2.152474   1.087251
                   16         17         18         19         20
    16  H    0.000000
    17  H    1.767788   0.000000
    18  H    1.807225   1.767580   0.000000
    19  H    2.389963   3.654569   2.362061   0.000000
    20  H    4.692053   5.986114   4.701138   2.446646   0.000000
    21  H    8.873991  10.343308   9.302790   6.983818   4.697257
    22  H   10.186206  11.537370  10.540130   8.306622   5.975365
    23  H    9.054776  10.452315   9.652905   7.446265   5.358647
    24  H    9.923740  11.069727   9.836002   7.764358   5.361906
    25  H    8.609885   9.601996   8.351052   6.449763   4.199285
    26  H    8.516489   9.751711   8.431407   6.276379   3.843336
    27  H    8.877219   9.770456   8.906604   7.158428   5.220112
    28  H    8.970820  10.032482   9.346795   7.467075   5.575147
    29  H   10.164874  11.221496  10.328234   8.382623   6.221116
    30  H    6.001491   6.525185   6.047365   4.967988   4.306611
    31  H    4.415046   4.447361   4.452141   4.315013   4.961717
                   21         22         23         24         25
    21  H    0.000000
    22  H    1.770659   0.000000
    23  H    1.766281   1.770638   0.000000
    24  H    3.062388   2.526805   3.748065   0.000000
    25  H    3.781501   3.757519   4.337372   1.767471   0.000000
    26  H    2.582512   3.153345   3.784376   1.773253   1.764318
    27  H    4.337450   3.757883   3.781501   3.143669   2.555305
    28  H    3.784310   3.153399   2.582407   3.820944   3.766034
    29  H    3.748384   2.527328   3.062663   2.644044   3.142927
    30  H    6.383973   6.674270   5.855587   6.177383   4.801608
    31  H    8.236161   8.847574   7.833627   8.372935   6.878966
                   26         27         28         29         30
    26  H    0.000000
    27  H    3.766104   0.000000
    28  H    4.332353   1.764303   0.000000
    29  H    3.820864   1.767487   1.773224   0.000000
    30  H    5.780007   3.700483   4.188574   5.336031   0.000000
    31  H    7.639780   6.160521   6.518972   7.772679   2.479596
                   31
    31  H    0.000000
 Stoichiometry    C12H16O3
 Framework group  C1[X(C12H16O3)]
 Deg. of freedom    87
 Full point group                 C1      NOp   1
 Largest Abelian subgroup         C1      NOp   1
 Largest concise Abelian subgroup C1      NOp   1
                         Standard orientation:                         
 ---------------------------------------------------------------------
 Center     Atomic      Atomic             Coordinates (Angstroms)
 Number     Number       Type             X           Y           Z
 ---------------------------------------------------------------------
      1          6           0        5.227264   -0.896432   -0.042416
      2          8           0        4.496606    0.312563   -0.205249
      3          6           0        3.142530    0.245240   -0.022141
      4          6           0        2.421687   -0.888156    0.363559
      5          6           0        1.033475   -0.819734    0.517498
      6          6           0        0.373172    0.381331    0.266780
      7          8           0       -1.007524    0.510131    0.459732
      8          6           0       -1.824095   -0.312000   -0.317743
      9          8           0       -1.438292   -1.119881   -1.153518
     10          6           0       -3.295121   -0.051460    0.028305
     11          6           0       -4.190095   -0.958781   -0.831314
     12          6           0       -3.537740   -0.371301    1.509233
     13          6           0       -3.640157    1.413948   -0.268060
     14          6           0        1.078943    1.523647   -0.097100
     15          6           0        2.464287    1.448636   -0.246278
     16          1           0        4.897911   -1.657516   -0.757594
     17          1           0        6.280254   -0.680696   -0.247669
     18          1           0        5.157421   -1.263278    0.986909
     19          1           0        2.907942   -1.838913    0.553527
     20          1           0        0.479820   -1.703068    0.821570
     21          1           0       -3.968173   -2.017765   -0.655098
     22          1           0       -5.250875   -0.798037   -0.608480
     23          1           0       -4.040238   -0.767061   -1.900206
     24          1           0       -4.595575   -0.257973    1.771363
     25          1           0       -2.962548    0.291306    2.165658
     26          1           0       -3.238834   -1.399430    1.743880
     27          1           0       -3.065978    2.100568    0.364143
     28          1           0       -3.415331    1.668165   -1.310296
     29          1           0       -4.702898    1.614558   -0.092256
     30          1           0        0.562362    2.463094   -0.266171
     31          1           0        3.023520    2.333911   -0.538954
 ---------------------------------------------------------------------
 Rotational constants (GHZ):      1.8304764      0.2497757      0.2383535
 Leave Link  202 at Fri Sep  3 00:07:54 2021, MaxMem=  268435456 cpu:       0.0
 (Enter /sw/target/amd/app/gaussian/Gaussian09RevA.02_gcc-4.9.2/g09/l301.exe)
 Standard basis: 6-31G(d) (6D, 7F)
 Ernie: Thresh=  0.10000D-02 Tol=  0.10000D-05 Strict=F.
 There are   257 symmetry adapted basis functions of A   symmetry.
 Integral buffers will be    131072 words long.
 Raffenetti 2 integral format.
 Two-electron integral symmetry is turned on.
   257 basis functions,   484 primitive gaussians,   257 cartesian basis functions
    56 alpha electrons       56 beta electrons
       nuclear repulsion energy       983.9679303780 Hartrees.
 IExCor=  402 DFT=T Ex+Corr=B3LYP ExCW=0 ScaHFX=  0.200000
 ScaDFX=  0.800000  0.720000  1.000000  0.810000 ScalE2=  1.000000  1.000000
 IRadAn=      0 IRanWt=     -1 IRanGd=            0 ICorTp=0
 NAtoms=   31 NActive=   31 NUniq=   31 SFac= 7.50D-01 NAtFMM=   80 NAOKFM=F Big=F
 Leave Link  301 at Fri Sep  3 00:07:55 2021, MaxMem=  268435456 cpu:       0.1
 (Enter /sw/target/amd/app/gaussian/Gaussian09RevA.02_gcc-4.9.2/g09/l302.exe)
 NPDir=0 NMtPBC=     1 NCelOv=     1 NCel=       1 NClECP=     1 NCelD=      1
         NCelK=      1 NCelE2=     1 NClLst=     1 CellRange=     0.0.
 One-electron integrals computed using PRISM.
 NBasis=   257 RedAO= T  NBF=   257
 NBsUse=   257 1.00D-06 NBFU=   257
 Precomputing XC quadrature grid using
 IXCGrd= 2 IRadAn=           0 IRanWt=          -1 IRanGd=           0 AccXCQ= 1.00D-10.
 NRdTot=    1972 NPtTot=      251670 NUsed=      265890 NTot=      265922
 NSgBfM=   256   256   256   256   256 NAtAll=    31    31.
 Leave Link  302 at Fri Sep  3 00:07:56 2021, MaxMem=  268435456 cpu:       1.8
 (Enter /sw/target/amd/app/gaussian/Gaussian09RevA.02_gcc-4.9.2/g09/l303.exe)
 DipDrv:  MaxL=1.
 Leave Link  303 at Fri Sep  3 00:07:56 2021, MaxMem=  268435456 cpu:       0.1
 (Enter /sw/target/amd/app/gaussian/Gaussian09RevA.02_gcc-4.9.2/g09/l401.exe)
 Harris functional with IExCor=  402 diagonalized for initial guess.
 ExpMin= 1.61D-01 ExpMax= 5.48D+03 ExpMxC= 8.25D+02 IAcc=1 IRadAn=         1 AccDes= 0.00D+00
 HarFok:  IExCor=  402 AccDes= 0.00D+00 IRadAn=         1 IDoV= 1
 ScaDFX=  1.000000  1.000000  1.000000  1.000000
 FoFCou: FMM=F IPFlag=           0 FMFlag=      100000 FMFlg1=           0
         NFxFlg=           0 DoJE=T BraDBF=F KetDBF=T FulRan=T
         Omega=  0.000000  0.000000  1.000000  0.000000  0.000000 ICntrl=     500 IOpCl=  0
         NMat0=    1 NMatS0=    1 NMatT0=    0 NMatD0=    1 NMtDS0=    0 NMtDT0=    0
         I1Cent=           4 NGrid=           0.
 Petite list used in FoFCou.
 Harris En= -692.694673211983    
 Initial guess orbital symmetries:
       Occupied  (A) (A) (A) (A) (A) (A) (A) (A) (A) (A) (A) (A)
                 (A) (A) (A) (A) (A) (A) (A) (A) (A) (A) (A) (A)
                 (A) (A) (A) (A) (A) (A) (A) (A) (A) (A) (A) (A)
                 (A) (A) (A) (A) (A) (A) (A) (A) (A) (A) (A) (A)
                 (A) (A) (A) (A) (A) (A) (A) (A)
       Virtual   (A) (A) (A) (A) (A) (A) (A) (A) (A) (A) (A) (A)
                 (A) (A) (A) (A) (A) (A) (A) (A) (A) (A) (A) (A)
                 (A) (A) (A) (A) (A) (A) (A) (A) (A) (A) (A) (A)
                 (A) (A) (A) (A) (A) (A) (A) (A) (A) (A) (A) (A)
                 (A) (A) (A) (A) (A) (A) (A) (A) (A) (A) (A) (A)
                 (A) (A) (A) (A) (A) (A) (A) (A) (A) (A) (A) (A)
                 (A) (A) (A) (A) (A) (A) (A) (A) (A) (A) (A) (A)
                 (A) (A) (A) (A) (A) (A) (A) (A) (A) (A) (A) (A)
                 (A) (A) (A) (A) (A) (A) (A) (A) (A) (A) (A) (A)
                 (A) (A) (A) (A) (A) (A) (A) (A) (A) (A) (A) (A)
                 (A) (A) (A) (A) (A) (A) (A) (A) (A) (A) (A) (A)
                 (A) (A) (A) (A) (A) (A) (A) (A) (A) (A) (A) (A)
                 (A) (A) (A) (A) (A) (A) (A) (A) (A) (A) (A) (A)
                 (A) (A) (A) (A) (A) (A) (A) (A) (A) (A) (A) (A)
                 (A) (A) (A) (A) (A) (A) (A) (A) (A) (A) (A) (A)
                 (A) (A) (A) (A) (A) (A) (A) (A) (A) (A) (A) (A)
                 (A) (A) (A) (A) (A) (A) (A) (A) (A)
 The electronic state of the initial guess is 1-A.
 Leave Link  401 at Fri Sep  3 00:08:04 2021, MaxMem=  268435456 cpu:       7.4
 (Enter /sw/target/amd/app/gaussian/Gaussian09RevA.02_gcc-4.9.2/g09/l502.exe)
 Closed shell SCF:
 Requested convergence on RMS density matrix=1.00D-08 within  64 cycles.
 Requested convergence on MAX density matrix=1.00D-06.
 Requested convergence on             energy=1.00D-06.
 No special actions if energy rises.
 Using DIIS extrapolation, IDIIS=  1040.
 Integral symmetry usage will be decided dynamically.
       265598 words used for storage of precomputed grid.
 IEnd=      472778 IEndB=      472778 NGot=   268435456 MDV=   268033209
 LenX=   268033209 LenY=   267966719
 Fock matrices will be formed incrementally for  20 cycles.
 Integral accuracy reduced to 1.0D-05 until final iterations.

 Cycle   1  Pass 0  IDiag  1:
 FoFCou: FMM=F IPFlag=           0 FMFlag=      100000 FMFlg1=           0
         NFxFlg=           0 DoJE=F BraDBF=F KetDBF=F FulRan=T
         Omega=  0.000000  0.000000  1.000000  0.000000  0.000000 ICntrl=       0 IOpCl=  0
         NMat0=    1 NMatS0=    1 NMatT0=    0 NMatD0=    1 NMtDS0=    0 NMtDT0=    0
         I1Cent=           0 NGrid=           0.
 Symmetry not used in FoFCou.
 E= -692.145060394667    
 DIIS: error= 5.06D-02 at cycle   1 NSaved=   1.
 NSaved= 1 IEnMin= 1 EnMin= -692.145060394667     IErMin= 1 ErrMin= 5.06D-02
 ErrMax= 5.06D-02 EMaxC= 1.00D-01 BMatC= 4.50D-01 BMatP= 4.50D-01
 IDIUse=3 WtCom= 4.94D-01 WtEn= 5.06D-01
 Coeff-Com:  0.100D+01
 Coeff-En:   0.100D+01
 Coeff:      0.100D+01
 Gap=     0.250 Goal=   None    Shift=    0.000
 GapD=    0.250 DampG=1.000 DampE=0.500 DampFc=0.5000 IDamp=-1.
 Damping current iteration by 5.00D-01
 RMSDP=5.51D-03 MaxDP=1.78D-01              OVMax= 1.95D-01

 Cycle   2  Pass 0  IDiag  1:
 RMSU=  1.92D-03    CP:  9.79D-01
 E= -692.300557859714     Delta-E=       -0.155497465047 Rises=F Damp=T
 DIIS: error= 1.36D-02 at cycle   2 NSaved=   2.
 NSaved= 2 IEnMin= 2 EnMin= -692.300557859714     IErMin= 2 ErrMin= 1.36D-02
 ErrMax= 1.36D-02 EMaxC= 1.00D-01 BMatC= 5.60D-02 BMatP= 4.50D-01
 IDIUse=3 WtCom= 8.64D-01 WtEn= 1.36D-01
 Coeff-Com:  0.176D+00 0.824D+00
 Coeff-En:   0.260D+00 0.740D+00
 Coeff:      0.188D+00 0.812D+00
 Gap=     0.218 Goal=   None    Shift=    0.000
 RMSDP=1.63D-03 MaxDP=6.49D-02 DE=-1.55D-01 OVMax= 1.59D-01

 Cycle   3  Pass 0  IDiag  1:
 RMSU=  1.11D-03    CP:  9.73D-01  8.47D-01
 E= -692.522048842295     Delta-E=       -0.221490982581 Rises=F Damp=F
 DIIS: error= 1.88D-02 at cycle   3 NSaved=   3.
 NSaved= 3 IEnMin= 3 EnMin= -692.522048842295     IErMin= 2 ErrMin= 1.36D-02
 ErrMax= 1.88D-02 EMaxC= 1.00D-01 BMatC= 7.70D-02 BMatP= 5.60D-02
 IDIUse=2 WtCom= 0.00D+00 WtEn= 1.00D+00
 Coeff-En:   0.000D+00 0.000D+00 0.100D+01
 Coeff:      0.000D+00 0.000D+00 0.100D+01
 Gap=     0.214 Goal=   None    Shift=    0.000
 RMSDP=3.11D-03 MaxDP=1.46D-01 DE=-2.21D-01 OVMax= 3.36D-01

 Cycle   4  Pass 0  IDiag  1:
 RMSU=  1.06D-03    CP:  9.79D-01  1.12D+00 -6.64D-01
 E= -692.181557015918     Delta-E=        0.340491826378 Rises=F Damp=F
 DIIS: error= 5.11D-02 at cycle   4 NSaved=   4.
 NSaved= 4 IEnMin= 3 EnMin= -692.522048842295     IErMin= 2 ErrMin= 1.36D-02
 ErrMax= 5.11D-02 EMaxC= 1.00D-01 BMatC= 5.14D-01 BMatP= 5.60D-02
 IDIUse=2 WtCom= 0.00D+00 WtEn= 1.00D+00
 Coeff-En:   0.000D+00 0.000D+00 0.808D+00 0.192D+00
 Coeff:      0.000D+00 0.000D+00 0.808D+00 0.192D+00
 Gap=     0.237 Goal=   None    Shift=    0.000
 RMSDP=1.66D-03 MaxDP=7.44D-02 DE= 3.40D-01 OVMax= 1.48D-01

 Cycle   5  Pass 0  IDiag  1:
 RMSU=  2.10D-04    CP:  9.78D-01  8.99D-01  1.62D-01  4.74D-01
 E= -692.554475660202     Delta-E=       -0.372918644284 Rises=F Damp=F
 DIIS: error= 1.34D-02 at cycle   5 NSaved=   5.
 NSaved= 5 IEnMin= 5 EnMin= -692.554475660202     IErMin= 5 ErrMin= 1.34D-02
 ErrMax= 1.34D-02 EMaxC= 1.00D-01 BMatC= 3.96D-02 BMatP= 5.60D-02
 IDIUse=3 WtCom= 8.66D-01 WtEn= 1.34D-01
 Coeff-Com: -0.626D-02 0.494D-01 0.316D+00-0.979D-01 0.738D+00
 Coeff-En:   0.000D+00 0.000D+00 0.371D+00 0.000D+00 0.629D+00
 Coeff:     -0.543D-02 0.428D-01 0.324D+00-0.848D-01 0.724D+00
 Gap=     0.210 Goal=   None    Shift=    0.000
 RMSDP=6.44D-04 MaxDP=2.89D-02 DE=-3.73D-01 OVMax= 4.90D-02

 Cycle   6  Pass 0  IDiag  1:
 RMSU=  5.88D-05    CP:  9.76D-01  8.66D-01  5.06D-01  2.64D-01  7.71D-01
 E= -692.585753236293     Delta-E=       -0.031277576091 Rises=F Damp=F
 DIIS: error= 5.14D-04 at cycle   6 NSaved=   6.
 NSaved= 6 IEnMin= 6 EnMin= -692.585753236293     IErMin= 6 ErrMin= 5.14D-04
 ErrMax= 5.14D-04 EMaxC= 1.00D-01 BMatC= 1.81D-04 BMatP= 3.96D-02
 IDIUse=3 WtCom= 9.95D-01 WtEn= 5.14D-03
 Coeff-Com: -0.498D-02 0.192D-01 0.160D+00-0.594D-01 0.422D+00 0.463D+00
 Coeff-En:   0.000D+00 0.000D+00 0.000D+00 0.000D+00 0.000D+00 0.100D+01
 Coeff:     -0.495D-02 0.191D-01 0.159D+00-0.591D-01 0.420D+00 0.466D+00
 Gap=     0.211 Goal=   None    Shift=    0.000
 RMSDP=5.26D-05 MaxDP=3.19D-03 DE=-3.13D-02 OVMax= 3.47D-03

 Cycle   7  Pass 0  IDiag  1:
 RMSU=  1.92D-05    CP:  9.76D-01  8.71D-01  4.95D-01  2.71D-01  8.03D-01
                    CP:  5.61D-01
 E= -692.585881734006     Delta-E=       -0.000128497713 Rises=F Damp=F
 DIIS: error= 2.25D-04 at cycle   7 NSaved=   7.
 NSaved= 7 IEnMin= 7 EnMin= -692.585881734006     IErMin= 7 ErrMin= 2.25D-04
 ErrMax= 2.25D-04 EMaxC= 1.00D-01 BMatC= 1.84D-05 BMatP= 1.81D-04
 IDIUse=3 WtCom= 9.98D-01 WtEn= 2.25D-03
 Coeff-Com: -0.747D-03 0.143D-02 0.317D-01-0.135D-01 0.843D-01 0.223D+00
 Coeff-Com:  0.674D+00
 Coeff-En:   0.000D+00 0.000D+00 0.000D+00 0.000D+00 0.000D+00 0.676D-01
 Coeff-En:   0.932D+00
 Coeff:     -0.745D-03 0.142D-02 0.316D-01-0.135D-01 0.841D-01 0.223D+00
 Coeff:      0.674D+00
 Gap=     0.211 Goal=   None    Shift=    0.000
 RMSDP=1.63D-05 MaxDP=7.03D-04 DE=-1.28D-04 OVMax= 1.11D-03

 Cycle   8  Pass 0  IDiag  1:
 RMSU=  5.66D-06    CP:  9.76D-01  8.69D-01  5.01D-01  2.69D-01  7.97D-01
                    CP:  6.09D-01  6.85D-01
 E= -692.585896172182     Delta-E=       -0.000014438176 Rises=F Damp=F
 DIIS: error= 5.73D-05 at cycle   8 NSaved=   8.
 NSaved= 8 IEnMin= 8 EnMin= -692.585896172182     IErMin= 8 ErrMin= 5.73D-05
 ErrMax= 5.73D-05 EMaxC= 1.00D-01 BMatC= 1.00D-06 BMatP= 1.84D-05
 IDIUse=1 WtCom= 1.00D+00 WtEn= 0.00D+00
 Coeff-Com: -0.106D-06-0.664D-03 0.962D-02-0.380D-02 0.227D-01 0.102D+00
 Coeff-Com:  0.370D+00 0.500D+00
 Coeff:     -0.106D-06-0.664D-03 0.962D-02-0.380D-02 0.227D-01 0.102D+00
 Coeff:      0.370D+00 0.500D+00
 Gap=     0.210 Goal=   None    Shift=    0.000
 RMSDP=5.06D-06 MaxDP=2.14D-04 DE=-1.44D-05 OVMax= 4.71D-04

 Initial convergence to 1.0D-05 achieved.  Increase integral accuracy.
 Cycle   9  Pass 1  IDiag  1:
 E= -692.585914664154     Delta-E=       -0.000018491973 Rises=F Damp=F
 DIIS: error= 4.70D-05 at cycle   1 NSaved=   1.
 NSaved= 1 IEnMin= 1 EnMin= -692.585914664154     IErMin= 1 ErrMin= 4.70D-05
 ErrMax= 4.70D-05 EMaxC= 1.00D-01 BMatC= 2.43D-07 BMatP= 2.43D-07
 IDIUse=1 WtCom= 1.00D+00 WtEn= 0.00D+00
 Coeff-Com:  0.100D+01
 Coeff:      0.100D+01
 Gap=     0.210 Goal=   None    Shift=    0.000
 RMSDP=5.06D-06 MaxDP=2.14D-04 DE=-1.85D-05 OVMax= 4.07D-04

 Cycle  10  Pass 1  IDiag  1:
 RMSU=  1.01D-05    CP:  1.00D+00
 E= -692.585914435563     Delta-E=        0.000000228592 Rises=F Damp=F
 DIIS: error= 5.61D-05 at cycle   2 NSaved=   2.
 NSaved= 2 IEnMin= 1 EnMin= -692.585914664154     IErMin= 1 ErrMin= 4.70D-05
 ErrMax= 5.61D-05 EMaxC= 1.00D-01 BMatC= 4.69D-07 BMatP= 2.43D-07
 IDIUse=1 WtCom= 1.00D+00 WtEn= 0.00D+00
 Coeff-Com:  0.598D+00 0.402D+00
 Coeff:      0.598D+00 0.402D+00
 Gap=     0.210 Goal=   None    Shift=    0.000
 RMSDP=3.55D-06 MaxDP=1.34D-04 DE= 2.29D-07 OVMax= 3.57D-04

 Cycle  11  Pass 1  IDiag  1:
 RMSU=  2.44D-06    CP:  1.00D+00  9.43D-01
 E= -692.585914901640     Delta-E=       -0.000000466077 Rises=F Damp=F
 DIIS: error= 1.37D-05 at cycle   3 NSaved=   3.
 NSaved= 3 IEnMin= 3 EnMin= -692.585914901640     IErMin= 3 ErrMin= 1.37D-05
 ErrMax= 1.37D-05 EMaxC= 1.00D-01 BMatC= 3.93D-08 BMatP= 2.43D-07
 IDIUse=1 WtCom= 1.00D+00 WtEn= 0.00D+00
 Coeff-Com:  0.346D-01 0.223D+00 0.743D+00
 Coeff:      0.346D-01 0.223D+00 0.743D+00
 Gap=     0.210 Goal=   None    Shift=    0.000
 RMSDP=9.12D-07 MaxDP=3.45D-05 DE=-4.66D-07 OVMax= 6.56D-05

 Cycle  12  Pass 1  IDiag  1:
 RMSU=  3.94D-07    CP:  1.00D+00  9.62D-01  8.07D-01
 E= -692.585914931941     Delta-E=       -0.000000030301 Rises=F Damp=F
 DIIS: error= 5.14D-06 at cycle   4 NSaved=   4.
 NSaved= 4 IEnMin= 4 EnMin= -692.585914931941     IErMin= 4 ErrMin= 5.14D-06
 ErrMax= 5.14D-06 EMaxC= 1.00D-01 BMatC= 1.12D-08 BMatP= 3.93D-08
 IDIUse=1 WtCom= 1.00D+00 WtEn= 0.00D+00
 Coeff-Com: -0.998D-02 0.133D+00 0.518D+00 0.359D+00
 Coeff:     -0.998D-02 0.133D+00 0.518D+00 0.359D+00
 Gap=     0.210 Goal=   None    Shift=    0.000
 RMSDP=3.57D-07 MaxDP=1.62D-05 DE=-3.03D-08 OVMax= 2.54D-05

 Cycle  13  Pass 1  IDiag  1:
 RMSU=  1.09D-07    CP:  1.00D+00  9.66D-01  8.00D-01  4.29D-01
 E= -692.585914940765     Delta-E=       -0.000000008824 Rises=F Damp=F
 DIIS: error= 6.28D-07 at cycle   5 NSaved=   5.
 NSaved= 5 IEnMin= 5 EnMin= -692.585914940765     IErMin= 5 ErrMin= 6.28D-07
 ErrMax= 6.28D-07 EMaxC= 1.00D-01 BMatC= 1.72D-10 BMatP= 1.12D-08
 IDIUse=1 WtCom= 1.00D+00 WtEn= 0.00D+00
 Coeff-Com: -0.713D-02 0.542D-01 0.223D+00 0.182D+00 0.548D+00
 Coeff:     -0.713D-02 0.542D-01 0.223D+00 0.182D+00 0.548D+00
 Gap=     0.210 Goal=   None    Shift=    0.000
 RMSDP=5.97D-08 MaxDP=1.68D-06 DE=-8.82D-09 OVMax= 3.46D-06

 Cycle  14  Pass 1  IDiag  1:
 RMSU=  3.35D-08    CP:  1.00D+00  9.66D-01  8.04D-01  4.33D-01  7.82D-01
 E= -692.585914940941     Delta-E=       -0.000000000177 Rises=F Damp=F
 DIIS: error= 1.72D-07 at cycle   6 NSaved=   6.
 NSaved= 6 IEnMin= 6 EnMin= -692.585914940941     IErMin= 6 ErrMin= 1.72D-07
 ErrMax= 1.72D-07 EMaxC= 1.00D-01 BMatC= 1.65D-11 BMatP= 1.72D-10
 IDIUse=1 WtCom= 1.00D+00 WtEn= 0.00D+00
 Coeff-Com: -0.266D-02 0.157D-01 0.686D-01 0.621D-01 0.289D+00 0.567D+00
 Coeff:     -0.266D-02 0.157D-01 0.686D-01 0.621D-01 0.289D+00 0.567D+00
 Gap=     0.210 Goal=   None    Shift=    0.000
 RMSDP=1.70D-08 MaxDP=6.26D-07 DE=-1.77D-10 OVMax= 1.32D-06

 Cycle  15  Pass 1  IDiag  1:
 RMSU=  1.06D-08    CP:  1.00D+00  9.66D-01  8.04D-01  4.34D-01  8.04D-01
                    CP:  8.52D-01
 E= -692.585914940926     Delta-E=        0.000000000015 Rises=F Damp=F
 DIIS: error= 5.10D-08 at cycle   7 NSaved=   7.
 NSaved= 7 IEnMin= 6 EnMin= -692.585914940941     IErMin= 7 ErrMin= 5.10D-08
 ErrMax= 5.10D-08 EMaxC= 1.00D-01 BMatC= 1.93D-12 BMatP= 1.65D-11
 IDIUse=1 WtCom= 1.00D+00 WtEn= 0.00D+00
 Coeff-Com: -0.570D-03 0.179D-02 0.971D-02 0.115D-01 0.898D-01 0.304D+00
 Coeff-Com:  0.584D+00
 Coeff:     -0.570D-03 0.179D-02 0.971D-02 0.115D-01 0.898D-01 0.304D+00
 Coeff:      0.584D+00
 Gap=     0.210 Goal=   None    Shift=    0.000
 RMSDP=6.94D-09 MaxDP=2.04D-07 DE= 1.55D-11 OVMax= 5.75D-07

 SCF Done:  E(RB3LYP) =  -692.585914941     A.U. after   15 cycles
             Convg  =    0.6938D-08             -V/T =  2.0095
 KE= 6.860422220660D+02 PE=-3.580038787513D+03 EE= 1.217442720128D+03
 Leave Link  502 at Fri Sep  3 00:12:59 2021, MaxMem=  268435456 cpu:     293.7
 (Enter /sw/target/amd/app/gaussian/Gaussian09RevA.02_gcc-4.9.2/g09/l508.exe)
 QCSCF skips out because SCF is already converged.
 Leave Link  508 at Fri Sep  3 00:12:59 2021, MaxMem=  268435456 cpu:       0.0
 (Enter /sw/target/amd/app/gaussian/Gaussian09RevA.02_gcc-4.9.2/g09/l601.exe)
 Copying SCF densities to generalized density rwf, IOpCl= 0 IROHF=0.

 **********************************************************************

            Population analysis using the SCF density.

 **********************************************************************

 Orbital symmetries:
       Occupied  (A) (A) (A) (A) (A) (A) (A) (A) (A) (A) (A) (A)
                 (A) (A) (A) (A) (A) (A) (A) (A) (A) (A) (A) (A)
                 (A) (A) (A) (A) (A) (A) (A) (A) (A) (A) (A) (A)
                 (A) (A) (A) (A) (A) (A) (A) (A) (A) (A) (A) (A)
                 (A) (A) (A) (A) (A) (A) (A) (A)
       Virtual   (A) (A) (A) (A) (A) (A) (A) (A) (A) (A) (A) (A)
                 (A) (A) (A) (A) (A) (A) (A) (A) (A) (A) (A) (A)
                 (A) (A) (A) (A) (A) (A) (A) (A) (A) (A) (A) (A)
                 (A) (A) (A) (A) (A) (A) (A) (A) (A) (A) (A) (A)
                 (A) (A) (A) (A) (A) (A) (A) (A) (A) (A) (A) (A)
                 (A) (A) (A) (A) (A) (A) (A) (A) (A) (A) (A) (A)
                 (A) (A) (A) (A) (A) (A) (A) (A) (A) (A) (A) (A)
                 (A) (A) (A) (A) (A) (A) (A) (A) (A) (A) (A) (A)
                 (A) (A) (A) (A) (A) (A) (A) (A) (A) (A) (A) (A)
                 (A) (A) (A) (A) (A) (A) (A) (A) (A) (A) (A) (A)
                 (A) (A) (A) (A) (A) (A) (A) (A) (A) (A) (A) (A)
                 (A) (A) (A) (A) (A) (A) (A) (A) (A) (A) (A) (A)
                 (A) (A) (A) (A) (A) (A) (A) (A) (A) (A) (A) (A)
                 (A) (A) (A) (A) (A) (A) (A) (A) (A) (A) (A) (A)
                 (A) (A) (A) (A) (A) (A) (A) (A) (A) (A) (A) (A)
                 (A) (A) (A) (A) (A) (A) (A) (A) (A) (A) (A) (A)
                 (A) (A) (A) (A) (A) (A) (A) (A) (A)
 The electronic state is 1-A.
 Alpha  occ. eigenvalues --  -19.19857 -19.17857 -19.14201 -10.31758 -10.24795
 Alpha  occ. eigenvalues --  -10.24228 -10.24123 -10.21171 -10.19522 -10.19353
 Alpha  occ. eigenvalues --  -10.19274 -10.18815 -10.18056 -10.18021 -10.17242
 Alpha  occ. eigenvalues --   -1.09530  -1.06324  -1.01644  -0.85346  -0.82294
 Alpha  occ. eigenvalues --   -0.75720  -0.75141  -0.70195  -0.69192  -0.68331
 Alpha  occ. eigenvalues --   -0.64717  -0.61835  -0.58511  -0.55185  -0.52894
 Alpha  occ. eigenvalues --   -0.49765  -0.48443  -0.47974  -0.47090  -0.45518
 Alpha  occ. eigenvalues --   -0.45087  -0.43463  -0.43068  -0.42889  -0.42479
 Alpha  occ. eigenvalues --   -0.40448  -0.39645  -0.38861  -0.38269  -0.37521
 Alpha  occ. eigenvalues --   -0.36650  -0.36365  -0.35473  -0.33570  -0.33336
 Alpha  occ. eigenvalues --   -0.33128  -0.32043  -0.30206  -0.27089  -0.25202
 Alpha  occ. eigenvalues --   -0.21509
 Alpha virt. eigenvalues --   -0.00464  -0.00290   0.02121   0.08354   0.08833
 Alpha virt. eigenvalues --    0.10639   0.12541   0.13005   0.13825   0.15070
 Alpha virt. eigenvalues --    0.15258   0.15336   0.15798   0.16212   0.16328
 Alpha virt. eigenvalues --    0.16920   0.17315   0.18337   0.19332   0.19587
 Alpha virt. eigenvalues --    0.20570   0.21651   0.22338   0.22754   0.24524
 Alpha virt. eigenvalues --    0.25588   0.26100   0.30115   0.31538   0.34070
 Alpha virt. eigenvalues --    0.34406   0.35545   0.38326   0.47914   0.49365
 Alpha virt. eigenvalues --    0.50305   0.50344   0.51304   0.52191   0.52293
 Alpha virt. eigenvalues --    0.53445   0.54287   0.55315   0.56733   0.57179
 Alpha virt. eigenvalues --    0.58898   0.59404   0.59748   0.60406   0.61067
 Alpha virt. eigenvalues --    0.61504   0.63567   0.64413   0.65478   0.67708
 Alpha virt. eigenvalues --    0.68176   0.69796   0.70169   0.70631   0.73544
 Alpha virt. eigenvalues --    0.74594   0.75908   0.78508   0.80199   0.82573
 Alpha virt. eigenvalues --    0.83612   0.84056   0.84833   0.86109   0.86694
 Alpha virt. eigenvalues --    0.86931   0.87641   0.88500   0.89073   0.89806
 Alpha virt. eigenvalues --    0.90141   0.90636   0.91431   0.92472   0.93134
 Alpha virt. eigenvalues --    0.93348   0.94616   0.95869   0.97295   0.98126
 Alpha virt. eigenvalues --    0.98662   0.99411   0.99771   1.01587   1.04109
 Alpha virt. eigenvalues --    1.04891   1.07622   1.12261   1.13521   1.14421
 Alpha virt. eigenvalues --    1.17043   1.19559   1.21154   1.22172   1.26019
 Alpha virt. eigenvalues --    1.28503   1.31939   1.34639   1.36436   1.37488
 Alpha virt. eigenvalues --    1.40130   1.43585   1.44922   1.45430   1.46835
 Alpha virt. eigenvalues --    1.49850   1.50625   1.51263   1.51688   1.52373
 Alpha virt. eigenvalues --    1.60388   1.65205   1.65690   1.69248   1.72129
 Alpha virt. eigenvalues --    1.72844   1.76019   1.78576   1.79353   1.82519
 Alpha virt. eigenvalues --    1.83129   1.84765   1.86343   1.87008   1.87773
 Alpha virt. eigenvalues --    1.88750   1.89794   1.92842   1.94249   1.96769
 Alpha virt. eigenvalues --    1.98225   2.00289   2.01070   2.02046   2.03191
 Alpha virt. eigenvalues --    2.04623   2.07065   2.08853   2.09471   2.09871
 Alpha virt. eigenvalues --    2.10857   2.14168   2.14802   2.15906   2.21120
 Alpha virt. eigenvalues --    2.22541   2.24651   2.25159   2.26370   2.26609
 Alpha virt. eigenvalues --    2.27125   2.28621   2.30562   2.31823   2.35616
 Alpha virt. eigenvalues --    2.35821   2.38787   2.45478   2.47983   2.51585
 Alpha virt. eigenvalues --    2.53955   2.54896   2.58037   2.61377   2.63462
 Alpha virt. eigenvalues --    2.66250   2.67327   2.69087   2.71440   2.72051
 Alpha virt. eigenvalues --    2.75509   2.81000   2.82680   2.84410   2.95589
 Alpha virt. eigenvalues --    2.96355   2.98444   3.09556   3.15270   3.23525
 Alpha virt. eigenvalues --    3.43700   4.04800   4.05395   4.10932   4.13706
 Alpha virt. eigenvalues --    4.14732   4.21721   4.28527   4.30107   4.32196
 Alpha virt. eigenvalues --    4.33224   4.41404   4.49939   4.50925   4.72271
 Alpha virt. eigenvalues --    4.83326
          Condensed to atoms (all electrons):
              1          2          3          4          5          6
     1  C    4.896625   0.248717  -0.043540  -0.006446   0.000318  -0.000006
     2  O    0.248717   8.199862   0.281081  -0.061787   0.003705   0.000154
     3  C   -0.043540   0.281081   4.508920   0.465467  -0.004492  -0.037125
     4  C   -0.006446  -0.061787   0.465467   5.118151   0.469649  -0.010070
     5  C    0.000318   0.003705  -0.004492   0.469649   4.963098   0.528143
     6  C   -0.000006   0.000154  -0.037125  -0.010070   0.528143   4.540551
     7  O   -0.000000   0.000000   0.000132   0.004174  -0.044784   0.178910
     8  C    0.000000   0.000000   0.000039   0.000135  -0.003739  -0.006361
     9  O   -0.000000   0.000000   0.000014  -0.000317   0.004804   0.000623
    10  C   -0.000000   0.000000   0.000000   0.000000   0.000211   0.004308
    11  C    0.000000  -0.000000  -0.000000  -0.000000   0.000002  -0.000068
    12  C   -0.000000  -0.000000   0.000000   0.000000  -0.000043   0.000019
    13  C    0.000000  -0.000000   0.000000  -0.000000   0.000002  -0.000374
    14  C   -0.000129   0.003211  -0.020091  -0.038794  -0.064064   0.541592
    15  C    0.004308  -0.055367   0.542771  -0.064108  -0.034837  -0.018341
    16  H    0.364265  -0.035737  -0.004738   0.005278  -0.000158  -0.000002
    17  H    0.383982  -0.031059   0.003251   0.000164   0.000001  -0.000000
    18  H    0.364355  -0.036232  -0.004942   0.004699  -0.000119  -0.000009
    19  H    0.005776  -0.007130  -0.045118   0.352551  -0.035059   0.003229
    20  H   -0.000006  -0.000041   0.003091  -0.037661   0.350593  -0.033950
    21  H    0.000000  -0.000000  -0.000000   0.000000  -0.000002  -0.000006
    22  H    0.000000   0.000000  -0.000000   0.000000   0.000000   0.000001
    23  H   -0.000000  -0.000000  -0.000000   0.000000  -0.000000  -0.000006
    24  H   -0.000000  -0.000000  -0.000000   0.000000   0.000000  -0.000001
    25  H    0.000000  -0.000000   0.000000  -0.000000   0.000020   0.000036
    26  H    0.000000  -0.000000   0.000000   0.000000  -0.000008  -0.000029
    27  H    0.000000  -0.000000   0.000000  -0.000000   0.000011   0.000007
    28  H    0.000000  -0.000000  -0.000000  -0.000000  -0.000000  -0.000017
    29  H   -0.000000  -0.000000  -0.000000  -0.000000   0.000000   0.000007
    30  H    0.000003  -0.000052   0.004355  -0.000021   0.006548  -0.038943
    31  H   -0.000179  -0.000238  -0.035040   0.007391   0.000038   0.004052
              7          8          9         10         11         12
     1  C   -0.000000   0.000000  -0.000000  -0.000000   0.000000  -0.000000
     2  O    0.000000   0.000000   0.000000   0.000000  -0.000000  -0.000000
     3  C    0.000132   0.000039   0.000014   0.000000  -0.000000   0.000000
     4  C    0.004174   0.000135  -0.000317   0.000000  -0.000000   0.000000
     5  C   -0.044784  -0.003739   0.004804   0.000211   0.000002  -0.000043
     6  C    0.178910  -0.006361   0.000623   0.004308  -0.000068   0.000019
     7  O    8.390701   0.213537  -0.067116  -0.098208   0.003311   0.001583
     8  C    0.213537   4.406727   0.546982   0.351104  -0.046053  -0.042435
     9  O   -0.067116   0.546982   8.045585  -0.076813   0.002712   0.000064
    10  C   -0.098208   0.351104  -0.076813   4.987233   0.371183   0.362235
    11  C    0.003311  -0.046053   0.002712   0.371183   5.130357  -0.060912
    12  C    0.001583  -0.042435   0.000064   0.362235  -0.060912   5.147802
    13  C    0.001366  -0.041621   0.000119   0.362861  -0.060724  -0.054332
    14  C   -0.047762  -0.001840  -0.000346  -0.000415   0.000004  -0.000003
    15  C    0.003832  -0.000015  -0.000006   0.000004  -0.000000  -0.000000
    16  H    0.000000   0.000000   0.000000  -0.000000  -0.000000  -0.000000
    17  H   -0.000000  -0.000000  -0.000000  -0.000000   0.000000  -0.000000
    18  H    0.000000  -0.000000  -0.000000   0.000000  -0.000000   0.000000
    19  H   -0.000054  -0.000015  -0.000005  -0.000000   0.000000  -0.000000
    20  H   -0.005443   0.002471   0.001618  -0.000293   0.000009   0.000049
    21  H    0.000036  -0.004968   0.003462  -0.027211   0.368929  -0.004010
    22  H   -0.000033   0.005159   0.000512  -0.028037   0.361680  -0.005053
    23  H    0.000037  -0.005062   0.003433  -0.026915   0.369286   0.005594
    24  H    0.000114   0.004042  -0.000067  -0.029134  -0.004992   0.369338
    25  H    0.005845  -0.006158   0.000016  -0.027718   0.005565   0.367386
    26  H   -0.000076  -0.002185   0.000638  -0.032874  -0.004018   0.368469
    27  H    0.006027  -0.006306   0.000013  -0.027699   0.005586  -0.004792
    28  H   -0.000089  -0.002551   0.000624  -0.032180  -0.003998   0.005613
    29  H    0.000111   0.003936  -0.000069  -0.029344  -0.005019  -0.005236
    30  H   -0.001738   0.000017   0.000009  -0.000072   0.000001  -0.000001
    31  H   -0.000054  -0.000002  -0.000000  -0.000000   0.000000   0.000000
             13         14         15         16         17         18
     1  C    0.000000  -0.000129   0.004308   0.364265   0.383982   0.364355
     2  O   -0.000000   0.003211  -0.055367  -0.035737  -0.031059  -0.036232
     3  C    0.000000  -0.020091   0.542771  -0.004738   0.003251  -0.004942
     4  C   -0.000000  -0.038794  -0.064108   0.005278   0.000164   0.004699
     5  C    0.000002  -0.064064  -0.034837  -0.000158   0.000001  -0.000119
     6  C   -0.000374   0.541592  -0.018341  -0.000002  -0.000000  -0.000009
     7  O    0.001366  -0.047762   0.003832   0.000000  -0.000000   0.000000
     8  C   -0.041621  -0.001840  -0.000015   0.000000  -0.000000  -0.000000
     9  O    0.000119  -0.000346  -0.000006   0.000000  -0.000000  -0.000000
    10  C    0.362861  -0.000415   0.000004  -0.000000  -0.000000   0.000000
    11  C   -0.060724   0.000004  -0.000000  -0.000000   0.000000  -0.000000
    12  C   -0.054332  -0.000003  -0.000000  -0.000000  -0.000000   0.000000
    13  C    5.145988   0.000048   0.000001   0.000000   0.000000  -0.000000
    14  C    0.000048   4.967244   0.503863  -0.000005   0.000003   0.000005
    15  C    0.000001   0.503863   4.996052   0.000102  -0.000111   0.000024
    16  H    0.000000  -0.000005   0.000102   0.593406  -0.033213  -0.046391
    17  H    0.000000   0.000003  -0.000111  -0.033213   0.542415  -0.034319
    18  H   -0.000000   0.000005   0.000024  -0.046391  -0.034319   0.598699
    19  H    0.000000   0.000715   0.004356   0.001708  -0.000126   0.001847
    20  H    0.000004   0.005867   0.000353   0.000001  -0.000000   0.000003
    21  H    0.005600   0.000000   0.000000   0.000000   0.000000  -0.000000
    22  H   -0.004978  -0.000000   0.000000  -0.000000  -0.000000   0.000000
    23  H   -0.004000  -0.000000  -0.000000   0.000000  -0.000000  -0.000000
    24  H   -0.005184   0.000000   0.000000  -0.000000  -0.000000   0.000000
    25  H   -0.004732   0.000001  -0.000000  -0.000000   0.000000   0.000000
    26  H    0.005647   0.000002  -0.000000   0.000000   0.000000  -0.000000
    27  H    0.366834   0.000016   0.000000  -0.000000   0.000000   0.000000
    28  H    0.369035   0.000004  -0.000000  -0.000000  -0.000000   0.000000
    29  H    0.369609  -0.000001   0.000000   0.000000   0.000000  -0.000000
    30  H    0.000061   0.351001  -0.039824  -0.000000  -0.000000  -0.000000
    31  H   -0.000000  -0.038908   0.344891   0.000029  -0.000028   0.000029
             19         20         21         22         23         24
     1  C    0.005776  -0.000006   0.000000   0.000000  -0.000000  -0.000000
     2  O   -0.007130  -0.000041  -0.000000   0.000000  -0.000000  -0.000000
     3  C   -0.045118   0.003091  -0.000000  -0.000000  -0.000000  -0.000000
     4  C    0.352551  -0.037661   0.000000   0.000000   0.000000   0.000000
     5  C   -0.035059   0.350593  -0.000002   0.000000  -0.000000   0.000000
     6  C    0.003229  -0.033950  -0.000006   0.000001  -0.000006  -0.000001
     7  O   -0.000054  -0.005443   0.000036  -0.000033   0.000037   0.000114
     8  C   -0.000015   0.002471  -0.004968   0.005159  -0.005062   0.004042
     9  O   -0.000005   0.001618   0.003462   0.000512   0.003433  -0.000067
    10  C   -0.000000  -0.000293  -0.027211  -0.028037  -0.026915  -0.029134
    11  C    0.000000   0.000009   0.368929   0.361680   0.369286  -0.004992
    12  C   -0.000000   0.000049  -0.004010  -0.005053   0.005594   0.369338
    13  C    0.000000   0.000004   0.005600  -0.004978  -0.004000  -0.005184
    14  C    0.000715   0.005867   0.000000  -0.000000  -0.000000   0.000000
    15  C    0.004356   0.000353   0.000000   0.000000  -0.000000   0.000000
    16  H    0.001708   0.000001   0.000000  -0.000000   0.000000  -0.000000
    17  H   -0.000126  -0.000000   0.000000  -0.000000  -0.000000  -0.000000
    18  H    0.001847   0.000003  -0.000000   0.000000  -0.000000   0.000000
    19  H    0.585474  -0.005692   0.000000  -0.000000   0.000000  -0.000000
    20  H   -0.005692   0.573420   0.000002  -0.000000  -0.000000  -0.000000
    21  H    0.000000   0.000002   0.559749  -0.030751  -0.026884  -0.000292
    22  H   -0.000000  -0.000000  -0.030751   0.588875  -0.030625   0.003369
    23  H    0.000000  -0.000000  -0.026884  -0.030625   0.557083   0.000022
    24  H   -0.000000  -0.000000  -0.000292   0.003369   0.000022   0.568504
    25  H    0.000000   0.000019  -0.000048  -0.000037  -0.000192  -0.028464
    26  H   -0.000000   0.000116   0.004039  -0.000098  -0.000064  -0.029498
    27  H    0.000000   0.000000  -0.000194  -0.000038  -0.000048  -0.000116
    28  H    0.000000  -0.000000  -0.000064  -0.000094   0.003995  -0.000039
    29  H    0.000000  -0.000000   0.000023   0.003308  -0.000290   0.003476
    30  H    0.000014  -0.000157  -0.000000  -0.000000  -0.000000  -0.000000
    31  H   -0.000165   0.000012   0.000000  -0.000000   0.000000   0.000000
             25         26         27         28         29         30
     1  C    0.000000   0.000000   0.000000   0.000000  -0.000000   0.000003
     2  O   -0.000000  -0.000000  -0.000000  -0.000000  -0.000000  -0.000052
     3  C    0.000000   0.000000   0.000000  -0.000000  -0.000000   0.004355
     4  C   -0.000000   0.000000  -0.000000  -0.000000  -0.000000  -0.000021
     5  C    0.000020  -0.000008   0.000011  -0.000000   0.000000   0.006548
     6  C    0.000036  -0.000029   0.000007  -0.000017   0.000007  -0.038943
     7  O    0.005845  -0.000076   0.006027  -0.000089   0.000111  -0.001738
     8  C   -0.006158  -0.002185  -0.006306  -0.002551   0.003936   0.000017
     9  O    0.000016   0.000638   0.000013   0.000624  -0.000069   0.000009
    10  C   -0.027718  -0.032874  -0.027699  -0.032180  -0.029344  -0.000072
    11  C    0.005565  -0.004018   0.005586  -0.003998  -0.005019   0.000001
    12  C    0.367386   0.368469  -0.004792   0.005613  -0.005236  -0.000001
    13  C   -0.004732   0.005647   0.366834   0.369035   0.369609   0.000061
    14  C    0.000001   0.000002   0.000016   0.000004  -0.000001   0.351001
    15  C   -0.000000  -0.000000   0.000000  -0.000000   0.000000  -0.039824
    16  H   -0.000000   0.000000  -0.000000  -0.000000   0.000000  -0.000000
    17  H    0.000000   0.000000   0.000000  -0.000000   0.000000  -0.000000
    18  H    0.000000  -0.000000   0.000000   0.000000  -0.000000  -0.000000
    19  H    0.000000  -0.000000   0.000000   0.000000   0.000000   0.000014
    20  H    0.000019   0.000116   0.000000  -0.000000  -0.000000  -0.000157
    21  H   -0.000048   0.004039  -0.000194  -0.000064   0.000023  -0.000000
    22  H   -0.000037  -0.000098  -0.000038  -0.000094   0.003308  -0.000000
    23  H   -0.000192  -0.000064  -0.000048   0.003995  -0.000290  -0.000000
    24  H   -0.028464  -0.029498  -0.000116  -0.000039   0.003476  -0.000000
    25  H    0.551208  -0.029409   0.004021  -0.000039  -0.000129   0.000004
    26  H   -0.029409   0.571543  -0.000041  -0.000193  -0.000041   0.000000
    27  H    0.004021  -0.000041   0.554013  -0.029340  -0.028642   0.000233
    28  H   -0.000039  -0.000193  -0.029340   0.567638  -0.029407   0.000015
    29  H   -0.000129  -0.000041  -0.028642  -0.029407   0.569171  -0.000000
    30  H    0.000004   0.000000   0.000233   0.000015  -0.000000   0.583740
    31  H    0.000000   0.000000  -0.000000   0.000000  -0.000000  -0.006568
             31
     1  C   -0.000179
     2  O   -0.000238
     3  C   -0.035040
     4  C    0.007391
     5  C    0.000038
     6  C    0.004052
     7  O   -0.000054
     8  C   -0.000002
     9  O   -0.000000
    10  C   -0.000000
    11  C    0.000000
    12  C    0.000000
    13  C   -0.000000
    14  C   -0.038908
    15  C    0.344891
    16  H    0.000029
    17  H   -0.000028
    18  H    0.000029
    19  H   -0.000165
    20  H    0.000012
    21  H    0.000000
    22  H   -0.000000
    23  H    0.000000
    24  H    0.000000
    25  H    0.000000
    26  H    0.000000
    27  H   -0.000000
    28  H    0.000000
    29  H   -0.000000
    30  H   -0.006568
    31  H    0.581949
 Mulliken atomic charges:
              1
     1  C   -0.218043
     2  O   -0.509087
     3  C    0.385963
     4  C   -0.208455
     5  C   -0.139838
     6  C    0.343678
     7  O   -0.544359
     8  C    0.635160
     9  O   -0.466490
    10  C   -0.002225
    11  C   -0.432840
    12  C   -0.451334
    13  C   -0.451232
    14  C   -0.161218
    15  C   -0.187950
    16  H    0.155455
    17  H    0.169039
    18  H    0.152350
    19  H    0.137692
    20  H    0.145614
    21  H    0.152590
    22  H    0.136839
    23  H    0.154638
    24  H    0.148922
    25  H    0.162804
    26  H    0.148079
    27  H    0.160454
    28  H    0.151087
    29  H    0.148538
    30  H    0.141375
    31  H    0.142793
 Sum of Mulliken atomic charges =  -0.00000
 Mulliken charges with hydrogens summed into heavy atoms:
              1
     1  C    0.258802
     2  O   -0.509087
     3  C    0.385963
     4  C   -0.070763
     5  C    0.005776
     6  C    0.343678
     7  O   -0.544359
     8  C    0.635160
     9  O   -0.466490
    10  C   -0.002225
    11  C    0.011227
    12  C    0.008471
    13  C    0.008847
    14  C   -0.019843
    15  C   -0.045157
 Sum of Mulliken charges with hydrogens summed into heavy atoms =  -0.00000
 Electronic spatial extent (au):  <R**2>=           4685.9584
 Charge=             -0.0000 electrons
 Dipole moment (field-independent basis, Debye):
    X=              0.3998    Y=             -0.1869    Z=              1.3451  Tot=              1.4156
 Quadrupole moment (field-independent basis, Debye-Ang):
   XX=            -73.6775   YY=            -85.4660   ZZ=            -92.6755
   XY=             -8.2493   XZ=             -1.1318   YZ=             -4.4962
 Traceless Quadrupole moment (field-independent basis, Debye-Ang):
   XX=             10.2622   YY=             -1.5264   ZZ=             -8.7358
   XY=             -8.2493   XZ=             -1.1318   YZ=             -4.4962
 Octapole moment (field-independent basis, Debye-Ang**2):
  XXX=             40.5384  YYY=              3.0627  ZZZ=             -2.8298  XYY=             14.7572
  XXY=            -33.2913  XXZ=              4.2574  XZZ=              0.9145  YZZ=              1.1802
  YYZ=              1.5099  XYZ=              2.1980
 Hexadecapole moment (field-independent basis, Debye-Ang**3):
 XXXX=          -4737.0025 YYYY=           -590.7268 ZZZZ=           -345.9367 XXXY=           -191.1845
 XXXZ=             -7.5131 YYYX=              9.7507 YYYZ=             -8.6670 ZZZX=              1.1766
 ZZZY=              2.6757 XXYY=           -951.2737 XXZZ=           -942.7230 YYZZ=           -164.5753
 XXYZ=             -6.8127 YYXZ=             -9.4139 ZZXY=             -8.2883
 N-N= 9.839679303780D+02 E-N=-3.580038797995D+03  KE= 6.860422220660D+02
 No NMR shielding tensors so no spin-rotation constants.
 Leave Link  601 at Fri Sep  3 00:12:59 2021, MaxMem=  268435456 cpu:       0.5
 (Enter /sw/target/amd/app/gaussian/Gaussian09RevA.02_gcc-4.9.2/g09/l701.exe)
 Compute integral first derivatives.
 ... and contract with generalized density number  0.
 Leave Link  701 at Fri Sep  3 00:13:00 2021, MaxMem=  268435456 cpu:       0.5
 (Enter /sw/target/amd/app/gaussian/Gaussian09RevA.02_gcc-4.9.2/g09/l702.exe)
 L702 exits ... SP integral derivatives will be done elsewhere.
 Leave Link  702 at Fri Sep  3 00:13:00 2021, MaxMem=  268435456 cpu:       0.1
 (Enter /sw/target/amd/app/gaussian/Gaussian09RevA.02_gcc-4.9.2/g09/l703.exe)
 Compute integral first derivatives, UseDBF=F ICtDFT=           0.
 Integral derivatives from FoFDir, PRISM(SPDF).
 Calling FoFJK, ICntrl=      2127 FMM=F ISym2X=0 I1Cent= 0 IOpClX= 0 NMat=1 NMatS=1 NMatT=0.
 FoFCou: FMM=F IPFlag=           0 FMFlag=      100000 FMFlg1=         800
         NFxFlg=           0 DoJE=F BraDBF=F KetDBF=F FulRan=T
         Omega=  0.000000  0.000000  1.000000  0.000000  0.000000 ICntrl=    2127 IOpCl=  0
         NMat0=    1 NMatS0=    1 NMatT0=    0 NMatD0=    1 NMtDS0=    0 NMtDT0=    0
         I1Cent=           0 NGrid=           0.
 Symmetry not used in FoFCou.
 Leave Link  703 at Fri Sep  3 00:14:38 2021, MaxMem=  268435456 cpu:      97.4
 (Enter /sw/target/amd/app/gaussian/Gaussian09RevA.02_gcc-4.9.2/g09/l716.exe)
 Dipole        = 1.57298546D-01-7.35501478D-02 5.29193217D-01
 ***** Axes restored to original set *****
 -------------------------------------------------------------------
 Center     Atomic                   Forces (Hartrees/Bohr)
 Number     Number              X              Y              Z
 -------------------------------------------------------------------
      1        6           0.004261017   -0.003260620   -0.001691225
      2        8           0.002764172    0.004228917    0.004955726
      3        6           0.001090339   -0.005610950   -0.004037504
      4        6          -0.000885442    0.004367847    0.002754510
      5        6           0.000765767   -0.003714908   -0.001598028
      6        6           0.000550553    0.004365329   -0.002432042
      7        8          -0.004697292   -0.001340718    0.022333639
      8        6           0.000244072   -0.002888334    0.014603644
      9        8          -0.001203588    0.005454371   -0.033456102
     10        6          -0.007626327    0.000735626    0.004026654
     11        6           0.002130326   -0.001531948    0.007465093
     12        6           0.005786969    0.006097804   -0.006325461
     13        6           0.003420497   -0.005907492   -0.008027989
     14        6           0.008227185   -0.001755575    0.002219176
     15        6          -0.007785537   -0.002203395   -0.004717660
     16        1          -0.001919510    0.003131681    0.001191601
     17        1          -0.002433189   -0.002701125   -0.003072841
     18        1          -0.001850055    0.002681742    0.002214688
     19        1           0.001345040   -0.001238323   -0.000719547
     20        1          -0.000183597   -0.001635985   -0.000694883
     21        1           0.000169850   -0.000977306   -0.000503993
     22        1           0.001063034    0.000207066   -0.002978925
     23        1           0.000560559    0.000984641   -0.000224896
     24        1          -0.000856951   -0.001615789    0.001463610
     25        1          -0.000126879   -0.000773448    0.000593150
     26        1          -0.001283339    0.000586070    0.000812913
     27        1           0.000093337    0.000662745    0.000818830
     28        1          -0.001411630   -0.000251495    0.000703438
     29        1          -0.000304875    0.001345785    0.001895584
     30        1          -0.001438940    0.000839277    0.000897418
     31        1           0.001534433    0.001718510    0.001531421
 -------------------------------------------------------------------
 Cartesian Forces:  Max     0.033456102 RMS     0.005408224
 Leave Link  716 at Fri Sep  3 00:14:38 2021, MaxMem=  268435456 cpu:       0.1
 (Enter /sw/target/amd/app/gaussian/Gaussian09RevA.02_gcc-4.9.2/g09/l103.exe)

 GradGradGradGradGradGradGradGradGradGradGradGradGradGradGradGradGradGrad
 Berny optimization.
 Internal  Forces:  Max     0.032845686 RMS     0.003750208
 Search for a local minimum.
 Step number   1 out of a maximum of  160
 All quantities printed in internal units (Hartrees-Bohrs-Radians)
 RMS Force = .37502D-02 SwitMx=.10000D-02 MixMth= 1
 Mixed Optimization -- RFO/linear search
 Second derivative matrix not updated -- first step.
     Eigenvalues ---    0.00273   0.00311   0.00311   0.00323   0.00688
     Eigenvalues ---    0.01401   0.01691   0.01753   0.02106   0.02110
     Eigenvalues ---    0.02114   0.02114   0.02116   0.02126   0.02138
     Eigenvalues ---    0.02145   0.02176   0.02188   0.04777   0.05215
     Eigenvalues ---    0.05392   0.05398   0.05409   0.05409   0.05426
     Eigenvalues ---    0.05451   0.05451   0.09987   0.10543   0.14936
     Eigenvalues ---    0.15126   0.15999   0.16000   0.16000   0.16000
     Eigenvalues ---    0.16000   0.16000   0.16000   0.16000   0.16000
     Eigenvalues ---    0.16000   0.16000   0.16000   0.16000   0.16000
     Eigenvalues ---    0.16000   0.16000   0.21997   0.22979   0.23990
     Eigenvalues ---    0.24929   0.24999   0.25000   0.25000   0.25000
     Eigenvalues ---    0.25000   0.28763   0.29023   0.29023   0.29105
     Eigenvalues ---    0.34101   0.34101   0.34116   0.34117   0.34149
     Eigenvalues ---    0.34150   0.34152   0.34162   0.34162   0.34232
     Eigenvalues ---    0.34244   0.34322   0.35132   0.35286   0.35355
     Eigenvalues ---    0.35438   0.41892   0.42163   0.42395   0.45612
     Eigenvalues ---    0.45870   0.46177   0.46391   0.46430   0.46870
     Eigenvalues ---    0.51352   0.933061000.000001000.000001000.00000
     Eigenvalues --- 1000.000001000.000001000.000001000.000001000.00000
     Eigenvalues --- 1000.000001000.000001000.000001000.000001000.00000
     Eigenvalues --- 1000.000001000.000001000.000001000.000001000.00000
     Eigenvalues --- 1000.000001000.000001000.000001000.000001000.00000
     Eigenvalues --- 1000.000001000.000001000.000001000.000001000.00000
     Eigenvalues --- 1000.000001000.000001000.000001000.000001000.00000
     Eigenvalues --- 1000.000001000.000001000.000001000.000001000.00000
     Eigenvalues --- 1000.000001000.000001000.000001000.000001000.00000
     Eigenvalues --- 1000.000001000.000001000.000001000.000001000.00000
     Eigenvalues --- 1000.000001000.000001000.000001000.000001000.00000
     Eigenvalues --- 1000.000001000.000001000.000001000.000001000.00000
     Eigenvalues --- 1000.000001000.000001000.000001000.000001000.00000
 RFO step:  Lambda=-5.49691554D-03 EMin= 2.73134277D-03
 Linear search not attempted -- first point.
 Iteration  1 RMS(Cart)=  0.03808659 RMS(Int)=  0.00046767
 Iteration  2 RMS(Cart)=  0.00121284 RMS(Int)=  0.00006275
 Iteration  3 RMS(Cart)=  0.00000034 RMS(Int)=  0.00006275
 Variable       Old X    -DE/DX   Delta X   Delta X   Delta X     New X
[...]
 Alpha virt. eigenvalues --    0.93395   0.94812   0.96529   0.97398   0.98139
 Alpha virt. eigenvalues --    0.98732   0.99307   1.01225   1.02147   1.04690
 Alpha virt. eigenvalues --    1.05519   1.07929   1.12159   1.12839   1.14625
 Alpha virt. eigenvalues --    1.17260   1.19934   1.21263   1.22842   1.25752
 Alpha virt. eigenvalues --    1.29420   1.32043   1.34070   1.35466   1.37398
 Alpha virt. eigenvalues --    1.40070   1.43430   1.45197   1.45496   1.47415
 Alpha virt. eigenvalues --    1.50024   1.51226   1.51614   1.52393   1.52780
 Alpha virt. eigenvalues --    1.61788   1.65025   1.66336   1.69986   1.71588
 Alpha virt. eigenvalues --    1.72314   1.75587   1.77727   1.80039   1.82044
 Alpha virt. eigenvalues --    1.83166   1.84849   1.85907   1.86979   1.88887
 Alpha virt. eigenvalues --    1.89206   1.90642   1.92330   1.94831   1.97134
 Alpha virt. eigenvalues --    1.98604   2.00681   2.01106   2.02485   2.03380
 Alpha virt. eigenvalues --    2.05711   2.07089   2.08844   2.09130   2.09833
 Alpha virt. eigenvalues --    2.10694   2.13565   2.14352   2.15888   2.20434
 Alpha virt. eigenvalues --    2.22617   2.24815   2.25200   2.26018   2.26682
 Alpha virt. eigenvalues --    2.26922   2.28951   2.30831   2.34307   2.35188
 Alpha virt. eigenvalues --    2.35858   2.39906   2.43761   2.48083   2.51392
 Alpha virt. eigenvalues --    2.53884   2.54749   2.58015   2.61228   2.63815
 Alpha virt. eigenvalues --    2.66177   2.67847   2.69888   2.71246   2.71925
 Alpha virt. eigenvalues --    2.76024   2.80628   2.83354   2.85434   2.94622
 Alpha virt. eigenvalues --    2.98458   2.99040   3.10434   3.14714   3.28150
 Alpha virt. eigenvalues --    3.44080   4.05042   4.06637   4.10929   4.13224
 Alpha virt. eigenvalues --    4.14667   4.21830   4.29300   4.29861   4.32494
 Alpha virt. eigenvalues --    4.33331   4.40770   4.49597   4.54367   4.72149
 Alpha virt. eigenvalues --    4.83821
          Condensed to atoms (all electrons):
              1          2          3          4          5          6
     1  C    4.893829   0.249579  -0.043305  -0.006536   0.000331  -0.000007
     2  O    0.249579   8.199428   0.281015  -0.061293   0.003937   0.000143
     3  C   -0.043305   0.281015   4.506734   0.469499  -0.002780  -0.037779
     4  C   -0.006536  -0.061293   0.469499   5.121821   0.465123  -0.009761
     5  C    0.000331   0.003937  -0.002780   0.465123   4.979272   0.523813
     6  C   -0.000007   0.000143  -0.037779  -0.009761   0.523813   4.539977
     7  O   -0.000000   0.000000   0.000112   0.003872  -0.046187   0.192268
     8  C    0.000000   0.000000   0.000028   0.000243  -0.003066  -0.007560
     9  O   -0.000000   0.000000   0.000009  -0.000087   0.003343   0.000108
    10  C   -0.000000   0.000000   0.000000   0.000004   0.000347   0.004160
    11  C    0.000000  -0.000000  -0.000000  -0.000000  -0.000000  -0.000067
    12  C   -0.000000  -0.000000   0.000000  -0.000000  -0.000061   0.000061
    13  C    0.000000  -0.000000   0.000000  -0.000000  -0.000004  -0.000378
    14  C   -0.000121   0.003149  -0.018033  -0.039826  -0.066111   0.537442
    15  C    0.004167  -0.054262   0.539698  -0.064706  -0.034864  -0.020119
    16  H    0.362893  -0.035529  -0.004403   0.004817  -0.000177  -0.000002
    17  H    0.386350  -0.033559   0.003228   0.000223   0.000002  -0.000000
    18  H    0.362406  -0.035687  -0.004405   0.004638  -0.000149  -0.000007
    19  H    0.006142  -0.007791  -0.045024   0.353030  -0.035530   0.003100
    20  H   -0.000007  -0.000042   0.003046  -0.038177   0.350648  -0.032277
    21  H    0.000000  -0.000000   0.000000   0.000000  -0.000002  -0.000005
    22  H   -0.000000  -0.000000  -0.000000   0.000000   0.000000   0.000001
    23  H   -0.000000  -0.000000  -0.000000   0.000000  -0.000000  -0.000006
    24  H   -0.000000  -0.000000  -0.000000   0.000000   0.000000  -0.000002
    25  H    0.000000  -0.000000   0.000000  -0.000001   0.000021   0.000070
    26  H    0.000000  -0.000000   0.000000   0.000000  -0.000003  -0.000024
    27  H    0.000000  -0.000000   0.000000  -0.000000   0.000015  -0.000017
    28  H   -0.000000  -0.000000  -0.000000  -0.000000  -0.000001   0.000001
    29  H   -0.000000  -0.000000   0.000000  -0.000000   0.000000   0.000008
    30  H    0.000003  -0.000050   0.004347  -0.000019   0.007054  -0.038756
    31  H   -0.000218   0.000009  -0.035492   0.007665  -0.000100   0.004132
              7          8          9         10         11         12
     1  C   -0.000000   0.000000  -0.000000  -0.000000   0.000000  -0.000000
     2  O    0.000000   0.000000   0.000000   0.000000  -0.000000  -0.000000
     3  C    0.000112   0.000028   0.000009   0.000000  -0.000000   0.000000
     4  C    0.003872   0.000243  -0.000087   0.000004  -0.000000  -0.000000
     5  C   -0.046187  -0.003066   0.003343   0.000347  -0.000000  -0.000061
     6  C    0.192268  -0.007560   0.000108   0.004160  -0.000067   0.000061
     7  O    8.372544   0.225798  -0.077394  -0.098809   0.003469   0.000555
     8  C    0.225798   4.380343   0.562428   0.350985  -0.047175  -0.042767
     9  O   -0.077394   0.562428   8.038784  -0.076643   0.002609   0.000085
    10  C   -0.098809   0.350985  -0.076643   4.999588   0.369031   0.361462
    11  C    0.003469  -0.047175   0.002609   0.369031   5.124809  -0.057436
    12  C    0.000555  -0.042767   0.000085   0.361462  -0.057436   5.146353
    13  C    0.000389  -0.040755   0.000121   0.361352  -0.057205  -0.053720
    14  C   -0.048353  -0.000354  -0.000075  -0.000441   0.000004  -0.000008
    15  C    0.003620  -0.000028  -0.000002   0.000004  -0.000000  -0.000000
    16  H    0.000000   0.000000   0.000000  -0.000000  -0.000000  -0.000000
    17  H   -0.000000  -0.000000  -0.000000  -0.000000   0.000000  -0.000000
    18  H    0.000000   0.000000  -0.000000   0.000000   0.000000   0.000000
    19  H   -0.000048  -0.000013  -0.000006  -0.000000   0.000000  -0.000000
    20  H   -0.006561   0.002561   0.005359  -0.000145   0.000008  -0.000012
    21  H    0.000038  -0.005017   0.003436  -0.026735   0.369773  -0.004059
    22  H   -0.000037   0.005387   0.000509  -0.030279   0.361471  -0.004761
    23  H    0.000044  -0.005183   0.003577  -0.026313   0.370016   0.005339
    24  H    0.000119   0.004136  -0.000067  -0.030269  -0.004391   0.367870
    25  H    0.006649  -0.006912   0.000027  -0.027260   0.005226   0.368315
    26  H   -0.000096  -0.001980   0.000537  -0.032120  -0.003894   0.368778
    27  H    0.006732  -0.006814   0.000021  -0.027662   0.005285  -0.004227
    28  H   -0.000097  -0.002495   0.000555  -0.031286  -0.003872   0.005411
    29  H    0.000111   0.004020  -0.000069  -0.030508  -0.004385  -0.006052
    30  H   -0.001236  -0.000063   0.000015  -0.000057   0.000001  -0.000004
    31  H   -0.000049  -0.000001  -0.000000  -0.000000   0.000000   0.000000
             13         14         15         16         17         18
     1  C    0.000000  -0.000121   0.004167   0.362893   0.386350   0.362406
     2  O   -0.000000   0.003149  -0.054262  -0.035529  -0.033559  -0.035687
     3  C    0.000000  -0.018033   0.539698  -0.004403   0.003228  -0.004405
     4  C   -0.000000  -0.039826  -0.064706   0.004817   0.000223   0.004638
     5  C   -0.000004  -0.066111  -0.034864  -0.000177   0.000002  -0.000149
     6  C   -0.000378   0.537442  -0.020119  -0.000002  -0.000000  -0.000007
     7  O    0.000389  -0.048353   0.003620   0.000000  -0.000000   0.000000
     8  C   -0.040755  -0.000354  -0.000028   0.000000  -0.000000   0.000000
     9  O    0.000121  -0.000075  -0.000002   0.000000  -0.000000  -0.000000
    10  C    0.361352  -0.000441   0.000004  -0.000000  -0.000000   0.000000
    11  C   -0.057205   0.000004  -0.000000  -0.000000   0.000000   0.000000
    12  C   -0.053720  -0.000008  -0.000000  -0.000000  -0.000000   0.000000
    13  C    5.143940   0.000040   0.000001   0.000000   0.000000  -0.000000
    14  C    0.000040   4.971464   0.513330  -0.000003   0.000004   0.000001
    15  C    0.000001   0.513330   4.985820   0.000043  -0.000111   0.000039
    16  H    0.000000  -0.000003   0.000043   0.598076  -0.031474  -0.049836
    17  H    0.000000   0.000004  -0.000111  -0.031474   0.537347  -0.032044
    18  H   -0.000000   0.000001   0.000039  -0.049836  -0.032044   0.601780
    19  H    0.000000   0.000686   0.004519   0.001859  -0.000114   0.001841
    20  H    0.000004   0.005760   0.000409   0.000003  -0.000000   0.000001
    21  H    0.005345   0.000000  -0.000000   0.000000   0.000000  -0.000000
    22  H   -0.004716  -0.000000   0.000000  -0.000000  -0.000000   0.000000
    23  H   -0.004043  -0.000000  -0.000000   0.000000  -0.000000  -0.000000
    24  H   -0.005990  -0.000000   0.000000  -0.000000  -0.000000   0.000000
    25  H   -0.004115  -0.000008  -0.000000  -0.000000   0.000000   0.000000
    26  H    0.005431   0.000002  -0.000000   0.000000   0.000000  -0.000000
    27  H    0.367567   0.000002   0.000001  -0.000000   0.000000   0.000000
    28  H    0.369139  -0.000001  -0.000000  -0.000000  -0.000000   0.000000
    29  H    0.368640  -0.000002   0.000000   0.000000   0.000000  -0.000000
    30  H    0.000046   0.348707  -0.040253  -0.000000  -0.000000  -0.000000
    31  H   -0.000000  -0.039992   0.345324   0.000029  -0.000031   0.000030
             19         20         21         22         23         24
     1  C    0.006142  -0.000007   0.000000  -0.000000  -0.000000  -0.000000
     2  O   -0.007791  -0.000042  -0.000000  -0.000000  -0.000000  -0.000000
     3  C   -0.045024   0.003046   0.000000  -0.000000  -0.000000  -0.000000
     4  C    0.353030  -0.038177   0.000000   0.000000   0.000000   0.000000
     5  C   -0.035530   0.350648  -0.000002   0.000000  -0.000000   0.000000
     6  C    0.003100  -0.032277  -0.000005   0.000001  -0.000006  -0.000002
     7  O   -0.000048  -0.006561   0.000038  -0.000037   0.000044   0.000119
     8  C   -0.000013   0.002561  -0.005017   0.005387  -0.005183   0.004136
     9  O   -0.000006   0.005359   0.003436   0.000509   0.003577  -0.000067
    10  C   -0.000000  -0.000145  -0.026735  -0.030279  -0.026313  -0.030269
    11  C    0.000000   0.000008   0.369773   0.361471   0.370016  -0.004391
    12  C   -0.000000  -0.000012  -0.004059  -0.004761   0.005339   0.367870
    13  C    0.000000   0.000004   0.005345  -0.004716  -0.004043  -0.005990
    14  C    0.000686   0.005760   0.000000  -0.000000  -0.000000  -0.000000
    15  C    0.004519   0.000409  -0.000000   0.000000  -0.000000   0.000000
    16  H    0.001859   0.000003   0.000000  -0.000000   0.000000  -0.000000
    17  H   -0.000114  -0.000000   0.000000  -0.000000  -0.000000  -0.000000
    18  H    0.001841   0.000001  -0.000000   0.000000  -0.000000   0.000000
    19  H    0.586254  -0.005506   0.000000  -0.000000   0.000000  -0.000000
    20  H   -0.005506   0.561850   0.000003  -0.000000  -0.000001   0.000000
    21  H    0.000000   0.000003   0.556486  -0.029691  -0.027274  -0.000286
    22  H   -0.000000  -0.000000  -0.029691   0.589050  -0.029552   0.003344
    23  H    0.000000  -0.000001  -0.027274  -0.029552   0.553188  -0.000024
    24  H   -0.000000   0.000000  -0.000286   0.003344  -0.000024   0.571271
    25  H    0.000000   0.000007  -0.000041  -0.000053  -0.000180  -0.027397
    26  H   -0.000000   0.000036   0.004098  -0.000109  -0.000052  -0.029873
    27  H    0.000000   0.000000  -0.000182  -0.000052  -0.000042  -0.000123
    28  H    0.000000  -0.000000  -0.000054  -0.000108   0.004044  -0.000022
    29  H    0.000000  -0.000000  -0.000019   0.003287  -0.000287   0.004203
    30  H    0.000014  -0.000167  -0.000000  -0.000000  -0.000000  -0.000000
    31  H   -0.000170   0.000012   0.000000  -0.000000   0.000000   0.000000
             25         26         27         28         29         30
     1  C    0.000000   0.000000   0.000000  -0.000000  -0.000000   0.000003
     2  O   -0.000000  -0.000000  -0.000000  -0.000000  -0.000000  -0.000050
     3  C    0.000000   0.000000   0.000000  -0.000000   0.000000   0.004347
     4  C   -0.000001   0.000000  -0.000000  -0.000000  -0.000000  -0.000019
     5  C    0.000021  -0.000003   0.000015  -0.000001   0.000000   0.007054
     6  C    0.000070  -0.000024  -0.000017   0.000001   0.000008  -0.038756
     7  O    0.006649  -0.000096   0.006732  -0.000097   0.000111  -0.001236
     8  C   -0.006912  -0.001980  -0.006814  -0.002495   0.004020  -0.000063
     9  O    0.000027   0.000537   0.000021   0.000555  -0.000069   0.000015
    10  C   -0.027260  -0.032120  -0.027662  -0.031286  -0.030508  -0.000057
    11  C    0.005226  -0.003894   0.005285  -0.003872  -0.004385   0.000001
    12  C    0.368315   0.368778  -0.004227   0.005411  -0.006052  -0.000004
    13  C   -0.004115   0.005431   0.367567   0.369139   0.368640   0.000046
    14  C   -0.000008   0.000002   0.000002  -0.000001  -0.000002   0.348707
    15  C   -0.000000  -0.000000   0.000001  -0.000000   0.000000  -0.040253
    16  H   -0.000000   0.000000  -0.000000  -0.000000   0.000000  -0.000000
    17  H    0.000000   0.000000   0.000000  -0.000000   0.000000  -0.000000
    18  H    0.000000  -0.000000   0.000000   0.000000  -0.000000  -0.000000
    19  H    0.000000  -0.000000   0.000000   0.000000   0.000000   0.000014
    20  H    0.000007   0.000036   0.000000  -0.000000  -0.000000  -0.000167
    21  H   -0.000041   0.004098  -0.000182  -0.000054  -0.000019  -0.000000
    22  H   -0.000053  -0.000109  -0.000052  -0.000108   0.003287  -0.000000
    23  H   -0.000180  -0.000052  -0.000042   0.004044  -0.000287  -0.000000
    24  H   -0.027397  -0.029873  -0.000123  -0.000022   0.004203  -0.000000
    25  H    0.544932  -0.028376   0.003741  -0.000049  -0.000128   0.000013
    26  H   -0.028376   0.568775  -0.000049  -0.000183  -0.000024   0.000000
    27  H    0.003741  -0.000049   0.549581  -0.028444  -0.027602   0.000448
    28  H   -0.000049  -0.000183  -0.028444   0.565222  -0.029699   0.000004
    29  H   -0.000128  -0.000024  -0.027602  -0.029699   0.570788  -0.000000
    30  H    0.000013   0.000000   0.000448   0.000004  -0.000000   0.585914
    31  H    0.000000  -0.000000  -0.000000   0.000000  -0.000000  -0.006567
             31
     1  C   -0.000218
     2  O    0.000009
     3  C   -0.035492
     4  C    0.007665
     5  C   -0.000100
     6  C    0.004132
     7  O   -0.000049
     8  C   -0.000001
     9  O   -0.000000
    10  C   -0.000000
    11  C    0.000000
    12  C    0.000000
    13  C   -0.000000
    14  C   -0.039992
    15  C    0.345324
    16  H    0.000029
    17  H   -0.000031
    18  H    0.000030
    19  H   -0.000170
    20  H    0.000012
    21  H    0.000000
    22  H   -0.000000
    23  H    0.000000
    24  H    0.000000
    25  H    0.000000
    26  H   -0.000000
    27  H   -0.000000
    28  H    0.000000
    29  H   -0.000000
    30  H   -0.006567
    31  H    0.582978
 Mulliken atomic charges:
              1
     1  C   -0.215506
     2  O   -0.509047
     3  C    0.383504
     4  C   -0.210529
     5  C   -0.144870
     6  C    0.341481
     7  O   -0.537451
     8  C    0.634253
     9  O   -0.467179
    10  C   -0.008407
    11  C   -0.433278
    12  C   -0.451122
    13  C   -0.451087
    14  C   -0.167263
    15  C   -0.182628
    16  H    0.153703
    17  H    0.170178
    18  H    0.151392
    19  H    0.136758
    20  H    0.153189
    21  H    0.154184
    22  H    0.136310
    23  H    0.156750
    24  H    0.147500
    25  H    0.165518
    26  H    0.149125
    27  H    0.161821
    28  H    0.151934
    29  H    0.147719
    30  H    0.140607
    31  H    0.142440
 Sum of Mulliken atomic charges =  -0.00000
 Mulliken charges with hydrogens summed into heavy atoms:
              1
     1  C    0.259768
     2  O   -0.509047
     3  C    0.383504
     4  C   -0.073771
     5  C    0.008319
     6  C    0.341481
     7  O   -0.537451
     8  C    0.634253
     9  O   -0.467179
    10  C   -0.008407
    11  C    0.013967
    12  C    0.011021
    13  C    0.010386
    14  C   -0.026656
    15  C   -0.040187
 Sum of Mulliken charges with hydrogens summed into heavy atoms =  -0.00000
 Electronic spatial extent (au):  <R**2>=           4728.6327
 Charge=              0.0000 electrons
 Dipole moment (field-independent basis, Debye):
    X=              0.3936    Y=              0.1035    Z=              1.1692  Tot=              1.2380
 Quadrupole moment (field-independent basis, Debye-Ang):
   XX=            -73.5579   YY=            -86.5391   ZZ=            -91.7756
   XY=             -8.6054   XZ=             -0.7485   YZ=             -4.1986
 Traceless Quadrupole moment (field-independent basis, Debye-Ang):
   XX=             10.3996   YY=             -2.5816   ZZ=             -7.8181
   XY=             -8.6054   XZ=             -0.7485   YZ=             -4.1986
 Octapole moment (field-independent basis, Debye-Ang**2):
  XXX=             42.7724  YYY=              3.9610  ZZZ=             -3.6328  XYY=             15.8796
  XXY=            -30.8946  XXZ=              5.4386  XZZ=             -1.1513  YZZ=              0.0001
  YYZ=              2.8783  XYZ=              2.0114
 Hexadecapole moment (field-independent basis, Debye-Ang**3):
 XXXX=          -4793.7120 YYYY=           -610.9815 ZZZZ=           -319.6218 XXXY=           -184.9627
 XXXZ=              3.5073 YYYX=              8.9435 YYYZ=             -9.7152 ZZZX=              6.4230
 ZZZY=              3.8197 XXYY=           -967.5934 XXZZ=           -949.3826 YYZZ=           -163.9167
 XXYZ=             -8.6621 YYXZ=            -10.9932 ZZXY=             -4.2994
 N-N= 9.832507169047D+02 E-N=-3.578672155027D+03  KE= 6.861333299044D+02
 No NMR shielding tensors so no spin-rotation constants.
 Leave Link  601 at Fri Sep  3 01:44:45 2021, MaxMem=  268435456 cpu:       0.5
 (Enter /sw/target/amd/app/gaussian/Gaussian09RevA.02_gcc-4.9.2/g09/l9999.exe)
 1\1\GINC-HERMITE\FOpt\RB3LYP\6-31G(d)\C12H16O3\JSCHLEINITZ\03-Sep-2021
 \0\\#p b3lyp 6-31G* opt scf(xqc,tight)\\opt calculation\\0,1\C,5.61016
 42622,-0.3440453834,0.8008035904\O,4.7669387144,-1.014480836,-0.121337
 5578\C,3.4391726415,-0.6927196957,-0.133447275\C,2.8436402722,0.267174
 649,0.6928711359\C,1.4722502672,0.5211121999,0.5992400192\C,0.70121829
 81,-0.189260237,-0.3142768668\O,-0.659823581,0.0608332837,-0.519154367
 6\C,-1.5304741707,0.1239759238,0.5382442799\O,-1.1947995365,-0.0038509
 63,1.6912731791\C,-2.9591265172,0.3773308177,0.0432871078\C,-3.8917695
 764,0.4583552514,1.26193834\C,-2.9929763509,1.7064562647,-0.743986432\
 C,-3.3881456085,-0.786371318,-0.8786711081\C,1.2880895593,-1.145859994
 3,-1.1441473558\C,2.651297061,-1.3960903004,-1.0562999655\H,5.29933043
 29,-0.5253597246,1.8383837658\H,6.6094317662,-0.7555742904,0.646974520
 8\H,5.6324554538,0.7384772575,0.6162044554\H,3.4303008277,0.8250516236
 ,1.413309459\H,1.0139760289,1.2602230008,1.2443205912\H,-3.5972026715,
 1.2705170151,1.9335028549\H,-4.9205274516,0.6385477234,0.9300958535\H,
 -3.8713927726,-0.4706465102,1.839474788\H,-4.0147170066,1.903944656,-1
 .088257352\H,-2.3357216042,1.6703122651,-1.6170609112\H,-2.6827678819,
 2.5484827146,-0.1142695223\H,-2.7398605452,-0.8597523614,-1.7562529804
 \H,-3.3591119556,-1.7447920396,-0.3474308462\H,-4.4163837787,-0.624176
 9477,-1.2222290222\H,0.6683599522,-1.6831797822,-1.8551837787\H,3.1281
 774713,-2.1346362625,-1.6926205993\\Version=AM64L-G09RevA.02\State=1-A
 \HF=-692.588971\RMSD=3.470e-09\RMSF=1.908e-06\Dipole=0.20416,0.3471261
 ,-0.2739806\Quadrupole=8.2645523,-2.5571489,-5.7074034,1.4696513,6.176
 695,2.3650197\PG=C01 [X(C12H16O3)]\\@


 THE ATTENTION SPAN OF A COMPUTER IS AS LONG
 AS ITS EXTENSION CORD.
 Job cpu time:  0 days  1 hours 36 minutes 14.2 seconds.
 File lengths (MBytes):  RWF=     49 Int=      0 D2E=      0 Chk=      5 Scr=      1
 Normal termination of Gaussian 09 at Fri Sep  3 01:44:45 2021.
