 Entering Gaussian System, Link 0=g09
 Input=mol_inp031.com
 Output=mol_inp031.log
 Initial command:
 /sw/target/amd/app/gaussian/Gaussian09RevA.02_gcc-4.9.2/g09/l1.exe /home/jschleinitz/optim_react/031/Gau-2804402.inp -scrdir=/home/jschleinitz/optim_react/031/
 Entering Link 1 = /sw/target/amd/app/gaussian/Gaussian09RevA.02_gcc-4.9.2/g09/l1.exe PID=   2804404.
  
 Copyright (c) 1988,1990,1992,1993,1995,1998,2003,2009, Gaussian, Inc.
                  All Rights Reserved.
  
 This is part of the Gaussian(R) 09 program.  It is based on
 the Gaussian(R) 03 system (copyright 2003, Gaussian, Inc.),
 the Gaussian(R) 98 system (copyright 1998, Gaussian, Inc.),
 the Gaussian(R) 94 system (copyright 1995, Gaussian, Inc.),
 the Gaussian 92(TM) system (copyright 1992, Gaussian, Inc.),
 the Gaussian 90(TM) system (copyright 1990, Gaussian, Inc.),
 the Gaussian 88(TM) system (copyright 1988, Gaussian, Inc.),
 the Gaussian 86(TM) system (copyright 1986, Carnegie Mellon
 University), and the Gaussian 82(TM) system (copyright 1983,
 Carnegie Mellon University). Gaussian is a federally registered
 trademark of Gaussian, Inc.
  
 This software contains proprietary and confidential information,
 including trade secrets, belonging to Gaussian, Inc.
  
 This software is provided under written license and may be
 used, copied, transmitted, or stored only in accord with that
 written license.
  
 The following legend is applicable only to US Government
 contracts under FAR:
  
                    RESTRICTED RIGHTS LEGEND
  
 Use, reproduction and disclosure by the US Government is
 subject to restrictions as set forth in subparagraphs (a)
 and (c) of the Commercial Computer Software - Restricted
 Rights clause in FAR 52.227-19.
  
 Gaussian, Inc.
 340 Quinnipiac St., Bldg. 40, Wallingford CT 06492
  
  
 ---------------------------------------------------------------
 Warning -- This program may not be used in any manner that
 competes with the business of Gaussian, Inc. or will provide
 assistance to any competitor of Gaussian, Inc.  The licensee
 of this program is prohibited from giving any competitor of
 Gaussian, Inc. access to this program.  By using this program,
 the user acknowledges that Gaussian, Inc. is engaged in the
 business of creating and licensing software in the field of
 computational chemistry and represents and warrants to the
 licensee that it is not a competitor of Gaussian, Inc. and that
 it will not use this program in any manner prohibited above.
 ---------------------------------------------------------------
  

 Cite this work as:
 Gaussian 09, Revision A.02,
 M. J. Frisch, G. W. Trucks, H. B. Schlegel, G. E. Scuseria, 
 M. A. Robb, J. R. Cheeseman, G. Scalmani, V. Barone, B. Mennucci, 
 G. A. Petersson, H. Nakatsuji, M. Caricato, X. Li, H. P. Hratchian, 
 A. F. Izmaylov, J. Bloino, G. Zheng, J. L. Sonnenberg, M. Hada, 
 M. Ehara, K. Toyota, R. Fukuda, J. Hasegawa, M. Ishida, T. Nakajima, 
 Y. Honda, O. Kitao, H. Nakai, T. Vreven, J. A. Montgomery, Jr., 
 J. E. Peralta, F. Ogliaro, M. Bearpark, J. J. Heyd, E. Brothers, 
 K. N. Kudin, V. N. Staroverov, R. Kobayashi, J. Normand, 
 K. Raghavachari, A. Rendell, J. C. Burant, S. S. Iyengar, J. Tomasi, 
 M. Cossi, N. Rega, J. M. Millam, M. Klene, J. E. Knox, J. B. Cross, 
 V. Bakken, C. Adamo, J. Jaramillo, R. Gomperts, R. E. Stratmann, 
 O. Yazyev, A. J. Austin, R. Cammi, C. Pomelli, J. W. Ochterski, 
 R. L. Martin, K. Morokuma, V. G. Zakrzewski, G. A. Voth, 
 P. Salvador, J. J. Dannenberg, S. Dapprich, A. D. Daniels, 
 O. Farkas, J. B. Foresman, J. V. Ortiz, J. Cioslowski, 
 and D. J. Fox, Gaussian, Inc., Wallingford CT, 2009.
 
 ******************************************
 Gaussian 09:  AM64L-G09RevA.02 11-Jun-2009
                 3-Sep-2021 
 ******************************************
 %chk=opt.chk
 %mem=2gb
 %nproc=1
 Will use up to    1 processors via shared memory.
 ----------------------------------
 #p b3lyp 6-31G* opt scf(xqc,tight)
 ----------------------------------
 1/14=-1,18=20,19=15,26=3,38=1/1,3;
 2/9=110,12=2,17=6,18=5,40=1/2;
 3/5=1,6=6,7=1,11=2,16=1,25=1,30=1,71=1,74=-5/1,2,3;
 4//1;
 5/5=2,8=3,13=1,32=2,38=5/2,8;
 6/7=2,8=2,9=2,10=2,28=1/1;
 7//1,2,3,16;
 1/14=-1,18=20,19=15/3(2);
 2/9=110/2;
 99//99;
 2/9=110/2;
 3/5=1,6=6,7=1,11=2,16=1,25=1,30=1,71=1,74=-5/1,2,3;
 4/5=5,16=3/1;
 5/5=2,8=3,13=1,32=2,38=5/2,8;
 7//1,2,3,16;
 1/14=-1,18=20,19=15/3(-5);
 2/9=110/2;
 6/7=2,8=2,9=2,10=2,19=2,28=1/1;
 99/9=1/99;
 Leave Link    1 at Fri Sep  3 00:06:52 2021, MaxMem=  268435456 cpu:       0.0
 (Enter /sw/target/amd/app/gaussian/Gaussian09RevA.02_gcc-4.9.2/g09/l101.exe)
 ---------------
 opt calculation
 ---------------
 Symbolic Z-matrix:
 Charge =  0 Multiplicity = 1
 C                     4.54174  -0.81475   0.28058 
 O                     3.37366  -1.57178  -0.01035 
 C                     2.18117  -0.90238   0.01907 
 C                     2.00571   0.44655   0.30644 
 C                     0.72075   1.00191   0.30058 
 C                    -0.42285   0.22808   0.00833 
 C                    -1.73723   0.76441  -0.00484 
 O                    -1.84585   2.10406   0.28726 
 C                    -3.147     2.67578   0.28345 
 C                    -2.82602  -0.06231  -0.30345 
 C                    -2.62827  -1.41225  -0.58876 
 C                    -1.34282  -1.94814  -0.57844 
 C                    -0.23371  -1.14335  -0.28272 
 C                     1.0627   -1.68678  -0.27299 
 H                     4.68856  -0.01682  -0.45485 
 H                     5.4014   -1.48875   0.21603 
 H                     4.50902  -0.41381   1.29905 
 H                     2.83985   1.09912   0.53956 
 H                     0.613     2.06086   0.52924 
 H                    -3.78368   2.21434   1.0454 
 H                    -3.60401   2.61155  -0.70946 
 H                    -3.0461    3.73627   0.53382 
 H                    -3.84342   0.31285  -0.3227 
 H                    -3.47838  -2.04909  -0.81994 
 H                    -1.21156  -3.00443  -0.8041 
 H                     1.21333  -2.74115  -0.49623 
 
 NAtoms=     26 NQM=     26 NQMF=      0 NMic=      0 NMicF=      0 NTot=     26.
                    Isotopes and Nuclear Properties:
 (Nuclear quadrupole moments (NQMom) in fm**2, nuclear magnetic moments (NMagM)
  in nuclear magnetons)

  Atom         1           2           3           4           5           6           7           8           9          10
 IAtWgt=          12          16          12          12          12          12          12          16          12          12
 AtmWgt=  12.0000000  15.9949146  12.0000000  12.0000000  12.0000000  12.0000000  12.0000000  15.9949146  12.0000000  12.0000000
 NucSpn=           0           0           0           0           0           0           0           0           0           0
 AtZEff=   0.0000000   0.0000000   0.0000000   0.0000000   0.0000000   0.0000000   0.0000000   0.0000000   0.0000000   0.0000000
 NQMom=    0.0000000   0.0000000   0.0000000   0.0000000   0.0000000   0.0000000   0.0000000   0.0000000   0.0000000   0.0000000
 NMagM=    0.0000000   0.0000000   0.0000000   0.0000000   0.0000000   0.0000000   0.0000000   0.0000000   0.0000000   0.0000000

  Atom        11          12          13          14          15          16          17          18          19          20
 IAtWgt=          12          12          12          12           1           1           1           1           1           1
 AtmWgt=  12.0000000  12.0000000  12.0000000  12.0000000   1.0078250   1.0078250   1.0078250   1.0078250   1.0078250   1.0078250
 NucSpn=           0           0           0           0           1           1           1           1           1           1
 AtZEff=   0.0000000   0.0000000   0.0000000   0.0000000   0.0000000   0.0000000   0.0000000   0.0000000   0.0000000   0.0000000
 NQMom=    0.0000000   0.0000000   0.0000000   0.0000000   0.0000000   0.0000000   0.0000000   0.0000000   0.0000000   0.0000000
 NMagM=    0.0000000   0.0000000   0.0000000   0.0000000   2.7928460   2.7928460   2.7928460   2.7928460   2.7928460   2.7928460

  Atom        21          22          23          24          25          26
 IAtWgt=           1           1           1           1           1           1
 AtmWgt=   1.0078250   1.0078250   1.0078250   1.0078250   1.0078250   1.0078250
 NucSpn=           1           1           1           1           1           1
 AtZEff=   0.0000000   0.0000000   0.0000000   0.0000000   0.0000000   0.0000000
 NQMom=    0.0000000   0.0000000   0.0000000   0.0000000   0.0000000   0.0000000
 NMagM=    2.7928460   2.7928460   2.7928460   2.7928460   2.7928460   2.7928460
 Leave Link  101 at Fri Sep  3 00:06:52 2021, MaxMem=  268435456 cpu:       0.2
 (Enter /sw/target/amd/app/gaussian/Gaussian09RevA.02_gcc-4.9.2/g09/l103.exe)

 GradGradGradGradGradGradGradGradGradGradGradGradGradGradGradGradGradGrad
 Berny optimization.
 Initialization pass.
                           ----------------------------
                           !    Initial Parameters    !
                           ! (Angstroms and Degrees)  !
 --------------------------                            --------------------------
 ! Name  Definition              Value          Derivative Info.                !
 --------------------------------------------------------------------------------
 ! R1    R(1,2)                  1.422          estimate D2E/DX2                !
 ! R2    R(1,15)                 1.095          estimate D2E/DX2                !
 ! R3    R(1,16)                 1.0943         estimate D2E/DX2                !
 ! R4    R(1,17)                 1.095          estimate D2E/DX2                !
 ! R5    R(2,3)                  1.3678         estimate D2E/DX2                !
 ! R6    R(3,4)                  1.3903         estimate D2E/DX2                !
 ! R7    R(3,14)                 1.397          estimate D2E/DX2                !
 ! R8    R(4,5)                  1.3999         estimate D2E/DX2                !
 ! R9    R(4,18)                 1.0844         estimate D2E/DX2                !
 ! R10   R(5,6)                  1.4114         estimate D2E/DX2                !
 ! R11   R(5,19)                 1.0887         estimate D2E/DX2                !
 ! R12   R(6,7)                  1.4197         estimate D2E/DX2                !
 ! R13   R(6,13)                 1.4147         estimate D2E/DX2                !
 ! R14   R(7,8)                  1.3754         estimate D2E/DX2                !
 ! R15   R(7,10)                 1.3993         estimate D2E/DX2                !
 ! R16   R(8,9)                  1.4212         estimate D2E/DX2                !
 ! R17   R(9,20)                 1.0949         estimate D2E/DX2                !
 ! R18   R(9,21)                 1.0949         estimate D2E/DX2                !
 ! R19   R(9,22)                 1.0943         estimate D2E/DX2                !
 ! R20   R(10,11)                1.3939         estimate D2E/DX2                !
 ! R21   R(10,23)                1.0845         estimate D2E/DX2                !
 ! R22   R(11,12)                1.3927         estimate D2E/DX2                !
 ! R23   R(11,24)                1.0871         estimate D2E/DX2                !
 ! R24   R(12,13)                1.4019         estimate D2E/DX2                !
 ! R25   R(12,25)                1.0881         estimate D2E/DX2                !
 ! R26   R(13,14)                1.4057         estimate D2E/DX2                !
 ! R27   R(14,26)                1.0882         estimate D2E/DX2                !
 ! A1    A(2,1,15)             111.1404         estimate D2E/DX2                !
 ! A2    A(2,1,16)             107.7782         estimate D2E/DX2                !
 ! A3    A(2,1,17)             111.1403         estimate D2E/DX2                !
 ! A4    A(15,1,16)            107.69           estimate D2E/DX2                !
 ! A5    A(15,1,17)            111.2138         estimate D2E/DX2                !
 ! A6    A(16,1,17)            107.6899         estimate D2E/DX2                !
 ! A7    A(1,2,3)              116.8198         estimate D2E/DX2                !
 ! A8    A(2,3,4)              126.1064         estimate D2E/DX2                !
 ! A9    A(2,3,14)             114.7531         estimate D2E/DX2                !
 ! A10   A(4,3,14)             119.1405         estimate D2E/DX2                !
 ! A11   A(3,4,5)              119.9931         estimate D2E/DX2                !
 ! A12   A(3,4,18)             122.0872         estimate D2E/DX2                !
 ! A13   A(5,4,18)             117.9197         estimate D2E/DX2                !
 ! A14   A(4,5,6)              121.8105         estimate D2E/DX2                !
 ! A15   A(4,5,19)             118.4145         estimate D2E/DX2                !
 ! A16   A(6,5,19)             119.7751         estimate D2E/DX2                !
 ! A17   A(5,6,7)              123.022          estimate D2E/DX2                !
 ! A18   A(5,6,13)             117.7609         estimate D2E/DX2                !
 ! A19   A(7,6,13)             119.2172         estimate D2E/DX2                !
 ! A20   A(6,7,8)              116.0472         estimate D2E/DX2                !
 ! A21   A(6,7,10)             119.9447         estimate D2E/DX2                !
 ! A22   A(8,7,10)             124.0082         estimate D2E/DX2                !
 ! A23   A(7,8,9)              117.616          estimate D2E/DX2                !
 ! A24   A(8,9,20)             111.159          estimate D2E/DX2                !
 ! A25   A(8,9,21)             111.159          estimate D2E/DX2                !
 ! A26   A(8,9,22)             107.7476         estimate D2E/DX2                !
 ! A27   A(20,9,21)            111.3235         estimate D2E/DX2                !
 ! A28   A(20,9,22)            107.6265         estimate D2E/DX2                !
 ! A29   A(21,9,22)            107.6264         estimate D2E/DX2                !
 ! A30   A(7,10,11)            120.3631         estimate D2E/DX2                !
 ! A31   A(7,10,23)            121.9609         estimate D2E/DX2                !
 ! A32   A(11,10,23)           117.6759         estimate D2E/DX2                !
 ! A33   A(10,11,12)           120.1382         estimate D2E/DX2                !
 ! A34   A(10,11,24)           119.998          estimate D2E/DX2                !
 ! A35   A(12,11,24)           119.8638         estimate D2E/DX2                !
 ! A36   A(11,12,13)           120.7228         estimate D2E/DX2                !
 ! A37   A(11,12,25)           118.9044         estimate D2E/DX2                !
 ! A38   A(13,12,25)           120.3729         estimate D2E/DX2                !
 ! A39   A(6,13,12)            119.614          estimate D2E/DX2                !
 ! A40   A(6,13,14)            119.7783         estimate D2E/DX2                !
 ! A41   A(12,13,14)           120.6077         estimate D2E/DX2                !
 ! A42   A(3,14,13)            121.5168         estimate D2E/DX2                !
 ! A43   A(3,14,26)            118.4308         estimate D2E/DX2                !
 ! A44   A(13,14,26)           120.0524         estimate D2E/DX2                !
 ! D1    D(15,1,2,3)           -62.2165         estimate D2E/DX2                !
 ! D2    D(16,1,2,3)          -179.9991         estimate D2E/DX2                !
 ! D3    D(17,1,2,3)            62.2185         estimate D2E/DX2                !
 ! D4    D(1,2,3,4)             -0.0011         estimate D2E/DX2                !
 ! D5    D(1,2,3,14)           179.9989         estimate D2E/DX2                !
 ! D6    D(2,3,4,5)            179.9999         estimate D2E/DX2                !
 ! D7    D(2,3,4,18)            -0.0001         estimate D2E/DX2                !
 ! D8    D(14,3,4,5)            -0.0001         estimate D2E/DX2                !
 ! D9    D(14,3,4,18)          179.9998         estimate D2E/DX2                !
 ! D10   D(2,3,14,13)          180.0            estimate D2E/DX2                !
 ! D11   D(2,3,14,26)            0.0            estimate D2E/DX2                !
 ! D12   D(4,3,14,13)            0.0            estimate D2E/DX2                !
 ! D13   D(4,3,14,26)          180.0            estimate D2E/DX2                !
 ! D14   D(3,4,5,6)              0.0002         estimate D2E/DX2                !
 ! D15   D(3,4,5,19)           180.0            estimate D2E/DX2                !
 ! D16   D(18,4,5,6)          -179.9998         estimate D2E/DX2                !
 ! D17   D(18,4,5,19)            0.0001         estimate D2E/DX2                !
 ! D18   D(4,5,6,7)            179.9999         estimate D2E/DX2                !
 ! D19   D(4,5,6,13)            -0.0001         estimate D2E/DX2                !
 ! D20   D(19,5,6,7)             0.0001         estimate D2E/DX2                !
 ! D21   D(19,5,6,13)         -180.0            estimate D2E/DX2                !
 ! D22   D(5,6,7,8)              0.0            estimate D2E/DX2                !
 ! D23   D(5,6,7,10)          -179.9998         estimate D2E/DX2                !
 ! D24   D(13,6,7,8)          -179.9999         estimate D2E/DX2                !
 ! D25   D(13,6,7,10)            0.0002         estimate D2E/DX2                !
 ! D26   D(5,6,13,12)          179.9999         estimate D2E/DX2                !
 ! D27   D(5,6,13,14)            0.0001         estimate D2E/DX2                !
 ! D28   D(7,6,13,12)           -0.0001         estimate D2E/DX2                !
 ! D29   D(7,6,13,14)         -180.0            estimate D2E/DX2                !
 ! D30   D(6,7,8,9)           -179.9998         estimate D2E/DX2                !
 ! D31   D(10,7,8,9)             0.0            estimate D2E/DX2                !
 ! D32   D(6,7,10,11)           -0.0002         estimate D2E/DX2                !
 ! D33   D(6,7,10,23)          179.9999         estimate D2E/DX2                !
 ! D34   D(8,7,10,11)          179.9999         estimate D2E/DX2                !
 ! D35   D(8,7,10,23)            0.0            estimate D2E/DX2                !
 ! D36   D(7,8,9,20)            62.3025         estimate D2E/DX2                !
 ! D37   D(7,8,9,21)           -62.3025         estimate D2E/DX2                !
 ! D38   D(7,8,9,22)          -179.9999         estimate D2E/DX2                !
 ! D39   D(7,10,11,12)           0.0001         estimate D2E/DX2                !
 ! D40   D(7,10,11,24)         180.0            estimate D2E/DX2                !
 ! D41   D(23,10,11,12)       -179.9999         estimate D2E/DX2                !
 ! D42   D(23,10,11,24)          0.0            estimate D2E/DX2                !
 ! D43   D(10,11,12,13)          0.0            estimate D2E/DX2                !
 ! D44   D(10,11,12,25)       -180.0            estimate D2E/DX2                !
 ! D45   D(24,11,12,13)       -179.9999         estimate D2E/DX2                !
 ! D46   D(24,11,12,25)          0.0001         estimate D2E/DX2                !
 ! D47   D(11,12,13,6)           0.0            estimate D2E/DX2                !
 ! D48   D(11,12,13,14)        179.9999         estimate D2E/DX2                !
 ! D49   D(25,12,13,6)         180.0            estimate D2E/DX2                !
 ! D50   D(25,12,13,14)         -0.0002         estimate D2E/DX2                !
 ! D51   D(6,13,14,3)            0.0            estimate D2E/DX2                !
 ! D52   D(6,13,14,26)        -180.0            estimate D2E/DX2                !
 ! D53   D(12,13,14,3)        -179.9998         estimate D2E/DX2                !
 ! D54   D(12,13,14,26)          0.0002         estimate D2E/DX2                !
 --------------------------------------------------------------------------------
 Trust Radius=3.00D-01 FncErr=1.00D-07 GrdErr=1.00D-06
 Number of steps in this run= 135 maximum allowed number of steps= 156.
 GradGradGradGradGradGradGradGradGradGradGradGradGradGradGradGradGradGrad

 Leave Link  103 at Fri Sep  3 00:06:52 2021, MaxMem=  268435456 cpu:       0.0
 (Enter /sw/target/amd/app/gaussian/Gaussian09RevA.02_gcc-4.9.2/g09/l202.exe)
                          Input orientation:                          
 ---------------------------------------------------------------------
 Center     Atomic      Atomic             Coordinates (Angstroms)
 Number     Number       Type             X           Y           Z
 ---------------------------------------------------------------------
      1          6           0        4.541744   -0.814748    0.280580
      2          8           0        3.373662   -1.571784   -0.010348
      3          6           0        2.181170   -0.902381    0.019074
      4          6           0        2.005709    0.446554    0.306440
      5          6           0        0.720745    1.001913    0.300579
      6          6           0       -0.422853    0.228079    0.008333
      7          6           0       -1.737228    0.764414   -0.004843
      8          8           0       -1.845845    2.104058    0.287262
      9          6           0       -3.146997    2.675783    0.283454
     10          6           0       -2.826020   -0.062311   -0.303446
     11          6           0       -2.628272   -1.412246   -0.588756
     12          6           0       -1.342817   -1.948144   -0.578444
     13          6           0       -0.233709   -1.143348   -0.282723
     14          6           0        1.062699   -1.686782   -0.272993
     15          1           0        4.688561   -0.016818   -0.454848
     16          1           0        5.401402   -1.488747    0.216025
     17          1           0        4.509016   -0.413808    1.299048
     18          1           0        2.839847    1.099122    0.539557
     19          1           0        0.613004    2.060863    0.529241
     20          1           0       -3.783676    2.214343    1.045405
     21          1           0       -3.604006    2.611552   -0.709458
     22          1           0       -3.046104    3.736272    0.533822
     23          1           0       -3.843422    0.312845   -0.322696
     24          1           0       -3.478378   -2.049095   -0.819943
     25          1           0       -1.211562   -3.004433   -0.804096
     26          1           0        1.213328   -2.741152   -0.496227
 ---------------------------------------------------------------------
                    Distance matrix (angstroms):
                    1          2          3          4          5
     1  C    0.000000
     2  O    1.422026   0.000000
     3  C    2.376631   1.367846   0.000000
     4  C    2.832494   2.458727   1.390321   0.000000
     5  C    4.230921   3.709253   2.416283   1.399854   0.000000
     6  C    5.080239   4.201593   2.838836   2.456524   1.411398
     7  C    6.480795   5.619524   4.258241   3.769285   2.488236
     8  O    7.022875   6.390903   5.032638   4.193108   2.793257
     9  C    8.443965   7.787627   6.423591   5.614300   4.214447
    10  C    7.429078   6.387525   5.087405   4.896581   3.751928
    11  C    7.247198   6.031850   4.874439   5.072504   4.223150
    12  C    6.053971   4.765454   3.724128   4.210727   3.705915
    13  C    4.819776   3.642921   2.445565   2.808896   2.419374
    14  C    3.629138   2.328681   1.396984   2.403359   2.770379
    15  H    1.095035   2.084337   2.701080   2.827007   4.165579
    16  H    1.094282   2.042026   3.279102   3.909513   5.302743
    17  H    1.095035   2.084336   2.701093   2.827020   4.165598
    18  H    2.574184   2.778685   2.170431   1.084424   2.134749
    19  H    4.875035   4.594400   3.391199   2.143656   1.088701
    20  H    8.892298   8.165590   6.807842   6.098207   4.723829
    21  H    8.892297   8.165593   6.807844   6.098210   4.723831
    22  H    8.851630   8.347753   7.007600   6.032807   4.660501
    23  H    8.482123   7.465634   6.155428   5.884388   4.657779
    24  H    8.188841   6.916193   5.835185   6.129618   5.310071
    25  H    6.250742   4.868963   4.075152   4.847003   4.583113
    26  H    3.923368   2.504105   2.140872   3.381362   3.858507
                    6          7          8          9         10
     6  C    0.000000
     7  C    1.419652   0.000000
     8  O    2.371077   1.375416   0.000000
     9  C    3.672589   2.392466   1.421225   0.000000
    10  C    2.440644   1.399323   2.450068   2.818623   0.000000
    11  C    2.812660   2.423378   3.707289   4.212102   1.393855
    12  C    2.434458   2.800455   4.174066   5.037721   2.414929
    13  C    1.414673   2.444860   3.670083   4.836689   2.808762
    14  C    2.439816   3.730933   4.810819   6.087951   4.214495
    15  H    5.138197   6.488728   6.909942   8.318122   7.516244
    16  H    6.075572   7.489029   8.089247   9.509100   8.366304
    17  H    5.138219   6.488752   6.909965   8.318145   7.516268
    18  H    3.418498   4.621473   4.798881   6.196269   5.844795
    19  H    2.168742   2.736716   2.471105   3.817872   4.126514
    20  H    4.039294   2.719056   2.083778   1.094923   2.814189
    21  H    4.039295   2.719055   2.083778   1.094923   2.814188
    22  H    4.411916   3.291695   2.040964   1.094304   3.895984
    23  H    3.437595   2.177383   2.751510   2.536908   1.084536
    24  H    3.899717   3.407613   4.597798   4.863309   2.153985
    25  H    3.425089   3.888359   5.262134   6.098650   3.393112
    26  H    3.427536   4.608279   5.783464   6.997394   4.850741
                   11         12         13         14         15
    11  C    0.000000
    12  C    1.392727   0.000000
    13  C    2.428970   1.401880   0.000000
    14  C    3.714612   2.438876   1.405734   0.000000
    15  H    7.449912   6.334257   5.052469   3.996089   0.000000
    16  H    8.070266   6.806373   5.667674   4.370664   1.767707
    17  H    7.449937   6.334281   5.052491   3.996108   1.807205
    18  H    6.122123   5.294378   3.892501   3.402904   2.377374
    19  H    4.880397   4.596122   3.412210   3.858840   4.679247
    20  H    4.142172   5.091265   5.063623   6.359583   8.888624
    21  H    4.142170   5.091264   5.063623   6.359584   8.702863
    22  H    5.286020   6.037459   5.690958   6.851476   8.653797
    23  H    2.126809   3.380903   3.892573   5.298207   8.539372
    24  H    1.087062   2.151542   3.411284   4.588225   8.423915
    25  H    2.142078   1.088069   2.166025   2.681518   6.622633
    26  H    4.066011   2.677592   2.166213   1.088218   4.415988
                   16         17         18         19         20
    16  H    0.000000
    17  H    1.767706   0.000000
    18  H    3.655585   2.377374   0.000000
    19  H    5.968801   4.679264   2.425671   0.000000
    20  H    9.938129   8.702888   6.735774   4.429535   0.000000
    21  H    9.938126   8.888646   6.735779   4.429538   1.808204
    22  H    9.937916   8.653818   6.449730   4.024436   1.766918
    23  H    9.434126   8.539397   6.784379   4.862211   2.343281
    24  H    8.957551   8.423939   7.188844   5.954113   4.663650
    25  H    6.860703   6.622655   5.921020   5.546535   6.105084
    26  H    4.428971   4.416005   4.297222   4.946850   7.204416
                   21         22         23         24         25
    21  H    0.000000
    22  H    1.766917   0.000000
    23  H    2.343279   3.617899   0.000000
    24  H    4.663649   5.957349   2.441162   0.000000
    25  H    6.105082   7.112853   4.261780   2.459955   0.000000
    26  H    7.204416   7.820536   5.909969   4.753508   2.458494
                   26
    26  H    0.000000
 Stoichiometry    C12H12O2
 Framework group  C1[X(C12H12O2)]
 Deg. of freedom    72
 Full point group                 C1      NOp   1
 Largest Abelian subgroup         C1      NOp   1
 Largest concise Abelian subgroup C1      NOp   1
                         Standard orientation:                         
 ---------------------------------------------------------------------
 Center     Atomic      Atomic             Coordinates (Angstroms)
 Number     Number       Type             X           Y           Z
 ---------------------------------------------------------------------
      1          6           0        4.518656   -0.813697    0.000012
      2          8           0        3.650857    0.312839   -0.000008
      3          6           0        2.307186    0.056807   -0.000005
      4          6           0        1.712624   -1.199969   -0.000007
      5          6           0        0.317427   -1.314061   -0.000003
      6          6           0       -0.521815   -0.179286    0.000000
      7          6           0       -1.938874   -0.265050    0.000002
      8          8           0       -2.467079   -1.534998    0.000002
      9          6           0       -3.882826   -1.659664    0.000000
     10          6           0       -2.709340    0.903063   -0.000000
     11          6           0       -2.093318    2.153402    0.000001
     12          6           0       -0.703832    2.248358    0.000001
     13          6           0        0.092866    1.094868   -0.000000
     14          6           0        1.495134    1.193528   -0.000001
     15          1           0        4.382511   -1.417076    0.903615
     16          1           0        5.548053   -0.442487    0.000024
     17          1           0        4.382537   -1.417086   -0.903589
     18          1           0        2.296794   -2.113600   -0.000012
     19          1           0       -0.120862   -2.310642   -0.000004
     20          1           0       -4.318153   -1.221549   -0.904102
     21          1           0       -4.318155   -1.221547    0.904102
     22          1           0       -4.123689   -2.727130    0.000002
     23          1           0       -3.793531    0.875672   -0.000000
     24          1           0       -2.697624    3.057016   -0.000000
     25          1           0       -0.244082    3.234524    0.000003
     26          1           0        1.972653    2.171380   -0.000000
 ---------------------------------------------------------------------
 Rotational constants (GHZ):      1.5295873      0.4150557      0.3278631
 Leave Link  202 at Fri Sep  3 00:06:52 2021, MaxMem=  268435456 cpu:       0.0
 (Enter /sw/target/amd/app/gaussian/Gaussian09RevA.02_gcc-4.9.2/g09/l301.exe)
 Standard basis: 6-31G(d) (6D, 7F)
 Ernie: Thresh=  0.10000D-02 Tol=  0.10000D-05 Strict=F.
 There are   234 symmetry adapted basis functions of A   symmetry.
 Integral buffers will be    131072 words long.
 Raffenetti 2 integral format.
 Two-electron integral symmetry is turned on.
   234 basis functions,   440 primitive gaussians,   234 cartesian basis functions
    50 alpha electrons       50 beta electrons
       nuclear repulsion energy       839.0358601053 Hartrees.
 IExCor=  402 DFT=T Ex+Corr=B3LYP ExCW=0 ScaHFX=  0.200000
 ScaDFX=  0.800000  0.720000  1.000000  0.810000 ScalE2=  1.000000  1.000000
 IRadAn=      0 IRanWt=     -1 IRanGd=            0 ICorTp=0
 NAtoms=   26 NActive=   26 NUniq=   26 SFac= 7.50D-01 NAtFMM=   80 NAOKFM=F Big=F
 Leave Link  301 at Fri Sep  3 00:06:52 2021, MaxMem=  268435456 cpu:       0.1
 (Enter /sw/target/amd/app/gaussian/Gaussian09RevA.02_gcc-4.9.2/g09/l302.exe)
 NPDir=0 NMtPBC=     1 NCelOv=     1 NCel=       1 NClECP=     1 NCelD=      1
         NCelK=      1 NCelE2=     1 NClLst=     1 CellRange=     0.0.
 One-electron integrals computed using PRISM.
 NBasis=   234 RedAO= T  NBF=   234
 NBsUse=   234 1.00D-06 NBFU=   234
 Precomputing XC quadrature grid using
 IXCGrd= 2 IRadAn=           0 IRanWt=          -1 IRanGd=           0 AccXCQ= 1.00D-10.
 NRdTot=    1643 NPtTot=      209346 NUsed=      221198 NTot=      221230
 NSgBfM=   233   233   233   233   233 NAtAll=    26    26.
 Leave Link  302 at Fri Sep  3 00:06:53 2021, MaxMem=  268435456 cpu:       1.2
 (Enter /sw/target/amd/app/gaussian/Gaussian09RevA.02_gcc-4.9.2/g09/l303.exe)
 DipDrv:  MaxL=1.
 Leave Link  303 at Fri Sep  3 00:06:53 2021, MaxMem=  268435456 cpu:       0.1
 (Enter /sw/target/amd/app/gaussian/Gaussian09RevA.02_gcc-4.9.2/g09/l401.exe)
 Harris functional with IExCor=  402 diagonalized for initial guess.
 ExpMin= 1.61D-01 ExpMax= 5.48D+03 ExpMxC= 8.25D+02 IAcc=1 IRadAn=         1 AccDes= 0.00D+00
 HarFok:  IExCor=  402 AccDes= 0.00D+00 IRadAn=         1 IDoV= 1
 ScaDFX=  1.000000  1.000000  1.000000  1.000000
 FoFCou: FMM=F IPFlag=           0 FMFlag=      100000 FMFlg1=           0
         NFxFlg=           0 DoJE=T BraDBF=F KetDBF=T FulRan=T
         Omega=  0.000000  0.000000  1.000000  0.000000  0.000000 ICntrl=     500 IOpCl=  0
         NMat0=    1 NMatS0=    1 NMatT0=    0 NMatD0=    1 NMtDS0=    0 NMtDT0=    0
         I1Cent=           4 NGrid=           0.
 Petite list used in FoFCou.
 Harris En= -614.993665317134    
 Initial guess orbital symmetries:
       Occupied  (A) (A) (A) (A) (A) (A) (A) (A) (A) (A) (A) (A)
                 (A) (A) (A) (A) (A) (A) (A) (A) (A) (A) (A) (A)
                 (A) (A) (A) (A) (A) (A) (A) (A) (A) (A) (A) (A)
                 (A) (A) (A) (A) (A) (A) (A) (A) (A) (A) (A) (A)
                 (A) (A)
       Virtual   (A) (A) (A) (A) (A) (A) (A) (A) (A) (A) (A) (A)
                 (A) (A) (A) (A) (A) (A) (A) (A) (A) (A) (A) (A)
                 (A) (A) (A) (A) (A) (A) (A) (A) (A) (A) (A) (A)
                 (A) (A) (A) (A) (A) (A) (A) (A) (A) (A) (A) (A)
                 (A) (A) (A) (A) (A) (A) (A) (A) (A) (A) (A) (A)
                 (A) (A) (A) (A) (A) (A) (A) (A) (A) (A) (A) (A)
                 (A) (A) (A) (A) (A) (A) (A) (A) (A) (A) (A) (A)
                 (A) (A) (A) (A) (A) (A) (A) (A) (A) (A) (A) (A)
                 (A) (A) (A) (A) (A) (A) (A) (A) (A) (A) (A) (A)
                 (A) (A) (A) (A) (A) (A) (A) (A) (A) (A) (A) (A)
                 (A) (A) (A) (A) (A) (A) (A) (A) (A) (A) (A) (A)
                 (A) (A) (A) (A) (A) (A) (A) (A) (A) (A) (A) (A)
                 (A) (A) (A) (A) (A) (A) (A) (A) (A) (A) (A) (A)
                 (A) (A) (A) (A) (A) (A) (A) (A) (A) (A) (A) (A)
                 (A) (A) (A) (A) (A) (A) (A) (A) (A) (A) (A) (A)
                 (A) (A) (A) (A)
 The electronic state of the initial guess is 1-A.
 Leave Link  401 at Fri Sep  3 00:06:59 2021, MaxMem=  268435456 cpu:       5.6
 (Enter /sw/target/amd/app/gaussian/Gaussian09RevA.02_gcc-4.9.2/g09/l502.exe)
 Closed shell SCF:
 Requested convergence on RMS density matrix=1.00D-08 within  64 cycles.
 Requested convergence on MAX density matrix=1.00D-06.
 Requested convergence on             energy=1.00D-06.
 No special actions if energy rises.
 Using DIIS extrapolation, IDIIS=  1040.
 Integral symmetry usage will be decided dynamically.
       220951 words used for storage of precomputed grid.
 IEnd=      393931 IEndB=      393931 NGot=   268435456 MDV=   268100740
 LenX=   268100740 LenY=   268045543
 Fock matrices will be formed incrementally for  20 cycles.
 Integral accuracy reduced to 1.0D-05 until final iterations.

 Cycle   1  Pass 0  IDiag  1:
 FoFCou: FMM=F IPFlag=           0 FMFlag=      100000 FMFlg1=           0
         NFxFlg=           0 DoJE=F BraDBF=F KetDBF=F FulRan=T
         Omega=  0.000000  0.000000  1.000000  0.000000  0.000000 ICntrl=       0 IOpCl=  0
         NMat0=    1 NMatS0=    1 NMatT0=    0 NMatD0=    1 NMtDS0=    0 NMtDT0=    0
         I1Cent=           0 NGrid=           0.
 Symmetry not used in FoFCou.
 E= -614.628138478383    
 DIIS: error= 3.84D-02 at cycle   1 NSaved=   1.
 NSaved= 1 IEnMin= 1 EnMin= -614.628138478383     IErMin= 1 ErrMin= 3.84D-02
 ErrMax= 3.84D-02 EMaxC= 1.00D-01 BMatC= 2.84D-01 BMatP= 2.84D-01
 IDIUse=3 WtCom= 6.16D-01 WtEn= 3.84D-01
 Coeff-Com:  0.100D+01
 Coeff-En:   0.100D+01
 Coeff:      0.100D+01
 Gap=     0.150 Goal=   None    Shift=    0.000
 GapD=    0.150 DampG=1.000 DampE=0.500 DampFc=0.5000 IDamp=-1.
 Damping current iteration by 5.00D-01
 RMSDP=5.55D-03 MaxDP=1.39D-01              OVMax= 2.80D-01

 Cycle   2  Pass 0  IDiag  1:
 RMSU=  1.91D-03    CP:  9.72D-01
 E= -614.766082963406     Delta-E=       -0.137944485023 Rises=F Damp=T
 DIIS: error= 6.10D-03 at cycle   2 NSaved=   2.
 NSaved= 2 IEnMin= 2 EnMin= -614.766082963406     IErMin= 2 ErrMin= 6.10D-03
 ErrMax= 6.10D-03 EMaxC= 1.00D-01 BMatC= 2.01D-02 BMatP= 2.84D-01
 IDIUse=3 WtCom= 9.39D-01 WtEn= 6.10D-02
 Coeff-Com:  0.343D-01 0.966D+00
 Coeff-En:   0.645D-01 0.936D+00
 Coeff:      0.362D-01 0.964D+00
 Gap=     0.157 Goal=   None    Shift=    0.000
 RMSDP=2.05D-03 MaxDP=5.80D-02 DE=-1.38D-01 OVMax= 2.67D-01

 Cycle   3  Pass 0  IDiag  1:
 RMSU=  1.42D-03    CP:  9.55D-01  9.53D-01
 E= -614.903753476478     Delta-E=       -0.137670513071 Rises=F Damp=F
 DIIS: error= 1.25D-02 at cycle   3 NSaved=   3.
 NSaved= 3 IEnMin= 3 EnMin= -614.903753476478     IErMin= 2 ErrMin= 6.10D-03
 ErrMax= 1.25D-02 EMaxC= 1.00D-01 BMatC= 2.62D-02 BMatP= 2.01D-02
 IDIUse=2 WtCom= 0.00D+00 WtEn= 1.00D+00
 Coeff-En:   0.000D+00 0.000D+00 0.100D+01
 Coeff:      0.000D+00 0.000D+00 0.100D+01
 Gap=     0.148 Goal=   None    Shift=    0.000
 RMSDP=2.57D-03 MaxDP=1.04D-01 DE=-1.38D-01 OVMax= 2.83D-01

 Cycle   4  Pass 0  IDiag  1:
 RMSU=  1.10D-03    CP:  9.58D-01  1.21D+00  3.76D-02
 E= -614.795883107986     Delta-E=        0.107870368492 Rises=F Damp=F
 DIIS: error= 2.74D-02 at cycle   4 NSaved=   4.
 NSaved= 4 IEnMin= 3 EnMin= -614.903753476478     IErMin= 2 ErrMin= 6.10D-03
 ErrMax= 2.74D-02 EMaxC= 1.00D-01 BMatC= 1.21D-01 BMatP= 2.01D-02
 IDIUse=2 WtCom= 0.00D+00 WtEn= 1.00D+00
 Coeff-En:   0.000D+00 0.000D+00 0.771D+00 0.229D+00
 Coeff:      0.000D+00 0.000D+00 0.771D+00 0.229D+00
 Gap=     0.153 Goal=   None    Shift=    0.000
 RMSDP=1.32D-03 MaxDP=5.45D-02 DE= 1.08D-01 OVMax= 1.54D-01

 Cycle   5  Pass 0  IDiag  1:
 RMSU=  1.48D-04    CP:  9.57D-01  1.06D+00  5.04D-01  4.77D-01
 E= -614.923871241732     Delta-E=       -0.127988133746 Rises=F Damp=F
 DIIS: error= 7.15D-03 at cycle   5 NSaved=   5.
 NSaved= 5 IEnMin= 5 EnMin= -614.923871241732     IErMin= 2 ErrMin= 6.10D-03
 ErrMax= 7.15D-03 EMaxC= 1.00D-01 BMatC= 8.35D-03 BMatP= 2.01D-02
 IDIUse=3 WtCom= 9.29D-01 WtEn= 7.15D-02
 Coeff-Com:  0.374D-02 0.675D-02 0.319D+00-0.391D-01 0.710D+00
 Coeff-En:   0.000D+00 0.000D+00 0.290D+00 0.000D+00 0.710D+00
 Coeff:      0.347D-02 0.627D-02 0.317D+00-0.363D-01 0.710D+00
 Gap=     0.156 Goal=   None    Shift=    0.000
 RMSDP=4.73D-04 MaxDP=1.88D-02 DE=-1.28D-01 OVMax= 4.90D-02

 Cycle   6  Pass 0  IDiag  1:
 RMSU=  6.34D-05    CP:  9.56D-01  1.02D+00  6.81D-01  3.03D-01  7.31D-01
 E= -614.933053274137     Delta-E=       -0.009182032406 Rises=F Damp=F
 DIIS: error= 8.60D-04 at cycle   6 NSaved=   6.
 NSaved= 6 IEnMin= 6 EnMin= -614.933053274137     IErMin= 6 ErrMin= 8.60D-04
 ErrMax= 8.60D-04 EMaxC= 1.00D-01 BMatC= 1.03D-04 BMatP= 8.35D-03
 IDIUse=3 WtCom= 9.91D-01 WtEn= 8.60D-03
 Coeff-Com:  0.113D-02-0.977D-03 0.127D+00-0.600D-01 0.462D+00 0.471D+00
 Coeff-En:   0.000D+00 0.000D+00 0.000D+00 0.000D+00 0.000D+00 0.100D+01
 Coeff:      0.112D-02-0.968D-03 0.126D+00-0.595D-01 0.458D+00 0.475D+00
 Gap=     0.156 Goal=   None    Shift=    0.000
 RMSDP=5.46D-05 MaxDP=1.89D-03 DE=-9.18D-03 OVMax= 4.19D-03

 Cycle   7  Pass 0  IDiag  1:
 RMSU=  1.50D-05    CP:  9.56D-01  1.02D+00  6.77D-01  3.04D-01  8.31D-01
                    CP:  4.98D-01
 E= -614.933163401522     Delta-E=       -0.000110127385 Rises=F Damp=F
 DIIS: error= 1.45D-04 at cycle   7 NSaved=   7.
 NSaved= 7 IEnMin= 7 EnMin= -614.933163401522     IErMin= 7 ErrMin= 1.45D-04
 ErrMax= 1.45D-04 EMaxC= 1.00D-01 BMatC= 4.66D-06 BMatP= 1.03D-04
 IDIUse=3 WtCom= 9.99D-01 WtEn= 1.45D-03
 Coeff-Com:  0.481D-03-0.604D-03 0.587D-01-0.338D-01 0.235D+00 0.278D+00
 Coeff-Com:  0.463D+00
 Coeff-En:   0.000D+00 0.000D+00 0.000D+00 0.000D+00 0.000D+00 0.000D+00
 Coeff-En:   0.100D+01
 Coeff:      0.481D-03-0.603D-03 0.586D-01-0.337D-01 0.234D+00 0.277D+00
 Coeff:      0.464D+00
 Gap=     0.156 Goal=   None    Shift=    0.000
 RMSDP=1.12D-05 MaxDP=3.59D-04 DE=-1.10D-04 OVMax= 7.15D-04

 Cycle   8  Pass 0  IDiag  1:
 RMSU=  4.02D-06    CP:  9.56D-01  1.02D+00  6.78D-01  3.04D-01  8.26D-01
                    CP:  5.28D-01  5.93D-01
 E= -614.933167865796     Delta-E=       -0.000004464274 Rises=F Damp=F
 DIIS: error= 2.40D-05 at cycle   8 NSaved=   8.
 NSaved= 8 IEnMin= 8 EnMin= -614.933167865796     IErMin= 8 ErrMin= 2.40D-05
 ErrMax= 2.40D-05 EMaxC= 1.00D-01 BMatC= 2.37D-07 BMatP= 4.66D-06
 IDIUse=1 WtCom= 1.00D+00 WtEn= 0.00D+00
 Coeff-Com:  0.190D-03-0.464D-03 0.932D-02-0.597D-02 0.374D-01 0.544D-01
 Coeff-Com:  0.190D+00 0.715D+00
 Coeff:      0.190D-03-0.464D-03 0.932D-02-0.597D-02 0.374D-01 0.544D-01
 Coeff:      0.190D+00 0.715D+00
 Gap=     0.156 Goal=   None    Shift=    0.000
 RMSDP=2.91D-06 MaxDP=1.40D-04 DE=-4.46D-06 OVMax= 2.38D-04

 Initial convergence to 1.0D-05 achieved.  Increase integral accuracy.
 Cycle   9  Pass 1  IDiag  1:
 E= -614.933124660661     Delta-E=        0.000043205135 Rises=F Damp=F
 DIIS: error= 2.54D-05 at cycle   1 NSaved=   1.
 NSaved= 1 IEnMin= 1 EnMin= -614.933124660661     IErMin= 1 ErrMin= 2.54D-05
 ErrMax= 2.54D-05 EMaxC= 1.00D-01 BMatC= 1.63D-07 BMatP= 1.63D-07
 IDIUse=1 WtCom= 1.00D+00 WtEn= 0.00D+00
 Coeff-Com:  0.100D+01
 Coeff:      0.100D+01
 Gap=     0.156 Goal=   None    Shift=    0.000
 RMSDP=2.91D-06 MaxDP=1.40D-04 DE= 4.32D-05 OVMax= 2.39D-04

 Cycle  10  Pass 1  IDiag  1:
 RMSU=  1.10D-05    CP:  1.00D+00
 E= -614.933124677964     Delta-E=       -0.000000017303 Rises=F Damp=F
 DIIS: error= 2.43D-05 at cycle   2 NSaved=   2.
 NSaved= 2 IEnMin= 2 EnMin= -614.933124677964     IErMin= 2 ErrMin= 2.43D-05
 ErrMax= 2.43D-05 EMaxC= 1.00D-01 BMatC= 1.53D-07 BMatP= 1.63D-07
 IDIUse=1 WtCom= 1.00D+00 WtEn= 0.00D+00
 Coeff-Com:  0.490D+00 0.510D+00
 Coeff:      0.490D+00 0.510D+00
 Gap=     0.156 Goal=   None    Shift=    0.000
 RMSDP=2.67D-06 MaxDP=7.57D-05 DE=-1.73D-08 OVMax= 2.15D-04

 Cycle  11  Pass 1  IDiag  1:
 RMSU=  1.87D-06    CP:  1.00D+00  9.76D-01
 E= -614.933124807690     Delta-E=       -0.000000129726 Rises=F Damp=F
 DIIS: error= 1.06D-05 at cycle   3 NSaved=   3.
 NSaved= 3 IEnMin= 3 EnMin= -614.933124807690     IErMin= 3 ErrMin= 1.06D-05
 ErrMax= 1.06D-05 EMaxC= 1.00D-01 BMatC= 3.17D-08 BMatP= 1.53D-07
 IDIUse=1 WtCom= 1.00D+00 WtEn= 0.00D+00
 Coeff-Com:  0.730D-03 0.309D+00 0.690D+00
 Coeff:      0.730D-03 0.309D+00 0.690D+00
 Gap=     0.156 Goal=   None    Shift=    0.000
 RMSDP=9.76D-07 MaxDP=3.08D-05 DE=-1.30D-07 OVMax= 8.53D-05

 Cycle  12  Pass 1  IDiag  1:
 RMSU=  2.93D-07    CP:  1.00D+00  9.96D-01  6.87D-01
 E= -614.933124840063     Delta-E=       -0.000000032373 Rises=F Damp=F
 DIIS: error= 3.91D-06 at cycle   4 NSaved=   4.
 NSaved= 4 IEnMin= 4 EnMin= -614.933124840063     IErMin= 4 ErrMin= 3.91D-06
 ErrMax= 3.91D-06 EMaxC= 1.00D-01 BMatC= 2.51D-09 BMatP= 3.17D-08
 IDIUse=1 WtCom= 1.00D+00 WtEn= 0.00D+00
 Coeff-Com: -0.138D-01 0.177D+00 0.426D+00 0.412D+00
 Coeff:     -0.138D-01 0.177D+00 0.426D+00 0.412D+00
 Gap=     0.156 Goal=   None    Shift=    0.000
 RMSDP=2.48D-07 MaxDP=9.47D-06 DE=-3.24D-08 OVMax= 1.83D-05

 Cycle  13  Pass 1  IDiag  1:
 RMSU=  8.83D-08    CP:  1.00D+00  9.97D-01  7.10D-01  5.07D-01
 E= -614.933124842576     Delta-E=       -0.000000002513 Rises=F Damp=F
 DIIS: error= 3.62D-07 at cycle   5 NSaved=   5.
 NSaved= 5 IEnMin= 5 EnMin= -614.933124842576     IErMin= 5 ErrMin= 3.62D-07
 ErrMax= 3.62D-07 EMaxC= 1.00D-01 BMatC= 4.30D-11 BMatP= 2.51D-09
 IDIUse=1 WtCom= 1.00D+00 WtEn= 0.00D+00
 Coeff-Com: -0.598D-02 0.679D-01 0.165D+00 0.195D+00 0.578D+00
 Coeff:     -0.598D-02 0.679D-01 0.165D+00 0.195D+00 0.578D+00
 Gap=     0.156 Goal=   None    Shift=    0.000
 RMSDP=4.91D-08 MaxDP=1.66D-06 DE=-2.51D-09 OVMax= 4.52D-06

 Cycle  14  Pass 1  IDiag  1:
 RMSU=  2.67D-08    CP:  1.00D+00  9.96D-01  7.09D-01  5.41D-01  7.79D-01
 E= -614.933124842597     Delta-E=       -0.000000000021 Rises=F Damp=F
 DIIS: error= 2.07D-07 at cycle   6 NSaved=   6.
 NSaved= 6 IEnMin= 6 EnMin= -614.933124842597     IErMin= 6 ErrMin= 2.07D-07
 ErrMax= 2.07D-07 EMaxC= 1.00D-01 BMatC= 1.06D-11 BMatP= 4.30D-11
 IDIUse=1 WtCom= 1.00D+00 WtEn= 0.00D+00
 Coeff-Com: -0.137D-02 0.112D-01 0.281D-01 0.503D-01 0.356D+00 0.556D+00
 Coeff:     -0.137D-02 0.112D-01 0.281D-01 0.503D-01 0.356D+00 0.556D+00
 Gap=     0.156 Goal=   None    Shift=    0.000
 RMSDP=1.71D-08 MaxDP=8.57D-07 DE=-2.07D-11 OVMax= 1.67D-06

 Cycle  15  Pass 1  IDiag  1:
 RMSU=  7.58D-09    CP:  1.00D+00  9.97D-01  7.08D-01  5.40D-01  8.35D-01
                    CP:  7.07D-01
 E= -614.933124842603     Delta-E=       -0.000000000006 Rises=F Damp=F
 DIIS: error= 5.69D-08 at cycle   7 NSaved=   7.
 NSaved= 7 IEnMin= 7 EnMin= -614.933124842603     IErMin= 7 ErrMin= 5.69D-08
 ErrMax= 5.69D-08 EMaxC= 1.00D-01 BMatC= 5.33D-13 BMatP= 1.06D-11
 IDIUse=1 WtCom= 1.00D+00 WtEn= 0.00D+00
 Coeff-Com: -0.267D-03 0.719D-03 0.242D-02 0.103D-01 0.128D+00 0.263D+00
 Coeff-Com:  0.597D+00
 Coeff:     -0.267D-03 0.719D-03 0.242D-02 0.103D-01 0.128D+00 0.263D+00
 Coeff:      0.597D+00
 Gap=     0.156 Goal=   None    Shift=    0.000
 RMSDP=6.12D-09 MaxDP=1.63D-07 DE=-5.68D-12 OVMax= 5.69D-07

 SCF Done:  E(RB3LYP) =  -614.933124843     A.U. after   15 cycles
             Convg  =    0.6125D-08             -V/T =  2.0093
 KE= 6.092504645330D+02 PE=-3.108161964869D+03 EE= 1.044942515388D+03
 Leave Link  502 at Fri Sep  3 00:10:09 2021, MaxMem=  268435456 cpu:     195.9
 (Enter /sw/target/amd/app/gaussian/Gaussian09RevA.02_gcc-4.9.2/g09/l508.exe)
 QCSCF skips out because SCF is already converged.
 Leave Link  508 at Fri Sep  3 00:10:09 2021, MaxMem=  268435456 cpu:       0.0
 (Enter /sw/target/amd/app/gaussian/Gaussian09RevA.02_gcc-4.9.2/g09/l601.exe)
 Copying SCF densities to generalized density rwf, IOpCl= 0 IROHF=0.

 **********************************************************************

            Population analysis using the SCF density.

 **********************************************************************

 Orbital symmetries:
       Occupied  (A) (A) (A) (A) (A) (A) (A) (A) (A) (A) (A) (A)
                 (A) (A) (A) (A) (A) (A) (A) (A) (A) (A) (A) (A)
                 (A) (A) (A) (A) (A) (A) (A) (A) (A) (A) (A) (A)
                 (A) (A) (A) (A) (A) (A) (A) (A) (A) (A) (A) (A)
                 (A) (A)
       Virtual   (A) (A) (A) (A) (A) (A) (A) (A) (A) (A) (A) (A)
                 (A) (A) (A) (A) (A) (A) (A) (A) (A) (A) (A) (A)
                 (A) (A) (A) (A) (A) (A) (A) (A) (A) (A) (A) (A)
                 (A) (A) (A) (A) (A) (A) (A) (A) (A) (A) (A) (A)
                 (A) (A) (A) (A) (A) (A) (A) (A) (A) (A) (A) (A)
                 (A) (A) (A) (A) (A) (A) (A) (A) (A) (A) (A) (A)
                 (A) (A) (A) (A) (A) (A) (A) (A) (A) (A) (A) (A)
                 (A) (A) (A) (A) (A) (A) (A) (A) (A) (A) (A) (A)
                 (A) (A) (A) (A) (A) (A) (A) (A) (A) (A) (A) (A)
                 (A) (A) (A) (A) (A) (A) (A) (A) (A) (A) (A) (A)
                 (A) (A) (A) (A) (A) (A) (A) (A) (A) (A) (A) (A)
                 (A) (A) (A) (A) (A) (A) (A) (A) (A) (A) (A) (A)
                 (A) (A) (A) (A) (A) (A) (A) (A) (A) (A) (A) (A)
                 (A) (A) (A) (A) (A) (A) (A) (A) (A) (A) (A) (A)
                 (A) (A) (A) (A) (A) (A) (A) (A) (A) (A) (A) (A)
                 (A) (A) (A) (A)
 The electronic state is 1-A.
 Alpha  occ. eigenvalues --  -19.17801 -19.17367 -10.24541 -10.24082 -10.23999
 Alpha  occ. eigenvalues --  -10.23790 -10.18772 -10.18734 -10.18507 -10.18474
 Alpha  occ. eigenvalues --  -10.18345 -10.17876 -10.17384 -10.17260  -1.05939
 Alpha  occ. eigenvalues --   -1.05852  -0.86516  -0.81161  -0.76855  -0.74246
 Alpha  occ. eigenvalues --   -0.73072  -0.69278  -0.68169  -0.62322  -0.59744
 Alpha  occ. eigenvalues --   -0.58103  -0.53160  -0.51463  -0.51112  -0.48177
 Alpha  occ. eigenvalues --   -0.46902  -0.46708  -0.46507  -0.44869  -0.42942
 Alpha  occ. eigenvalues --   -0.41596  -0.40921  -0.39659  -0.39095  -0.38133
 Alpha  occ. eigenvalues --   -0.35705  -0.35490  -0.34570  -0.33041  -0.31986
 Alpha  occ. eigenvalues --   -0.31545  -0.29501  -0.25213  -0.22313  -0.18569
 Alpha virt. eigenvalues --   -0.02960   0.01023   0.04832   0.09694   0.10246
 Alpha virt. eigenvalues --    0.10973   0.11371   0.11667   0.13215   0.14902
 Alpha virt. eigenvalues --    0.15125   0.15447   0.15858   0.16972   0.17121
 Alpha virt. eigenvalues --    0.19037   0.20250   0.20772   0.22127   0.25177
 Alpha virt. eigenvalues --    0.25635   0.27519   0.29446   0.32874   0.34214
 Alpha virt. eigenvalues --    0.34776   0.38985   0.39315   0.47096   0.48023
 Alpha virt. eigenvalues --    0.50650   0.51443   0.51630   0.52403   0.53744
 Alpha virt. eigenvalues --    0.53874   0.55641   0.56052   0.57046   0.57306
 Alpha virt. eigenvalues --    0.58847   0.58939   0.59098   0.59823   0.61767
 Alpha virt. eigenvalues --    0.62488   0.62587   0.63970   0.64414   0.64414
 Alpha virt. eigenvalues --    0.68492   0.68518   0.69789   0.71844   0.73670
 Alpha virt. eigenvalues --    0.75368   0.77812   0.82844   0.83315   0.83955
 Alpha virt. eigenvalues --    0.84335   0.84806   0.85244   0.86385   0.86599
 Alpha virt. eigenvalues --    0.87047   0.87311   0.89190   0.90604   0.92783
 Alpha virt. eigenvalues --    0.93429   0.93681   0.95764   0.98216   0.99989
 Alpha virt. eigenvalues --    1.01803   1.03525   1.04716   1.04992   1.06346
 Alpha virt. eigenvalues --    1.06913   1.07550   1.11399   1.14677   1.20781
 Alpha virt. eigenvalues --    1.21384   1.24143   1.24926   1.25895   1.26067
 Alpha virt. eigenvalues --    1.30346   1.33360   1.36851   1.37170   1.38081
 Alpha virt. eigenvalues --    1.39251   1.39740   1.44865   1.47663   1.48239
 Alpha virt. eigenvalues --    1.48678   1.49785   1.50064   1.51940   1.52432
 Alpha virt. eigenvalues --    1.52827   1.56207   1.69256   1.69501   1.75856
 Alpha virt. eigenvalues --    1.78469   1.81053   1.82490   1.84532   1.86197
 Alpha virt. eigenvalues --    1.87252   1.90188   1.91845   1.93785   1.94685
 Alpha virt. eigenvalues --    1.95596   1.97318   1.97614   1.99171   2.01873
 Alpha virt. eigenvalues --    2.05187   2.06137   2.07011   2.08618   2.11408
 Alpha virt. eigenvalues --    2.11518   2.13769   2.16171   2.17075   2.20282
 Alpha virt. eigenvalues --    2.20762   2.22217   2.26314   2.26345   2.29028
 Alpha virt. eigenvalues --    2.29472   2.33583   2.33841   2.36577   2.38293
 Alpha virt. eigenvalues --    2.39175   2.42150   2.45968   2.52434   2.54538
 Alpha virt. eigenvalues --    2.57783   2.58733   2.64089   2.65462   2.65741
 Alpha virt. eigenvalues --    2.68597   2.70569   2.71875   2.79851   2.81461
 Alpha virt. eigenvalues --    2.84214   2.87949   2.89266   2.95522   3.01147
 Alpha virt. eigenvalues --    3.04600   3.13215   3.20018   3.41346   3.51416
 Alpha virt. eigenvalues --    4.05722   4.06522   4.10826   4.11388   4.13531
 Alpha virt. eigenvalues --    4.20799   4.22308   4.31504   4.32226   4.37651
 Alpha virt. eigenvalues --    4.43218   4.50889   4.66347   4.88334
          Condensed to atoms (all electrons):
              1          2          3          4          5          6
     1  C    4.895035   0.248312  -0.043467  -0.006456   0.000443  -0.000050
     2  O    0.248312   8.204767   0.272198  -0.061053   0.003333   0.000410
     3  C   -0.043467   0.272198   4.566718   0.421007   0.014627  -0.037579
     4  C   -0.006456  -0.061053   0.421007   5.161076   0.451222  -0.008177
     5  C    0.000443   0.003333   0.014627   0.451222   5.192762   0.405885
     6  C   -0.000050   0.000410  -0.037579  -0.008177   0.405885   4.879697
     7  C   -0.000001   0.000002  -0.000728   0.008332  -0.104128   0.404429
     8  O    0.000000   0.000000   0.000007   0.000555   0.000906  -0.065847
     9  C   -0.000000  -0.000000  -0.000000  -0.000002  -0.000552   0.004868
    10  C    0.000000  -0.000000   0.000047  -0.000314   0.016860  -0.035141
    11  C   -0.000000   0.000000  -0.000363   0.000090  -0.002270  -0.041858
    12  C    0.000004  -0.000090   0.008824  -0.000651   0.018654  -0.034185
    13  C   -0.000030   0.001905   0.010632  -0.038968  -0.046194   0.492740
    14  C    0.003960  -0.049118   0.492137  -0.059149  -0.076412  -0.031457
    15  H    0.364559  -0.035946  -0.005013   0.004538  -0.000136  -0.000001
    16  H    0.384301  -0.031219   0.003273   0.000150   0.000002   0.000000
    17  H    0.364560  -0.035946  -0.005013   0.004538  -0.000136  -0.000001
    18  H    0.005766  -0.006953  -0.045091   0.353092  -0.034401   0.002463
    19  H   -0.000006  -0.000045   0.003100  -0.042880   0.357313  -0.034487
    20  H    0.000000   0.000000   0.000000   0.000001   0.000075  -0.000356
    21  H    0.000000   0.000000   0.000000   0.000001   0.000075  -0.000357
    22  H   -0.000000  -0.000000   0.000000  -0.000001  -0.000076   0.000149
    23  H   -0.000000   0.000000  -0.000000   0.000002  -0.000123   0.002393
    24  H    0.000000  -0.000000   0.000003  -0.000001   0.000018   0.001271
    25  H    0.000000  -0.000003   0.000241   0.000007  -0.000185   0.004836
    26  H   -0.000236   0.000646  -0.040345   0.007717  -0.000071   0.005084
              7          8          9         10         11         12
     1  C   -0.000001   0.000000  -0.000000   0.000000  -0.000000   0.000004
     2  O    0.000002   0.000000  -0.000000  -0.000000   0.000000  -0.000090
     3  C   -0.000728   0.000007  -0.000000   0.000047  -0.000363   0.008824
     4  C    0.008332   0.000555  -0.000002  -0.000314   0.000090  -0.000651
     5  C   -0.104128   0.000906  -0.000552   0.016860  -0.002270   0.018654
     6  C    0.404429  -0.065847   0.004868  -0.035141  -0.041858  -0.034185
     7  C    4.818720   0.294698  -0.045800   0.406510   0.023223  -0.079133
     8  O    0.294698   8.201345   0.251899  -0.076287   0.003831   0.000108
     9  C   -0.045800   0.251899   4.892764  -0.008676   0.000388  -0.000040
    10  C    0.406510  -0.076287  -0.008676   5.200989   0.451705  -0.018461
    11  C    0.023223   0.003831   0.000388   0.451705   4.902351   0.509209
    12  C   -0.079133   0.000108  -0.000040  -0.018461   0.509209   5.145770
    13  C    0.000202   0.003106   0.000026  -0.059142   0.012638   0.438891
    14  C    0.016005  -0.000072   0.000005  -0.000778   0.008801  -0.094305
    15  H    0.000000   0.000000   0.000000   0.000000  -0.000000  -0.000000
    16  H   -0.000000   0.000000  -0.000000   0.000000   0.000000  -0.000000
    17  H    0.000000   0.000000   0.000000   0.000000  -0.000000  -0.000000
    18  H   -0.000177  -0.000006   0.000000   0.000002  -0.000000   0.000010
    19  H   -0.010196   0.010363  -0.000438   0.000419  -0.000015  -0.000197
    20  H   -0.004783  -0.035778   0.363977   0.006314  -0.000120  -0.000002
    21  H   -0.004783  -0.035778   0.363977   0.006314  -0.000120  -0.000002
    22  H    0.002912  -0.031623   0.383915   0.000066  -0.000001   0.000000
    23  H   -0.042844  -0.007661   0.006404   0.354768  -0.039285   0.004478
    24  H    0.002826  -0.000046  -0.000011  -0.039267   0.354985  -0.033282
    25  H    0.000596   0.000002  -0.000000   0.005222  -0.045861   0.354953
    26  H   -0.000139   0.000000  -0.000000   0.000012   0.000305  -0.009810
             13         14         15         16         17         18
     1  C   -0.000030   0.003960   0.364559   0.384301   0.364560   0.005766
     2  O    0.001905  -0.049118  -0.035946  -0.031219  -0.035946  -0.006953
     3  C    0.010632   0.492137  -0.005013   0.003273  -0.005013  -0.045091
     4  C   -0.038968  -0.059149   0.004538   0.000150   0.004538   0.353092
     5  C   -0.046194  -0.076412  -0.000136   0.000002  -0.000136  -0.034401
     6  C    0.492740  -0.031457  -0.000001   0.000000  -0.000001   0.002463
     7  C    0.000202   0.016005   0.000000  -0.000000   0.000000  -0.000177
     8  O    0.003106  -0.000072   0.000000   0.000000   0.000000  -0.000006
     9  C    0.000026   0.000005   0.000000  -0.000000   0.000000   0.000000
    10  C   -0.059142  -0.000778   0.000000   0.000000   0.000000   0.000002
    11  C    0.012638   0.008801  -0.000000   0.000000  -0.000000  -0.000000
    12  C    0.438891  -0.094305  -0.000000  -0.000000  -0.000000   0.000010
    13  C    4.666935   0.433132   0.000005   0.000001   0.000005   0.000998
    14  C    0.433132   5.291710   0.000074  -0.000085   0.000074   0.004167
    15  H    0.000005   0.000074   0.597891  -0.033991  -0.046274   0.001775
    16  H    0.000001  -0.000085  -0.033991   0.544133  -0.033991  -0.000118
    17  H    0.000005   0.000074  -0.046274  -0.033991   0.597891   0.001775
    18  H    0.000998   0.004167   0.001775  -0.000118   0.001775   0.590888
    19  H    0.003972   0.000720   0.000001  -0.000000   0.000001  -0.005166
    20  H   -0.000028  -0.000000  -0.000000   0.000000   0.000000  -0.000000
    21  H   -0.000028  -0.000000   0.000000   0.000000  -0.000000  -0.000000
    22  H    0.000006  -0.000000   0.000000  -0.000000   0.000000   0.000000
    23  H    0.000922   0.000008   0.000000  -0.000000   0.000000  -0.000000
    24  H    0.002362  -0.000241   0.000000  -0.000000   0.000000  -0.000000
    25  H   -0.042280  -0.008572  -0.000000  -0.000000  -0.000000  -0.000000
    26  H   -0.042929   0.344943   0.000031  -0.000027   0.000031  -0.000177
             19         20         21         22         23         24
     1  C   -0.000006   0.000000   0.000000  -0.000000  -0.000000   0.000000
     2  O   -0.000045   0.000000   0.000000  -0.000000   0.000000  -0.000000
     3  C    0.003100   0.000000   0.000000   0.000000  -0.000000   0.000003
     4  C   -0.042880   0.000001   0.000001  -0.000001   0.000002  -0.000001
     5  C    0.357313   0.000075   0.000075  -0.000076  -0.000123   0.000018
     6  C   -0.034487  -0.000356  -0.000357   0.000149   0.002393   0.001271
     7  C   -0.010196  -0.004783  -0.004783   0.002912  -0.042844   0.002826
     8  O    0.010363  -0.035778  -0.035778  -0.031623  -0.007661  -0.000046
     9  C   -0.000438   0.363977   0.363977   0.383915   0.006404  -0.000011
    10  C    0.000419   0.006314   0.006314   0.000066   0.354768  -0.039267
    11  C   -0.000015  -0.000120  -0.000120  -0.000001  -0.039285   0.354985
    12  C   -0.000197  -0.000002  -0.000002   0.000000   0.004478  -0.033282
    13  C    0.003972  -0.000028  -0.000028   0.000006   0.000922   0.002362
    14  C    0.000720  -0.000000  -0.000000  -0.000000   0.000008  -0.000241
    15  H    0.000001  -0.000000   0.000000   0.000000   0.000000   0.000000
    16  H   -0.000000   0.000000   0.000000  -0.000000  -0.000000  -0.000000
    17  H    0.000001   0.000000  -0.000000   0.000000   0.000000   0.000000
    18  H   -0.005166  -0.000000  -0.000000   0.000000  -0.000000  -0.000000
    19  H    0.570073   0.000023   0.000023  -0.000002  -0.000004   0.000000
    20  H    0.000023   0.595106  -0.046114  -0.034306   0.001473   0.000003
    21  H    0.000023  -0.046114   0.595107  -0.034306   0.001473   0.000003
    22  H   -0.000002  -0.034306  -0.034306   0.546638  -0.000035  -0.000000
    23  H   -0.000004   0.001473   0.001473  -0.000035   0.597164  -0.005503
    24  H    0.000000   0.000003   0.000003  -0.000000  -0.005503   0.594305
    25  H    0.000002   0.000000   0.000000  -0.000000  -0.000209  -0.005038
    26  H    0.000016   0.000000   0.000000   0.000000   0.000000  -0.000012
             25         26
     1  C    0.000000  -0.000236
     2  O   -0.000003   0.000646
     3  C    0.000241  -0.040345
     4  C    0.000007   0.007717
     5  C   -0.000185  -0.000071
     6  C    0.004836   0.005084
     7  C    0.000596  -0.000139
     8  O    0.000002   0.000000
     9  C   -0.000000  -0.000000
    10  C    0.005222   0.000012
    11  C   -0.045861   0.000305
    12  C    0.354953  -0.009810
    13  C   -0.042280  -0.042929
    14  C   -0.008572   0.344943
    15  H   -0.000000   0.000031
    16  H   -0.000000  -0.000027
    17  H   -0.000000   0.000031
    18  H   -0.000000  -0.000177
    19  H    0.000002   0.000016
    20  H    0.000000   0.000000
    21  H    0.000000   0.000000
    22  H   -0.000000   0.000000
    23  H   -0.000209   0.000000
    24  H   -0.005038  -0.000012
    25  H    0.608847   0.005926
    26  H    0.005926   0.595399
 Mulliken atomic charges:
              1
     1  C   -0.216695
     2  O   -0.511201
     3  C    0.384784
     4  C   -0.194677
     5  C   -0.197492
     6  C    0.085271
     7  C    0.314255
     8  O   -0.513723
     9  C   -0.212706
    10  C   -0.211165
    11  C   -0.137632
    12  C   -0.210743
    13  C    0.161120
    14  C   -0.275549
    15  H    0.152487
    16  H    0.167571
    17  H    0.152487
    18  H    0.131152
    19  H    0.147407
    20  H    0.154516
    21  H    0.154516
    22  H    0.166665
    23  H    0.126579
    24  H    0.127623
    25  H    0.121514
    26  H    0.133637
 Sum of Mulliken atomic charges =  -0.00000
 Mulliken charges with hydrogens summed into heavy atoms:
              1
     1  C    0.255851
     2  O   -0.511201
     3  C    0.384784
     4  C   -0.063525
     5  C   -0.050086
     6  C    0.085271
     7  C    0.314255
     8  O   -0.513723
     9  C    0.262991
    10  C   -0.084586
    11  C   -0.010009
    12  C   -0.089229
    13  C    0.161120
    14  C   -0.141912
 Sum of Mulliken charges with hydrogens summed into heavy atoms =  -0.00000
 Electronic spatial extent (au):  <R**2>=           3290.5218
 Charge=             -0.0000 electrons
 Dipole moment (field-independent basis, Debye):
    X=             -0.6710    Y=             -1.4764    Z=              0.0000  Tot=              1.6217
 Quadrupole moment (field-independent basis, Debye-Ang):
   XX=            -61.1371   YY=            -75.4711   ZZ=            -84.8120
   XY=             -3.5233   XZ=              0.0001   YZ=              0.0000
 Traceless Quadrupole moment (field-independent basis, Debye-Ang):
   XX=             12.6696   YY=             -1.6643   ZZ=            -11.0053
   XY=             -3.5233   XZ=              0.0001   YZ=              0.0000
 Octapole moment (field-independent basis, Debye-Ang**2):
  XXX=             -3.9836  YYY=             -3.2029  ZZZ=              0.0000  XYY=             -1.9281
  XXY=            -40.4670  XXZ=              0.0004  XZZ=              3.1220  YZZ=             -6.2812
  YYZ=             -0.0000  XYZ=              0.0000
 Hexadecapole moment (field-independent basis, Debye-Ang**3):
 XXXX=          -2731.2119 YYYY=           -908.2147 ZZZZ=            -98.0249 XXXY=            -16.0008
 XXXZ=              0.0021 YYYX=             25.1857 YYYZ=              0.0001 ZZZX=             -0.0000
 ZZZY=             -0.0001 XXYY=           -639.9722 XXZZ=           -566.5220 YYZZ=           -191.9390
 XXYZ=              0.0001 YYXZ=             -0.0001 ZZXY=             11.5014
 N-N= 8.390358601053D+02 E-N=-3.108161961897D+03  KE= 6.092504645330D+02
 No NMR shielding tensors so no spin-rotation constants.
 Leave Link  601 at Fri Sep  3 00:10:10 2021, MaxMem=  268435456 cpu:       0.4
 (Enter /sw/target/amd/app/gaussian/Gaussian09RevA.02_gcc-4.9.2/g09/l701.exe)
 Compute integral first derivatives.
 ... and contract with generalized density number  0.
 Leave Link  701 at Fri Sep  3 00:10:10 2021, MaxMem=  268435456 cpu:       0.4
 (Enter /sw/target/amd/app/gaussian/Gaussian09RevA.02_gcc-4.9.2/g09/l702.exe)
 L702 exits ... SP integral derivatives will be done elsewhere.
 Leave Link  702 at Fri Sep  3 00:10:10 2021, MaxMem=  268435456 cpu:       0.1
 (Enter /sw/target/amd/app/gaussian/Gaussian09RevA.02_gcc-4.9.2/g09/l703.exe)
 Compute integral first derivatives, UseDBF=F ICtDFT=           0.
 Integral derivatives from FoFDir, PRISM(SPDF).
 Calling FoFJK, ICntrl=      2127 FMM=F ISym2X=0 I1Cent= 0 IOpClX= 0 NMat=1 NMatS=1 NMatT=0.
 FoFCou: FMM=F IPFlag=           0 FMFlag=      100000 FMFlg1=         800
         NFxFlg=           0 DoJE=F BraDBF=F KetDBF=F FulRan=T
         Omega=  0.000000  0.000000  1.000000  0.000000  0.000000 ICntrl=    2127 IOpCl=  0
         NMat0=    1 NMatS0=    1 NMatT0=    0 NMatD0=    1 NMtDS0=    0 NMtDT0=    0
         I1Cent=           0 NGrid=           0.
 Symmetry not used in FoFCou.
 Leave Link  703 at Fri Sep  3 00:11:24 2021, MaxMem=  268435456 cpu:      74.0
 (Enter /sw/target/amd/app/gaussian/Gaussian09RevA.02_gcc-4.9.2/g09/l716.exe)
 Dipole        =-2.63974751D-01-5.80866733D-01 6.79463632D-06
 ***** Axes restored to original set *****
 -------------------------------------------------------------------
 Center     Atomic                   Forces (Hartrees/Bohr)
 Number     Number              X              Y              Z
 -------------------------------------------------------------------
      1        6           0.002697088   -0.004546658   -0.000753007
      2        8           0.006023158    0.005491674    0.001859429
      3        6          -0.011539210   -0.029321442   -0.007818396
      4        6          -0.014084422    0.025758700    0.004388375
      5        6           0.014570508    0.001429999    0.001815705
      6        6           0.007758356    0.014160950    0.003999563
      7        6          -0.020110229    0.000801782   -0.001877267
      8        8           0.000496875   -0.004438304   -0.000953631
      9        6           0.002510135    0.003961987    0.001152938
     10        6           0.001183893    0.021471812    0.004981066
     11        6           0.022189774   -0.018269687   -0.001863191
     12        6          -0.030565481   -0.008715963   -0.005102401
     13        6           0.006807576   -0.010490447   -0.001677527
     14        6           0.013425256    0.002597649    0.001962639
     15        1          -0.000515249    0.003546788    0.001356358
     16        1          -0.003590014   -0.002850773   -0.001012765
     17        1          -0.000398270    0.003805518    0.000214484
     18        1           0.000912961   -0.001185661   -0.000174985
     19        1          -0.001216483   -0.003025700   -0.000809443
     20        1          -0.002548441   -0.002734324   -0.001628864
     21        1          -0.002692791   -0.003053726   -0.000217280
     22        1           0.004926399   -0.001453891    0.000175434
     23        1           0.001541852    0.003435916    0.000935601
     24        1           0.000060348    0.000847500    0.000197919
     25        1           0.002483203    0.001083680    0.000499576
     26        1          -0.000326793    0.001692621    0.000349671
 -------------------------------------------------------------------
 Cartesian Forces:  Max     0.030565481 RMS     0.008649167
 Leave Link  716 at Fri Sep  3 00:11:24 2021, MaxMem=  268435456 cpu:       0.1
 (Enter /sw/target/amd/app/gaussian/Gaussian09RevA.02_gcc-4.9.2/g09/l103.exe)

 GradGradGradGradGradGradGradGradGradGradGradGradGradGradGradGradGradGrad
 Berny optimization.
 Internal  Forces:  Max     0.020424894 RMS     0.004634352
 Search for a local minimum.
 Step number   1 out of a maximum of  135
 All quantities printed in internal units (Hartrees-Bohrs-Radians)
 RMS Force = .46344D-02 SwitMx=.10000D-02 MixMth= 1
 Mixed Optimization -- RFO/linear search
 Second derivative matrix not updated -- first step.
     Eigenvalues ---    0.01400   0.01411   0.01902   0.01919   0.01974
     Eigenvalues ---    0.01991   0.02016   0.02017   0.02046   0.02052
     Eigenvalues ---    0.02070   0.02117   0.02118   0.02132   0.02145
     Eigenvalues ---    0.02147   0.02154   0.02178   0.02178   0.09982
     Eigenvalues ---    0.09987   0.10543   0.10553   0.16000   0.16000
     Eigenvalues ---    0.16000   0.16000   0.16000   0.16000   0.16000
     Eigenvalues ---    0.16000   0.16000   0.16000   0.16000   0.16000
     Eigenvalues ---    0.22080   0.22436   0.23376   0.23653   0.24608
     Eigenvalues ---    0.24930   0.25000   0.25000   0.25000   0.25000
     Eigenvalues ---    0.34237   0.34237   0.34250   0.34250   0.34320
     Eigenvalues ---    0.34322   0.34963   0.35019   0.35037   0.35154
     Eigenvalues ---    0.35452   0.35465   0.38443   0.40418   0.41005
     Eigenvalues ---    0.42157   0.42276   0.43133   0.43914   0.45212
     Eigenvalues ---    0.45296   0.45533   0.45572   0.46574   0.46687
     Eigenvalues ---    0.49950   0.513931000.000001000.000001000.00000
     Eigenvalues --- 1000.000001000.000001000.000001000.000001000.00000
     Eigenvalues --- 1000.000001000.000001000.000001000.000001000.00000
     Eigenvalues --- 1000.000001000.000001000.000001000.000001000.00000
     Eigenvalues --- 1000.000001000.000001000.000001000.000001000.00000
     Eigenvalues --- 1000.000001000.000001000.000001000.000001000.00000
     Eigenvalues --- 1000.000001000.000001000.000001000.000001000.00000
     Eigenvalues --- 1000.000001000.000001000.000001000.000001000.00000
     Eigenvalues --- 1000.000001000.000001000.000001000.000001000.00000
     Eigenvalues --- 1000.000001000.000001000.000001000.000001000.00000
     Eigenvalues --- 1000.000001000.000001000.000001000.000001000.00000
 RFO step:  Lambda=-7.30004671D-03 EMin= 1.40041753D-02
 Linear search not attempted -- first point.
 Iteration  1 RMS(Cart)=  0.03237655 RMS(Int)=  0.00041199
 Iteration  2 RMS(Cart)=  0.00057467 RMS(Int)=  0.00002512
 Iteration  3 RMS(Cart)=  0.00000004 RMS(Int)=  0.00002512
 Variable       Old X    -DE/DX   Delta X   Delta X   Delta X     New X
                                 (Linear)    (Quad)   (Total)
    R1        2.68724  -0.00156   0.00000  -0.00364  -0.00364   2.68360
    R2        2.06932   0.00160   0.00000   0.00458   0.00458   2.07390
    R3        2.06789  -0.00100   0.00000  -0.00286  -0.00286   2.06503
    R4        2.06932   0.00160   0.00000   0.00458   0.00458   2.07390
    R5        2.58485   0.00098   0.00000   0.00188   0.00188   2.58674
    R6        2.62733   0.02042   0.00000   0.04167   0.04168   2.66901
    R7        2.63992  -0.00777   0.00000  -0.01648  -0.01645   2.62347
    R8        2.64534  -0.01444   0.00000  -0.03214  -0.03216   2.61318
    R9        2.04926  -0.00005   0.00000  -0.00014  -0.00014   2.04913
   R10        2.66715   0.00129   0.00000   0.00278   0.00275   2.66991
   R11        2.05735  -0.00299   0.00000  -0.00839  -0.00839   2.04896
   R12        2.68275   0.00616   0.00000   0.01459   0.01458   2.69734
   R13        2.67335   0.01722   0.00000   0.04181   0.04178   2.71512
   R14        2.59916  -0.00803   0.00000  -0.01584  -0.01584   2.58332
   R15        2.64434  -0.01305   0.00000  -0.02938  -0.02937   2.61497
   R16        2.68573  -0.00333   0.00000  -0.00775  -0.00775   2.67798
   R17        2.06910   0.00150   0.00000   0.00428   0.00428   2.07339
   R18        2.06911   0.00150   0.00000   0.00428   0.00428   2.07339
   R19        2.06793  -0.00091   0.00000  -0.00260  -0.00260   2.06533
   R20        2.63400   0.01921   0.00000   0.03897   0.03899   2.67299
   R21        2.04948  -0.00027   0.00000  -0.00076  -0.00076   2.04872
   R22        2.63187  -0.01290   0.00000  -0.02744  -0.02744   2.60443
   R23        2.05425  -0.00059   0.00000  -0.00163  -0.00163   2.05262
   R24        2.64917   0.01568   0.00000   0.03535   0.03533   2.68450
   R25        2.05615  -0.00086   0.00000  -0.00240  -0.00240   2.05375
   R26        2.65645   0.00572   0.00000   0.01360   0.01362   2.67007
   R27        2.05643  -0.00176   0.00000  -0.00491  -0.00491   2.05152
    A1        1.93977   0.00195   0.00000   0.01061   0.01067   1.95043
    A2        1.88108  -0.00643   0.00000  -0.03636  -0.03627   1.84481
    A3        1.93976   0.00195   0.00000   0.01061   0.01067   1.95043
    A4        1.87954   0.00307   0.00000   0.02039   0.02048   1.90003
    A5        1.94105  -0.00364   0.00000  -0.02536  -0.02533   1.91572
    A6        1.87954   0.00307   0.00000   0.02039   0.02048   1.90003
    A7        2.03889   0.00509   0.00000   0.01978   0.01978   2.05867
    A8        2.20097  -0.00820   0.00000  -0.03165  -0.03166   2.16931
    A9        2.00282   0.00480   0.00000   0.01888   0.01886   2.02168
   A10        2.07939   0.00340   0.00000   0.01277   0.01280   2.09220
   A11        2.09427   0.00097   0.00000   0.00153   0.00151   2.09579
   A12        2.13082  -0.00203   0.00000  -0.01000  -0.01000   2.12083
   A13        2.05809   0.00106   0.00000   0.00848   0.00848   2.06657
   A14        2.12599  -0.00161   0.00000  -0.00810  -0.00815   2.11785
   A15        2.06672   0.00238   0.00000   0.01343   0.01345   2.08018
   A16        2.09047  -0.00076   0.00000  -0.00533  -0.00531   2.08516
   A17        2.14714  -0.00214   0.00000  -0.01173  -0.01170   2.13544
   A18        2.05531   0.00399   0.00000   0.01608   0.01605   2.07136
   A19        2.08073  -0.00185   0.00000  -0.00434  -0.00435   2.07638
   A20        2.02540  -0.00457   0.00000  -0.01715  -0.01715   2.00825
   A21        2.09343   0.00254   0.00000   0.00867   0.00867   2.10210
   A22        2.16435   0.00203   0.00000   0.00848   0.00848   2.17283
   A23        2.05279   0.00117   0.00000   0.00454   0.00454   2.05732
   A24        1.94009   0.00132   0.00000   0.00636   0.00641   1.94650
   A25        1.94009   0.00132   0.00000   0.00637   0.00641   1.94650
   A26        1.88055  -0.00667   0.00000  -0.03694  -0.03688   1.84367
   A27        1.94296  -0.00352   0.00000  -0.02614  -0.02612   1.91684
   A28        1.87844   0.00380   0.00000   0.02564   0.02571   1.90414
   A29        1.87843   0.00380   0.00000   0.02565   0.02571   1.90414
   A30        2.10073  -0.00056   0.00000  -0.00780  -0.00776   2.09297
   A31        2.12862  -0.00369   0.00000  -0.01983  -0.01985   2.10877
   A32        2.05383   0.00425   0.00000   0.02763   0.02761   2.08145
   A33        2.09681   0.00584   0.00000   0.02232   0.02234   2.11915
   A34        2.09436  -0.00359   0.00000  -0.01515  -0.01516   2.07920
   A35        2.09202  -0.00225   0.00000  -0.00716  -0.00718   2.08484
   A36        2.10701  -0.00362   0.00000  -0.01332  -0.01333   2.09368
   A37        2.07527   0.00450   0.00000   0.02273   0.02274   2.09801
   A38        2.10090  -0.00088   0.00000  -0.00941  -0.00941   2.09149
   A39        2.08766  -0.00235   0.00000  -0.00552  -0.00556   2.08210
   A40        2.09053  -0.00453   0.00000  -0.01594  -0.01592   2.07461
   A41        2.10500   0.00688   0.00000   0.02146   0.02148   2.12648
   A42        2.12087  -0.00222   0.00000  -0.00634  -0.00630   2.11457
   A43        2.06701   0.00120   0.00000   0.00371   0.00369   2.07070
   A44        2.09531   0.00102   0.00000   0.00263   0.00261   2.09792
    D1       -1.08588   0.00093   0.00000   0.00869   0.00863  -1.07725
    D2       -3.14158  -0.00000   0.00000  -0.00000  -0.00000  -3.14158
    D3        1.08592  -0.00093   0.00000  -0.00869  -0.00864   1.07728
    D4       -0.00002   0.00000   0.00000   0.00000   0.00000  -0.00002
    D5        3.14157   0.00000   0.00000   0.00000   0.00000   3.14158
    D6        3.14159   0.00000   0.00000   0.00000   0.00000  -3.14159
    D7       -0.00000   0.00000   0.00000   0.00000   0.00000  -0.00000
    D8       -0.00000   0.00000   0.00000   0.00000   0.00000  -0.00000
    D9        3.14159   0.00000   0.00000   0.00000   0.00000   3.14159
   D10        3.14159  -0.00000   0.00000   0.00000   0.00000   3.14159
   D11       -0.00000  -0.00000   0.00000  -0.00000  -0.00000  -0.00000
   D12       -0.00000   0.00000   0.00000   0.00000   0.00000   0.00000
   D13        3.14159   0.00000   0.00000   0.00000   0.00000   3.14159
   D14        0.00000  -0.00000   0.00000  -0.00000  -0.00000   0.00000
   D15        3.14159   0.00000   0.00000   0.00000   0.00000  -3.14159
   D16       -3.14159  -0.00000   0.00000  -0.00000  -0.00000  -3.14159
   D17        0.00000  -0.00000   0.00000  -0.00000  -0.00000   0.00000
   D18        3.14159   0.00000   0.00000   0.00000   0.00000   3.14159
   D19       -0.00000   0.00000   0.00000   0.00000   0.00000   0.00000
   D20        0.00000  -0.00000   0.00000  -0.00000  -0.00000   0.00000
   D21       -3.14159  -0.00000   0.00000  -0.00000  -0.00000  -3.14159
   D22        0.00000   0.00000   0.00000   0.00000   0.00000   0.00000
   D23       -3.14159  -0.00000   0.00000  -0.00000  -0.00000  -3.14159
   D24       -3.14159   0.00000   0.00000   0.00000   0.00000  -3.14159
   D25        0.00000  -0.00000   0.00000  -0.00000  -0.00000   0.00000
   D26        3.14159   0.00000   0.00000   0.00000   0.00000   3.14159
   D27       -0.00000   0.00000   0.00000   0.00000   0.00000  -0.00000
   D28       -0.00000  -0.00000   0.00000  -0.00000  -0.00000  -0.00000
   D29        3.14159  -0.00000   0.00000  -0.00000  -0.00000   3.14159
   D30       -3.14159  -0.00000   0.00000  -0.00000  -0.00000  -3.14159
   D31        0.00000   0.00000   0.00000   0.00000   0.00000   0.00000
   D32       -0.00000   0.00000   0.00000   0.00000   0.00000  -0.00000
   D33        3.14159   0.00000   0.00000   0.00000   0.00000   3.14159
   D34        3.14159   0.00000   0.00000   0.00000   0.00000   3.14159
   D35        0.00000  -0.00000   0.00000  -0.00000  -0.00000  -0.00000
   D36        1.08738  -0.00132   0.00000  -0.01232  -0.01228   1.07510
   D37       -1.08738   0.00132   0.00000   0.01232   0.01228  -1.07510
   D38       -3.14159  -0.00000   0.00000  -0.00000  -0.00000  -3.14159
   D39        0.00000  -0.00000   0.00000  -0.00000  -0.00000   0.00000
   D40        3.14159   0.00000   0.00000   0.00000   0.00000   3.14159
   D41       -3.14159  -0.00000   0.00000  -0.00000  -0.00000   3.14159
   D42       -0.00000   0.00000   0.00000   0.00000   0.00000  -0.00000
   D43       -0.00000   0.00000   0.00000   0.00000   0.00000   0.00000
   D44       -3.14159   0.00000   0.00000   0.00000   0.00000  -3.14159
   D45       -3.14159  -0.00000   0.00000  -0.00000  -0.00000  -3.14159
   D46        0.00000  -0.00000   0.00000  -0.00000  -0.00000   0.00000
   D47       -0.00000   0.00000   0.00000   0.00000   0.00000  -0.00000
   D48        3.14159   0.00000   0.00000   0.00000   0.00000   3.14159
   D49        3.14159   0.00000   0.00000   0.00000   0.00000   3.14159
   D50       -0.00000   0.00000   0.00000   0.00000   0.00000  -0.00000
   D51        0.00000  -0.00000   0.00000  -0.00000  -0.00000   0.00000
   D52       -3.14159  -0.00000   0.00000  -0.00000  -0.00000  -3.14159
   D53       -3.14159  -0.00000   0.00000  -0.00000  -0.00000  -3.14159
   D54        0.00000  -0.00000   0.00000  -0.00000  -0.00000   0.00000
         Item               Value     Threshold  Converged?
 Maximum Force            0.020425     0.000450     NO 
 RMS     Force            0.004634     0.000300     NO 
 Maximum Displacement     0.190119     0.001800     NO 
 RMS     Displacement     0.032409     0.001200     NO 
 Predicted change in Energy=-3.737004D-03
 GradGradGradGradGradGradGradGradGradGradGradGradGradGradGradGradGradGrad

 Leave Link  103 at Fri Sep  3 00:11:25 2021, MaxMem=  268435456 cpu:       0.1
 (Enter /sw/target/amd/app/gaussian/Gaussian09RevA.02_gcc-4.9.2/g09/l202.exe)
                          Input orientation:                          
 ---------------------------------------------------------------------
 Center     Atomic      Atomic             Coordinates (Angstroms)
 Number     Number       Type             X           Y           Z
 ---------------------------------------------------------------------
      1          6           0        4.536192   -0.774755    0.289064
      2          8           0        3.382117   -1.548562   -0.004228
      3          6           0        2.166396   -0.919724    0.013634
      4          6           0        1.983241    0.450096    0.304940
      5          6           0        0.712834    0.996225    0.298482
      6          6           0       -0.423597    0.210053    0.004178
      7          6           0       -1.744315    0.751279   -0.008540
      8          8           0       -1.826910    2.083944    0.284649
      9          6           0       -3.111127    2.683118    0.288787
     10          6           0       -2.829723   -0.055253   -0.302228
     11          6           0       -2.632458   -1.425573   -0.592201
[...]
     21          1           0       -4.302221   -1.271662    0.894543
     22          1           0       -4.009410   -2.790330   -0.000000
     23          1           0       -3.805060    0.817492    0.000002
     24          1           0       -2.734669    3.039125    0.000002
     25          1           0       -0.273417    3.270083    0.000000
     26          1           0        1.986111    2.195699   -0.000001
 ---------------------------------------------------------------------
 Rotational constants (GHZ):      1.5014215      0.4178313      0.3282372
 Leave Link  202 at Fri Sep  3 00:35:32 2021, MaxMem=  268435456 cpu:       0.0
 (Enter /sw/target/amd/app/gaussian/Gaussian09RevA.02_gcc-4.9.2/g09/l601.exe)
 Copying SCF densities to generalized density rwf, IOpCl= 0 IROHF=0.

 **********************************************************************

            Population analysis using the SCF density.

 **********************************************************************

 Orbital symmetries:
       Occupied  (A) (A) (A) (A) (A) (A) (A) (A) (A) (A) (A) (A)
                 (A) (A) (A) (A) (A) (A) (A) (A) (A) (A) (A) (A)
                 (A) (A) (A) (A) (A) (A) (A) (A) (A) (A) (A) (A)
                 (A) (A) (A) (A) (A) (A) (A) (A) (A) (A) (A) (A)
                 (A) (A)
       Virtual   (A) (A) (A) (A) (A) (A) (A) (A) (A) (A) (A) (A)
                 (A) (A) (A) (A) (A) (A) (A) (A) (A) (A) (A) (A)
                 (A) (A) (A) (A) (A) (A) (A) (A) (A) (A) (A) (A)
                 (A) (A) (A) (A) (A) (A) (A) (A) (A) (A) (A) (A)
                 (A) (A) (A) (A) (A) (A) (A) (A) (A) (A) (A) (A)
                 (A) (A) (A) (A) (A) (A) (A) (A) (A) (A) (A) (A)
                 (A) (A) (A) (A) (A) (A) (A) (A) (A) (A) (A) (A)
                 (A) (A) (A) (A) (A) (A) (A) (A) (A) (A) (A) (A)
                 (A) (A) (A) (A) (A) (A) (A) (A) (A) (A) (A) (A)
                 (A) (A) (A) (A) (A) (A) (A) (A) (A) (A) (A) (A)
                 (A) (A) (A) (A) (A) (A) (A) (A) (A) (A) (A) (A)
                 (A) (A) (A) (A) (A) (A) (A) (A) (A) (A) (A) (A)
                 (A) (A) (A) (A) (A) (A) (A) (A) (A) (A) (A) (A)
                 (A) (A) (A) (A) (A) (A) (A) (A) (A) (A) (A) (A)
                 (A) (A) (A) (A) (A) (A) (A) (A) (A) (A) (A) (A)
                 (A) (A) (A) (A)
 The electronic state is 1-A.
 Alpha  occ. eigenvalues --  -19.17781 -19.17296 -10.24367 -10.24221 -10.24062
 Alpha  occ. eigenvalues --  -10.23869 -10.19163 -10.18597 -10.18552 -10.18470
 Alpha  occ. eigenvalues --  -10.18439 -10.17819 -10.17455 -10.17419  -1.06345
 Alpha  occ. eigenvalues --   -1.05851  -0.86125  -0.81057  -0.76940  -0.73921
 Alpha  occ. eigenvalues --   -0.73275  -0.69199  -0.68473  -0.61954  -0.59779
 Alpha  occ. eigenvalues --   -0.57919  -0.53243  -0.51582  -0.51216  -0.48181
 Alpha  occ. eigenvalues --   -0.46786  -0.46459  -0.46385  -0.44898  -0.43105
 Alpha  occ. eigenvalues --   -0.41840  -0.41175  -0.39724  -0.38838  -0.38106
 Alpha  occ. eigenvalues --   -0.35630  -0.35606  -0.34654  -0.32952  -0.31884
 Alpha  occ. eigenvalues --   -0.31363  -0.29527  -0.25157  -0.21954  -0.19001
 Alpha virt. eigenvalues --   -0.02452   0.00646   0.04929   0.09639   0.10241
 Alpha virt. eigenvalues --    0.11126   0.11456   0.11645   0.13355   0.14864
 Alpha virt. eigenvalues --    0.15095   0.15682   0.16029   0.16713   0.16950
 Alpha virt. eigenvalues --    0.18976   0.20151   0.20914   0.21816   0.25157
 Alpha virt. eigenvalues --    0.25948   0.27534   0.29699   0.32482   0.34004
 Alpha virt. eigenvalues --    0.34515   0.38885   0.39128   0.46728   0.47759
 Alpha virt. eigenvalues --    0.50181   0.51118   0.51584   0.52271   0.53588
 Alpha virt. eigenvalues --    0.54043   0.55330   0.56037   0.56945   0.57140
 Alpha virt. eigenvalues --    0.58444   0.58881   0.58961   0.60201   0.61789
 Alpha virt. eigenvalues --    0.62758   0.62897   0.63584   0.63924   0.64173
 Alpha virt. eigenvalues --    0.68415   0.68560   0.69779   0.71873   0.73176
 Alpha virt. eigenvalues --    0.74639   0.77563   0.82811   0.83222   0.84175
 Alpha virt. eigenvalues --    0.84601   0.84854   0.85022   0.86147   0.86420
 Alpha virt. eigenvalues --    0.86714   0.86997   0.89247   0.90948   0.92836
 Alpha virt. eigenvalues --    0.93355   0.93736   0.95329   0.98766   0.99952
 Alpha virt. eigenvalues --    1.01724   1.03882   1.04674   1.04770   1.06165
 Alpha virt. eigenvalues --    1.06967   1.07388   1.11601   1.14106   1.20957
 Alpha virt. eigenvalues --    1.21396   1.24362   1.25002   1.25765   1.25931
 Alpha virt. eigenvalues --    1.29567   1.33681   1.36911   1.37382   1.38136
 Alpha virt. eigenvalues --    1.39414   1.39970   1.44989   1.47685   1.48141
 Alpha virt. eigenvalues --    1.48429   1.49586   1.49960   1.51993   1.52417
 Alpha virt. eigenvalues --    1.53100   1.56145   1.69637   1.69929   1.75306
 Alpha virt. eigenvalues --    1.77640   1.80327   1.81988   1.84157   1.85683
 Alpha virt. eigenvalues --    1.87400   1.89648   1.92406   1.93407   1.94876
 Alpha virt. eigenvalues --    1.95539   1.97140   1.97227   1.98419   2.02335
 Alpha virt. eigenvalues --    2.05359   2.06322   2.07191   2.08493   2.10959
 Alpha virt. eigenvalues --    2.11195   2.13791   2.16557   2.16721   2.19866
 Alpha virt. eigenvalues --    2.20896   2.22314   2.25974   2.26409   2.27326
 Alpha virt. eigenvalues --    2.28811   2.32495   2.34696   2.35990   2.38386
 Alpha virt. eigenvalues --    2.39503   2.41847   2.45783   2.53542   2.54794
 Alpha virt. eigenvalues --    2.57997   2.58764   2.63928   2.64416   2.64500
 Alpha virt. eigenvalues --    2.68691   2.69920   2.72168   2.80368   2.81166
 Alpha virt. eigenvalues --    2.83559   2.87918   2.89187   2.94573   3.00846
 Alpha virt. eigenvalues --    3.04363   3.13355   3.20473   3.39434   3.49952
 Alpha virt. eigenvalues --    4.05340   4.06461   4.10258   4.11266   4.13716
 Alpha virt. eigenvalues --    4.20973   4.22014   4.31343   4.32275   4.37846
 Alpha virt. eigenvalues --    4.42979   4.50957   4.65728   4.87049
          Condensed to atoms (all electrons):
              1          2          3          4          5          6
     1  C    4.891060   0.249580  -0.042806  -0.006650   0.000473  -0.000046
     2  O    0.249580   8.204423   0.270532  -0.057964   0.003729   0.000363
     3  C   -0.042806   0.270532   4.554467   0.425456   0.011039  -0.036975
     4  C   -0.006650  -0.057964   0.425456   5.154339   0.454700  -0.008799
     5  C    0.000473   0.003729   0.011039   0.454700   5.161427   0.413114
     6  C   -0.000046   0.000363  -0.036975  -0.008799   0.413114   4.901606
     7  C   -0.000000   0.000001  -0.000556   0.008146  -0.095078   0.409550
     8  O    0.000000   0.000000   0.000008   0.000635   0.000274  -0.067870
     9  C   -0.000000  -0.000000  -0.000000  -0.000002  -0.000510   0.005326
    10  C    0.000000  -0.000000   0.000038  -0.000340   0.016590  -0.042726
    11  C   -0.000000   0.000000  -0.000340   0.000090  -0.002191  -0.040922
    12  C    0.000003  -0.000073   0.007841  -0.000575   0.016202  -0.034914
    13  C   -0.000028   0.001883   0.009328  -0.037865  -0.048509   0.493494
    14  C    0.003772  -0.048793   0.501473  -0.057595  -0.069273  -0.033032
    15  H    0.362772  -0.035392  -0.004308   0.003889  -0.000171  -0.000002
    16  H    0.386627  -0.033921   0.003222   0.000250   0.000003   0.000000
    17  H    0.362773  -0.035392  -0.004308   0.003889  -0.000171  -0.000002
    18  H    0.006169  -0.007494  -0.043755   0.352419  -0.034923   0.002416
    19  H   -0.000006  -0.000047   0.003101  -0.043686   0.357369  -0.035109
    20  H    0.000000   0.000000   0.000000   0.000001   0.000073  -0.000368
    21  H    0.000000   0.000000   0.000000   0.000001   0.000073  -0.000368
    22  H   -0.000000  -0.000000   0.000000  -0.000002  -0.000084   0.000141
    23  H   -0.000000   0.000000  -0.000000   0.000003  -0.000135   0.002749
    24  H    0.000000  -0.000000   0.000003  -0.000001   0.000018   0.001266
    25  H    0.000000  -0.000002   0.000176   0.000008  -0.000168   0.004738
    26  H   -0.000227   0.000417  -0.040133   0.007429  -0.000103   0.004983
              7          8          9         10         11         12
     1  C   -0.000000   0.000000  -0.000000   0.000000  -0.000000   0.000003
     2  O    0.000001   0.000000  -0.000000  -0.000000   0.000000  -0.000073
     3  C   -0.000556   0.000008  -0.000000   0.000038  -0.000340   0.007841
     4  C    0.008146   0.000635  -0.000002  -0.000340   0.000090  -0.000575
     5  C   -0.095078   0.000274  -0.000510   0.016590  -0.002191   0.016202
     6  C    0.409550  -0.067870   0.005326  -0.042726  -0.040922  -0.034914
     7  C    4.771928   0.297889  -0.045728   0.419910   0.024470  -0.071344
     8  O    0.297889   8.200109   0.250836  -0.077687   0.003831   0.000109
     9  C   -0.045728   0.250836   4.894179  -0.008901   0.000342  -0.000034
    10  C    0.419910  -0.077687  -0.008901   5.211133   0.441082  -0.020816
    11  C    0.024470   0.003831   0.000342   0.441082   4.902332   0.522965
    12  C   -0.071344   0.000109  -0.000034  -0.020816   0.522965   5.106122
    13  C   -0.001770   0.002996   0.000011  -0.055795   0.011070   0.438224
    14  C    0.014136  -0.000072   0.000005  -0.000618   0.008573  -0.087025
    15  H    0.000000   0.000000   0.000000   0.000000  -0.000000  -0.000000
    16  H   -0.000000   0.000000  -0.000000   0.000000   0.000000  -0.000000
    17  H    0.000000   0.000000   0.000000   0.000000  -0.000000  -0.000000
    18  H   -0.000177  -0.000006   0.000000   0.000003  -0.000000   0.000010
    19  H   -0.011104   0.011909  -0.000519   0.000479  -0.000016  -0.000173
    20  H   -0.004734  -0.035472   0.362603   0.006441  -0.000123  -0.000001
    21  H   -0.004734  -0.035472   0.362603   0.006441  -0.000123  -0.000001
    22  H    0.002974  -0.033877   0.386348   0.000085  -0.000001  -0.000000
    23  H   -0.042904  -0.008090   0.006691   0.353936  -0.037437   0.004136
    24  H    0.002857  -0.000050  -0.000010  -0.039129   0.354186  -0.034487
    25  H    0.000506   0.000002  -0.000000   0.004871  -0.045181   0.355080
    26  H   -0.000135   0.000000  -0.000000   0.000014   0.000252  -0.009138
             13         14         15         16         17         18
     1  C   -0.000028   0.003772   0.362772   0.386627   0.362773   0.006169
     2  O    0.001883  -0.048793  -0.035392  -0.033921  -0.035392  -0.007494
     3  C    0.009328   0.501473  -0.004308   0.003222  -0.004308  -0.043755
     4  C   -0.037865  -0.057595   0.003889   0.000250   0.003889   0.352419
     5  C   -0.048509  -0.069273  -0.000171   0.000003  -0.000171  -0.034923
     6  C    0.493494  -0.033032  -0.000002   0.000000  -0.000002   0.002416
     7  C   -0.001770   0.014136   0.000000  -0.000000   0.000000  -0.000177
     8  O    0.002996  -0.000072   0.000000   0.000000   0.000000  -0.000006
     9  C    0.000011   0.000005   0.000000  -0.000000   0.000000   0.000000
    10  C   -0.055795  -0.000618   0.000000   0.000000   0.000000   0.000003
    11  C    0.011070   0.008573  -0.000000   0.000000  -0.000000  -0.000000
    12  C    0.438224  -0.087025  -0.000000  -0.000000  -0.000000   0.000010
    13  C    4.684824   0.433229   0.000003   0.000001   0.000003   0.000976
    14  C    0.433229   5.267568   0.000060  -0.000089   0.000060   0.004144
    15  H    0.000003   0.000060   0.602000  -0.032118  -0.049772   0.001816
    16  H    0.000001  -0.000089  -0.032118   0.539441  -0.032118  -0.000096
    17  H    0.000003   0.000060  -0.049772  -0.032118   0.602000   0.001816
    18  H    0.000976   0.004144   0.001816  -0.000096   0.001816   0.591671
    19  H    0.004091   0.000603   0.000002  -0.000000   0.000002  -0.005027
    20  H   -0.000024  -0.000000  -0.000000   0.000000  -0.000000  -0.000000
    21  H   -0.000024  -0.000000  -0.000000   0.000000  -0.000000  -0.000000
    22  H    0.000006  -0.000000   0.000000  -0.000000   0.000000   0.000000
    23  H    0.000825   0.000009   0.000000  -0.000000   0.000000  -0.000000
    24  H    0.002527  -0.000237   0.000000  -0.000000   0.000000  -0.000000
    25  H   -0.041556  -0.008154  -0.000000  -0.000000  -0.000000  -0.000000
    26  H   -0.042577   0.343634   0.000030  -0.000029   0.000030  -0.000170
             19         20         21         22         23         24
     1  C   -0.000006   0.000000   0.000000  -0.000000  -0.000000   0.000000
     2  O   -0.000047   0.000000   0.000000  -0.000000   0.000000  -0.000000
     3  C    0.003101   0.000000   0.000000   0.000000  -0.000000   0.000003
     4  C   -0.043686   0.000001   0.000001  -0.000002   0.000003  -0.000001
     5  C    0.357369   0.000073   0.000073  -0.000084  -0.000135   0.000018
     6  C   -0.035109  -0.000368  -0.000368   0.000141   0.002749   0.001266
     7  C   -0.011104  -0.004734  -0.004734   0.002974  -0.042904   0.002857
     8  O    0.011909  -0.035472  -0.035472  -0.033877  -0.008090  -0.000050
     9  C   -0.000519   0.362603   0.362603   0.386348   0.006691  -0.000010
    10  C    0.000479   0.006441   0.006441   0.000085   0.353936  -0.039129
    11  C   -0.000016  -0.000123  -0.000123  -0.000001  -0.037437   0.354186
    12  C   -0.000173  -0.000001  -0.000001  -0.000000   0.004136  -0.034487
    13  C    0.004091  -0.000024  -0.000024   0.000006   0.000825   0.002527
    14  C    0.000603  -0.000000  -0.000000  -0.000000   0.000009  -0.000237
    15  H    0.000002  -0.000000  -0.000000   0.000000   0.000000   0.000000
    16  H   -0.000000   0.000000   0.000000  -0.000000  -0.000000  -0.000000
    17  H    0.000002  -0.000000  -0.000000   0.000000   0.000000   0.000000
    18  H   -0.005027  -0.000000  -0.000000   0.000000  -0.000000  -0.000000
    19  H    0.569410   0.000028   0.000028  -0.000002  -0.000006   0.000000
    20  H    0.000028   0.598067  -0.049573  -0.031887   0.001500   0.000003
    21  H    0.000028  -0.049573   0.598067  -0.031887   0.001500   0.000003
    22  H   -0.000002  -0.031887  -0.031887   0.540399  -0.000042  -0.000000
    23  H   -0.000006   0.001500   0.001500  -0.000042   0.596150  -0.005105
    24  H    0.000000   0.000003   0.000003  -0.000000  -0.005105   0.597323
    25  H    0.000002   0.000000   0.000000  -0.000000  -0.000178  -0.005275
    26  H    0.000017   0.000000   0.000000   0.000000   0.000000  -0.000011
             25         26
     1  C    0.000000  -0.000227
     2  O   -0.000002   0.000417
     3  C    0.000176  -0.040133
     4  C    0.000008   0.007429
     5  C   -0.000168  -0.000103
     6  C    0.004738   0.004983
     7  C    0.000506  -0.000135
     8  O    0.000002   0.000000
     9  C   -0.000000  -0.000000
    10  C    0.004871   0.000014
    11  C   -0.045181   0.000252
    12  C    0.355080  -0.009138
    13  C   -0.041556  -0.042577
    14  C   -0.008154   0.343634
    15  H   -0.000000   0.000030
    16  H   -0.000000  -0.000029
    17  H   -0.000000   0.000030
    18  H   -0.000000  -0.000170
    19  H    0.000002   0.000017
    20  H    0.000000   0.000000
    21  H    0.000000   0.000000
    22  H   -0.000000   0.000000
    23  H   -0.000178   0.000000
    24  H   -0.005275  -0.000011
    25  H    0.606115   0.005705
    26  H    0.005705   0.596639
 Mulliken atomic charges:
              1
     1  C   -0.213465
     2  O   -0.511851
     3  C    0.386498
     4  C   -0.197778
     5  C   -0.183767
     6  C    0.061386
     7  C    0.325895
     8  O   -0.510001
     9  C   -0.213240
    10  C   -0.215011
    11  C   -0.142858
    12  C   -0.192111
    13  C    0.144654
    14  C   -0.272376
    15  H    0.151189
    16  H    0.168827
    17  H    0.151189
    18  H    0.130208
    19  H    0.148652
    20  H    0.153466
    21  H    0.153466
    22  H    0.167828
    23  H    0.126399
    24  H    0.126118
    25  H    0.123311
    26  H    0.133372
 Sum of Mulliken atomic charges =  -0.00000
 Mulliken charges with hydrogens summed into heavy atoms:
              1
     1  C    0.257739
     2  O   -0.511851
     3  C    0.386498
     4  C   -0.067570
     5  C   -0.035115
     6  C    0.061386
     7  C    0.325895
     8  O   -0.510001
     9  C    0.261520
    10  C   -0.088611
    11  C   -0.016739
    12  C   -0.068800
    13  C    0.144654
    14  C   -0.139005
 Sum of Mulliken charges with hydrogens summed into heavy atoms =  -0.00000
 Electronic spatial extent (au):  <R**2>=           3286.2704
 Charge=             -0.0000 electrons
 Dipole moment (field-independent basis, Debye):
    X=             -0.6672    Y=             -1.5383    Z=              0.0000  Tot=              1.6768
 Quadrupole moment (field-independent basis, Debye-Ang):
   XX=            -61.5956   YY=            -75.1197   ZZ=            -84.9856
   XY=             -3.0900   XZ=              0.0000   YZ=              0.0000
 Traceless Quadrupole moment (field-independent basis, Debye-Ang):
   XX=             12.3047   YY=             -1.2194   ZZ=            -11.0853
   XY=             -3.0900   XZ=              0.0000   YZ=              0.0000
 Octapole moment (field-independent basis, Debye-Ang**2):
  XXX=             -3.3917  YYY=             -4.3680  ZZZ=              0.0000  XYY=             -1.7047
  XXY=            -40.1202  XXZ=              0.0002  XZZ=              3.1942  YZZ=             -6.3503
  YYZ=             -0.0000  XYZ=             -0.0000
 Hexadecapole moment (field-independent basis, Debye-Ang**3):
 XXXX=          -2730.9612 YYYY=           -922.0921 ZZZZ=            -98.1842 XXXY=            -15.7411
 XXXZ=              0.0008 YYYX=             28.8602 YYYZ=              0.0000 ZZZX=              0.0000
 ZZZY=             -0.0000 XXYY=           -638.5427 XXZZ=           -565.5609 YYZZ=           -195.0142
 XXYZ=              0.0000 YYXZ=             -0.0001 ZZXY=             11.4393
 N-N= 8.384009476153D+02 E-N=-3.106839923659D+03  KE= 6.091881750146D+02
 No NMR shielding tensors so no spin-rotation constants.
 Leave Link  601 at Fri Sep  3 00:35:32 2021, MaxMem=  268435456 cpu:       0.4
 (Enter /sw/target/amd/app/gaussian/Gaussian09RevA.02_gcc-4.9.2/g09/l9999.exe)
 1\1\GINC-HERMITE\FOpt\RB3LYP\6-31G(d)\C12H12O2\JSCHLEINITZ\03-Sep-2021
 \0\\#p b3lyp 6-31G* opt scf(xqc,tight)\\opt calculation\\0,1\C,4.53943
 76802,-0.7751533645,0.289309258\O,3.3832765586,-1.5422358453,-0.002682
 9802\C,2.1643876515,-0.9224696355,0.0128033163\C,1.9825264397,0.452557
 5179,0.3054190844\C,0.7138719561,0.9951573963,0.2983442712\C,-0.421951
 7947,0.2060864274,0.0034474308\C,-1.7489645584,0.747532024,-0.00986376
 32\O,-1.8283224222,2.0791569097,0.2834226564\C,-3.1077840924,2.6894175
 781,0.2905565756\C,-2.8330044963,-0.0554041062,-0.3025971106\C,-2.6319
 931737,-1.4294457855,-0.5930289787\C,-1.3778827501,-1.9863872209,-0.59
 06893467\C,-0.2388238676,-1.1835430098,-0.2923436634\C,1.0696464854,-1
 .7171851168,-0.279164849\H,4.681427623,0.0391485992,-0.4337430513\H,5.
 3812520043,-1.466823756,0.2189359537\H,4.5036341561,-0.3539316145,1.30
 28890072\H,2.8314429909,1.0859984822,0.5357145291\H,0.5761753053,2.047
 0627606,0.5223436656\H,-3.766209493,2.2336080735,1.0417046362\H,-3.588
 4373632,2.6266193265,-0.6946025697\H,-2.9392805582,3.7375431543,0.5450
 509235\H,-3.8397002031,0.3452395089,-0.3149828951\H,-3.4989931298,-2.0
 441785134,-0.8209410375\H,-1.2364666335,-3.0401893014,-0.8147370866\H,
 1.2307335161,-2.7681798622,-0.5005633258\\Version=AM64L-G09RevA.02\Sta
 te=1-A\HF=-614.9374106\RMSD=4.488e-09\RMSF=1.038e-05\Dipole=-0.0652417
 ,0.6416732,0.1385578\Quadrupole=9.3723867,-1.5909796,-7.7814071,-1.405
 3273,1.4852853,1.3614966\PG=C01 [X(C12H12O2)]\\@


 NO MATTER HOW THIN YOU SLICE IT, IT'S STILL BALONEY

                                   -- ALFRED E. SMITH
 Job cpu time:  0 days  0 hours 28 minutes 39.1 seconds.
 File lengths (MBytes):  RWF=     42 Int=      0 D2E=      0 Chk=      5 Scr=      1
 Normal termination of Gaussian 09 at Fri Sep  3 00:35:32 2021.
