 Entering Gaussian System, Link 0=g09
 Input=mol_inp010.com
 Output=mol_inp010.log
 Initial command:
 /sw/target/amd/app/gaussian/Gaussian09RevA.02_gcc-4.9.2/g09/l1.exe /home/jschleinitz/optim_react/010/Gau-2803760.inp -scrdir=/home/jschleinitz/optim_react/010/
 Entering Link 1 = /sw/target/amd/app/gaussian/Gaussian09RevA.02_gcc-4.9.2/g09/l1.exe PID=   2803762.
  
 Copyright (c) 1988,1990,1992,1993,1995,1998,2003,2009, Gaussian, Inc.
                  All Rights Reserved.
  
 This is part of the Gaussian(R) 09 program.  It is based on
 the Gaussian(R) 03 system (copyright 2003, Gaussian, Inc.),
 the Gaussian(R) 98 system (copyright 1998, Gaussian, Inc.),
 the Gaussian(R) 94 system (copyright 1995, Gaussian, Inc.),
 the Gaussian 92(TM) system (copyright 1992, Gaussian, Inc.),
 the Gaussian 90(TM) system (copyright 1990, Gaussian, Inc.),
 the Gaussian 88(TM) system (copyright 1988, Gaussian, Inc.),
 the Gaussian 86(TM) system (copyright 1986, Carnegie Mellon
 University), and the Gaussian 82(TM) system (copyright 1983,
 Carnegie Mellon University). Gaussian is a federally registered
 trademark of Gaussian, Inc.
  
 This software contains proprietary and confidential information,
 including trade secrets, belonging to Gaussian, Inc.
  
 This software is provided under written license and may be
 used, copied, transmitted, or stored only in accord with that
 written license.
  
 The following legend is applicable only to US Government
 contracts under FAR:
  
                    RESTRICTED RIGHTS LEGEND
  
 Use, reproduction and disclosure by the US Government is
 subject to restrictions as set forth in subparagraphs (a)
 and (c) of the Commercial Computer Software - Restricted
 Rights clause in FAR 52.227-19.
  
 Gaussian, Inc.
 340 Quinnipiac St., Bldg. 40, Wallingford CT 06492
  
  
 ---------------------------------------------------------------
 Warning -- This program may not be used in any manner that
 competes with the business of Gaussian, Inc. or will provide
 assistance to any competitor of Gaussian, Inc.  The licensee
 of this program is prohibited from giving any competitor of
 Gaussian, Inc. access to this program.  By using this program,
 the user acknowledges that Gaussian, Inc. is engaged in the
 business of creating and licensing software in the field of
 computational chemistry and represents and warrants to the
 licensee that it is not a competitor of Gaussian, Inc. and that
 it will not use this program in any manner prohibited above.
 ---------------------------------------------------------------
  

 Cite this work as:
 Gaussian 09, Revision A.02,
 M. J. Frisch, G. W. Trucks, H. B. Schlegel, G. E. Scuseria, 
 M. A. Robb, J. R. Cheeseman, G. Scalmani, V. Barone, B. Mennucci, 
 G. A. Petersson, H. Nakatsuji, M. Caricato, X. Li, H. P. Hratchian, 
 A. F. Izmaylov, J. Bloino, G. Zheng, J. L. Sonnenberg, M. Hada, 
 M. Ehara, K. Toyota, R. Fukuda, J. Hasegawa, M. Ishida, T. Nakajima, 
 Y. Honda, O. Kitao, H. Nakai, T. Vreven, J. A. Montgomery, Jr., 
 J. E. Peralta, F. Ogliaro, M. Bearpark, J. J. Heyd, E. Brothers, 
 K. N. Kudin, V. N. Staroverov, R. Kobayashi, J. Normand, 
 K. Raghavachari, A. Rendell, J. C. Burant, S. S. Iyengar, J. Tomasi, 
 M. Cossi, N. Rega, J. M. Millam, M. Klene, J. E. Knox, J. B. Cross, 
 V. Bakken, C. Adamo, J. Jaramillo, R. Gomperts, R. E. Stratmann, 
 O. Yazyev, A. J. Austin, R. Cammi, C. Pomelli, J. W. Ochterski, 
 R. L. Martin, K. Morokuma, V. G. Zakrzewski, G. A. Voth, 
 P. Salvador, J. J. Dannenberg, S. Dapprich, A. D. Daniels, 
 O. Farkas, J. B. Foresman, J. V. Ortiz, J. Cioslowski, 
 and D. J. Fox, Gaussian, Inc., Wallingford CT, 2009.
 
 ******************************************
 Gaussian 09:  AM64L-G09RevA.02 11-Jun-2009
                 3-Sep-2021 
 ******************************************
 %chk=opt.chk
 %mem=2gb
 %nproc=1
 Will use up to    1 processors via shared memory.
 ----------------------------------
 #p b3lyp 6-31G* opt scf(xqc,tight)
 ----------------------------------
 1/14=-1,18=20,19=15,26=3,38=1/1,3;
 2/9=110,12=2,17=6,18=5,40=1/2;
 3/5=1,6=6,7=1,11=2,16=1,25=1,30=1,71=1,74=-5/1,2,3;
 4//1;
 5/5=2,8=3,13=1,32=2,38=5/2,8;
 6/7=2,8=2,9=2,10=2,28=1/1;
 7//1,2,3,16;
 1/14=-1,18=20,19=15/3(2);
 2/9=110/2;
 99//99;
 2/9=110/2;
 3/5=1,6=6,7=1,11=2,16=1,25=1,30=1,71=1,74=-5/1,2,3;
 4/5=5,16=3/1;
 5/5=2,8=3,13=1,32=2,38=5/2,8;
 7//1,2,3,16;
 1/14=-1,18=20,19=15/3(-5);
 2/9=110/2;
 6/7=2,8=2,9=2,10=2,19=2,28=1/1;
 99/9=1/99;
 Leave Link    1 at Fri Sep  3 00:03:59 2021, MaxMem=  268435456 cpu:       0.0
 (Enter /sw/target/amd/app/gaussian/Gaussian09RevA.02_gcc-4.9.2/g09/l101.exe)
 ---------------
 opt calculation
 ---------------
 Symbolic Z-matrix:
 Charge =  0 Multiplicity = 1
 C                     3.78768   1.18835  -0.54048 
 O                     3.07319  -0.02408  -0.7433 
 C                     1.79492  -0.07658  -0.26018 
 C                     1.14098  -1.29227  -0.47013 
 C                    -0.1701   -1.48353  -0.02847 
 C                    -0.84918  -0.45479   0.63362 
 C                    -2.27547  -0.64843   1.09394 
 C                    -3.28855  -0.01943   0.13769 
 O                    -3.35186  -0.7376   -1.09078 
 C                    -0.1918    0.76432   0.84187 
 C                     1.12245   0.95227   0.39855 
 H                     4.78471   1.06538  -0.97437 
 H                     3.30151   2.0237   -1.05515 
 H                     3.91284   1.39948   0.5267 
 H                     1.65903  -2.0997   -0.9822 
 H                    -0.65494  -2.44129  -0.20651 
 H                    -2.48035  -1.72095   1.19958 
 H                    -2.38548  -0.2063    2.09163 
 H                    -3.05724   1.02831  -0.08126 
 H                    -4.28664  -0.05726   0.58535 
 H                    -2.47771  -0.65322  -1.51284 
 H                    -0.69772   1.58022   1.35397 
 H                     1.58976   1.9134    0.58432 
 
 NAtoms=     23 NQM=     23 NQMF=      0 NMic=      0 NMicF=      0 NTot=     23.
                    Isotopes and Nuclear Properties:
 (Nuclear quadrupole moments (NQMom) in fm**2, nuclear magnetic moments (NMagM)
  in nuclear magnetons)

  Atom         1           2           3           4           5           6           7           8           9          10
 IAtWgt=          12          16          12          12          12          12          12          12          16          12
 AtmWgt=  12.0000000  15.9949146  12.0000000  12.0000000  12.0000000  12.0000000  12.0000000  12.0000000  15.9949146  12.0000000
 NucSpn=           0           0           0           0           0           0           0           0           0           0
 AtZEff=   0.0000000   0.0000000   0.0000000   0.0000000   0.0000000   0.0000000   0.0000000   0.0000000   0.0000000   0.0000000
 NQMom=    0.0000000   0.0000000   0.0000000   0.0000000   0.0000000   0.0000000   0.0000000   0.0000000   0.0000000   0.0000000
 NMagM=    0.0000000   0.0000000   0.0000000   0.0000000   0.0000000   0.0000000   0.0000000   0.0000000   0.0000000   0.0000000

  Atom        11          12          13          14          15          16          17          18          19          20
 IAtWgt=          12           1           1           1           1           1           1           1           1           1
 AtmWgt=  12.0000000   1.0078250   1.0078250   1.0078250   1.0078250   1.0078250   1.0078250   1.0078250   1.0078250   1.0078250
 NucSpn=           0           1           1           1           1           1           1           1           1           1
 AtZEff=   0.0000000   0.0000000   0.0000000   0.0000000   0.0000000   0.0000000   0.0000000   0.0000000   0.0000000   0.0000000
 NQMom=    0.0000000   0.0000000   0.0000000   0.0000000   0.0000000   0.0000000   0.0000000   0.0000000   0.0000000   0.0000000
 NMagM=    0.0000000   2.7928460   2.7928460   2.7928460   2.7928460   2.7928460   2.7928460   2.7928460   2.7928460   2.7928460

  Atom        21          22          23
 IAtWgt=           1           1           1
 AtmWgt=   1.0078250   1.0078250   1.0078250
 NucSpn=           1           1           1
 AtZEff=   0.0000000   0.0000000   0.0000000
 NQMom=    0.0000000   0.0000000   0.0000000
 NMagM=    2.7928460   2.7928460   2.7928460
 Leave Link  101 at Fri Sep  3 00:03:59 2021, MaxMem=  268435456 cpu:       0.1
 (Enter /sw/target/amd/app/gaussian/Gaussian09RevA.02_gcc-4.9.2/g09/l103.exe)

 GradGradGradGradGradGradGradGradGradGradGradGradGradGradGradGradGradGrad
 Berny optimization.
 Initialization pass.
                           ----------------------------
                           !    Initial Parameters    !
                           ! (Angstroms and Degrees)  !
 --------------------------                            --------------------------
 ! Name  Definition              Value          Derivative Info.                !
 --------------------------------------------------------------------------------
 ! R1    R(1,2)                  1.4218         estimate D2E/DX2                !
 ! R2    R(1,12)                 1.0943         estimate D2E/DX2                !
 ! R3    R(1,13)                 1.095          estimate D2E/DX2                !
 ! R4    R(1,14)                 1.095          estimate D2E/DX2                !
 ! R5    R(2,3)                  1.3675         estimate D2E/DX2                !
 ! R6    R(3,4)                  1.3963         estimate D2E/DX2                !
 ! R7    R(3,11)                 1.3945         estimate D2E/DX2                !
 ! R8    R(4,5)                  1.3966         estimate D2E/DX2                !
 ! R9    R(4,15)                 1.0874         estimate D2E/DX2                !
 ! R10   R(5,6)                  1.3992         estimate D2E/DX2                !
 ! R11   R(5,16)                 1.0881         estimate D2E/DX2                !
 ! R12   R(6,7)                  1.5112         estimate D2E/DX2                !
 ! R13   R(6,10)                 1.4006         estimate D2E/DX2                !
 ! R14   R(7,8)                  1.5285         estimate D2E/DX2                !
 ! R15   R(7,17)                 1.097          estimate D2E/DX2                !
 ! R16   R(7,18)                 1.0968         estimate D2E/DX2                !
 ! R17   R(8,9)                  1.4244         estimate D2E/DX2                !
 ! R18   R(8,19)                 1.0951         estimate D2E/DX2                !
 ! R19   R(8,20)                 1.0945         estimate D2E/DX2                !
 ! R20   R(9,21)                 0.9744         estimate D2E/DX2                !
 ! R21   R(10,11)                1.3997         estimate D2E/DX2                !
 ! R22   R(10,22)                1.0881         estimate D2E/DX2                !
 ! R23   R(11,23)                1.0847         estimate D2E/DX2                !
 ! A1    A(2,1,12)             107.7866         estimate D2E/DX2                !
 ! A2    A(2,1,13)             111.1227         estimate D2E/DX2                !
 ! A3    A(2,1,14)             111.1528         estimate D2E/DX2                !
 ! A4    A(12,1,13)            107.6913         estimate D2E/DX2                !
 ! A5    A(12,1,14)            107.6944         estimate D2E/DX2                !
 ! A6    A(13,1,14)            111.2056         estimate D2E/DX2                !
 ! A7    A(1,2,3)              116.8755         estimate D2E/DX2                !
 ! A8    A(2,3,4)              114.713          estimate D2E/DX2                !
 ! A9    A(2,3,11)             126.1079         estimate D2E/DX2                !
 ! A10   A(4,3,11)             119.179          estimate D2E/DX2                !
 ! A11   A(3,4,5)              120.7526         estimate D2E/DX2                !
 ! A12   A(3,4,15)             119.6139         estimate D2E/DX2                !
 ! A13   A(5,4,15)             119.6335         estimate D2E/DX2                !
 ! A14   A(4,5,6)              120.3015         estimate D2E/DX2                !
 ! A15   A(4,5,16)             119.1475         estimate D2E/DX2                !
 ! A16   A(6,5,16)             120.551          estimate D2E/DX2                !
 ! A17   A(5,6,7)              120.5296         estimate D2E/DX2                !
 ! A18   A(5,6,10)             118.8496         estimate D2E/DX2                !
 ! A19   A(7,6,10)             120.6121         estimate D2E/DX2                !
 ! A20   A(6,7,8)              112.4732         estimate D2E/DX2                !
 ! A21   A(6,7,17)             109.3222         estimate D2E/DX2                !
 ! A22   A(6,7,18)             108.6684         estimate D2E/DX2                !
 ! A23   A(8,7,17)             109.8032         estimate D2E/DX2                !
 ! A24   A(8,7,18)             109.6768         estimate D2E/DX2                !
 ! A25   A(17,7,18)            106.725          estimate D2E/DX2                !
 ! A26   A(7,8,9)              111.1939         estimate D2E/DX2                !
 ! A27   A(7,8,19)             112.26           estimate D2E/DX2                !
 ! A28   A(7,8,20)             109.5287         estimate D2E/DX2                !
 ! A29   A(9,8,19)             108.6238         estimate D2E/DX2                !
 ! A30   A(9,8,20)             107.1444         estimate D2E/DX2                !
 ! A31   A(19,8,20)            107.9061         estimate D2E/DX2                !
 ! A32   A(8,9,21)             106.8606         estimate D2E/DX2                !
 ! A33   A(6,10,11)            120.6963         estimate D2E/DX2                !
 ! A34   A(6,10,22)            120.2938         estimate D2E/DX2                !
 ! A35   A(11,10,22)           119.0098         estimate D2E/DX2                !
 ! A36   A(3,11,10)            120.2209         estimate D2E/DX2                !
 ! A37   A(3,11,23)            121.7935         estimate D2E/DX2                !
 ! A38   A(10,11,23)           117.9856         estimate D2E/DX2                !
 ! D1    D(12,1,2,3)           179.5949         estimate D2E/DX2                !
 ! D2    D(13,1,2,3)           -62.6259         estimate D2E/DX2                !
 ! D3    D(14,1,2,3)            61.7948         estimate D2E/DX2                !
 ! D4    D(1,2,3,4)           -179.2896         estimate D2E/DX2                !
 ! D5    D(1,2,3,11)             0.7838         estimate D2E/DX2                !
 ! D6    D(2,3,4,5)           -179.9572         estimate D2E/DX2                !
 ! D7    D(2,3,4,15)             0.1256         estimate D2E/DX2                !
 ! D8    D(11,3,4,5)            -0.0251         estimate D2E/DX2                !
 ! D9    D(11,3,4,15)         -179.9423         estimate D2E/DX2                !
 ! D10   D(2,3,11,10)          179.9129         estimate D2E/DX2                !
 ! D11   D(2,3,11,23)           -0.0913         estimate D2E/DX2                !
 ! D12   D(4,3,11,10)           -0.0108         estimate D2E/DX2                !
 ! D13   D(4,3,11,23)          179.985          estimate D2E/DX2                !
 ! D14   D(3,4,5,6)             -0.0083         estimate D2E/DX2                !
 ! D15   D(3,4,5,16)           179.963          estimate D2E/DX2                !
 ! D16   D(15,4,5,6)           179.9089         estimate D2E/DX2                !
 ! D17   D(15,4,5,16)           -0.1198         estimate D2E/DX2                !
 ! D18   D(4,5,6,7)            179.0086         estimate D2E/DX2                !
 ! D19   D(4,5,6,10)             0.0766         estimate D2E/DX2                !
 ! D20   D(16,5,6,7)            -0.9623         estimate D2E/DX2                !
 ! D21   D(16,5,6,10)         -179.8944         estimate D2E/DX2                !
 ! D22   D(5,6,7,8)            -99.6929         estimate D2E/DX2                !
 ! D23   D(5,6,7,17)            22.5536         estimate D2E/DX2                !
 ! D24   D(5,6,7,18)           138.6802         estimate D2E/DX2                !
 ! D25   D(10,6,7,8)            79.2203         estimate D2E/DX2                !
 ! D26   D(10,6,7,17)         -158.5333         estimate D2E/DX2                !
 ! D27   D(10,6,7,18)          -42.4066         estimate D2E/DX2                !
 ! D28   D(5,6,10,11)           -0.1128         estimate D2E/DX2                !
 ! D29   D(5,6,10,22)          179.993          estimate D2E/DX2                !
 ! D30   D(7,6,10,11)         -179.0439         estimate D2E/DX2                !
 ! D31   D(7,6,10,22)            1.0619         estimate D2E/DX2                !
 ! D32   D(6,7,8,9)             70.0231         estimate D2E/DX2                !
 ! D33   D(6,7,8,19)           -51.9023         estimate D2E/DX2                !
 ! D34   D(6,7,8,20)          -171.7482         estimate D2E/DX2                !
 ! D35   D(17,7,8,9)           -51.951          estimate D2E/DX2                !
 ! D36   D(17,7,8,19)         -173.8763         estimate D2E/DX2                !
 ! D37   D(17,7,8,20)           66.2777         estimate D2E/DX2                !
 ! D38   D(18,7,8,9)          -168.9259         estimate D2E/DX2                !
 ! D39   D(18,7,8,19)           69.1488         estimate D2E/DX2                !
 ! D40   D(18,7,8,20)          -50.6972         estimate D2E/DX2                !
 ! D41   D(7,8,9,21)           -63.8792         estimate D2E/DX2                !
 ! D42   D(19,8,9,21)           60.136          estimate D2E/DX2                !
 ! D43   D(20,8,9,21)          176.463          estimate D2E/DX2                !
 ! D44   D(6,10,11,3)            0.0807         estimate D2E/DX2                !
 ! D45   D(6,10,11,23)        -179.9152         estimate D2E/DX2                !
 ! D46   D(22,10,11,3)         179.9762         estimate D2E/DX2                !
 ! D47   D(22,10,11,23)         -0.0197         estimate D2E/DX2                !
 --------------------------------------------------------------------------------
 Trust Radius=3.00D-01 FncErr=1.00D-07 GrdErr=1.00D-06
 Number of steps in this run= 118 maximum allowed number of steps= 138.
 GradGradGradGradGradGradGradGradGradGradGradGradGradGradGradGradGradGrad

 Leave Link  103 at Fri Sep  3 00:03:59 2021, MaxMem=  268435456 cpu:       0.0
 (Enter /sw/target/amd/app/gaussian/Gaussian09RevA.02_gcc-4.9.2/g09/l202.exe)
                          Input orientation:                          
 ---------------------------------------------------------------------
 Center     Atomic      Atomic             Coordinates (Angstroms)
 Number     Number       Type             X           Y           Z
 ---------------------------------------------------------------------
      1          6           0        3.787675    1.188349   -0.540483
      2          8           0        3.073188   -0.024083   -0.743296
      3          6           0        1.794916   -0.076580   -0.260175
      4          6           0        1.140976   -1.292273   -0.470132
      5          6           0       -0.170104   -1.483531   -0.028470
      6          6           0       -0.849181   -0.454790    0.633622
      7          6           0       -2.275474   -0.648432    1.093939
      8          6           0       -3.288549   -0.019425    0.137686
      9          8           0       -3.351856   -0.737601   -1.090783
     10          6           0       -0.191803    0.764319    0.841869
     11          6           0        1.122445    0.952269    0.398554
     12          1           0        4.784705    1.065384   -0.974371
     13          1           0        3.301506    2.023702   -1.055151
     14          1           0        3.912839    1.399476    0.526700
     15          1           0        1.659031   -2.099695   -0.982203
     16          1           0       -0.654937   -2.441288   -0.206508
     17          1           0       -2.480352   -1.720948    1.199584
     18          1           0       -2.385481   -0.206299    2.091633
     19          1           0       -3.057245    1.028306   -0.081258
     20          1           0       -4.286638   -0.057261    0.585351
     21          1           0       -2.477706   -0.653221   -1.512844
     22          1           0       -0.697715    1.580222    1.353971
     23          1           0        1.589759    1.913401    0.584322
 ---------------------------------------------------------------------
                    Distance matrix (angstroms):
                    1          2          3          4          5
     1  C    0.000000
     2  O    1.421835   0.000000
     3  C    2.376911   1.367531   0.000000
     4  C    3.628147   2.327309   1.396291   0.000000
     5  C    4.802615   3.627659   2.427860   1.396630   0.000000
     6  C    5.057555   4.179281   2.816587   2.424949   1.399221
     7  C    6.542696   5.689765   4.327668   3.812215   2.527800
     8  C    7.210519   6.422449   5.099331   4.648685   3.449045
     9  O    7.415188   6.473874   5.255104   4.569290   3.436345
    10  C    4.234022   3.714094   2.422533   2.779787   2.410558
    11  C    2.835661   2.462211   1.394515   2.406850   2.790368
    12  H    1.094280   2.041966   3.279176   4.369161   5.651710
    13  H    1.095015   2.083940   2.704253   4.000728   5.040519
    14  H    1.095043   2.084328   2.698798   3.990290   5.028953
    15  H    3.941760   2.522911   2.152390   1.087441   2.152905
    16  H    5.746530   4.475482   3.405364   2.148264   1.088145
    17  H    7.126009   6.123393   4.807573   4.010702   2.627114
    18  H    6.854264   6.153624   4.798286   4.491979   3.321755
    19  H    6.862174   6.255240   4.979583   4.812626   3.827231
    20  H    8.247034   7.478866   6.140080   5.665536   4.399645
    21  H    6.602414   5.639188   4.489654   3.819751   2.866672
    22  H    4.884797   4.603481   3.400540   3.867734   3.402367
    23  H    2.573271   2.777944   2.171472   3.404354   3.874504
                    6          7          8          9         10
     6  C    0.000000
     7  C    1.511192   0.000000
     8  C    2.527056   1.528526   0.000000
     9  O    3.052366   2.437121   1.424402   0.000000
    10  C    1.400621   2.530037   3.271080   3.997104   0.000000
    11  C    2.433594   3.819903   4.524280   5.009307   1.399679
    12  H    6.052871   7.553886   8.221369   8.334742   5.306129
    13  H    5.120848   6.546877   7.001861   7.203700   4.169885
    14  H    5.111416   6.543004   7.350143   7.743329   4.165434
    15  H    3.407012   4.679408   5.482720   5.193850   3.867221
    16  H    2.165577   2.744382   3.594413   3.310266   3.404336
    17  H    2.141072   1.097008   2.162404   2.640506   3.397347
    18  H    2.132548   1.096803   2.160639   3.368076   2.704854
    19  H    2.754301   2.191735   1.095070   2.055326   3.022021
    20  H    3.460704   2.157064   1.094540   2.036199   4.184312
    21  H    2.701626   2.614620   1.945100   0.974368   3.574835
    22  H    2.164051   2.742962   3.278817   4.288775   1.088069
    23  H    3.399881   4.665053   5.266231   5.852636   2.135576
                   11         12         13         14         15
    11  C    0.000000
    12  H    3.912782   0.000000
    13  H    2.830112   1.767704   0.000000
    14  H    2.828907   1.767762   1.807108   0.000000
    15  H    3.392477   4.448328   4.439082   4.427261   0.000000
    16  H    3.878326   6.517367   6.025759   6.012790   2.464313
    17  H    4.557179   8.079033   7.248180   7.145818   4.694479
    18  H    4.063784   7.901210   6.871461   6.685534   5.421392
    19  H    4.207827   7.892731   6.509454   7.006386   5.730563
    20  H    5.505654   9.272666   8.037511   8.328082   6.479178
    21  H    4.380882   7.482391   6.385506   7.015153   4.414347
    22  H    2.149449   5.978559   4.689809   4.687670   4.955174
    23  H    1.084743   3.654632   2.372787   2.379945   4.308566
                   16         17         18         19         20
    16  H    0.000000
    17  H    2.414151   0.000000
    18  H    3.642995   1.760373   0.000000
    19  H    4.221949   3.087355   2.587851   0.000000
    20  H    4.415867   2.531364   2.430123   1.770376   0.000000
    21  H    2.868133   2.915015   3.633249   2.283164   2.833695
    22  H    4.313869   3.754911   2.566000   2.816359   4.019017
    23  H    4.962599   5.491160   4.750542   4.777137   6.198028
                   21         22         23
    21  H    0.000000
    22  H    4.046636   0.000000
    23  H    5.246897   2.436371   0.000000
 Stoichiometry    C9H12O2
 Framework group  C1[X(C9H12O2)]
 Deg. of freedom    63
 Full point group                 C1      NOp   1
 Largest Abelian subgroup         C1      NOp   1
 Largest concise Abelian subgroup C1      NOp   1
                         Standard orientation:                         
 ---------------------------------------------------------------------
 Center     Atomic      Atomic             Coordinates (Angstroms)
 Number     Number       Type             X           Y           Z
 ---------------------------------------------------------------------
      1          6           0        3.947310   -0.476581    0.476078
      2          8           0        3.053256    0.593476    0.198117
      3          6           0        1.749401    0.261821   -0.047053
      4          6           0        0.914799    1.344933   -0.329783
      5          6           0       -0.441805    1.150067   -0.598538
      6          6           0       -0.985463   -0.139177   -0.588237
      7          6           0       -2.457103   -0.353892   -0.856331
      8          6           0       -3.262691   -0.548363    0.428037
      9          8           0       -3.346600    0.663560    1.171758
     10          6           0       -0.146753   -1.224037   -0.302961
     11          6           0        1.212526   -1.025147   -0.034807
     12          1           0        4.940693   -0.048062    0.640427
     13          1           0        3.657680   -1.005477    1.390102
     14          1           0        4.017642   -1.163621   -0.373716
     15          1           0        1.326214    2.351468   -0.342132
     16          1           0       -1.068481    2.012890   -0.815036
     17          1           0       -2.852563    0.502024   -1.417084
     18          1           0       -2.571792   -1.233786   -1.501009
     19          1           0       -2.836134   -1.324850    1.071694
     20          1           0       -4.286086   -0.844244    0.176772
     21          1           0       -2.438917    0.892816    1.441848
     22          1           0       -0.544786   -2.236586   -0.288577
     23          1           0        1.821948   -1.896604    0.179278
 ---------------------------------------------------------------------
 Rotational constants (GHZ):      2.9124808      0.5261152      0.4964101
 Leave Link  202 at Fri Sep  3 00:03:59 2021, MaxMem=  268435456 cpu:       0.0
 (Enter /sw/target/amd/app/gaussian/Gaussian09RevA.02_gcc-4.9.2/g09/l301.exe)
 Standard basis: 6-31G(d) (6D, 7F)
 Ernie: Thresh=  0.10000D-02 Tol=  0.10000D-05 Strict=F.
 There are   189 symmetry adapted basis functions of A   symmetry.
 Integral buffers will be    131072 words long.
 Raffenetti 2 integral format.
 Two-electron integral symmetry is turned on.
   189 basis functions,   356 primitive gaussians,   189 cartesian basis functions
    41 alpha electrons       41 beta electrons
       nuclear repulsion energy       592.1672350501 Hartrees.
 IExCor=  402 DFT=T Ex+Corr=B3LYP ExCW=0 ScaHFX=  0.200000
 ScaDFX=  0.800000  0.720000  1.000000  0.810000 ScalE2=  1.000000  1.000000
 IRadAn=      0 IRanWt=     -1 IRanGd=            0 ICorTp=0
 NAtoms=   23 NActive=   23 NUniq=   23 SFac= 7.50D-01 NAtFMM=   80 NAOKFM=F Big=F
 Leave Link  301 at Fri Sep  3 00:03:59 2021, MaxMem=  268435456 cpu:       0.1
 (Enter /sw/target/amd/app/gaussian/Gaussian09RevA.02_gcc-4.9.2/g09/l302.exe)
 NPDir=0 NMtPBC=     1 NCelOv=     1 NCel=       1 NClECP=     1 NCelD=      1
         NCelK=      1 NCelE2=     1 NClLst=     1 CellRange=     0.0.
 One-electron integrals computed using PRISM.
 NBasis=   189 RedAO= T  NBF=   189
 NBsUse=   189 1.00D-06 NBFU=   189
 Precomputing XC quadrature grid using
 IXCGrd= 2 IRadAn=           0 IRanWt=          -1 IRanGd=           0 AccXCQ= 1.00D-10.
 NRdTot=    1453 NPtTot=      184916 NUsed=      195399 NTot=      195431
 NSgBfM=   188   188   188   188   188 NAtAll=    23    23.
 Leave Link  302 at Fri Sep  3 00:04:00 2021, MaxMem=  268435456 cpu:       0.9
 (Enter /sw/target/amd/app/gaussian/Gaussian09RevA.02_gcc-4.9.2/g09/l303.exe)
 DipDrv:  MaxL=1.
 Leave Link  303 at Fri Sep  3 00:04:00 2021, MaxMem=  268435456 cpu:       0.1
 (Enter /sw/target/amd/app/gaussian/Gaussian09RevA.02_gcc-4.9.2/g09/l401.exe)
 Harris functional with IExCor=  402 diagonalized for initial guess.
 ExpMin= 1.61D-01 ExpMax= 5.48D+03 ExpMxC= 8.25D+02 IAcc=1 IRadAn=         1 AccDes= 0.00D+00
 HarFok:  IExCor=  402 AccDes= 0.00D+00 IRadAn=         1 IDoV= 1
 ScaDFX=  1.000000  1.000000  1.000000  1.000000
 FoFCou: FMM=F IPFlag=           0 FMFlag=      100000 FMFlg1=           0
         NFxFlg=           0 DoJE=T BraDBF=F KetDBF=T FulRan=T
         Omega=  0.000000  0.000000  1.000000  0.000000  0.000000 ICntrl=     500 IOpCl=  0
         NMat0=    1 NMatS0=    1 NMatT0=    0 NMatD0=    1 NMtDS0=    0 NMtDT0=    0
         I1Cent=           4 NGrid=           0.
 Petite list used in FoFCou.
 Harris En= -500.678629614327    
 Initial guess orbital symmetries:
       Occupied  (A) (A) (A) (A) (A) (A) (A) (A) (A) (A) (A) (A)
                 (A) (A) (A) (A) (A) (A) (A) (A) (A) (A) (A) (A)
                 (A) (A) (A) (A) (A) (A) (A) (A) (A) (A) (A) (A)
                 (A) (A) (A) (A) (A)
       Virtual   (A) (A) (A) (A) (A) (A) (A) (A) (A) (A) (A) (A)
                 (A) (A) (A) (A) (A) (A) (A) (A) (A) (A) (A) (A)
                 (A) (A) (A) (A) (A) (A) (A) (A) (A) (A) (A) (A)
                 (A) (A) (A) (A) (A) (A) (A) (A) (A) (A) (A) (A)
                 (A) (A) (A) (A) (A) (A) (A) (A) (A) (A) (A) (A)
                 (A) (A) (A) (A) (A) (A) (A) (A) (A) (A) (A) (A)
                 (A) (A) (A) (A) (A) (A) (A) (A) (A) (A) (A) (A)
                 (A) (A) (A) (A) (A) (A) (A) (A) (A) (A) (A) (A)
                 (A) (A) (A) (A) (A) (A) (A) (A) (A) (A) (A) (A)
                 (A) (A) (A) (A) (A) (A) (A) (A) (A) (A) (A) (A)
                 (A) (A) (A) (A) (A) (A) (A) (A) (A) (A) (A) (A)
                 (A) (A) (A) (A) (A) (A) (A) (A) (A) (A) (A) (A)
                 (A) (A) (A) (A)
 The electronic state of the initial guess is 1-A.
 Leave Link  401 at Fri Sep  3 00:04:05 2021, MaxMem=  268435456 cpu:       4.4
 (Enter /sw/target/amd/app/gaussian/Gaussian09RevA.02_gcc-4.9.2/g09/l502.exe)
 Closed shell SCF:
 Requested convergence on RMS density matrix=1.00D-08 within  64 cycles.
 Requested convergence on MAX density matrix=1.00D-06.
 Requested convergence on             energy=1.00D-06.
 No special actions if energy rises.
 Using DIIS extrapolation, IDIIS=  1040.
 Integral symmetry usage will be decided dynamically.
       195179 words used for storage of precomputed grid.
 Keep R1 ints in memory in canonical form, NReq=164939860.
 IEnd=      310451 IEndB=      310451 NGot=   268435456 MDV=   106965122
 LenX=   106965122 LenY=   106928960
 Symmetry not used in FoFDir.
 MinBra= 0 MaxBra= 2 Meth= 1.
 IRaf=       0 NMat=   1 IRICut=       1 DoRegI=T DoRafI=F ISym2E= 0 JSym2E=0.
 Integral accuracy reduced to 1.0D-05 until final iterations.

 Cycle   1  Pass 0  IDiag  1:
 E= -500.329678809656    
 DIIS: error= 3.42D-02 at cycle   1 NSaved=   1.
 NSaved= 1 IEnMin= 1 EnMin= -500.329678809656     IErMin= 1 ErrMin= 3.42D-02
 ErrMax= 3.42D-02 EMaxC= 1.00D-01 BMatC= 2.69D-01 BMatP= 2.69D-01
 IDIUse=3 WtCom= 6.58D-01 WtEn= 3.42D-01
 Coeff-Com:  0.100D+01
 Coeff-En:   0.100D+01
 Coeff:      0.100D+01
 Gap=     0.234 Goal=   None    Shift=    0.000
 GapD=    0.234 DampG=1.000 DampE=0.500 DampFc=0.5000 IDamp=-1.
 Damping current iteration by 5.00D-01
 RMSDP=6.22D-03 MaxDP=1.41D-01              OVMax= 1.59D-01

 Cycle   2  Pass 0  IDiag  1:
 E= -500.457329066458     Delta-E=       -0.127650256802 Rises=F Damp=T
 DIIS: error= 6.19D-03 at cycle   2 NSaved=   2.
 NSaved= 2 IEnMin= 2 EnMin= -500.457329066458     IErMin= 2 ErrMin= 6.19D-03
 ErrMax= 6.19D-03 EMaxC= 1.00D-01 BMatC= 1.46D-02 BMatP= 2.69D-01
 IDIUse=3 WtCom= 9.38D-01 WtEn= 6.19D-02
 Coeff-Com:  0.475D-01 0.952D+00
 Coeff-En:   0.566D-01 0.943D+00
 Coeff:      0.481D-01 0.952D+00
 Gap=     0.253 Goal=   None    Shift=    0.000
 RMSDP=1.49D-03 MaxDP=3.37D-02 DE=-1.28D-01 OVMax= 1.30D-01

 Cycle   3  Pass 0  IDiag  1:
 E= -500.598157940046     Delta-E=       -0.140828873589 Rises=F Damp=F
 DIIS: error= 5.96D-03 at cycle   3 NSaved=   3.
 NSaved= 3 IEnMin= 3 EnMin= -500.598157940046     IErMin= 3 ErrMin= 5.96D-03
 ErrMax= 5.96D-03 EMaxC= 1.00D-01 BMatC= 8.72D-03 BMatP= 1.46D-02
 IDIUse=3 WtCom= 9.40D-01 WtEn= 5.96D-02
 Coeff-Com: -0.156D-01 0.424D+00 0.592D+00
 Coeff-En:   0.000D+00 0.000D+00 0.100D+01
 Coeff:     -0.147D-01 0.399D+00 0.616D+00
 Gap=     0.213 Goal=   None    Shift=    0.000
 RMSDP=8.01D-04 MaxDP=2.29D-02 DE=-1.41D-01 OVMax= 5.68D-02

 Cycle   4  Pass 0  IDiag  1:
 E= -500.603062377243     Delta-E=       -0.004904437197 Rises=F Damp=F
 DIIS: error= 3.54D-03 at cycle   4 NSaved=   4.
 NSaved= 4 IEnMin= 4 EnMin= -500.603062377243     IErMin= 4 ErrMin= 3.54D-03
 ErrMax= 3.54D-03 EMaxC= 1.00D-01 BMatC= 3.17D-03 BMatP= 8.72D-03
 IDIUse=3 WtCom= 9.65D-01 WtEn= 3.54D-02
 Coeff-Com: -0.123D-01 0.103D+00 0.386D+00 0.523D+00
 Coeff-En:   0.000D+00 0.000D+00 0.315D+00 0.685D+00
 Coeff:     -0.119D-01 0.991D-01 0.384D+00 0.529D+00
 Gap=     0.210 Goal=   None    Shift=    0.000
 RMSDP=3.75D-04 MaxDP=9.90D-03 DE=-4.90D-03 OVMax= 2.70D-02

 Cycle   5  Pass 0  IDiag  1:
 E= -500.606181195585     Delta-E=       -0.003118818342 Rises=F Damp=F
 DIIS: error= 8.76D-04 at cycle   5 NSaved=   5.
 NSaved= 5 IEnMin= 5 EnMin= -500.606181195585     IErMin= 5 ErrMin= 8.76D-04
 ErrMax= 8.76D-04 EMaxC= 1.00D-01 BMatC= 2.09D-04 BMatP= 3.17D-03
 IDIUse=3 WtCom= 9.91D-01 WtEn= 8.76D-03
 Coeff-Com: -0.478D-02 0.268D-01 0.174D+00 0.301D+00 0.503D+00
 Coeff-En:   0.000D+00 0.000D+00 0.000D+00 0.000D+00 0.100D+01
 Coeff:     -0.474D-02 0.265D-01 0.173D+00 0.298D+00 0.507D+00
 Gap=     0.210 Goal=   None    Shift=    0.000
 RMSDP=9.81D-05 MaxDP=2.28D-03 DE=-3.12D-03 OVMax= 6.74D-03

 Cycle   6  Pass 0  IDiag  1:
 E= -500.606372561320     Delta-E=       -0.000191365736 Rises=F Damp=F
 DIIS: error= 2.23D-04 at cycle   6 NSaved=   6.
 NSaved= 6 IEnMin= 6 EnMin= -500.606372561320     IErMin= 6 ErrMin= 2.23D-04
 ErrMax= 2.23D-04 EMaxC= 1.00D-01 BMatC= 2.06D-05 BMatP= 2.09D-04
 IDIUse=3 WtCom= 9.98D-01 WtEn= 2.23D-03
 Coeff-Com: -0.102D-02 0.154D-02 0.470D-01 0.988D-01 0.287D+00 0.566D+00
 Coeff-En:   0.000D+00 0.000D+00 0.000D+00 0.000D+00 0.475D-01 0.952D+00
 Coeff:     -0.102D-02 0.153D-02 0.469D-01 0.986D-01 0.287D+00 0.567D+00
 Gap=     0.210 Goal=   None    Shift=    0.000
 RMSDP=2.60D-05 MaxDP=6.42D-04 DE=-1.91D-04 OVMax= 1.17D-03

 Cycle   7  Pass 0  IDiag  1:
 E= -500.606390710539     Delta-E=       -0.000018149218 Rises=F Damp=F
 DIIS: error= 2.96D-05 at cycle   7 NSaved=   7.
 NSaved= 7 IEnMin= 7 EnMin= -500.606390710539     IErMin= 7 ErrMin= 2.96D-05
 ErrMax= 2.96D-05 EMaxC= 1.00D-01 BMatC= 3.91D-07 BMatP= 2.06D-05
 IDIUse=1 WtCom= 1.00D+00 WtEn= 0.00D+00
 Coeff-Com: -0.271D-03-0.112D-03 0.160D-01 0.353D-01 0.114D+00 0.250D+00
 Coeff-Com:  0.585D+00
 Coeff:     -0.271D-03-0.112D-03 0.160D-01 0.353D-01 0.114D+00 0.250D+00
 Coeff:      0.585D+00
 Gap=     0.210 Goal=   None    Shift=    0.000
 RMSDP=4.79D-06 MaxDP=1.38D-04 DE=-1.81D-05 OVMax= 3.18D-04

 Initial convergence to 1.0D-05 achieved.  Increase integral accuracy.
 Cycle   8  Pass 1  IDiag  1:
 E= -500.606466226721     Delta-E=       -0.000075516182 Rises=F Damp=F
 DIIS: error= 1.97D-05 at cycle   1 NSaved=   1.
 NSaved= 1 IEnMin= 1 EnMin= -500.606466226721     IErMin= 1 ErrMin= 1.97D-05
 ErrMax= 1.97D-05 EMaxC= 1.00D-01 BMatC= 1.62D-07 BMatP= 1.62D-07
 IDIUse=1 WtCom= 1.00D+00 WtEn= 0.00D+00
 Coeff-Com:  0.100D+01
 Coeff:      0.100D+01
 Gap=     0.210 Goal=   None    Shift=    0.000
 RMSDP=4.79D-06 MaxDP=1.38D-04 DE=-7.55D-05 OVMax= 3.95D-04

 Cycle   9  Pass 1  IDiag  1:
 E= -500.606466140104     Delta-E=        0.000000086617 Rises=F Damp=F
 DIIS: error= 3.75D-05 at cycle   2 NSaved=   2.
 NSaved= 2 IEnMin= 1 EnMin= -500.606466226721     IErMin= 1 ErrMin= 1.97D-05
 ErrMax= 3.75D-05 EMaxC= 1.00D-01 BMatC= 2.57D-07 BMatP= 1.62D-07
 IDIUse=1 WtCom= 1.00D+00 WtEn= 0.00D+00
 Coeff-Com:  0.568D+00 0.432D+00
 Coeff:      0.568D+00 0.432D+00
 Gap=     0.210 Goal=   None    Shift=    0.000
 RMSDP=3.74D-06 MaxDP=9.53D-05 DE= 8.66D-08 OVMax= 3.01D-04

 Cycle  10  Pass 1  IDiag  1:
 E= -500.606466412383     Delta-E=       -0.000000272279 Rises=F Damp=F
 DIIS: error= 1.08D-05 at cycle   3 NSaved=   3.
 NSaved= 3 IEnMin= 3 EnMin= -500.606466412383     IErMin= 3 ErrMin= 1.08D-05
 ErrMax= 1.08D-05 EMaxC= 1.00D-01 BMatC= 1.87D-08 BMatP= 1.62D-07
 IDIUse=1 WtCom= 1.00D+00 WtEn= 0.00D+00
 Coeff-Com:  0.314D-01 0.210D+00 0.759D+00
 Coeff:      0.314D-01 0.210D+00 0.759D+00
 Gap=     0.210 Goal=   None    Shift=    0.000
 RMSDP=1.03D-06 MaxDP=3.24D-05 DE=-2.72D-07 OVMax= 8.32D-05

 Cycle  11  Pass 1  IDiag  1:
 E= -500.606466430842     Delta-E=       -0.000000018460 Rises=F Damp=F
 DIIS: error= 2.59D-06 at cycle   4 NSaved=   4.
 NSaved= 4 IEnMin= 4 EnMin= -500.606466430842     IErMin= 4 ErrMin= 2.59D-06
 ErrMax= 2.59D-06 EMaxC= 1.00D-01 BMatC= 3.62D-09 BMatP= 1.87D-08
 IDIUse=1 WtCom= 1.00D+00 WtEn= 0.00D+00
 Coeff-Com: -0.183D-01 0.100D+00 0.463D+00 0.455D+00
 Coeff:     -0.183D-01 0.100D+00 0.463D+00 0.455D+00
 Gap=     0.210 Goal=   None    Shift=    0.000
 RMSDP=3.06D-07 MaxDP=9.56D-06 DE=-1.85D-08 OVMax= 2.15D-05

 Cycle  12  Pass 1  IDiag  1:
 E= -500.606466434225     Delta-E=       -0.000000003383 Rises=F Damp=F
 DIIS: error= 4.26D-07 at cycle   5 NSaved=   5.
 NSaved= 5 IEnMin= 5 EnMin= -500.606466434225     IErMin= 5 ErrMin= 4.26D-07
 ErrMax= 4.26D-07 EMaxC= 1.00D-01 BMatC= 4.36D-11 BMatP= 3.62D-09
 IDIUse=1 WtCom= 1.00D+00 WtEn= 0.00D+00
 Coeff-Com: -0.907D-02 0.394D-01 0.190D+00 0.202D+00 0.577D+00
 Coeff:     -0.907D-02 0.394D-01 0.190D+00 0.202D+00 0.577D+00
 Gap=     0.210 Goal=   None    Shift=    0.000
 RMSDP=5.63D-08 MaxDP=1.46D-06 DE=-3.38D-09 OVMax= 3.72D-06

 Cycle  13  Pass 1  IDiag  1:
 E= -500.606466434252     Delta-E=       -0.000000000027 Rises=F Damp=F
 DIIS: error= 2.37D-07 at cycle   6 NSaved=   6.
 NSaved= 6 IEnMin= 6 EnMin= -500.606466434252     IErMin= 6 ErrMin= 2.37D-07
 ErrMax= 2.37D-07 EMaxC= 1.00D-01 BMatC= 1.27D-11 BMatP= 4.36D-11
 IDIUse=1 WtCom= 1.00D+00 WtEn= 0.00D+00
 Coeff-Com: -0.239D-02 0.755D-02 0.400D-01 0.465D-01 0.358D+00 0.550D+00
 Coeff:     -0.239D-02 0.755D-02 0.400D-01 0.465D-01 0.358D+00 0.550D+00
 Gap=     0.210 Goal=   None    Shift=    0.000
 RMSDP=2.59D-08 MaxDP=7.08D-07 DE=-2.71D-11 OVMax= 2.22D-06

 Cycle  14  Pass 1  IDiag  1:
 E= -500.606466434271     Delta-E=       -0.000000000019 Rises=F Damp=F
 DIIS: error= 4.82D-08 at cycle   7 NSaved=   7.
 NSaved= 7 IEnMin= 7 EnMin= -500.606466434271     IErMin= 7 ErrMin= 4.82D-08
 ErrMax= 4.82D-08 EMaxC= 1.00D-01 BMatC= 1.00D-12 BMatP= 1.27D-11
 IDIUse=1 WtCom= 1.00D+00 WtEn= 0.00D+00
 Coeff-Com: -0.456D-03 0.277D-03 0.338D-02 0.532D-02 0.139D+00 0.304D+00
 Coeff-Com:  0.549D+00
 Coeff:     -0.456D-03 0.277D-03 0.338D-02 0.532D-02 0.139D+00 0.304D+00
 Coeff:      0.549D+00
 Gap=     0.210 Goal=   None    Shift=    0.000
 RMSDP=6.60D-09 MaxDP=2.12D-07 DE=-1.89D-11 OVMax= 4.32D-07

 SCF Done:  E(RB3LYP) =  -500.606466434     A.U. after   14 cycles
             Convg  =    0.6600D-08             -V/T =  2.0093
 KE= 4.959991640840D+02 PE=-2.349406969601D+03 EE= 7.606341040331D+02
 Leave Link  502 at Fri Sep  3 00:05:15 2021, MaxMem=  268435456 cpu:      70.5
 (Enter /sw/target/amd/app/gaussian/Gaussian09RevA.02_gcc-4.9.2/g09/l508.exe)
 QCSCF skips out because SCF is already converged.
 Leave Link  508 at Fri Sep  3 00:05:15 2021, MaxMem=  268435456 cpu:       0.0
 (Enter /sw/target/amd/app/gaussian/Gaussian09RevA.02_gcc-4.9.2/g09/l601.exe)
 Copying SCF densities to generalized density rwf, IOpCl= 0 IROHF=0.

 **********************************************************************

            Population analysis using the SCF density.

 **********************************************************************

 Orbital symmetries:
       Occupied  (A) (A) (A) (A) (A) (A) (A) (A) (A) (A) (A) (A)
                 (A) (A) (A) (A) (A) (A) (A) (A) (A) (A) (A) (A)
                 (A) (A) (A) (A) (A) (A) (A) (A) (A) (A) (A) (A)
                 (A) (A) (A) (A) (A)
       Virtual   (A) (A) (A) (A) (A) (A) (A) (A) (A) (A) (A) (A)
                 (A) (A) (A) (A) (A) (A) (A) (A) (A) (A) (A) (A)
                 (A) (A) (A) (A) (A) (A) (A) (A) (A) (A) (A) (A)
                 (A) (A) (A) (A) (A) (A) (A) (A) (A) (A) (A) (A)
                 (A) (A) (A) (A) (A) (A) (A) (A) (A) (A) (A) (A)
                 (A) (A) (A) (A) (A) (A) (A) (A) (A) (A) (A) (A)
                 (A) (A) (A) (A) (A) (A) (A) (A) (A) (A) (A) (A)
                 (A) (A) (A) (A) (A) (A) (A) (A) (A) (A) (A) (A)
                 (A) (A) (A) (A) (A) (A) (A) (A) (A) (A) (A) (A)
                 (A) (A) (A) (A) (A) (A) (A) (A) (A) (A) (A) (A)
                 (A) (A) (A) (A) (A) (A) (A) (A) (A) (A) (A) (A)
                 (A) (A) (A) (A) (A) (A) (A) (A) (A) (A) (A) (A)
                 (A) (A) (A) (A)
 The electronic state is 1-A.
 Alpha  occ. eigenvalues --  -19.17891 -19.13287 -10.24683 -10.24214 -10.22519
 Alpha  occ. eigenvalues --  -10.19221 -10.19057 -10.18974 -10.18921 -10.18479
 Alpha  occ. eigenvalues --  -10.18287  -1.06378  -1.00533  -0.85436  -0.78095
 Alpha  occ. eigenvalues --   -0.74900  -0.72882  -0.68788  -0.62557  -0.60944
 Alpha  occ. eigenvalues --   -0.57430  -0.53220  -0.50048  -0.48184  -0.47183
 Alpha  occ. eigenvalues --   -0.46943  -0.44686  -0.44020  -0.42390  -0.41491
 Alpha  occ. eigenvalues --   -0.40788  -0.37908  -0.37480  -0.35313  -0.34637
 Alpha  occ. eigenvalues --   -0.32817  -0.32109  -0.31108  -0.26051  -0.25192
 Alpha  occ. eigenvalues --   -0.21601
 Alpha virt. eigenvalues --   -0.00618   0.01189   0.08849   0.09715   0.10399
 Alpha virt. eigenvalues --    0.12228   0.12886   0.13896   0.15076   0.15522
 Alpha virt. eigenvalues --    0.15961   0.16725   0.17613   0.17788   0.18825
 Alpha virt. eigenvalues --    0.20885   0.22595   0.23465   0.25898   0.26844
 Alpha virt. eigenvalues --    0.32620   0.33844   0.34077   0.36706   0.47975
 Alpha virt. eigenvalues --    0.50670   0.51133   0.52321   0.53631   0.54277
 Alpha virt. eigenvalues --    0.54828   0.55991   0.57280   0.58246   0.59195
 Alpha virt. eigenvalues --    0.60207   0.60539   0.62318   0.63589   0.63892
 Alpha virt. eigenvalues --    0.65217   0.67923   0.69170   0.74543   0.75026
 Alpha virt. eigenvalues --    0.76772   0.80248   0.81912   0.82700   0.83753
 Alpha virt. eigenvalues --    0.83975   0.85010   0.86024   0.86682   0.88514
 Alpha virt. eigenvalues --    0.89867   0.91392   0.92013   0.93321   0.93890
 Alpha virt. eigenvalues --    0.94908   0.96860   0.97527   1.00658   1.01751
 Alpha virt. eigenvalues --    1.04914   1.05481   1.07290   1.09576   1.16074
 Alpha virt. eigenvalues --    1.18224   1.18994   1.21895   1.25080   1.26274
 Alpha virt. eigenvalues --    1.28883   1.35332   1.37618   1.41298   1.43926
 Alpha virt. eigenvalues --    1.45015   1.45520   1.46072   1.50900   1.52311
 Alpha virt. eigenvalues --    1.54252   1.61529   1.62287   1.67666   1.68778
 Alpha virt. eigenvalues --    1.76797   1.81012   1.83258   1.83561   1.86258
 Alpha virt. eigenvalues --    1.88490   1.91000   1.92543   1.94375   1.96927
 Alpha virt. eigenvalues --    1.97933   1.99849   2.02444   2.06048   2.08348
 Alpha virt. eigenvalues --    2.10295   2.11218   2.13321   2.14856   2.15418
 Alpha virt. eigenvalues --    2.20340   2.24015   2.25189   2.28753   2.30004
 Alpha virt. eigenvalues --    2.31076   2.35775   2.36201   2.39784   2.42455
 Alpha virt. eigenvalues --    2.44560   2.51143   2.53499   2.54989   2.63077
 Alpha virt. eigenvalues --    2.64054   2.65919   2.68554   2.70513   2.76801
 Alpha virt. eigenvalues --    2.81512   2.84457   2.89689   2.93006   2.98955
 Alpha virt. eigenvalues --    3.18044   3.42776   3.77181   4.05216   4.11292
 Alpha virt. eigenvalues --    4.12051   4.19724   4.26258   4.31601   4.36428
 Alpha virt. eigenvalues --    4.46657   4.51637   4.76910
          Condensed to atoms (all electrons):
              1          2          3          4          5          6
     1  C    4.895663   0.248857  -0.043549   0.004386  -0.000134  -0.000003
     2  O    0.248857   8.200240   0.281110  -0.056021   0.003181   0.000166
     3  C   -0.043549   0.281110   4.505946   0.546640  -0.019275  -0.033047
     4  C    0.004386  -0.056021   0.546640   5.003491   0.503815  -0.029267
     5  C   -0.000134   0.003181  -0.019275   0.503815   4.973838   0.539969
     6  C   -0.000003   0.000166  -0.033047  -0.029267   0.539969   4.694075
     7  C   -0.000000   0.000000   0.000397   0.007205  -0.056036   0.351849
     8  C   -0.000000   0.000000   0.000020  -0.000142  -0.003514  -0.035215
     9  O   -0.000000  -0.000000   0.000003  -0.000002   0.002532  -0.006141
    10  C    0.000327   0.003663  -0.003643  -0.043305  -0.037236   0.547049
    11  C   -0.006500  -0.062481   0.467568  -0.064145  -0.045085  -0.021681
    12  H    0.384129  -0.031093   0.003208  -0.000111   0.000004  -0.000000
    13  H    0.364112  -0.036198  -0.004833   0.000056  -0.000002  -0.000001
    14  H    0.364094  -0.035967  -0.004818   0.000077   0.000002  -0.000008
    15  H   -0.000172  -0.000325  -0.036505   0.343164  -0.039768   0.004302
    16  H    0.000003  -0.000058   0.004226  -0.043079   0.357224  -0.043242
    17  H    0.000000  -0.000000   0.000002   0.000253  -0.004285  -0.038487
    18  H    0.000000  -0.000000   0.000013  -0.000205   0.004270  -0.031637
    19  H    0.000000  -0.000000  -0.000016   0.000005   0.000802  -0.009973
    20  H   -0.000000   0.000000  -0.000000   0.000002  -0.000037   0.005545
    21  H    0.000000   0.000000  -0.000044   0.000025   0.006378   0.012390
    22  H   -0.000007  -0.000046   0.003146   0.000459   0.005861  -0.043832
    23  H    0.005832  -0.007280  -0.046078   0.004487   0.000812   0.003552
              7          8          9         10         11         12
     1  C   -0.000000  -0.000000  -0.000000   0.000327  -0.006500   0.384129
     2  O    0.000000   0.000000  -0.000000   0.003663  -0.062481  -0.031093
     3  C    0.000397   0.000020   0.000003  -0.003643   0.467568   0.003208
     4  C    0.007205  -0.000142  -0.000002  -0.043305  -0.064145  -0.000111
     5  C   -0.056036  -0.003514   0.002532  -0.037236  -0.045085   0.000004
     6  C    0.351849  -0.035215  -0.006141   0.547049  -0.021681  -0.000000
     7  C    5.244755   0.334820  -0.052694  -0.061399   0.006886  -0.000000
     8  C    0.334820   4.822997   0.269611  -0.004163  -0.000006   0.000000
     9  O   -0.052694   0.269611   8.246337  -0.000409   0.000008  -0.000000
    10  C   -0.061399  -0.004163  -0.000409   4.979440   0.476916   0.000001
    11  C    0.006886  -0.000006   0.000008   0.476916   5.117757   0.000168
    12  H   -0.000000   0.000000  -0.000000   0.000001   0.000168   0.542733
    13  H    0.000000   0.000000   0.000000  -0.000152   0.004994  -0.034044
    14  H   -0.000000  -0.000000  -0.000000  -0.000136   0.005081  -0.033753
    15  H   -0.000170   0.000001  -0.000001   0.000306   0.007367  -0.000027
    16  H   -0.009567   0.000200   0.000773   0.006213   0.000158  -0.000000
    17  H    0.361860  -0.033027   0.000827   0.004334  -0.000195   0.000000
    18  H    0.328970  -0.028297   0.003962  -0.007091   0.000141  -0.000000
    19  H   -0.049405   0.363937  -0.038084   0.003814  -0.000128   0.000000
    20  H   -0.038944   0.371063  -0.036885   0.000058   0.000003  -0.000000
    21  H   -0.008821  -0.033367   0.232275   0.000345  -0.000124  -0.000000
    22  H   -0.008439   0.000605   0.000016   0.354782  -0.041344  -0.000000
    23  H   -0.000184   0.000000   0.000000  -0.037258   0.351156  -0.000117
             13         14         15         16         17         18
     1  C    0.364112   0.364094  -0.000172   0.000003   0.000000   0.000000
     2  O   -0.036198  -0.035967  -0.000325  -0.000058  -0.000000  -0.000000
     3  C   -0.004833  -0.004818  -0.036505   0.004226   0.000002   0.000013
     4  C    0.000056   0.000077   0.343164  -0.043079   0.000253  -0.000205
     5  C   -0.000002   0.000002  -0.039768   0.357224  -0.004285   0.004270
     6  C   -0.000001  -0.000008   0.004302  -0.043242  -0.038487  -0.031637
     7  C    0.000000  -0.000000  -0.000170  -0.009567   0.361860   0.328970
     8  C    0.000000  -0.000000   0.000001   0.000200  -0.033027  -0.028297
     9  O    0.000000  -0.000000  -0.000001   0.000773   0.000827   0.003962
    10  C   -0.000152  -0.000136   0.000306   0.006213   0.004334  -0.007091
    11  C    0.004994   0.005081   0.007367   0.000158  -0.000195   0.000141
    12  H   -0.034044  -0.033753  -0.000027  -0.000000   0.000000  -0.000000
    13  H    0.598587  -0.046563   0.000029  -0.000000  -0.000000  -0.000000
    14  H   -0.046563   0.597236   0.000029   0.000000   0.000000   0.000000
    15  H    0.000029   0.000029   0.589551  -0.006115  -0.000008   0.000003
    16  H   -0.000000   0.000000  -0.006115   0.590492   0.006326   0.000093
    17  H   -0.000000   0.000000  -0.000008   0.006326   0.578788  -0.031020
    18  H   -0.000000   0.000000   0.000003   0.000093  -0.031020   0.617399
    19  H   -0.000000   0.000000   0.000000   0.000056   0.005839   0.002468
    20  H   -0.000000   0.000000  -0.000000  -0.000028  -0.004474  -0.001050
    21  H   -0.000000   0.000000  -0.000004   0.000211  -0.000531   0.000133
    22  H    0.000001   0.000003   0.000016  -0.000175   0.000045   0.004200
    23  H    0.001801   0.001731  -0.000165   0.000016   0.000003  -0.000006
             19         20         21         22         23
     1  C    0.000000  -0.000000   0.000000  -0.000007   0.005832
     2  O   -0.000000   0.000000   0.000000  -0.000046  -0.007280
     3  C   -0.000016  -0.000000  -0.000044   0.003146  -0.046078
     4  C    0.000005   0.000002   0.000025   0.000459   0.004487
     5  C    0.000802  -0.000037   0.006378   0.005861   0.000812
     6  C   -0.009973   0.005545   0.012390  -0.043832   0.003552
     7  C   -0.049405  -0.038944  -0.008821  -0.008439  -0.000184
     8  C    0.363937   0.371063  -0.033367   0.000605   0.000000
     9  O   -0.038084  -0.036885   0.232275   0.000016   0.000000
    10  C    0.003814   0.000058   0.000345   0.354782  -0.037258
    11  C   -0.000128   0.000003  -0.000124  -0.041344   0.351156
    12  H    0.000000  -0.000000  -0.000000  -0.000000  -0.000117
    13  H   -0.000000  -0.000000  -0.000000   0.000001   0.001801
    14  H    0.000000   0.000000   0.000000   0.000003   0.001731
    15  H    0.000000  -0.000000  -0.000004   0.000016  -0.000165
    16  H    0.000056  -0.000028   0.000211  -0.000175   0.000016
    17  H    0.005839  -0.004474  -0.000531   0.000045   0.000003
    18  H    0.002468  -0.001050   0.000133   0.004200  -0.000006
    19  H    0.643140  -0.043329  -0.005992   0.001393   0.000005
    20  H   -0.043329   0.595861   0.007585  -0.000101  -0.000000
    21  H   -0.005992   0.007585   0.398610  -0.000005  -0.000000
    22  H    0.001393  -0.000101  -0.000005   0.601645  -0.005592
    23  H    0.000005  -0.000000  -0.000000  -0.005592   0.595649
 Mulliken atomic charges:
              1
     1  C   -0.217037
     2  O   -0.507749
     3  C    0.379527
     4  C   -0.177787
     5  C   -0.193314
     6  C    0.133639
     7  C   -0.351082
     8  C   -0.025523
     9  O   -0.622129
    10  C   -0.182456
    11  C   -0.196515
    12  H    0.168903
    13  H    0.152214
    14  H    0.152991
    15  H    0.138493
    16  H    0.136276
    17  H    0.153750
    18  H    0.137654
    19  H    0.125467
    20  H    0.144733
    21  H    0.390937
    22  H    0.127371
    23  H    0.131637
 Sum of Mulliken atomic charges =  -0.00000
 Mulliken charges with hydrogens summed into heavy atoms:
              1
     1  C    0.257072
     2  O   -0.507749
     3  C    0.379527
     4  C   -0.039293
     5  C   -0.057038
     6  C    0.133639
     7  C   -0.059678
     8  C    0.244677
     9  O   -0.231192
    10  C   -0.055085
    11  C   -0.064879
 Sum of Mulliken charges with hydrogens summed into heavy atoms =  -0.00000
 Electronic spatial extent (au):  <R**2>=           2321.9248
 Charge=             -0.0000 electrons
 Dipole moment (field-independent basis, Debye):
    X=              2.1896    Y=             -1.9326    Z=             -0.2386  Tot=              2.9303
 Quadrupole moment (field-independent basis, Debye-Ang):
   XX=            -65.6978   YY=            -61.7958   ZZ=            -67.4672
   XY=             -0.2977   XZ=              6.1360   YZ=             -1.3779
 Traceless Quadrupole moment (field-independent basis, Debye-Ang):
   XX=             -0.7109   YY=              3.1912   ZZ=             -2.4802
   XY=             -0.2977   XZ=              6.1360   YZ=             -1.3779
 Octapole moment (field-independent basis, Debye-Ang**2):
  XXX=             69.1277  YYY=              5.5056  ZZZ=              9.6087  XYY=              0.2968
  XXY=            -32.0528  XXZ=            -11.0015  XZZ=              3.8036  YZZ=              1.7613
  YYZ=              0.7630  XYZ=              1.8082
 Hexadecapole moment (field-independent basis, Debye-Ang**3):
 XXXX=          -2292.4192 YYYY=           -370.3315 ZZZZ=           -223.5281 XXXY=             18.2238
 XXXZ=             99.2230 YYYX=             -1.7927 YYYZ=              0.5070 ZZZX=             -3.4470
 ZZZY=              5.2441 XXYY=           -465.3671 XXZZ=           -451.3721 YYZZ=           -103.1011
 XXYZ=            -19.5506 YYXZ=             -1.0071 ZZXY=             -1.7768
 N-N= 5.921672350501D+02 E-N=-2.349406976863D+03  KE= 4.959991640840D+02
 No NMR shielding tensors so no spin-rotation constants.
 Leave Link  601 at Fri Sep  3 00:05:16 2021, MaxMem=  268435456 cpu:       0.3
 (Enter /sw/target/amd/app/gaussian/Gaussian09RevA.02_gcc-4.9.2/g09/l701.exe)
 Compute integral first derivatives.
 ... and contract with generalized density number  0.
 Leave Link  701 at Fri Sep  3 00:05:16 2021, MaxMem=  268435456 cpu:       0.3
 (Enter /sw/target/amd/app/gaussian/Gaussian09RevA.02_gcc-4.9.2/g09/l702.exe)
 L702 exits ... SP integral derivatives will be done elsewhere.
 Leave Link  702 at Fri Sep  3 00:05:16 2021, MaxMem=  268435456 cpu:       0.0
 (Enter /sw/target/amd/app/gaussian/Gaussian09RevA.02_gcc-4.9.2/g09/l703.exe)
 Compute integral first derivatives, UseDBF=F ICtDFT=           0.
 Integral derivatives from FoFDir, PRISM(SPDF).
 Calling FoFJK, ICntrl=      2127 FMM=F ISym2X=0 I1Cent= 0 IOpClX= 0 NMat=1 NMatS=1 NMatT=0.
 FoFCou: FMM=F IPFlag=           0 FMFlag=      100000 FMFlg1=         800
         NFxFlg=           0 DoJE=F BraDBF=F KetDBF=F FulRan=T
         Omega=  0.000000  0.000000  1.000000  0.000000  0.000000 ICntrl=    2127 IOpCl=  0
         NMat0=    1 NMatS0=    1 NMatT0=    0 NMatD0=    1 NMtDS0=    0 NMtDT0=    0
         I1Cent=           0 NGrid=           0.
 Symmetry not used in FoFCou.
 Leave Link  703 at Fri Sep  3 00:05:46 2021, MaxMem=  268435456 cpu:      30.0
 (Enter /sw/target/amd/app/gaussian/Gaussian09RevA.02_gcc-4.9.2/g09/l716.exe)
 Dipole        = 8.61463351D-01-7.60358878D-01-9.38844634D-02
 ***** Axes restored to original set *****
 -------------------------------------------------------------------
 Center     Atomic                   Forces (Hartrees/Bohr)
 Number     Number              X              Y              Z
 -------------------------------------------------------------------
      1        6           0.004233789   -0.002502125   -0.002660751
      2        8           0.003197936    0.006498453    0.001619483
      3        6           0.001959025   -0.006700127   -0.003584921
      4        6          -0.008009565   -0.009253637   -0.000808131
      5        6           0.010008259    0.004322211   -0.003830151
      6        6          -0.005729411    0.000324094    0.003900221
      7        6           0.006235792    0.003853585    0.006123153
      8        6          -0.002481926   -0.007118357   -0.006186360
      9        8          -0.000878195   -0.001076576   -0.002211213
     10        6           0.005413289   -0.006222975   -0.004801417
     11        6          -0.003096357    0.008840867    0.004251277
     12        1          -0.002055856   -0.004184588   -0.000885795
     13        1          -0.001844340    0.002612642    0.002332393
     14        1          -0.002299855    0.002841956    0.001372670
     15        1           0.001826027    0.002432927    0.000295014
     16        1          -0.000520051    0.001079224    0.001185497
     17        1          -0.003542809    0.001480507   -0.001539513
     18        1          -0.002295314    0.001203542    0.001120022
     19        1           0.002238680    0.004613329    0.005766394
     20        1          -0.001634851   -0.001121641   -0.002750392
     21        1          -0.002746443   -0.000306899    0.002107834
     22        1          -0.000037136   -0.000901208    0.000079676
     23        1           0.002059312   -0.000715205   -0.000894991
 -------------------------------------------------------------------
 Cartesian Forces:  Max     0.010008259 RMS     0.003901461
 Leave Link  716 at Fri Sep  3 00:05:46 2021, MaxMem=  268435456 cpu:       0.0
 (Enter /sw/target/amd/app/gaussian/Gaussian09RevA.02_gcc-4.9.2/g09/l103.exe)

 GradGradGradGradGradGradGradGradGradGradGradGradGradGradGradGradGradGrad
 Berny optimization.
 Internal  Forces:  Max     0.006907052 RMS     0.002403015
 Search for a local minimum.
 Step number   1 out of a maximum of  118
 All quantities printed in internal units (Hartrees-Bohrs-Radians)
 RMS Force = .24030D-02 SwitMx=.10000D-02 MixMth= 1
 Mixed Optimization -- RFO/linear search
 Second derivative matrix not updated -- first step.
     Eigenvalues ---    0.00389   0.00618   0.01369   0.01403   0.01494
     Eigenvalues ---    0.02086   0.02091   0.02115   0.02117   0.02121
     Eigenvalues ---    0.02127   0.02136   0.02140   0.02149   0.04112
     Eigenvalues ---    0.04912   0.05405   0.05695   0.09378   0.09989
     Eigenvalues ---    0.10543   0.11649   0.12833   0.13889   0.16000
     Eigenvalues ---    0.16000   0.16000   0.16000   0.16000   0.16000
     Eigenvalues ---    0.16000   0.16000   0.21940   0.22000   0.22017
     Eigenvalues ---    0.22972   0.23999   0.24995   0.25000   0.25000
     Eigenvalues ---    0.29560   0.31231   0.34015   0.34038   0.34233
     Eigenvalues ---    0.34236   0.34239   0.34293   0.34323   0.35028
     Eigenvalues ---    0.35037   0.35110   0.35427   0.41617   0.41804
     Eigenvalues ---    0.42181   0.42185   0.45637   0.45928   0.46050
     Eigenvalues ---    0.46373   0.51454   0.524941000.000001000.00000
     Eigenvalues --- 1000.000001000.000001000.000001000.000001000.00000
     Eigenvalues --- 1000.000001000.000001000.000001000.000001000.00000
     Eigenvalues --- 1000.000001000.000001000.000001000.000001000.00000
     Eigenvalues --- 1000.000001000.000001000.000001000.000001000.00000
     Eigenvalues --- 1000.000001000.000001000.000001000.000001000.00000
     Eigenvalues --- 1000.000001000.000001000.000001000.000001000.00000
     Eigenvalues --- 1000.000001000.000001000.000001000.000001000.00000
     Eigenvalues --- 1000.000001000.000001000.000001000.000001000.00000
     Eigenvalues --- 1000.000001000.000001000.00000
 RFO step:  Lambda=-3.92412944D-03 EMin= 3.88608212D-03
 Linear search not attempted -- first point.
 Maximum step size (   0.300) exceeded in Quadratic search.
    -- Step size scaled by   0.996
 Iteration  1 RMS(Cart)=  0.03979552 RMS(Int)=  0.00121477
 Iteration  2 RMS(Cart)=  0.00176028 RMS(Int)=  0.00012763
 Iteration  3 RMS(Cart)=  0.00000398 RMS(Int)=  0.00012760
 Iteration  4 RMS(Cart)=  0.00000000 RMS(Int)=  0.00012760
 Variable       Old X    -DE/DX   Delta X   Delta X   Delta X     New X
                                 (Linear)    (Quad)   (Total)
    R1        2.68688  -0.00202   0.00000  -0.00473  -0.00473   2.68215
    R2        2.06789  -0.00105   0.00000  -0.00301  -0.00301   2.06488
    R3        2.06928   0.00171   0.00000   0.00493   0.00493   2.07421
    R4        2.06933   0.00162   0.00000   0.00466   0.00466   2.07399
    R5        2.58426   0.00073   0.00000   0.00140   0.00140   2.58566
    R6        2.63861   0.00367   0.00000   0.00830   0.00827   2.64688
    R7        2.63525   0.00354   0.00000   0.00793   0.00790   2.64315
    R8        2.63925  -0.00302   0.00000  -0.00640  -0.00641   2.63284
    R9        2.05497  -0.00108   0.00000  -0.00302  -0.00302   2.05195
   R10        2.64414   0.00407   0.00000   0.00836   0.00839   2.65253
   R11        2.05630  -0.00091   0.00000  -0.00257  -0.00257   2.05373
   R12        2.85574   0.00536   0.00000   0.01687   0.01687   2.87261
   R13        2.64679  -0.00099   0.00000  -0.00262  -0.00259   2.64420
   R14        2.88849   0.00364   0.00000   0.01208   0.01208   2.90058
   R15        2.07304  -0.00094   0.00000  -0.00271  -0.00271   2.07033
   R16        2.07266   0.00174   0.00000   0.00502   0.00502   2.07768
   R17        2.69173   0.00095   0.00000   0.00225   0.00225   2.69398
   R18        2.06938   0.00373   0.00000   0.01074   0.01074   2.08012
   R19        2.06838   0.00040   0.00000   0.00116   0.00116   2.06954
   R20        1.84129  -0.00340   0.00000  -0.00641  -0.00641   1.83488
   R21        2.64501  -0.00112   0.00000  -0.00247  -0.00247   2.64254
   R22        2.05615  -0.00062   0.00000  -0.00174  -0.00174   2.05441
   R23        2.04987   0.00010   0.00000   0.00028   0.00028   2.05015
    A1        1.88123  -0.00628   0.00000  -0.03555  -0.03547   1.84576
    A2        1.93946   0.00175   0.00000   0.00932   0.00938   1.94883
    A3        1.93998   0.00150   0.00000   0.00776   0.00782   1.94780
    A4        1.87957   0.00326   0.00000   0.02241   0.02250   1.90207
    A5        1.87962   0.00334   0.00000   0.02282   0.02290   1.90252
    A6        1.94090  -0.00356   0.00000  -0.02615  -0.02612   1.91478
    A7        2.03986   0.00395   0.00000   0.01549   0.01549   2.05535
    A8        2.00212   0.00529   0.00000   0.02012   0.02014   2.02226
    A9        2.20100  -0.00531   0.00000  -0.02145  -0.02143   2.17957
   A10        2.08007   0.00002   0.00000   0.00133   0.00128   2.08135
   A11        2.10753  -0.00203   0.00000  -0.00838  -0.00841   2.09912
   A12        2.08766  -0.00192   0.00000  -0.01364  -0.01363   2.07402
   A13        2.08800   0.00395   0.00000   0.02202   0.02203   2.11003
   A14        2.09966   0.00450   0.00000   0.01876   0.01878   2.11844
   A15        2.07952  -0.00088   0.00000  -0.00106  -0.00109   2.07843
   A16        2.10401  -0.00362   0.00000  -0.01769  -0.01771   2.08630
   A17        2.10364   0.00310   0.00000   0.01307   0.01295   2.11659
   A18        2.07432  -0.00529   0.00000  -0.02296  -0.02295   2.05136
   A19        2.10508   0.00219   0.00000   0.00951   0.00939   2.11447
   A20        1.96303   0.00150   0.00000   0.00721   0.00708   1.97011
   A21        1.90803   0.00137   0.00000   0.00678   0.00660   1.91463
   A22        1.89662   0.00155   0.00000   0.03074   0.03058   1.92720
   A23        1.91643  -0.00404   0.00000  -0.04417  -0.04428   1.87215
   A24        1.91422  -0.00115   0.00000  -0.00313  -0.00352   1.91070
   A25        1.86270   0.00081   0.00000   0.00316   0.00266   1.86537
   A26        1.94070   0.00403   0.00000   0.02143   0.02147   1.96217
   A27        1.95931  -0.00691   0.00000  -0.04311  -0.04333   1.91598
   A28        1.91164   0.00256   0.00000   0.01282   0.01279   1.92442
   A29        1.89584   0.00389   0.00000   0.04283   0.04321   1.93905
   A30        1.87002  -0.00422   0.00000  -0.02790  -0.02788   1.84215
   A31        1.88332   0.00064   0.00000  -0.00627  -0.00625   1.87707
   A32        1.86507  -0.00106   0.00000  -0.00643  -0.00643   1.85864
   A33        2.10655   0.00485   0.00000   0.01998   0.02003   2.12658
   A34        2.09952  -0.00299   0.00000  -0.01342  -0.01345   2.08607
   A35        2.07711  -0.00186   0.00000  -0.00656  -0.00660   2.07052
   A36        2.09825  -0.00204   0.00000  -0.00873  -0.00874   2.08951
   A37        2.12570  -0.00139   0.00000  -0.01026  -0.01026   2.11544
   A38        2.05924   0.00343   0.00000   0.01900   0.01900   2.07823
    D1        3.13452  -0.00002   0.00000  -0.00061  -0.00060   3.13392
    D2       -1.09303   0.00112   0.00000   0.01031   0.01026  -1.08277
    D3        1.07852  -0.00112   0.00000  -0.01113  -0.01110   1.06742
    D4       -3.12919   0.00005   0.00000   0.00147   0.00146  -3.12773
    D5        0.01368  -0.00008   0.00000  -0.00296  -0.00296   0.01072
    D6       -3.14085  -0.00015   0.00000  -0.00621  -0.00622   3.13612
    D7        0.00219  -0.00002   0.00000  -0.00132  -0.00139   0.00081
    D8       -0.00044  -0.00004   0.00000  -0.00212  -0.00209  -0.00253
    D9       -3.14059   0.00009   0.00000   0.00277   0.00275  -3.13783
   D10        3.14007   0.00016   0.00000   0.00588   0.00582  -3.13729
   D11       -0.00159   0.00002   0.00000   0.00109   0.00108  -0.00051
   D12       -0.00019   0.00002   0.00000   0.00126   0.00125   0.00106
   D13        3.14133  -0.00011   0.00000  -0.00353  -0.00349   3.13784
   D14       -0.00015   0.00001   0.00000  -0.00078  -0.00079  -0.00094
   D15        3.14095   0.00018   0.00000   0.00624   0.00627  -3.13597
   D16        3.14000  -0.00012   0.00000  -0.00570  -0.00576   3.13424
   D17       -0.00209   0.00004   0.00000   0.00132   0.00130  -0.00079
   D18        3.12429  -0.00037   0.00000  -0.01851  -0.01845   3.10584
   D19        0.00134   0.00003   0.00000   0.00447   0.00436   0.00569
   D20       -0.01680  -0.00054   0.00000  -0.02564  -0.02555  -0.04235
   D21       -3.13975  -0.00014   0.00000  -0.00266  -0.00274   3.14069
   D22       -1.73997   0.00186   0.00000   0.07024   0.07053  -1.66944
   D23        0.39363  -0.00131   0.00000   0.02358   0.02358   0.41721
   D24        2.42043   0.00127   0.00000   0.04817   0.04824   2.46867
   D25        1.38265   0.00137   0.00000   0.04651   0.04656   1.42921
   D26       -2.76693  -0.00180   0.00000  -0.00015  -0.00040  -2.76732
   D27       -0.74014   0.00077   0.00000   0.02443   0.02426  -0.71587
   D28       -0.00197  -0.00005   0.00000  -0.00536  -0.00524  -0.00721
   D29        3.14147   0.00008   0.00000   0.00027   0.00037  -3.14134
   D30       -3.12491   0.00034   0.00000   0.01760   0.01749  -3.10741
   D31        0.01853   0.00047   0.00000   0.02323   0.02311   0.04165
   D32        1.22213   0.00002   0.00000  -0.07985  -0.07996   1.14218
   D33       -0.90587  -0.00302   0.00000  -0.12008  -0.11982  -1.02569
   D34       -2.99757  -0.00111   0.00000  -0.09311  -0.09305  -3.09063
   D35       -0.90672   0.00013   0.00000  -0.06197  -0.06210  -0.96882
   D36       -3.03471  -0.00291   0.00000  -0.10221  -0.10197  -3.13669
   D37        1.15676  -0.00100   0.00000  -0.07524  -0.07520   1.08156
   D38       -2.94831   0.00219   0.00000  -0.03815  -0.03845  -2.98676
   D39        1.20687  -0.00085   0.00000  -0.07839  -0.07832   1.12856
   D40       -0.88483   0.00106   0.00000  -0.05142  -0.05155  -0.93638
   D41       -1.11490   0.00229   0.00000   0.02056   0.02011  -1.09479
   D42        1.04957  -0.00104   0.00000   0.01017   0.01068   1.06025
   D43        3.07986  -0.00053   0.00000   0.00996   0.00990   3.08976
   D44        0.00141   0.00003   0.00000   0.00254   0.00253   0.00394
   D45       -3.14011   0.00016   0.00000   0.00715   0.00717  -3.13294
   D46        3.14118  -0.00010   0.00000  -0.00303  -0.00305   3.13813
   D47       -0.00034   0.00003   0.00000   0.00158   0.00159   0.00125
         Item               Value     Threshold  Converged?
 Maximum Force            0.006907     0.000450     NO 
 RMS     Force            0.002403     0.000300     NO 
 Maximum Displacement     0.180148     0.001800     NO 
 RMS     Displacement     0.039527     0.001200     NO 
 Predicted change in Energy=-2.134876D-03
 GradGradGradGradGradGradGradGradGradGradGradGradGradGradGradGradGradGrad

 Leave Link  103 at Fri Sep  3 00:05:46 2021, MaxMem=  268435456 cpu:       0.0
 (Enter /sw/target/amd/app/gaussian/Gaussian09RevA.02_gcc-4.9.2/g09/l202.exe)
                          Input orientation:                          
 ---------------------------------------------------------------------
 Center     Atomic      Atomic             Coordinates (Angstroms)
 Number     Number       Type             X           Y           Z
 ---------------------------------------------------------------------
      1          6           0        3.796174    1.192908   -0.548648
      2          8           0        3.077098   -0.013176   -0.755514
      3          6           0        1.798635   -0.083743   -0.273104
      4          6           0        1.132050   -1.297448   -0.483956
      5          6           0       -0.171703   -1.471698   -0.024635
      6          6           0       -0.849395   -0.448621    0.656764
      7          6           0       -2.287603   -0.624811    1.116420
      8          6           0       -3.306368   -0.049572    0.122842
      9          8           0       -3.308090   -0.748093   -1.119890
     10          6           0       -0.169579    0.758568    0.852845
     11          6           0        1.139567    0.950037    0.400154
     12          1           0        4.779233    1.033025   -0.998084
     13          1           0        3.311205    2.043805   -1.044184
     14          1           0        3.922613    1.409737    0.519774
     15          1           0        1.651373   -2.096596   -1.004264
     16          1           0       -0.668800   -2.423160   -0.194106
     17          1           0       -2.510910   -1.691323    1.230270
     18          1           0       -2.434823   -0.160846    2.102257
     19          1           0       -3.115656    1.024209   -0.026416
     20          1           0       -4.322191   -0.152591    0.518883
     21          1           0       -2.425902   -0.625115   -1.506440
     22          1           0       -0.663892    1.572761    1.376899
     23          1           0        1.626963    1.901745    0.583690
 ---------------------------------------------------------------------
                    Distance matrix (angstroms):
                    1          2          3          4          5
     1  C    0.000000
     2  O    1.419332   0.000000
     3  C    2.386614   1.368272   0.000000
     4  C    3.647412   2.346552   1.400668   0.000000
     5  C    4.808197   3.635406   2.422888   1.393238   0.000000
     6  C    5.072371   4.195412   2.830168   2.438826   1.403658
     7  C    6.564213   5.714739   4.349812   3.835058   2.548775
     8  C    7.241599   6.443716   5.120449   4.650264   3.445333
     9  O    7.386770   6.437663   5.218912   4.518965   3.400016
    10  C    4.228478   3.704500   2.418907   2.776414   2.396677
    11  C    2.831391   2.453034   1.398695   2.415138   2.786516
    12  H    1.092685   2.012621   3.264466   4.358598   5.633206
    13  H    1.097624   2.090289   2.721929   4.028218   5.052612
    14  H    1.097510   2.089483   2.714852   4.015416   5.036117
    15  H    3.953302   2.536770   2.146592   1.085843   2.161892
    16  H    5.756530   4.489426   3.401079   2.143432   1.086787
    17  H    7.159794   6.163226   4.839072   4.045352   2.663628
    18  H    6.905452   6.210470   4.854940   4.550049   3.371011
    19  H    6.933584   6.321231   5.043676   4.862349   3.859587
    20  H    8.298063   7.509528   6.172236   5.662608   4.388850
    21  H    6.552618   5.587608   4.434063   3.762516   2.827342
    22  H    4.872803   4.588833   3.395667   3.863456   3.387518
    23  H    2.547571   2.750142   2.169270   3.408759   3.871095
                    6          7          8          9         10
     6  C    0.000000
     7  C    1.520121   0.000000
     8  C    2.545787   1.534920   0.000000
     9  O    3.048174   2.461234   1.425594   0.000000
    10  C    1.399251   2.543468   3.320458   4.001495   0.000000
    11  C    2.445007   3.839097   4.565354   4.997582   1.398374
    12  H    6.051054   7.560405   8.234406   8.282030   5.290748
    13  H    5.139650   6.567828   7.038214   7.184393   4.167303
    14  H    5.122921   6.562176   7.385479   7.721904   4.157041
    15  H    3.424716   4.709457   5.480865   5.140828   3.862212
    16  H    2.157637   2.751738   3.562463   3.260181   3.386550
    17  H    2.152638   1.095572   2.134127   2.654888   3.409728
    18  H    2.164682   1.099460   2.165654   3.389644   2.745484
    19  H    2.787814   2.170487   1.100751   2.091356   3.085942
    20  H    3.488117   2.172462   1.095152   2.017077   4.264496
    21  H    2.682532   2.626503   1.939337   0.970979   3.545673
    22  H    2.153832   2.744741   3.344742   4.314175   1.087147
    23  H    3.414953   4.689468   5.325201   5.854791   2.146360
                   11         12         13         14         15
    11  C    0.000000
    12  H    3.899889   0.000000
    13  H    2.828155   1.782949   0.000000
    14  H    2.823293   1.783145   1.794946   0.000000
    15  H    3.393569   4.424712   4.460892   4.446976   0.000000
    16  H    3.873214   6.501743   6.042917   6.023437   2.479153
    17  H    4.581687   8.095297   7.281576   7.177158   4.741518
    18  H    4.111870   7.942295   6.912121   6.737060   5.485855
    19  H    4.277194   7.954464   6.586348   7.069950   5.781019
    20  H    5.573211   9.302839   8.095436   8.391524   6.463947
    21  H    4.339213   7.410927   6.344385   6.967770   4.363670
    22  H    2.143427   5.963177   4.678133   4.668755   4.949200
    23  H    1.084891   3.632285   2.346663   2.348652   4.302200
                   16         17         18         19         20
    16  H    0.000000
    17  H    2.440861   0.000000
    18  H    3.675621   1.763097   0.000000
    19  H    4.230789   3.052719   2.529652   0.000000
    20  H    4.360173   2.480828   2.463595   1.771422   0.000000
    21  H    2.835946   2.938299   3.638450   2.320883   2.814449
    22  H    4.293654   3.753295   2.582195   2.877734   4.134753
    23  H    4.957852   5.518170   4.801919   4.861557   6.294198
                   21         22         23
    21  H    0.000000
    22  H    4.031003   0.000000
    23  H    5.213385   2.446514   0.000000
 Stoichiometry    C9H12O2
 Framework group  C1[X(C9H12O2)]
 Deg. of freedom    63
 Full point group                 C1      NOp   1
 Largest Abelian subgroup         C1      NOp   1
 Largest concise Abelian subgroup C1      NOp   1
                         Standard orientation:                         
 ---------------------------------------------------------------------
 Center     Atomic      Atomic             Coordinates (Angstroms)
 Number     Number       Type             X           Y           Z
 ---------------------------------------------------------------------
      1          6           0        3.953931   -0.456504    0.489382
      2          8           0        3.055002    0.598465    0.183649
      3          6           0        1.747649    0.272817   -0.054989
      4          6           0        0.899213    1.341940   -0.369637
      5          6           0       -0.449139    1.113632   -0.635969
      6          6           0       -0.992625   -0.180005   -0.598774
      7          6           0       -2.473229   -0.421238   -0.844509
      8          6           0       -3.287404   -0.507131    0.453844
      9          8           0       -3.305837    0.727224    1.166827
     10          6           0       -0.131097   -1.234557   -0.276917
     11          6           0        1.224996   -1.023728   -0.008564
     12          1           0        4.928378    0.016419    0.633460
     13          1           0        3.669307   -0.976342    1.413252
     14          1           0        4.025164   -1.178131   -0.334454
     15          1           0        1.312882    2.345195   -0.407247
     16          1           0       -1.088927    1.956633   -0.883207
     17          1           0       -2.888672    0.402826   -1.434935
     18          1           0       -2.620138   -1.339697   -1.430737
     19          1           0       -2.899654   -1.322610    1.083366
     20          1           0       -4.335485   -0.732533    0.230057
     21          1           0       -2.386149    0.916452    1.414146
     22          1           0       -0.517918   -2.249854   -0.239094
     23          1           0        1.854118   -1.875228    0.228381
 ---------------------------------------------------------------------
 Rotational constants (GHZ):      2.8905868      0.5253646      0.4958265
 Leave Link  202 at Fri Sep  3 00:05:46 2021, MaxMem=  268435456 cpu:       0.0
 (Enter /sw/target/amd/app/gaussian/Gaussian09RevA.02_gcc-4.9.2/g09/l301.exe)
 Standard basis: 6-31G(d) (6D, 7F)
 Ernie: Thresh=  0.10000D-02 Tol=  0.10000D-05 Strict=F.
 There are   189 symmetry adapted basis functions of A   symmetry.
 Integral buffers will be    131072 words long.
 Raffenetti 2 integral format.
 Two-electron integral symmetry is turned on.
   189 basis functions,   356 primitive gaussians,   189 cartesian basis functions
    41 alpha electrons       41 beta electrons
       nuclear repulsion energy       591.3241515556 Hartrees.
 IExCor=  402 DFT=T Ex+Corr=B3LYP ExCW=0 ScaHFX=  0.200000
 ScaDFX=  0.800000  0.720000  1.000000  0.810000 ScalE2=  1.000000  1.000000
 IRadAn=      0 IRanWt=     -1 IRanGd=            0 ICorTp=0
 NAtoms=   23 NActive=   23 NUniq=   23 SFac= 7.50D-01 NAtFMM=   80 NAOKFM=F Big=F
 Leave Link  301 at Fri Sep  3 00:05:46 2021, MaxMem=  268435456 cpu:       0.1
 (Enter /sw/target/amd/app/gaussian/Gaussian09RevA.02_gcc-4.9.2/g09/l302.exe)
 NPDir=0 NMtPBC=     1 NCelOv=     1 NCel=       1 NClECP=     1 NCelD=      1
         NCelK=      1 NCelE2=     1 NClLst=     1 CellRange=     0.0.
 One-electron integrals computed using PRISM.
 NBasis=   189 RedAO= T  NBF=   189
 NBsUse=   189 1.00D-06 NBFU=   189
 Precomputing XC quadrature grid using
 IXCGrd= 2 IRadAn=           0 IRanWt=          -1 IRanGd=           0 AccXCQ= 1.00D-10.
 NRdTot=    1453 NPtTot=      184916 NUsed=      195399 NTot=      195431
 NSgBfM=   188   188   188   188   188 NAtAll=    23    23.
 Leave Link  302 at Fri Sep  3 00:05:47 2021, MaxMem=  268435456 cpu:       0.9
 (Enter /sw/target/amd/app/gaussian/Gaussian09RevA.02_gcc-4.9.2/g09/l303.exe)
 DipDrv:  MaxL=1.
 Leave Link  303 at Fri Sep  3 00:05:47 2021, MaxMem=  268435456 cpu:       0.1
 (Enter /sw/target/amd/app/gaussian/Gaussian09RevA.02_gcc-4.9.2/g09/l401.exe)
 Initial guess read from the read-write file.
 B after Tr=     0.000000    0.000000    0.000000
         Rot=    1.000000    0.000000    0.000000    0.000000 Ang=   0.00 deg.
 Guess basis will be translated and rotated to current coordinates.
 Initial guess orbital symmetries:
       Occupied  (A) (A) (A) (A) (A) (A) (A) (A) (A) (A) (A) (A)
                 (A) (A) (A) (A) (A) (A) (A) (A) (A) (A) (A) (A)
                 (A) (A) (A) (A) (A) (A) (A) (A) (A) (A) (A) (A)
                 (A) (A) (A) (A) (A)
       Virtual   (A) (A) (A) (A) (A) (A) (A) (A) (A) (A) (A) (A)
                 (A) (A) (A) (A) (A) (A) (A) (A) (A) (A) (A) (A)
[...]
    11  C    0.000000
    12  H    3.903891   0.000000
    13  H    2.828743   1.785365   0.000000
    14  H    2.827761   1.785480   1.789277   0.000000
    15  H    3.394617   4.414829   4.456110   4.445157   0.000000
    16  H    3.874505   6.500027   6.043321   6.027780   2.485563
    17  H    4.557620   8.088580   7.281006   7.141915   4.789306
    18  H    4.067496   7.925483   6.848200   6.734782   5.524924
    19  H    4.405253   8.020820   6.682553   7.207802   5.688150
    20  H    5.635085   9.314469   8.146018   8.454775   6.339760
    21  H    4.362200   7.345478   6.363696   6.945129   4.112936
    22  H    2.144135   5.969673   4.680488   4.676585   4.951600
    23  H    1.084175   3.634872   2.346349   2.347579   4.299548
                   16         17         18         19         20
    16  H    0.000000
    17  H    2.517854   0.000000
    18  H    3.732854   1.766645   0.000000
    19  H    4.081243   3.063581   2.478520   0.000000
    20  H    4.180552   2.460241   2.474585   1.773387   0.000000
    21  H    2.532000   3.011111   3.622127   2.330013   2.816542
    22  H    4.293198   3.696614   2.474169   3.146349   4.302234
    23  H    4.958471   5.483395   4.743163   5.045977   6.402254
                   21         22         23
    21  H    0.000000
    22  H    4.178701   0.000000
    23  H    5.285024   2.451623   0.000000
 Stoichiometry    C9H12O2
 Framework group  C1[X(C9H12O2)]
 Deg. of freedom    63
 Full point group                 C1      NOp   1
 Largest Abelian subgroup         C1      NOp   1
 Largest concise Abelian subgroup C1      NOp   1
                         Standard orientation:                         
 ---------------------------------------------------------------------
 Center     Atomic      Atomic             Coordinates (Angstroms)
 Number     Number       Type             X           Y           Z
 ---------------------------------------------------------------------
      1          6           0       -3.973054    0.324714    0.492673
      2          8           0       -3.024280   -0.659741    0.116311
      3          6           0       -1.730081   -0.268140   -0.078144
      4          6           0       -0.837511   -1.279031   -0.461190
      5          6           0        0.500951   -0.979265   -0.688572
      6          6           0        0.995190    0.329706   -0.543096
      7          6           0        2.464504    0.632168   -0.738395
      8          6           0        3.296244    0.381781    0.534164
      9          8           0        3.256881   -0.970586    0.963777
     10          6           0        0.088744    1.322522   -0.158502
     11          6           0       -1.260819    1.041932    0.072160
     12          1           0       -4.925916   -0.198946    0.589503
     13          1           0       -3.715786    0.788478    1.454436
     14          1           0       -4.066938    1.108884   -0.270540
     15          1           0       -1.217684   -2.288792   -0.581937
     16          1           0        1.177408   -1.771982   -0.999627
     17          1           0        2.874142    0.007613   -1.541587
     18          1           0        2.599368    1.679189   -1.040220
     19          1           0        2.960029    1.062917    1.333215
     20          1           0        4.350747    0.599862    0.335023
     21          1           0        2.330952   -1.174897    1.173814
     22          1           0        0.436997    2.346592   -0.040102
     23          1           0       -1.929133    1.845375    0.360728
 ---------------------------------------------------------------------
 Rotational constants (GHZ):      2.9205312      0.5329300      0.4955964
 Leave Link  202 at Fri Sep  3 00:23:07 2021, MaxMem=  268435456 cpu:       0.0
 (Enter /sw/target/amd/app/gaussian/Gaussian09RevA.02_gcc-4.9.2/g09/l601.exe)
 Copying SCF densities to generalized density rwf, IOpCl= 0 IROHF=0.

 **********************************************************************

            Population analysis using the SCF density.

 **********************************************************************

 Orbital symmetries:
       Occupied  (A) (A) (A) (A) (A) (A) (A) (A) (A) (A) (A) (A)
                 (A) (A) (A) (A) (A) (A) (A) (A) (A) (A) (A) (A)
                 (A) (A) (A) (A) (A) (A) (A) (A) (A) (A) (A) (A)
                 (A) (A) (A) (A) (A)
       Virtual   (A) (A) (A) (A) (A) (A) (A) (A) (A) (A) (A) (A)
                 (A) (A) (A) (A) (A) (A) (A) (A) (A) (A) (A) (A)
                 (A) (A) (A) (A) (A) (A) (A) (A) (A) (A) (A) (A)
                 (A) (A) (A) (A) (A) (A) (A) (A) (A) (A) (A) (A)
                 (A) (A) (A) (A) (A) (A) (A) (A) (A) (A) (A) (A)
                 (A) (A) (A) (A) (A) (A) (A) (A) (A) (A) (A) (A)
                 (A) (A) (A) (A) (A) (A) (A) (A) (A) (A) (A) (A)
                 (A) (A) (A) (A) (A) (A) (A) (A) (A) (A) (A) (A)
                 (A) (A) (A) (A) (A) (A) (A) (A) (A) (A) (A) (A)
                 (A) (A) (A) (A) (A) (A) (A) (A) (A) (A) (A) (A)
                 (A) (A) (A) (A) (A) (A) (A) (A) (A) (A) (A) (A)
                 (A) (A) (A) (A) (A) (A) (A) (A) (A) (A) (A) (A)
                 (A) (A) (A) (A)
 The electronic state is 1-A.
 Alpha  occ. eigenvalues --  -19.17924 -19.13522 -10.24806 -10.24330 -10.22630
 Alpha  occ. eigenvalues --  -10.19202 -10.19109 -10.19029 -10.18999 -10.18622
 Alpha  occ. eigenvalues --  -10.18513  -1.06499  -1.00833  -0.85406  -0.78028
 Alpha  occ. eigenvalues --   -0.74919  -0.72998  -0.68876  -0.62399  -0.61013
 Alpha  occ. eigenvalues --   -0.57466  -0.53340  -0.50047  -0.48476  -0.47217
 Alpha  occ. eigenvalues --   -0.47000  -0.44560  -0.43764  -0.42267  -0.41604
 Alpha  occ. eigenvalues --   -0.40781  -0.38138  -0.37279  -0.35465  -0.35056
 Alpha  occ. eigenvalues --   -0.32603  -0.31980  -0.31395  -0.26182  -0.25260
 Alpha  occ. eigenvalues --   -0.21604
 Alpha virt. eigenvalues --   -0.00535   0.00958   0.08855   0.10025   0.10844
 Alpha virt. eigenvalues --    0.12018   0.13210   0.13845   0.15254   0.15815
 Alpha virt. eigenvalues --    0.16177   0.16653   0.17056   0.17822   0.18811
 Alpha virt. eigenvalues --    0.20436   0.22452   0.23680   0.26269   0.26741
 Alpha virt. eigenvalues --    0.32221   0.33396   0.34348   0.36900   0.47764
 Alpha virt. eigenvalues --    0.49928   0.51057   0.52109   0.53633   0.54186
 Alpha virt. eigenvalues --    0.54424   0.55883   0.57060   0.58193   0.59176
 Alpha virt. eigenvalues --    0.60405   0.60751   0.62301   0.63810   0.63930
 Alpha virt. eigenvalues --    0.64832   0.67745   0.68603   0.73958   0.74303
 Alpha virt. eigenvalues --    0.76223   0.80286   0.82474   0.82502   0.83821
 Alpha virt. eigenvalues --    0.84363   0.84624   0.85627   0.86301   0.89075
 Alpha virt. eigenvalues --    0.89601   0.90898   0.91662   0.93320   0.94999
 Alpha virt. eigenvalues --    0.95597   0.95811   0.99027   1.01260   1.02715
 Alpha virt. eigenvalues --    1.04479   1.05401   1.07034   1.09660   1.15438
 Alpha virt. eigenvalues --    1.18504   1.19717   1.24259   1.25463   1.26647
 Alpha virt. eigenvalues --    1.30761   1.35342   1.37464   1.40319   1.42402
 Alpha virt. eigenvalues --    1.44919   1.45406   1.46586   1.51379   1.52316
 Alpha virt. eigenvalues --    1.54389   1.58557   1.62702   1.68254   1.69310
 Alpha virt. eigenvalues --    1.76710   1.80659   1.82379   1.83252   1.85515
 Alpha virt. eigenvalues --    1.87784   1.90162   1.92253   1.93853   1.97110
 Alpha virt. eigenvalues --    1.98236   2.00239   2.01982   2.06473   2.08357
 Alpha virt. eigenvalues --    2.10107   2.10187   2.12924   2.14602   2.15176
 Alpha virt. eigenvalues --    2.19592   2.23786   2.24845   2.28880   2.31057
 Alpha virt. eigenvalues --    2.31840   2.35553   2.36109   2.39346   2.40743
 Alpha virt. eigenvalues --    2.42419   2.50656   2.53430   2.54811   2.63190
 Alpha virt. eigenvalues --    2.64533   2.66737   2.68147   2.69943   2.77064
 Alpha virt. eigenvalues --    2.80760   2.84371   2.89443   2.93857   2.99035
 Alpha virt. eigenvalues --    3.17793   3.42124   3.77162   4.05034   4.10883
 Alpha virt. eigenvalues --    4.12313   4.19154   4.25770   4.31607   4.36246
 Alpha virt. eigenvalues --    4.46616   4.51032   4.76485
          Condensed to atoms (all electrons):
              1          2          3          4          5          6
     1  C    4.893580   0.249262  -0.043144   0.004198  -0.000125  -0.000006
     2  O    0.249262   8.198284   0.280001  -0.054206   0.003087   0.000194
     3  C   -0.043144   0.280001   4.505523   0.541475  -0.016288  -0.032018
     4  C    0.004198  -0.054206   0.541475   5.002646   0.502451  -0.031901
     5  C   -0.000125   0.003087  -0.016288   0.502451   5.003798   0.525338
     6  C   -0.000006   0.000194  -0.032018  -0.031901   0.525338   4.687131
     7  C   -0.000000   0.000000   0.000213   0.006915  -0.061670   0.358638
     8  C   -0.000000   0.000000   0.000023  -0.000076  -0.005142  -0.034671
     9  O   -0.000000  -0.000000   0.000004   0.000042   0.003940  -0.010840
    10  C    0.000341   0.003862  -0.001149  -0.044575  -0.034568   0.553590
    11  C   -0.006624  -0.061353   0.472576  -0.064757  -0.047138  -0.024134
    12  H    0.386524  -0.033544   0.003208  -0.000112   0.000004  -0.000000
    13  H    0.362480  -0.035610  -0.004408   0.000037  -0.000002  -0.000002
    14  H    0.362568  -0.035565  -0.004428   0.000051   0.000000  -0.000005
    15  H   -0.000213   0.000043  -0.036539   0.343970  -0.039821   0.004010
    16  H    0.000003  -0.000057   0.004201  -0.041969   0.356198  -0.045891
    17  H    0.000000  -0.000000   0.000009   0.000182  -0.004513  -0.035612
    18  H    0.000000  -0.000000  -0.000001  -0.000144   0.005163  -0.031421
    19  H    0.000000  -0.000000  -0.000017   0.000025   0.000890  -0.009137
    20  H    0.000000   0.000000  -0.000000   0.000001   0.000048   0.005267
    21  H    0.000000   0.000000  -0.000051   0.000023   0.011523   0.012382
    22  H   -0.000007  -0.000051   0.003238   0.000513   0.006290  -0.042888
    23  H    0.006142  -0.007761  -0.045878   0.004526   0.000710   0.003438
              7          8          9         10         11         12
     1  C   -0.000000  -0.000000  -0.000000   0.000341  -0.006624   0.386524
     2  O    0.000000   0.000000  -0.000000   0.003862  -0.061353  -0.033544
     3  C    0.000213   0.000023   0.000004  -0.001149   0.472576   0.003208
     4  C    0.006915  -0.000076   0.000042  -0.044575  -0.064757  -0.000112
     5  C   -0.061670  -0.005142   0.003940  -0.034568  -0.047138   0.000004
     6  C    0.358638  -0.034671  -0.010840   0.553590  -0.024134  -0.000000
     7  C    5.241918   0.330823  -0.049660  -0.056336   0.007111  -0.000000
     8  C    0.330823   4.820644   0.277808  -0.002583  -0.000081   0.000000
     9  O   -0.049660   0.277808   8.236783  -0.000283   0.000015   0.000000
    10  C   -0.056336  -0.002583  -0.000283   4.980899   0.470777   0.000002
    11  C    0.007111  -0.000081   0.000015   0.470777   5.119515   0.000227
    12  H   -0.000000   0.000000   0.000000   0.000002   0.000227   0.536905
    13  H    0.000000   0.000000   0.000000  -0.000164   0.004728  -0.031923
    14  H   -0.000000  -0.000000  -0.000000  -0.000168   0.004772  -0.031716
    15  H   -0.000144  -0.000000  -0.000002   0.000187   0.007446  -0.000030
    16  H   -0.008040   0.000026   0.002590   0.006281   0.000249  -0.000000
    17  H    0.359531  -0.036745   0.001116   0.003656  -0.000199   0.000000
    18  H    0.333279  -0.027025   0.003482  -0.006790   0.000190  -0.000000
    19  H   -0.052143   0.360136  -0.036926   0.002929  -0.000099   0.000000
    20  H   -0.037648   0.373143  -0.039308  -0.000017   0.000004  -0.000000
    21  H   -0.009400  -0.032361   0.229700   0.000150  -0.000126  -0.000000
    22  H   -0.009443   0.000361   0.000010   0.352855  -0.042673  -0.000000
    23  H   -0.000164   0.000001   0.000000  -0.036572   0.351693  -0.000108
             13         14         15         16         17         18
     1  C    0.362480   0.362568  -0.000213   0.000003   0.000000   0.000000
     2  O   -0.035610  -0.035565   0.000043  -0.000057  -0.000000  -0.000000
     3  C   -0.004408  -0.004428  -0.036539   0.004201   0.000009  -0.000001
     4  C    0.000037   0.000051   0.343970  -0.041969   0.000182  -0.000144
     5  C   -0.000002   0.000000  -0.039821   0.356198  -0.004513   0.005163
     6  C   -0.000002  -0.000005   0.004010  -0.045891  -0.035612  -0.031421
     7  C    0.000000  -0.000000  -0.000144  -0.008040   0.359531   0.333279
     8  C    0.000000  -0.000000  -0.000000   0.000026  -0.036745  -0.027025
     9  O    0.000000  -0.000000  -0.000002   0.002590   0.001116   0.003482
    10  C   -0.000164  -0.000168   0.000187   0.006281   0.003656  -0.006790
    11  C    0.004728   0.004772   0.007446   0.000249  -0.000199   0.000190
    12  H   -0.031923  -0.031716  -0.000030  -0.000000   0.000000  -0.000000
    13  H    0.601571  -0.049877   0.000029  -0.000000  -0.000000  -0.000000
    14  H   -0.049877   0.600402   0.000030  -0.000000   0.000000   0.000000
    15  H    0.000029   0.000030   0.587144  -0.006046  -0.000006   0.000002
    16  H   -0.000000  -0.000000  -0.006046   0.586720   0.005395   0.000057
    17  H   -0.000000   0.000000  -0.000006   0.005395   0.585272  -0.030917
    18  H   -0.000000   0.000000   0.000002   0.000057  -0.030917   0.610264
    19  H   -0.000000   0.000000   0.000000   0.000143   0.006453   0.001309
    20  H   -0.000000   0.000000  -0.000000  -0.000076  -0.005914   0.000009
    21  H   -0.000000   0.000000  -0.000005  -0.000182  -0.000369   0.000059
    22  H    0.000002   0.000004   0.000017  -0.000195   0.000049   0.005515
    23  H    0.001768   0.001884  -0.000167   0.000016   0.000003  -0.000008
             19         20         21         22         23
     1  C    0.000000   0.000000   0.000000  -0.000007   0.006142
     2  O   -0.000000   0.000000   0.000000  -0.000051  -0.007761
     3  C   -0.000017  -0.000000  -0.000051   0.003238  -0.045878
     4  C    0.000025   0.000001   0.000023   0.000513   0.004526
     5  C    0.000890   0.000048   0.011523   0.006290   0.000710
     6  C   -0.009137   0.005267   0.012382  -0.042888   0.003438
     7  C   -0.052143  -0.037648  -0.009400  -0.009443  -0.000164
     8  C    0.360136   0.373143  -0.032361   0.000361   0.000001
     9  O   -0.036926  -0.039308   0.229700   0.000010   0.000000
    10  C    0.002929  -0.000017   0.000150   0.352855  -0.036572
    11  C   -0.000099   0.000004  -0.000126  -0.042673   0.351693
    12  H    0.000000  -0.000000  -0.000000  -0.000000  -0.000108
    13  H   -0.000000  -0.000000  -0.000000   0.000002   0.001768
    14  H    0.000000   0.000000   0.000000   0.000004   0.001884
    15  H    0.000000  -0.000000  -0.000005   0.000017  -0.000167
    16  H    0.000143  -0.000076  -0.000182  -0.000195   0.000016
    17  H    0.006453  -0.005914  -0.000369   0.000049   0.000003
    18  H    0.001309   0.000009   0.000059   0.005515  -0.000008
    19  H    0.654334  -0.043444  -0.005699   0.000438   0.000002
    20  H   -0.043444   0.595665   0.007755  -0.000039  -0.000000
    21  H   -0.005699   0.007755   0.393045  -0.000002  -0.000000
    22  H    0.000438  -0.000039  -0.000002   0.606535  -0.005626
    23  H    0.000002  -0.000000  -0.000000  -0.005626   0.594304
 Mulliken atomic charges:
              1
     1  C   -0.214977
     2  O   -0.506586
     3  C    0.373449
     4  C   -0.169317
     5  C   -0.210173
     6  C    0.148538
     7  C   -0.353781
     8  C   -0.024281
     9  O   -0.618472
    10  C   -0.192326
    11  C   -0.192119
    12  H    0.170562
    13  H    0.151370
    14  H    0.152048
    15  H    0.140094
    16  H    0.140578
    17  H    0.152607
    18  H    0.136973
    19  H    0.120805
    20  H    0.144555
    21  H    0.393558
    22  H    0.125097
    23  H    0.131797
 Sum of Mulliken atomic charges =  -0.00000
 Mulliken charges with hydrogens summed into heavy atoms:
              1
     1  C    0.259004
     2  O   -0.506586
     3  C    0.373449
     4  C   -0.029223
     5  C   -0.069595
     6  C    0.148538
     7  C   -0.064201
     8  C    0.241080
     9  O   -0.224915
    10  C   -0.067229
    11  C   -0.060322
 Sum of Mulliken charges with hydrogens summed into heavy atoms =  -0.00000
 Electronic spatial extent (au):  <R**2>=           2313.3756
 Charge=              0.0000 electrons
 Dipole moment (field-independent basis, Debye):
    X=             -2.1864    Y=              2.0195    Z=              0.0712  Tot=              2.9772
 Quadrupole moment (field-independent basis, Debye-Ang):
   XX=            -64.0114   YY=            -62.8969   ZZ=            -67.2689
   XY=              1.2457   XZ=             -5.3511   YZ=              1.9485
 Traceless Quadrupole moment (field-independent basis, Debye-Ang):
   XX=              0.7143   YY=              1.8288   ZZ=             -2.5431
   XY=              1.2457   XZ=             -5.3511   YZ=              1.9485
 Octapole moment (field-independent basis, Debye-Ang**2):
  XXX=            -64.5201  YYY=             -5.4842  ZZZ=              7.8834  XYY=             -3.0688
  XXY=             32.7052  XXZ=             -4.4417  XZZ=             -2.3985  YZZ=             -2.9978
  YYZ=              0.3375  XYZ=              2.7757
 Hexadecapole moment (field-independent basis, Debye-Ang**3):
 XXXX=          -2246.0924 YYYY=           -382.8142 ZZZZ=           -210.5226 XXXY=             39.2225
 XXXZ=            -80.3049 YYYX=             -0.7128 YYYZ=              1.3549 ZZZX=              2.4829
 ZZZY=             -3.4768 XXYY=           -480.2870 XXZZ=           -439.9565 YYZZ=           -103.1714
 XXYZ=             20.2165 YYXZ=             -1.1346 ZZXY=             -1.4191
 N-N= 5.925536276339D+02 E-N=-2.350096868313D+03  KE= 4.959557827859D+02
 No NMR shielding tensors so no spin-rotation constants.
 Leave Link  601 at Fri Sep  3 00:23:07 2021, MaxMem=  268435456 cpu:       0.3
 (Enter /sw/target/amd/app/gaussian/Gaussian09RevA.02_gcc-4.9.2/g09/l9999.exe)
 1\1\GINC-HERMITE\FOpt\RB3LYP\6-31G(d)\C9H12O2\JSCHLEINITZ\03-Sep-2021\
 0\\#p b3lyp 6-31G* opt scf(xqc,tight)\\opt calculation\\0,1\C,3.810798
 9376,1.1684347997,-0.5499204656\O,3.0447687011,0.0010599124,-0.7977241
 589\C,1.7779054622,-0.0596414252,-0.2902909311\C,1.0705763597,-1.24084
 78823,-0.5543821303\C,-0.2248690327,-1.4007605784,-0.0755368394\C,-0.8
 582380815,-0.3960963467,0.6783423915\C,-2.2878755079,-0.5591612581,1.1
 453045872\C,-3.3133804055,-0.1361239428,0.076066384\O,-3.2272891863,-0
 .910734506,-1.1103489157\C,-0.1359220602,0.7747305121,0.928673014\C,1.
 1679735696,0.9535258035,0.4584154401\H,4.7742160017,1.0034379955,-1.03
 58695258\H,3.3376626157,2.0620140169,-0.9787668088\H,3.9701408905,1.32
 72194937,0.5250811937\H,1.5596761785,-2.0212485795,-1.1292599043\H,-0.
 7546004604,-2.3290882943,-0.2763918694\H,-2.4813611706,-1.6064346665,1
 .4075486516\H,-2.4623410828,0.0395343426,2.0489997857\H,-3.1962712762,
 0.93839949,-0.1410801483\H,-4.3285943155,-0.2882172191,0.4573822187\H,
 -2.3411610557,-0.7656971613,-1.4804083785\H,-0.5947072543,1.570774589,
 1.5116377742\H,1.6928911726,1.874921905,0.6840856353\\Version=AM64L-G0
 9RevA.02\State=1-A\HF=-500.6090565\RMSD=5.537e-09\RMSF=1.162e-05\Dipol
 e=0.7616611,0.7924235,0.4048649\Quadrupole=-0.7636472,2.1315927,-1.367
 9455,1.4664973,-3.9790229,0.3935361\PG=C01 [X(C9H12O2)]\\@


 A CHEMICAL PHYSICIST MAKES PRECISE MEASUREMENTS ON IMPURE COMPOUNDS.
 A THEORETICAL PHYSICAL CHEMIST MAKES IMPRECISE
     MEASUREMENTS ON PURE COMPOUNDS.
 AN EXPERIMENTAL PHYSICAL CHEMIST MAKES IMPRECISE
     MEASUREMENTS ON IMPURE COMPOUNDS.
 Job cpu time:  0 days  0 hours 19 minutes  1.9 seconds.
 File lengths (MBytes):  RWF=     21 Int=      0 D2E=      0 Chk=      4 Scr=      1
 Normal termination of Gaussian 09 at Fri Sep  3 00:23:07 2021.
