 Entering Gaussian System, Link 0=g09
 Input=mol_inp013.com
 Output=mol_inp013.log
 Initial command:
 /sw/target/amd/app/gaussian/Gaussian09RevA.02_gcc-4.9.2/g09/l1.exe /home/jschleinitz/optim_react/013/Gau-2803858.inp -scrdir=/home/jschleinitz/optim_react/013/
 Entering Link 1 = /sw/target/amd/app/gaussian/Gaussian09RevA.02_gcc-4.9.2/g09/l1.exe PID=   2803860.
  
 Copyright (c) 1988,1990,1992,1993,1995,1998,2003,2009, Gaussian, Inc.
                  All Rights Reserved.
  
 This is part of the Gaussian(R) 09 program.  It is based on
 the Gaussian(R) 03 system (copyright 2003, Gaussian, Inc.),
 the Gaussian(R) 98 system (copyright 1998, Gaussian, Inc.),
 the Gaussian(R) 94 system (copyright 1995, Gaussian, Inc.),
 the Gaussian 92(TM) system (copyright 1992, Gaussian, Inc.),
 the Gaussian 90(TM) system (copyright 1990, Gaussian, Inc.),
 the Gaussian 88(TM) system (copyright 1988, Gaussian, Inc.),
 the Gaussian 86(TM) system (copyright 1986, Carnegie Mellon
 University), and the Gaussian 82(TM) system (copyright 1983,
 Carnegie Mellon University). Gaussian is a federally registered
 trademark of Gaussian, Inc.
  
 This software contains proprietary and confidential information,
 including trade secrets, belonging to Gaussian, Inc.
  
 This software is provided under written license and may be
 used, copied, transmitted, or stored only in accord with that
 written license.
  
 The following legend is applicable only to US Government
 contracts under FAR:
  
                    RESTRICTED RIGHTS LEGEND
  
 Use, reproduction and disclosure by the US Government is
 subject to restrictions as set forth in subparagraphs (a)
 and (c) of the Commercial Computer Software - Restricted
 Rights clause in FAR 52.227-19.
  
 Gaussian, Inc.
 340 Quinnipiac St., Bldg. 40, Wallingford CT 06492
  
  
 ---------------------------------------------------------------
 Warning -- This program may not be used in any manner that
 competes with the business of Gaussian, Inc. or will provide
 assistance to any competitor of Gaussian, Inc.  The licensee
 of this program is prohibited from giving any competitor of
 Gaussian, Inc. access to this program.  By using this program,
 the user acknowledges that Gaussian, Inc. is engaged in the
 business of creating and licensing software in the field of
 computational chemistry and represents and warrants to the
 licensee that it is not a competitor of Gaussian, Inc. and that
 it will not use this program in any manner prohibited above.
 ---------------------------------------------------------------
  

 Cite this work as:
 Gaussian 09, Revision A.02,
 M. J. Frisch, G. W. Trucks, H. B. Schlegel, G. E. Scuseria, 
 M. A. Robb, J. R. Cheeseman, G. Scalmani, V. Barone, B. Mennucci, 
 G. A. Petersson, H. Nakatsuji, M. Caricato, X. Li, H. P. Hratchian, 
 A. F. Izmaylov, J. Bloino, G. Zheng, J. L. Sonnenberg, M. Hada, 
 M. Ehara, K. Toyota, R. Fukuda, J. Hasegawa, M. Ishida, T. Nakajima, 
 Y. Honda, O. Kitao, H. Nakai, T. Vreven, J. A. Montgomery, Jr., 
 J. E. Peralta, F. Ogliaro, M. Bearpark, J. J. Heyd, E. Brothers, 
 K. N. Kudin, V. N. Staroverov, R. Kobayashi, J. Normand, 
 K. Raghavachari, A. Rendell, J. C. Burant, S. S. Iyengar, J. Tomasi, 
 M. Cossi, N. Rega, J. M. Millam, M. Klene, J. E. Knox, J. B. Cross, 
 V. Bakken, C. Adamo, J. Jaramillo, R. Gomperts, R. E. Stratmann, 
 O. Yazyev, A. J. Austin, R. Cammi, C. Pomelli, J. W. Ochterski, 
 R. L. Martin, K. Morokuma, V. G. Zakrzewski, G. A. Voth, 
 P. Salvador, J. J. Dannenberg, S. Dapprich, A. D. Daniels, 
 O. Farkas, J. B. Foresman, J. V. Ortiz, J. Cioslowski, 
 and D. J. Fox, Gaussian, Inc., Wallingford CT, 2009.
 
 ******************************************
 Gaussian 09:  AM64L-G09RevA.02 11-Jun-2009
                 3-Sep-2021 
 ******************************************
 %chk=opt.chk
 %mem=2gb
 %nproc=1
 Will use up to    1 processors via shared memory.
 ----------------------------------
 #p b3lyp 6-31G* opt scf(xqc,tight)
 ----------------------------------
 1/14=-1,18=20,19=15,26=3,38=1/1,3;
 2/9=110,12=2,17=6,18=5,40=1/2;
 3/5=1,6=6,7=1,11=2,16=1,25=1,30=1,71=1,74=-5/1,2,3;
 4//1;
 5/5=2,8=3,13=1,32=2,38=5/2,8;
 6/7=2,8=2,9=2,10=2,28=1/1;
 7//1,2,3,16;
 1/14=-1,18=20,19=15/3(2);
 2/9=110/2;
 99//99;
 2/9=110/2;
 3/5=1,6=6,7=1,11=2,16=1,25=1,30=1,71=1,74=-5/1,2,3;
 4/5=5,16=3/1;
 5/5=2,8=3,13=1,32=2,38=5/2,8;
 7//1,2,3,16;
 1/14=-1,18=20,19=15/3(-5);
 2/9=110/2;
 6/7=2,8=2,9=2,10=2,19=2,28=1/1;
 99/9=1/99;
 Leave Link    1 at Fri Sep  3 00:04:55 2021, MaxMem=  268435456 cpu:       0.0
 (Enter /sw/target/amd/app/gaussian/Gaussian09RevA.02_gcc-4.9.2/g09/l101.exe)
 ---------------
 opt calculation
 ---------------
 Symbolic Z-matrix:
 Charge =  0 Multiplicity = 1
 C                     4.84766  -0.62103  -0.81577 
 O                     3.53993  -0.95716  -1.2604 
 C                     2.49038  -0.42803  -0.55766 
 C                     2.58834   0.41174   0.54849 
 C                     1.44231   0.89661   1.19406 
 C                     0.18488   0.51393   0.6999 
 C                     0.05768  -0.32135  -0.41022 
 C                     1.2285   -0.79558  -1.03994 
 C                    -1.33833  -0.49981  -0.66139 
 C                    -2.06755  -1.21746  -1.63373 
 C                    -3.46522  -1.18153  -1.6186 
 C                    -4.14081  -0.44228  -0.65364 
 C                    -3.44227   0.27648   0.32121 
 C                    -2.0376    0.23073   0.30124 
 N                    -1.09447   0.81987   1.12091 
 C                    -1.40839   1.65618   2.2595 
 H                     5.56367  -1.12086  -1.47529 
 H                     5.02472   0.45709  -0.88894 
 H                     5.02419  -0.98354   0.20232 
 H                     3.55143   0.7171    0.94471 
 H                     1.54036   1.55192   2.05349 
 H                     1.15199  -1.44725  -1.90552 
 H                    -1.54621  -1.7932   -2.39282 
 H                    -4.02475  -1.73417  -2.36894 
 H                    -5.22817  -0.42197  -0.65646 
 H                    -3.98308   0.85032   1.06652 
 H                    -2.33999   1.31591   2.71775 
 H                    -0.61141   1.58181   3.00276 
 H                    -1.50782   2.6855    1.90647 
 
 NAtoms=     29 NQM=     29 NQMF=      0 NMic=      0 NMicF=      0 NTot=     29.
                    Isotopes and Nuclear Properties:
 (Nuclear quadrupole moments (NQMom) in fm**2, nuclear magnetic moments (NMagM)
  in nuclear magnetons)

  Atom         1           2           3           4           5           6           7           8           9          10
 IAtWgt=          12          16          12          12          12          12          12          12          12          12
 AtmWgt=  12.0000000  15.9949146  12.0000000  12.0000000  12.0000000  12.0000000  12.0000000  12.0000000  12.0000000  12.0000000
 NucSpn=           0           0           0           0           0           0           0           0           0           0
 AtZEff=   0.0000000   0.0000000   0.0000000   0.0000000   0.0000000   0.0000000   0.0000000   0.0000000   0.0000000   0.0000000
 NQMom=    0.0000000   0.0000000   0.0000000   0.0000000   0.0000000   0.0000000   0.0000000   0.0000000   0.0000000   0.0000000
 NMagM=    0.0000000   0.0000000   0.0000000   0.0000000   0.0000000   0.0000000   0.0000000   0.0000000   0.0000000   0.0000000

  Atom        11          12          13          14          15          16          17          18          19          20
 IAtWgt=          12          12          12          12          14          12           1           1           1           1
 AtmWgt=  12.0000000  12.0000000  12.0000000  12.0000000  14.0030740  12.0000000   1.0078250   1.0078250   1.0078250   1.0078250
 NucSpn=           0           0           0           0           2           0           1           1           1           1
 AtZEff=   0.0000000   0.0000000   0.0000000   0.0000000   0.0000000   0.0000000   0.0000000   0.0000000   0.0000000   0.0000000
 NQMom=    0.0000000   0.0000000   0.0000000   0.0000000   2.0440000   0.0000000   0.0000000   0.0000000   0.0000000   0.0000000
 NMagM=    0.0000000   0.0000000   0.0000000   0.0000000   0.4037610   0.0000000   2.7928460   2.7928460   2.7928460   2.7928460

  Atom        21          22          23          24          25          26          27          28          29
 IAtWgt=           1           1           1           1           1           1           1           1           1
 AtmWgt=   1.0078250   1.0078250   1.0078250   1.0078250   1.0078250   1.0078250   1.0078250   1.0078250   1.0078250
 NucSpn=           1           1           1           1           1           1           1           1           1
 AtZEff=   0.0000000   0.0000000   0.0000000   0.0000000   0.0000000   0.0000000   0.0000000   0.0000000   0.0000000
 NQMom=    0.0000000   0.0000000   0.0000000   0.0000000   0.0000000   0.0000000   0.0000000   0.0000000   0.0000000
 NMagM=    2.7928460   2.7928460   2.7928460   2.7928460   2.7928460   2.7928460   2.7928460   2.7928460   2.7928460
 Leave Link  101 at Fri Sep  3 00:04:55 2021, MaxMem=  268435456 cpu:       0.1
 (Enter /sw/target/amd/app/gaussian/Gaussian09RevA.02_gcc-4.9.2/g09/l103.exe)

 GradGradGradGradGradGradGradGradGradGradGradGradGradGradGradGradGradGrad
 Berny optimization.
 Initialization pass.
                           ----------------------------
                           !    Initial Parameters    !
                           ! (Angstroms and Degrees)  !
 --------------------------                            --------------------------
 ! Name  Definition              Value          Derivative Info.                !
 --------------------------------------------------------------------------------
 ! R1    R(1,2)                  1.4216         estimate D2E/DX2                !
 ! R2    R(1,17)                 1.0943         estimate D2E/DX2                !
 ! R3    R(1,18)                 1.095          estimate D2E/DX2                !
 ! R4    R(1,19)                 1.095          estimate D2E/DX2                !
 ! R5    R(2,3)                  1.3694         estimate D2E/DX2                !
 ! R6    R(3,4)                  1.3923         estimate D2E/DX2                !
 ! R7    R(3,8)                  1.4            estimate D2E/DX2                !
 ! R8    R(4,5)                  1.4019         estimate D2E/DX2                !
 ! R9    R(4,20)                 1.0853         estimate D2E/DX2                !
 ! R10   R(5,6)                  1.4042         estimate D2E/DX2                !
 ! R11   R(5,21)                 1.0852         estimate D2E/DX2                !
 ! R12   R(6,7)                  1.3951         estimate D2E/DX2                !
 ! R13   R(6,15)                 1.3811         estimate D2E/DX2                !
 ! R14   R(7,8)                  1.4115         estimate D2E/DX2                !
 ! R15   R(7,9)                  1.4296         estimate D2E/DX2                !
 ! R16   R(8,22)                 1.0862         estimate D2E/DX2                !
 ! R17   R(9,10)                 1.4115         estimate D2E/DX2                !
 ! R18   R(9,14)                 1.3962         estimate D2E/DX2                !
 ! R19   R(10,11)                1.3982         estimate D2E/DX2                !
 ! R20   R(10,23)                1.086          estimate D2E/DX2                !
 ! R21   R(11,12)                1.3907         estimate D2E/DX2                !
 ! R22   R(11,24)                1.087          estimate D2E/DX2                !
 ! R23   R(12,13)                1.3982         estimate D2E/DX2                !
 ! R24   R(12,25)                1.0876         estimate D2E/DX2                !
 ! R25   R(13,14)                1.4056         estimate D2E/DX2                !
 ! R26   R(13,26)                1.085          estimate D2E/DX2                !
 ! R27   R(14,15)                1.3815         estimate D2E/DX2                !
 ! R28   R(15,16)                1.4472         estimate D2E/DX2                !
 ! R29   R(16,27)                1.0925         estimate D2E/DX2                !
 ! R30   R(16,28)                1.0923         estimate D2E/DX2                !
 ! R31   R(16,29)                1.0927         estimate D2E/DX2                !
 ! A1    A(2,1,17)             107.7831         estimate D2E/DX2                !
 ! A2    A(2,1,18)             111.1404         estimate D2E/DX2                !
 ! A3    A(2,1,19)             111.151          estimate D2E/DX2                !
 ! A4    A(17,1,18)            107.6763         estimate D2E/DX2                !
 ! A5    A(17,1,19)            107.6772         estimate D2E/DX2                !
 ! A6    A(18,1,19)            111.2232         estimate D2E/DX2                !
 ! A7    A(1,2,3)              116.9476         estimate D2E/DX2                !
 ! A8    A(2,3,4)              125.9326         estimate D2E/DX2                !
 ! A9    A(2,3,8)              114.367          estimate D2E/DX2                !
 ! A10   A(4,3,8)              119.7003         estimate D2E/DX2                !
 ! A11   A(3,4,5)              121.13           estimate D2E/DX2                !
 ! A12   A(3,4,20)             121.4816         estimate D2E/DX2                !
 ! A13   A(5,4,20)             117.3885         estimate D2E/DX2                !
 ! A14   A(4,5,6)              118.407          estimate D2E/DX2                !
 ! A15   A(4,5,21)             119.9803         estimate D2E/DX2                !
 ! A16   A(6,5,21)             121.6126         estimate D2E/DX2                !
 ! A17   A(5,6,7)              121.6582         estimate D2E/DX2                !
 ! A18   A(5,6,15)             131.4403         estimate D2E/DX2                !
 ! A19   A(7,6,15)             106.9015         estimate D2E/DX2                !
 ! A20   A(6,7,8)              118.7213         estimate D2E/DX2                !
 ! A21   A(6,7,9)              107.6729         estimate D2E/DX2                !
 ! A22   A(8,7,9)              133.6046         estimate D2E/DX2                !
 ! A23   A(3,8,7)              120.3819         estimate D2E/DX2                !
 ! A24   A(3,8,22)             119.7046         estimate D2E/DX2                !
 ! A25   A(7,8,22)             119.9133         estimate D2E/DX2                !
 ! A26   A(7,9,10)             133.5512         estimate D2E/DX2                !
 ! A27   A(7,9,14)             107.6151         estimate D2E/DX2                !
 ! A28   A(10,9,14)            118.8325         estimate D2E/DX2                !
 ! A29   A(9,10,11)            119.7307         estimate D2E/DX2                !
 ! A30   A(9,10,23)            120.2012         estimate D2E/DX2                !
 ! A31   A(11,10,23)           120.0678         estimate D2E/DX2                !
 ! A32   A(10,11,12)           120.4487         estimate D2E/DX2                !
 ! A33   A(10,11,24)           119.6059         estimate D2E/DX2                !
 ! A34   A(12,11,24)           119.9452         estimate D2E/DX2                !
 ! A35   A(11,12,13)           120.9532         estimate D2E/DX2                !
 ! A36   A(11,12,25)           119.5931         estimate D2E/DX2                !
 ! A37   A(13,12,25)           119.4537         estimate D2E/DX2                !
 ! A38   A(12,13,14)           118.2062         estimate D2E/DX2                !
 ! A39   A(12,13,26)           120.1189         estimate D2E/DX2                !
 ! A40   A(14,13,26)           121.6749         estimate D2E/DX2                !
 ! A41   A(9,14,13)            121.8274         estimate D2E/DX2                !
 ! A42   A(9,14,15)            106.8759         estimate D2E/DX2                !
 ! A43   A(13,14,15)           131.2967         estimate D2E/DX2                !
 ! A44   A(6,15,14)            110.9197         estimate D2E/DX2                !
 ! A45   A(6,15,16)            124.6635         estimate D2E/DX2                !
 ! A46   A(14,15,16)           124.414          estimate D2E/DX2                !
 ! A47   A(15,16,27)           109.5711         estimate D2E/DX2                !
 ! A48   A(15,16,28)           109.7391         estimate D2E/DX2                !
 ! A49   A(15,16,29)           108.054          estimate D2E/DX2                !
 ! A50   A(27,16,28)           108.3937         estimate D2E/DX2                !
 ! A51   A(27,16,29)           110.5667         estimate D2E/DX2                !
 ! A52   A(28,16,29)           110.5092         estimate D2E/DX2                !
 ! D1    D(17,1,2,3)           179.8658         estimate D2E/DX2                !
 ! D2    D(18,1,2,3)           -62.3653         estimate D2E/DX2                !
 ! D3    D(19,1,2,3)            62.0899         estimate D2E/DX2                !
 ! D4    D(1,2,3,4)              0.2313         estimate D2E/DX2                !
 ! D5    D(1,2,3,8)           -179.8902         estimate D2E/DX2                !
 ! D6    D(2,3,4,5)           -179.981          estimate D2E/DX2                !
 ! D7    D(2,3,4,20)             0.044          estimate D2E/DX2                !
 ! D8    D(8,3,4,5)              0.1465         estimate D2E/DX2                !
 ! D9    D(8,3,4,20)          -179.8285         estimate D2E/DX2                !
 ! D10   D(2,3,8,7)           -179.9779         estimate D2E/DX2                !
 ! D11   D(2,3,8,22)            -0.1508         estimate D2E/DX2                !
 ! D12   D(4,3,8,7)             -0.0912         estimate D2E/DX2                !
 ! D13   D(4,3,8,22)           179.7358         estimate D2E/DX2                !
 ! D14   D(3,4,5,6)              0.0826         estimate D2E/DX2                !
 ! D15   D(3,4,5,21)          -179.867          estimate D2E/DX2                !
 ! D16   D(20,4,5,6)          -179.9414         estimate D2E/DX2                !
 ! D17   D(20,4,5,21)            0.109          estimate D2E/DX2                !
 ! D18   D(4,5,6,7)             -0.3775         estimate D2E/DX2                !
 ! D19   D(4,5,6,15)           179.6744         estimate D2E/DX2                !
 ! D20   D(21,5,6,7)           179.5712         estimate D2E/DX2                !
 ! D21   D(21,5,6,15)           -0.3768         estimate D2E/DX2                !
 ! D22   D(5,6,7,8)              0.4314         estimate D2E/DX2                !
 ! D23   D(5,6,7,9)           -179.23           estimate D2E/DX2                !
 ! D24   D(15,6,7,8)          -179.6094         estimate D2E/DX2                !
 ! D25   D(15,6,7,9)             0.7292         estimate D2E/DX2                !
 ! D26   D(5,6,15,14)          178.7281         estimate D2E/DX2                !
 ! D27   D(5,6,15,16)           -0.6914         estimate D2E/DX2                !
 ! D28   D(7,6,15,14)           -1.2257         estimate D2E/DX2                !
 ! D29   D(7,6,15,16)          179.3548         estimate D2E/DX2                !
 ! D30   D(6,7,8,3)             -0.1921         estimate D2E/DX2                !
 ! D31   D(6,7,8,22)           179.9812         estimate D2E/DX2                !
 ! D32   D(9,7,8,3)            179.3624         estimate D2E/DX2                !
 ! D33   D(9,7,8,22)            -0.4643         estimate D2E/DX2                !
 ! D34   D(6,7,9,10)           179.5883         estimate D2E/DX2                !
 ! D35   D(6,7,9,14)             0.0            estimate D2E/DX2                !
 ! D36   D(8,7,9,10)            -0.0016         estimate D2E/DX2                !
 ! D37   D(8,7,9,14)          -179.5899         estimate D2E/DX2                !
 ! D38   D(7,9,10,11)         -179.3677         estimate D2E/DX2                !
 ! D39   D(7,9,10,23)            0.4527         estimate D2E/DX2                !
 ! D40   D(14,9,10,11)           0.1844         estimate D2E/DX2                !
 ! D41   D(14,9,10,23)        -179.9953         estimate D2E/DX2                !
 ! D42   D(7,9,14,13)          179.2377         estimate D2E/DX2                !
 ! D43   D(7,9,14,15)           -0.729          estimate D2E/DX2                !
 ! D44   D(10,9,14,13)          -0.4217         estimate D2E/DX2                !
 ! D45   D(10,9,14,15)         179.6116         estimate D2E/DX2                !
 ! D46   D(9,10,11,12)           0.0938         estimate D2E/DX2                !
 ! D47   D(9,10,11,24)         179.941          estimate D2E/DX2                !
 ! D48   D(23,10,11,12)       -179.7268         estimate D2E/DX2                !
 ! D49   D(23,10,11,24)          0.1205         estimate D2E/DX2                !
 ! D50   D(10,11,12,13)         -0.1464         estimate D2E/DX2                !
 ! D51   D(10,11,12,25)        179.8378         estimate D2E/DX2                !
 ! D52   D(24,11,12,13)       -179.9931         estimate D2E/DX2                !
 ! D53   D(24,11,12,25)         -0.009          estimate D2E/DX2                !
 ! D54   D(11,12,13,14)         -0.0808         estimate D2E/DX2                !
 ! D55   D(11,12,13,26)        179.8791         estimate D2E/DX2                !
 ! D56   D(25,12,13,14)        179.935          estimate D2E/DX2                !
 ! D57   D(25,12,13,26)         -0.105          estimate D2E/DX2                !
 ! D58   D(12,13,14,9)           0.3697         estimate D2E/DX2                !
 ! D59   D(12,13,14,15)       -179.6727         estimate D2E/DX2                !
 ! D60   D(26,13,14,9)        -179.5896         estimate D2E/DX2                !
 ! D61   D(26,13,14,15)          0.368          estimate D2E/DX2                !
 ! D62   D(9,14,15,6)            1.2254         estimate D2E/DX2                !
 ! D63   D(9,14,15,16)        -179.3534         estimate D2E/DX2                !
 ! D64   D(13,14,15,6)        -178.7369         estimate D2E/DX2                !
 ! D65   D(13,14,15,16)          0.6843         estimate D2E/DX2                !
 ! D66   D(6,15,16,27)        -148.1341         estimate D2E/DX2                !
 ! D67   D(6,15,16,28)         -29.2286         estimate D2E/DX2                !
 ! D68   D(6,15,16,29)          91.3332         estimate D2E/DX2                !
 ! D69   D(14,15,16,27)         32.5232         estimate D2E/DX2                !
 ! D70   D(14,15,16,28)        151.4287         estimate D2E/DX2                !
 ! D71   D(14,15,16,29)        -88.0095         estimate D2E/DX2                !
 --------------------------------------------------------------------------------
 Trust Radius=3.00D-01 FncErr=1.00D-07 GrdErr=1.00D-06
 Number of steps in this run= 164 maximum allowed number of steps= 174.
 GradGradGradGradGradGradGradGradGradGradGradGradGradGradGradGradGradGrad

 Leave Link  103 at Fri Sep  3 00:04:55 2021, MaxMem=  268435456 cpu:       0.0
 (Enter /sw/target/amd/app/gaussian/Gaussian09RevA.02_gcc-4.9.2/g09/l202.exe)
                          Input orientation:                          
 ---------------------------------------------------------------------
 Center     Atomic      Atomic             Coordinates (Angstroms)
 Number     Number       Type             X           Y           Z
 ---------------------------------------------------------------------
      1          6           0        4.847662   -0.621029   -0.815770
      2          8           0        3.539934   -0.957159   -1.260399
      3          6           0        2.490381   -0.428031   -0.557662
      4          6           0        2.588338    0.411741    0.548486
      5          6           0        1.442313    0.896613    1.194063
      6          6           0        0.184877    0.513932    0.699903
      7          6           0        0.057679   -0.321345   -0.410215
      8          6           0        1.228504   -0.795578   -1.039943
      9          6           0       -1.338329   -0.499807   -0.661389
     10          6           0       -2.067546   -1.217455   -1.633726
     11          6           0       -3.465219   -1.181529   -1.618602
     12          6           0       -4.140813   -0.442279   -0.653643
     13          6           0       -3.442272    0.276484    0.321214
     14          6           0       -2.037600    0.230729    0.301239
     15          7           0       -1.094472    0.819868    1.120906
     16          6           0       -1.408391    1.656177    2.259499
     17          1           0        5.563675   -1.120856   -1.475290
     18          1           0        5.024724    0.457094   -0.888942
     19          1           0        5.024194   -0.983535    0.202316
     20          1           0        3.551427    0.717098    0.944712
     21          1           0        1.540360    1.551915    2.053494
     22          1           0        1.151993   -1.447251   -1.905520
     23          1           0       -1.546210   -1.793203   -2.392822
     24          1           0       -4.024748   -1.734170   -2.368944
     25          1           0       -5.228172   -0.421968   -0.656459
     26          1           0       -3.983075    0.850320    1.066517
     27          1           0       -2.339993    1.315913    2.717745
     28          1           0       -0.611405    1.581810    3.002762
     29          1           0       -1.507816    2.685501    1.906468
 ---------------------------------------------------------------------
                    Distance matrix (angstroms):
                    1          2          3          4          5
     1  C    0.000000
     2  O    1.421559   0.000000
     3  C    2.379210   1.369444   0.000000
     4  C    2.834141   2.459977   1.392256   0.000000
     5  C    4.235454   3.723019   2.433448   1.401872   0.000000
     6  C    5.032590   4.154913   2.790002   2.410393   1.404202
     7  C    4.816453   3.640491   2.439500   2.803704   2.444246
     8  C    3.630293   2.327535   1.400007   2.414513   2.810695
     9  C    6.189104   4.936136   3.830787   4.208733   3.622797
    10  C    6.988911   5.625919   4.749295   5.393847   4.978432
    11  C    8.370346   7.017893   6.096107   6.624223   6.026079
    12  C    8.991714   7.721860   6.631904   6.888827   6.031413
    13  C    8.415537   7.264611   6.038637   6.036407   5.000560
    14  C    7.027093   5.912586   4.655565   4.636076   3.653810
    15  N    6.413724   5.505103   4.150423   3.749310   2.539000
    16  C    7.333563   6.610985   5.242208   4.522171   3.136655
    17  H    1.094289   2.041691   3.281339   3.911158   5.308602
    18  H    1.095013   2.083913   2.704827   2.829175   4.167224
    19  H    1.095022   2.084049   2.703028   2.828431   4.165140
    20  H    2.563222   2.768715   2.166626   1.085255   2.131376
    21  H    4.888007   4.612552   3.411871   2.159468   1.085198
    22  H    3.940580   2.521633   2.155647   3.397217   3.896845
    23  H    6.688997   5.277330   4.639566   5.532410   5.388147
    24  H    9.075852   7.684857   6.887209   7.539843   7.035964
    25  H   10.079059   8.805161   7.719188   7.952659   7.046876
    26  H    9.148212   8.079430   6.795423   6.606374   5.427084
    27  H    8.240137   7.454262   6.091153   5.460005   4.099178
    28  H    7.016773   6.469507   5.131974   4.198915   2.821107
    29  H    7.663930   6.984110   5.634856   4.877764   3.522911
                    6          7          8          9         10
     6  C    0.000000
     7  C    1.395073   0.000000
     8  C    2.414754   1.411483   0.000000
     9  C    2.280557   1.429607   2.611401   0.000000
    10  C    3.676538   2.610857   3.375575   1.411459   0.000000
    11  C    4.644702   3.822424   4.744981   2.429951   1.398216
    12  C    4.632280   4.207281   5.394776   2.803085   2.420722
    13  C    3.654586   3.625196   4.981788   2.448410   2.818424
    14  C    2.275641   2.280602   3.676889   1.396179   2.417069
    15  N    1.381150   2.230280   3.560218   2.231050   3.561679
    16  C    2.505108   3.631436   4.883711   3.631083   4.883590
    17  H    6.027891   5.664768   4.369101   6.977521   7.633477
    18  H    5.094289   5.050414   4.000409   6.438624   7.325238
    19  H    5.090087   5.047768   3.998224   6.439074   7.329294
    20  H    3.381548   3.888504   3.409254   5.288680   6.477939
    21  H    2.178750   3.431808   3.895809   4.457242   5.855082
    22  H    3.401438   2.168208   1.086165   2.940615   3.239153
    23  H    4.229005   2.944411   3.244160   2.171163   1.086050
    24  H    5.673864   4.743301   5.499441   3.414124   2.153643
    25  H    5.658332   5.292540   6.478835   3.890625   3.402559
    26  H    4.197545   4.458837   5.857193   3.435576   3.903365
    27  H    3.330139   4.267737   5.595783   3.964684   5.042567
    28  H    2.660374   3.964604   5.037926   4.276395   5.608320
    29  H    3.006114   4.105961   5.318524   4.094973   5.298994
                   11         12         13         14         15
    11  C    0.000000
    12  C    1.390706   0.000000
    13  C    2.426770   1.398187   0.000000
    14  C    2.778193   2.405877   1.405559   0.000000
    15  N    4.138953   3.744627   2.539082   1.381459   0.000000
    16  C    5.227120   4.511767   3.130044   2.502516   1.447188
    17  H    9.030235   9.762820   9.289083   7.922261   7.405239
    18  H    8.677363   9.212562   8.554947   7.165486   6.451020
    19  H    8.684761   9.220790   8.560539   7.166112   6.444699
    20  H    7.707703   7.941628   7.035248   5.646931   4.650375
    21  H    6.783202   6.601600   5.427167   4.197348   2.889282
    22  H    4.633743   5.530910   5.388588   4.225980   4.398373
    23  H    2.157813   3.403190   3.904439   3.405250   4.402101
    24  H    1.086967   2.150514   3.408659   3.865160   5.223857
    25  H    2.147244   1.087552   2.152468   3.394547   4.667832
    26  H    3.406824   2.157462   1.085003   2.180462   2.889275
    27  H    5.129060   4.207190   2.835276   2.666190   2.085013
    28  H    6.094038   5.470188   4.111980   3.340311   2.086933
    29  H    5.586722   4.823883   3.472537   2.980493   2.066046
                   16         17         18         19         20
    16  C    0.000000
    17  H    8.382736   0.000000
    18  H    7.261918   1.767540   0.000000
    19  H    7.251085   1.767557   1.807279   0.000000
    20  H    5.216352   3.644671   2.366536   2.369039   0.000000
    21  H    2.957776   5.981896   4.690134   4.689613   2.443503
    22  H    5.790873   4.444611   4.433735   4.433052   4.308772
    23  H    5.793212   7.200304   7.106523   7.110592   6.589890
    24  H    6.305732   9.649488   9.427884   9.437064   8.624816
    25  H    5.235668  10.845409  10.293137  10.303585   8.996809
    26  H    2.949849  10.074063   9.225990   9.232592   7.536664
    27  H    1.092543   9.272937   8.245291   8.114561   6.181509
    28  H    1.092317   8.092525   6.940915   6.795842   4.723607
    29  H    1.092714   8.713818   7.446757   7.683301   5.513214
                   21         22         23         24         25
    21  H    0.000000
    22  H    4.981929   0.000000
    23  H    6.362897   2.763593   0.000000
    24  H    7.831139   5.205356   2.479356   0.000000
    25  H    7.553349   6.581631   4.295589   2.470366   0.000000
    26  H    5.654617   6.362449   4.989344   4.299269   2.477424
    27  H    3.943864   6.419005   6.034450   6.165696   4.769388
    28  H    2.352041   6.031253   6.432488   7.176480   6.222504
    29  H    3.255459   6.219765   6.208394   6.644365   5.483248
                   26         27         28         29
    26  H    0.000000
    27  H    2.375510   0.000000
    28  H    3.956296   1.771991   0.000000
    29  H    3.193793   1.796235   1.795424   0.000000
 Stoichiometry    C14H13NO
 Framework group  C1[X(C14H13NO)]
 Deg. of freedom    81
 Full point group                 C1      NOp   1
 Largest Abelian subgroup         C1      NOp   1
 Largest concise Abelian subgroup C1      NOp   1
                         Standard orientation:                         
 ---------------------------------------------------------------------
 Center     Atomic      Atomic             Coordinates (Angstroms)
 Number     Number       Type             X           Y           Z
 ---------------------------------------------------------------------
      1          6           0       -4.953557   -0.604215    0.007001
      2          8           0       -3.679821   -1.235342   -0.003269
      3          6           0       -2.581730   -0.417070   -0.000713
      4          6           0       -2.600163    0.974968    0.015570
      5          6           0       -1.409892    1.715575    0.016242
      6          6           0       -0.190251    1.019919   -0.001735
      7          6           0       -0.142632   -0.374302   -0.012155
      8          6           0       -1.356577   -1.094456   -0.013624
      9          6           0        1.233520   -0.761575   -0.011306
     10          6           0        1.892540   -2.009737   -0.011591
     11          6           0        3.289914   -2.056066    0.002896
     12          6           0        4.033881   -0.881205    0.019533
     13          6           0        3.405638    0.367889    0.019095
     14          6           0        2.000701    0.404885   -0.000372
     15          7           0        1.116699    1.466414   -0.011587
     16          6           0        1.510754    2.858900   -0.018989
     17          1           0       -5.715683   -1.389451    0.000966
     18          1           0       -5.093534   -0.012004    0.917356
     19          1           0       -5.098863    0.007082   -0.889814
     20          1           0       -3.533076    1.529298    0.028619
     21          1           0       -1.446011    2.800068    0.031254
     22          1           0       -1.342092   -2.180492   -0.021978
     23          1           0        1.317615   -2.931091   -0.020066
     24          1           0        3.795321   -3.018387    0.003621
     25          1           0        5.120088   -0.933485    0.033351
     26          1           0        3.999326    1.275931    0.034173
     27          1           0        2.448185    2.971051   -0.568803
     28          1           0        0.744716    3.456433   -0.518288
     29          1           0        1.632800    3.181824    1.017760
 ---------------------------------------------------------------------
 Rotational constants (GHZ):      1.1888217      0.3346063      0.2620124
 Leave Link  202 at Fri Sep  3 00:04:55 2021, MaxMem=  268435456 cpu:       0.0
 (Enter /sw/target/amd/app/gaussian/Gaussian09RevA.02_gcc-4.9.2/g09/l301.exe)
 Standard basis: 6-31G(d) (6D, 7F)
 Ernie: Thresh=  0.10000D-02 Tol=  0.10000D-05 Strict=F.
 There are   266 symmetry adapted basis functions of A   symmetry.
 Integral buffers will be    131072 words long.
 Raffenetti 2 integral format.
 Two-electron integral symmetry is turned on.
   266 basis functions,   500 primitive gaussians,   266 cartesian basis functions
    56 alpha electrons       56 beta electrons
       nuclear repulsion energy      1021.2175581346 Hartrees.
 IExCor=  402 DFT=T Ex+Corr=B3LYP ExCW=0 ScaHFX=  0.200000
 ScaDFX=  0.800000  0.720000  1.000000  0.810000 ScalE2=  1.000000  1.000000
 IRadAn=      0 IRanWt=     -1 IRanGd=            0 ICorTp=0
 NAtoms=   29 NActive=   29 NUniq=   29 SFac= 7.50D-01 NAtFMM=   80 NAOKFM=F Big=F
 Leave Link  301 at Fri Sep  3 00:04:55 2021, MaxMem=  268435456 cpu:       0.1
 (Enter /sw/target/amd/app/gaussian/Gaussian09RevA.02_gcc-4.9.2/g09/l302.exe)
 NPDir=0 NMtPBC=     1 NCelOv=     1 NCel=       1 NClECP=     1 NCelD=      1
         NCelK=      1 NCelE2=     1 NClLst=     1 CellRange=     0.0.
 One-electron integrals computed using PRISM.
 NBasis=   266 RedAO= T  NBF=   266
 NBsUse=   266 1.00D-06 NBFU=   266
 Precomputing XC quadrature grid using
 IXCGrd= 2 IRadAn=           0 IRanWt=          -1 IRanGd=           0 AccXCQ= 1.00D-10.
 NRdTot=    1838 NPtTot=      233752 NUsed=      247008 NTot=      247040
 NSgBfM=   265   265   265   265   265 NAtAll=    29    29.
 Leave Link  302 at Fri Sep  3 00:04:57 2021, MaxMem=  268435456 cpu:       1.3
 (Enter /sw/target/amd/app/gaussian/Gaussian09RevA.02_gcc-4.9.2/g09/l303.exe)
 DipDrv:  MaxL=1.
 Leave Link  303 at Fri Sep  3 00:04:57 2021, MaxMem=  268435456 cpu:       0.1
 (Enter /sw/target/amd/app/gaussian/Gaussian09RevA.02_gcc-4.9.2/g09/l401.exe)
 Harris functional with IExCor=  402 diagonalized for initial guess.
 ExpMin= 1.61D-01 ExpMax= 5.48D+03 ExpMxC= 8.25D+02 IAcc=1 IRadAn=         1 AccDes= 0.00D+00
 HarFok:  IExCor=  402 AccDes= 0.00D+00 IRadAn=         1 IDoV= 1
 ScaDFX=  1.000000  1.000000  1.000000  1.000000
 FoFCou: FMM=F IPFlag=           0 FMFlag=      100000 FMFlg1=           0
         NFxFlg=           0 DoJE=T BraDBF=F KetDBF=T FulRan=T
         Omega=  0.000000  0.000000  1.000000  0.000000  0.000000 ICntrl=     500 IOpCl=  0
         NMat0=    1 NMatS0=    1 NMatT0=    0 NMatD0=    1 NMtDS0=    0 NMtDT0=    0
         I1Cent=           4 NGrid=           0.
 Petite list used in FoFCou.
 Harris En= -671.362153799286    
 Initial guess orbital symmetries:
       Occupied  (A) (A) (A) (A) (A) (A) (A) (A) (A) (A) (A) (A)
                 (A) (A) (A) (A) (A) (A) (A) (A) (A) (A) (A) (A)
                 (A) (A) (A) (A) (A) (A) (A) (A) (A) (A) (A) (A)
                 (A) (A) (A) (A) (A) (A) (A) (A) (A) (A) (A) (A)
                 (A) (A) (A) (A) (A) (A) (A) (A)
       Virtual   (A) (A) (A) (A) (A) (A) (A) (A) (A) (A) (A) (A)
                 (A) (A) (A) (A) (A) (A) (A) (A) (A) (A) (A) (A)
                 (A) (A) (A) (A) (A) (A) (A) (A) (A) (A) (A) (A)
                 (A) (A) (A) (A) (A) (A) (A) (A) (A) (A) (A) (A)
                 (A) (A) (A) (A) (A) (A) (A) (A) (A) (A) (A) (A)
                 (A) (A) (A) (A) (A) (A) (A) (A) (A) (A) (A) (A)
                 (A) (A) (A) (A) (A) (A) (A) (A) (A) (A) (A) (A)
                 (A) (A) (A) (A) (A) (A) (A) (A) (A) (A) (A) (A)
                 (A) (A) (A) (A) (A) (A) (A) (A) (A) (A) (A) (A)
                 (A) (A) (A) (A) (A) (A) (A) (A) (A) (A) (A) (A)
                 (A) (A) (A) (A) (A) (A) (A) (A) (A) (A) (A) (A)
                 (A) (A) (A) (A) (A) (A) (A) (A) (A) (A) (A) (A)
                 (A) (A) (A) (A) (A) (A) (A) (A) (A) (A) (A) (A)
                 (A) (A) (A) (A) (A) (A) (A) (A) (A) (A) (A) (A)
                 (A) (A) (A) (A) (A) (A) (A) (A) (A) (A) (A) (A)
                 (A) (A) (A) (A) (A) (A) (A) (A) (A) (A) (A) (A)
                 (A) (A) (A) (A) (A) (A) (A) (A) (A) (A) (A) (A)
                 (A) (A) (A) (A) (A) (A)
 The electronic state of the initial guess is 1-A.
 Leave Link  401 at Fri Sep  3 00:05:04 2021, MaxMem=  268435456 cpu:       7.0
 (Enter /sw/target/amd/app/gaussian/Gaussian09RevA.02_gcc-4.9.2/g09/l502.exe)
 Closed shell SCF:
 Requested convergence on RMS density matrix=1.00D-08 within  64 cycles.
 Requested convergence on MAX density matrix=1.00D-06.
 Requested convergence on             energy=1.00D-06.
 No special actions if energy rises.
 Using DIIS extrapolation, IDIIS=  1040.
 Integral symmetry usage will be decided dynamically.
       246734 words used for storage of precomputed grid.
 IEnd=      468146 IEndB=      468146 NGot=   268435456 MDV=   268042557
 LenX=   268042557 LenY=   267971360
 Fock matrices will be formed incrementally for  20 cycles.
 Integral accuracy reduced to 1.0D-05 until final iterations.

 Cycle   1  Pass 0  IDiag  1:
 FoFCou: FMM=F IPFlag=           0 FMFlag=      100000 FMFlg1=           0
         NFxFlg=           0 DoJE=F BraDBF=F KetDBF=F FulRan=T
         Omega=  0.000000  0.000000  1.000000  0.000000  0.000000 ICntrl=       0 IOpCl=  0
         NMat0=    1 NMatS0=    1 NMatT0=    0 NMatD0=    1 NMtDS0=    0 NMtDT0=    0
         I1Cent=           0 NGrid=           0.
 Symmetry not used in FoFCou.
 E= -670.953040291279    
 DIIS: error= 3.86D-02 at cycle   1 NSaved=   1.
 NSaved= 1 IEnMin= 1 EnMin= -670.953040291279     IErMin= 1 ErrMin= 3.86D-02
 ErrMax= 3.86D-02 EMaxC= 1.00D-01 BMatC= 3.12D-01 BMatP= 3.12D-01
 IDIUse=3 WtCom= 6.14D-01 WtEn= 3.86D-01
 Coeff-Com:  0.100D+01
 Coeff-En:   0.100D+01
 Coeff:      0.100D+01
 Gap=     0.191 Goal=   None    Shift=    0.000
 GapD=    0.191 DampG=1.000 DampE=0.500 DampFc=0.5000 IDamp=-1.
 Damping current iteration by 5.00D-01
 RMSDP=5.22D-03 MaxDP=1.33D-01              OVMax= 1.93D-01

 Cycle   2  Pass 0  IDiag  1:
 RMSU=  1.78D-03    CP:  9.68D-01
 E= -671.119034335379     Delta-E=       -0.165994044100 Rises=F Damp=T
 DIIS: error= 6.69D-03 at cycle   2 NSaved=   2.
 NSaved= 2 IEnMin= 2 EnMin= -671.119034335379     IErMin= 2 ErrMin= 6.69D-03
 ErrMax= 6.69D-03 EMaxC= 1.00D-01 BMatC= 1.75D-02 BMatP= 3.12D-01
 IDIUse=3 WtCom= 9.33D-01 WtEn= 6.69D-02
 Coeff-Com: -0.920D-02 0.101D+01
 Coeff-En:   0.000D+00 0.100D+01
 Coeff:     -0.859D-02 0.101D+01
 Gap=     0.165 Goal=   None    Shift=    0.000
 RMSDP=1.61D-03 MaxDP=5.18D-02 DE=-1.66D-01 OVMax= 1.38D-01

 Cycle   3  Pass 0  IDiag  1:
 RMSU=  1.09D-03    CP:  9.48D-01  1.01D+00
 E= -671.282087451939     Delta-E=       -0.163053116561 Rises=F Damp=F
 DIIS: error= 7.26D-03 at cycle   3 NSaved=   3.
 NSaved= 3 IEnMin= 3 EnMin= -671.282087451939     IErMin= 2 ErrMin= 6.69D-03
 ErrMax= 7.26D-03 EMaxC= 1.00D-01 BMatC= 1.39D-02 BMatP= 1.75D-02
 IDIUse=3 WtCom= 9.27D-01 WtEn= 7.26D-02
 Coeff-Com: -0.441D-01 0.490D+00 0.554D+00
 Coeff-En:   0.000D+00 0.000D+00 0.100D+01
 Coeff:     -0.409D-01 0.455D+00 0.586D+00
 Gap=     0.164 Goal=   None    Shift=    0.000
 RMSDP=8.25D-04 MaxDP=3.81D-02 DE=-1.63D-01 OVMax= 7.74D-02

 Cycle   4  Pass 0  IDiag  1:
 RMSU=  4.70D-04    CP:  9.50D-01  1.08D+00  7.06D-01
 E= -671.289593456641     Delta-E=       -0.007506004702 Rises=F Damp=F
 DIIS: error= 5.32D-03 at cycle   4 NSaved=   4.
 NSaved= 4 IEnMin= 4 EnMin= -671.289593456641     IErMin= 4 ErrMin= 5.32D-03
 ErrMax= 5.32D-03 EMaxC= 1.00D-01 BMatC= 6.21D-03 BMatP= 1.39D-02
 IDIUse=3 WtCom= 9.47D-01 WtEn= 5.32D-02
 Coeff-Com: -0.220D-01 0.115D+00 0.406D+00 0.501D+00
 Coeff-En:   0.000D+00 0.000D+00 0.353D+00 0.647D+00
 Coeff:     -0.209D-01 0.109D+00 0.403D+00 0.509D+00
 Gap=     0.157 Goal=   None    Shift=    0.000
 RMSDP=4.06D-04 MaxDP=1.60D-02 DE=-7.51D-03 OVMax= 3.62D-02

 Cycle   5  Pass 0  IDiag  1:
 RMSU=  1.05D-04    CP:  9.49D-01  1.07D+00  7.80D-01  4.61D-01
 E= -671.295983590914     Delta-E=       -0.006390134273 Rises=F Damp=F
 DIIS: error= 8.54D-04 at cycle   5 NSaved=   5.
 NSaved= 5 IEnMin= 5 EnMin= -671.295983590914     IErMin= 5 ErrMin= 8.54D-04
 ErrMax= 8.54D-04 EMaxC= 1.00D-01 BMatC= 2.31D-04 BMatP= 6.21D-03
 IDIUse=3 WtCom= 9.91D-01 WtEn= 8.54D-03
 Coeff-Com: -0.810D-02 0.314D-01 0.181D+00 0.272D+00 0.524D+00
 Coeff-En:   0.000D+00 0.000D+00 0.000D+00 0.000D+00 0.100D+01
 Coeff:     -0.803D-02 0.311D-01 0.179D+00 0.269D+00 0.528D+00
 Gap=     0.156 Goal=   None    Shift=    0.000
 RMSDP=9.30D-05 MaxDP=4.20D-03 DE=-6.39D-03 OVMax= 8.39D-03

 Cycle   6  Pass 0  IDiag  1:
 RMSU=  4.24D-05    CP:  9.49D-01  1.07D+00  7.86D-01  5.17D-01  6.04D-01
 E= -671.296195535953     Delta-E=       -0.000211945039 Rises=F Damp=F
 DIIS: error= 3.36D-04 at cycle   6 NSaved=   6.
 NSaved= 6 IEnMin= 6 EnMin= -671.296195535953     IErMin= 6 ErrMin= 3.36D-04
 ErrMax= 3.36D-04 EMaxC= 1.00D-01 BMatC= 4.24D-05 BMatP= 2.31D-04
 IDIUse=3 WtCom= 9.97D-01 WtEn= 3.36D-03
 Coeff-Com: -0.163D-02 0.265D-02 0.527D-01 0.927D-01 0.333D+00 0.521D+00
 Coeff-En:   0.000D+00 0.000D+00 0.000D+00 0.000D+00 0.169D+00 0.831D+00
 Coeff:     -0.162D-02 0.264D-02 0.525D-01 0.923D-01 0.332D+00 0.522D+00
 Gap=     0.157 Goal=   None    Shift=    0.000
 RMSDP=2.99D-05 MaxDP=1.17D-03 DE=-2.12D-04 OVMax= 2.61D-03

 Cycle   7  Pass 0  IDiag  1:
 RMSU=  7.25D-06    CP:  9.49D-01  1.07D+00  7.88D-01  5.17D-01  6.87D-01
                    CP:  5.84D-01
 E= -671.296241097048     Delta-E=       -0.000045561095 Rises=F Damp=F
 DIIS: error= 5.73D-05 at cycle   7 NSaved=   7.
 NSaved= 7 IEnMin= 7 EnMin= -671.296241097048     IErMin= 7 ErrMin= 5.73D-05
 ErrMax= 5.73D-05 EMaxC= 1.00D-01 BMatC= 1.31D-06 BMatP= 4.24D-05
 IDIUse=1 WtCom= 1.00D+00 WtEn= 0.00D+00
 Coeff-Com: -0.468D-03 0.521D-04 0.199D-01 0.356D-01 0.151D+00 0.273D+00
 Coeff-Com:  0.521D+00
 Coeff:     -0.468D-03 0.521D-04 0.199D-01 0.356D-01 0.151D+00 0.273D+00
 Coeff:      0.521D+00
 Gap=     0.157 Goal=   None    Shift=    0.000
 RMSDP=6.14D-06 MaxDP=2.64D-04 DE=-4.56D-05 OVMax= 4.51D-04

 Initial convergence to 1.0D-05 achieved.  Increase integral accuracy.
 Cycle   8  Pass 1  IDiag  1:
 E= -671.296272496822     Delta-E=       -0.000031399774 Rises=F Damp=F
 DIIS: error= 4.04D-05 at cycle   1 NSaved=   1.
 NSaved= 1 IEnMin= 1 EnMin= -671.296272496822     IErMin= 1 ErrMin= 4.04D-05
 ErrMax= 4.04D-05 EMaxC= 1.00D-01 BMatC= 3.97D-07 BMatP= 3.97D-07
 IDIUse=1 WtCom= 1.00D+00 WtEn= 0.00D+00
 Coeff-Com:  0.100D+01
 Coeff:      0.100D+01
 Gap=     0.157 Goal=   None    Shift=    0.000
 RMSDP=6.14D-06 MaxDP=2.64D-04 DE=-3.14D-05 OVMax= 3.45D-04

 Cycle   9  Pass 1  IDiag  1:
 RMSU=  1.77D-05    CP:  1.00D+00
 E= -671.296272311583     Delta-E=        0.000000185238 Rises=F Damp=F
 DIIS: error= 5.05D-05 at cycle   2 NSaved=   2.
 NSaved= 2 IEnMin= 1 EnMin= -671.296272496822     IErMin= 1 ErrMin= 4.04D-05
 ErrMax= 5.05D-05 EMaxC= 1.00D-01 BMatC= 5.68D-07 BMatP= 3.97D-07
 IDIUse=1 WtCom= 1.00D+00 WtEn= 0.00D+00
 Coeff-Com:  0.555D+00 0.445D+00
 Coeff:      0.555D+00 0.445D+00
 Gap=     0.157 Goal=   None    Shift=    0.000
 RMSDP=4.47D-06 MaxDP=1.24D-04 DE= 1.85D-07 OVMax= 3.19D-04

 Cycle  10  Pass 1  IDiag  1:
 RMSU=  3.13D-06    CP:  1.00D+00  9.74D-01
 E= -671.296272839030     Delta-E=       -0.000000527446 Rises=F Damp=F
 DIIS: error= 2.27D-05 at cycle   3 NSaved=   3.
 NSaved= 3 IEnMin= 3 EnMin= -671.296272839030     IErMin= 3 ErrMin= 2.27D-05
 ErrMax= 2.27D-05 EMaxC= 1.00D-01 BMatC= 8.14D-08 BMatP= 3.97D-07
 IDIUse=1 WtCom= 1.00D+00 WtEn= 0.00D+00
 Coeff-Com:  0.604D-01 0.272D+00 0.668D+00
 Coeff:      0.604D-01 0.272D+00 0.668D+00
 Gap=     0.157 Goal=   None    Shift=    0.000
 RMSDP=1.59D-06 MaxDP=4.37D-05 DE=-5.27D-07 OVMax= 1.31D-04

 Cycle  11  Pass 1  IDiag  1:
 RMSU=  6.19D-07    CP:  1.00D+00  9.90D-01  7.13D-01
 E= -671.296272916456     Delta-E=       -0.000000077426 Rises=F Damp=F
 DIIS: error= 5.45D-06 at cycle   4 NSaved=   4.
 NSaved= 4 IEnMin= 4 EnMin= -671.296272916456     IErMin= 4 ErrMin= 5.45D-06
 ErrMax= 5.45D-06 EMaxC= 1.00D-01 BMatC= 1.38D-08 BMatP= 8.14D-08
 IDIUse=1 WtCom= 1.00D+00 WtEn= 0.00D+00
 Coeff-Com: -0.726D-02 0.138D+00 0.426D+00 0.444D+00
 Coeff:     -0.726D-02 0.138D+00 0.426D+00 0.444D+00
 Gap=     0.157 Goal=   None    Shift=    0.000
 RMSDP=5.04D-07 MaxDP=2.50D-05 DE=-7.74D-08 OVMax= 3.80D-05

 Cycle  12  Pass 1  IDiag  1:
 RMSU=  1.43D-07    CP:  1.00D+00  9.90D-01  7.42D-01  4.93D-01
 E= -671.296272929849     Delta-E=       -0.000000013393 Rises=F Damp=F
 DIIS: error= 7.90D-07 at cycle   5 NSaved=   5.
 NSaved= 5 IEnMin= 5 EnMin= -671.296272929849     IErMin= 5 ErrMin= 7.90D-07
 ErrMax= 7.90D-07 EMaxC= 1.00D-01 BMatC= 2.34D-10 BMatP= 1.38D-08
 IDIUse=1 WtCom= 1.00D+00 WtEn= 0.00D+00
 Coeff-Com: -0.569D-02 0.576D-01 0.185D+00 0.214D+00 0.549D+00
 Coeff:     -0.569D-02 0.576D-01 0.185D+00 0.214D+00 0.549D+00
 Gap=     0.157 Goal=   None    Shift=    0.000
 RMSDP=9.63D-08 MaxDP=3.08D-06 DE=-1.34D-08 OVMax= 7.15D-06

 Cycle  13  Pass 1  IDiag  1:
 RMSU=  5.26D-08    CP:  1.00D+00  9.90D-01  7.41D-01  5.15D-01  7.14D-01
 E= -671.296272930029     Delta-E=       -0.000000000180 Rises=F Damp=F
 DIIS: error= 4.27D-07 at cycle   6 NSaved=   6.
 NSaved= 6 IEnMin= 6 EnMin= -671.296272930029     IErMin= 6 ErrMin= 4.27D-07
 ErrMax= 4.27D-07 EMaxC= 1.00D-01 BMatC= 4.53D-11 BMatP= 2.34D-10
 IDIUse=1 WtCom= 1.00D+00 WtEn= 0.00D+00
 Coeff-Com: -0.271D-02 0.216D-01 0.718D-01 0.844D-01 0.334D+00 0.491D+00
 Coeff:     -0.271D-02 0.216D-01 0.718D-01 0.844D-01 0.334D+00 0.491D+00
 Gap=     0.157 Goal=   None    Shift=    0.000
 RMSDP=3.42D-08 MaxDP=1.24D-06 DE=-1.80D-10 OVMax= 2.73D-06

 Cycle  14  Pass 1  IDiag  1:
 RMSU=  1.72D-08    CP:  1.00D+00  9.90D-01  7.41D-01  5.09D-01  7.71D-01
                    CP:  7.24D-01
 E= -671.296272930123     Delta-E=       -0.000000000094 Rises=F Damp=F
 DIIS: error= 1.12D-07 at cycle   7 NSaved=   7.
 NSaved= 7 IEnMin= 7 EnMin= -671.296272930123     IErMin= 7 ErrMin= 1.12D-07
 ErrMax= 1.12D-07 EMaxC= 1.00D-01 BMatC= 2.29D-12 BMatP= 4.53D-11
 IDIUse=1 WtCom= 1.00D+00 WtEn= 0.00D+00
 Coeff-Com: -0.266D-03-0.311D-04 0.178D-02-0.290D-03 0.456D-01 0.190D+00
 Coeff-Com:  0.763D+00
 Coeff:     -0.266D-03-0.311D-04 0.178D-02-0.290D-03 0.456D-01 0.190D+00
 Coeff:      0.763D+00
 Gap=     0.157 Goal=   None    Shift=    0.000
 RMSDP=1.09D-08 MaxDP=3.27D-07 DE=-9.41D-11 OVMax= 1.12D-06

 Cycle  15  Pass 1  IDiag  1:
 RMSU=  5.86D-09    CP:  1.00D+00  9.90D-01  7.41D-01  5.08D-01  7.85D-01
                    CP:  7.84D-01  8.52D-01
 E= -671.296272930126     Delta-E=       -0.000000000003 Rises=F Damp=F
 DIIS: error= 5.52D-08 at cycle   8 NSaved=   8.
 NSaved= 8 IEnMin= 8 EnMin= -671.296272930126     IErMin= 8 ErrMin= 5.52D-08
 ErrMax= 5.52D-08 EMaxC= 1.00D-01 BMatC= 7.86D-13 BMatP= 2.29D-12
 IDIUse=1 WtCom= 1.00D+00 WtEn= 0.00D+00
 Coeff-Com:  0.913D-04-0.191D-02-0.523D-02-0.804D-02-0.586D-02 0.651D-01
 Coeff-Com:  0.461D+00 0.495D+00
 Coeff:      0.913D-04-0.191D-02-0.523D-02-0.804D-02-0.586D-02 0.651D-01
 Coeff:      0.461D+00 0.495D+00
 Gap=     0.157 Goal=   None    Shift=    0.000
 RMSDP=4.99D-09 MaxDP=2.09D-07 DE=-2.96D-12 OVMax= 6.52D-07

 SCF Done:  E(RB3LYP) =  -671.296272930     A.U. after   15 cycles
             Convg  =    0.4990D-08             -V/T =  2.0093
 KE= 6.650837962838D+02 PE=-3.600637764778D+03 EE= 1.243040137429D+03
 Leave Link  502 at Fri Sep  3 00:09:33 2021, MaxMem=  268435456 cpu:     268.8
 (Enter /sw/target/amd/app/gaussian/Gaussian09RevA.02_gcc-4.9.2/g09/l508.exe)
 QCSCF skips out because SCF is already converged.
 Leave Link  508 at Fri Sep  3 00:09:33 2021, MaxMem=  268435456 cpu:       0.0
 (Enter /sw/target/amd/app/gaussian/Gaussian09RevA.02_gcc-4.9.2/g09/l601.exe)
 Copying SCF densities to generalized density rwf, IOpCl= 0 IROHF=0.

 **********************************************************************

            Population analysis using the SCF density.

 **********************************************************************

 Orbital symmetries:
       Occupied  (A) (A) (A) (A) (A) (A) (A) (A) (A) (A) (A) (A)
                 (A) (A) (A) (A) (A) (A) (A) (A) (A) (A) (A) (A)
                 (A) (A) (A) (A) (A) (A) (A) (A) (A) (A) (A) (A)
                 (A) (A) (A) (A) (A) (A) (A) (A) (A) (A) (A) (A)
                 (A) (A) (A) (A) (A) (A) (A) (A)
       Virtual   (A) (A) (A) (A) (A) (A) (A) (A) (A) (A) (A) (A)
                 (A) (A) (A) (A) (A) (A) (A) (A) (A) (A) (A) (A)
                 (A) (A) (A) (A) (A) (A) (A) (A) (A) (A) (A) (A)
                 (A) (A) (A) (A) (A) (A) (A) (A) (A) (A) (A) (A)
                 (A) (A) (A) (A) (A) (A) (A) (A) (A) (A) (A) (A)
                 (A) (A) (A) (A) (A) (A) (A) (A) (A) (A) (A) (A)
                 (A) (A) (A) (A) (A) (A) (A) (A) (A) (A) (A) (A)
                 (A) (A) (A) (A) (A) (A) (A) (A) (A) (A) (A) (A)
                 (A) (A) (A) (A) (A) (A) (A) (A) (A) (A) (A) (A)
                 (A) (A) (A) (A) (A) (A) (A) (A) (A) (A) (A) (A)
                 (A) (A) (A) (A) (A) (A) (A) (A) (A) (A) (A) (A)
                 (A) (A) (A) (A) (A) (A) (A) (A) (A) (A) (A) (A)
                 (A) (A) (A) (A) (A) (A) (A) (A) (A) (A) (A) (A)
                 (A) (A) (A) (A) (A) (A) (A) (A) (A) (A) (A) (A)
                 (A) (A) (A) (A) (A) (A) (A) (A) (A) (A) (A) (A)
                 (A) (A) (A) (A) (A) (A) (A) (A) (A) (A) (A) (A)
                 (A) (A) (A) (A) (A) (A) (A) (A) (A) (A) (A) (A)
                 (A) (A) (A) (A) (A) (A)
 The electronic state is 1-A.
 Alpha  occ. eigenvalues --  -19.16723 -14.36918 -10.23463 -10.23422 -10.22662
 Alpha  occ. eigenvalues --  -10.21531 -10.21192 -10.19004 -10.18569 -10.18493
 Alpha  occ. eigenvalues --  -10.18379 -10.18326 -10.17978 -10.17796 -10.17745
 Alpha  occ. eigenvalues --  -10.17494  -1.05242  -0.98566  -0.84294  -0.83826
 Alpha  occ. eigenvalues --   -0.78455  -0.75027  -0.73925  -0.71443  -0.70383
 Alpha  occ. eigenvalues --   -0.67175  -0.62956  -0.59692  -0.57489  -0.57197
 Alpha  occ. eigenvalues --   -0.52541  -0.51620  -0.50017  -0.47336  -0.46954
 Alpha  occ. eigenvalues --   -0.46350  -0.46268  -0.44177  -0.43432  -0.42235
 Alpha  occ. eigenvalues --   -0.41595  -0.40451  -0.40301  -0.39880  -0.37914
 Alpha  occ. eigenvalues --   -0.36370  -0.36040  -0.34430  -0.33525  -0.32877
 Alpha  occ. eigenvalues --   -0.32063  -0.28885  -0.27185  -0.23124  -0.20904
 Alpha  occ. eigenvalues --   -0.18176
 Alpha virt. eigenvalues --   -0.02507   0.01405   0.04198   0.05538   0.08719
 Alpha virt. eigenvalues --    0.10178   0.10840   0.11673   0.13442   0.13934
 Alpha virt. eigenvalues --    0.14306   0.15346   0.15661   0.16670   0.17312
 Alpha virt. eigenvalues --    0.17459   0.17982   0.19254   0.20222   0.21026
 Alpha virt. eigenvalues --    0.21715   0.23577   0.25464   0.26971   0.28395
 Alpha virt. eigenvalues --    0.29590   0.31331   0.34123   0.36330   0.37479
 Alpha virt. eigenvalues --    0.38123   0.39757   0.45256   0.46922   0.48575
 Alpha virt. eigenvalues --    0.50087   0.50432   0.52032   0.53435   0.53540
 Alpha virt. eigenvalues --    0.54624   0.55021   0.55770   0.56299   0.56716
 Alpha virt. eigenvalues --    0.57709   0.58520   0.59600   0.59737   0.60667
 Alpha virt. eigenvalues --    0.61415   0.61848   0.62333   0.62702   0.63527
 Alpha virt. eigenvalues --    0.64634   0.65166   0.65935   0.66783   0.69775
 Alpha virt. eigenvalues --    0.72189   0.74020   0.74343   0.75288   0.75486
 Alpha virt. eigenvalues --    0.80596   0.82015   0.82321   0.83279   0.83550
 Alpha virt. eigenvalues --    0.83842   0.84606   0.85478   0.87110   0.87142
 Alpha virt. eigenvalues --    0.87323   0.88748   0.89694   0.90993   0.91682
 Alpha virt. eigenvalues --    0.93724   0.93896   0.95084   0.95334   0.96595
 Alpha virt. eigenvalues --    0.98554   0.99377   0.99944   1.01384   1.04166
 Alpha virt. eigenvalues --    1.05926   1.06410   1.09132   1.11648   1.13701
 Alpha virt. eigenvalues --    1.17336   1.18033   1.19536   1.22296   1.23297
 Alpha virt. eigenvalues --    1.27202   1.27906   1.30628   1.32588   1.32999
 Alpha virt. eigenvalues --    1.35262   1.35721   1.38070   1.38722   1.40703
 Alpha virt. eigenvalues --    1.43708   1.45348   1.46236   1.46813   1.48189
 Alpha virt. eigenvalues --    1.48529   1.49319   1.51053   1.53066   1.57809
 Alpha virt. eigenvalues --    1.59636   1.63530   1.67963   1.70933   1.76550
 Alpha virt. eigenvalues --    1.79314   1.79350   1.81058   1.81868   1.82340
 Alpha virt. eigenvalues --    1.85486   1.88087   1.88880   1.89821   1.92894
 Alpha virt. eigenvalues --    1.94562   1.95605   1.96215   1.98001   1.99063
 Alpha virt. eigenvalues --    2.01569   2.02729   2.04304   2.06824   2.07241
 Alpha virt. eigenvalues --    2.08197   2.09623   2.10772   2.12250   2.13245
 Alpha virt. eigenvalues --    2.14951   2.18238   2.19533   2.20869   2.22731
 Alpha virt. eigenvalues --    2.23537   2.24228   2.26569   2.27087   2.27261
 Alpha virt. eigenvalues --    2.29789   2.32814   2.34908   2.35879   2.41113
 Alpha virt. eigenvalues --    2.42099   2.43134   2.49407   2.50674   2.51999
 Alpha virt. eigenvalues --    2.54153   2.56145   2.60472   2.61776   2.66019
 Alpha virt. eigenvalues --    2.66670   2.68439   2.68803   2.70500   2.72312
 Alpha virt. eigenvalues --    2.76499   2.78542   2.80378   2.84477   2.87802
 Alpha virt. eigenvalues --    2.91858   2.98790   2.99276   3.08135   3.10838
 Alpha virt. eigenvalues --    3.22796   3.36985   3.41199   3.52823   4.06075
 Alpha virt. eigenvalues --    4.07348   4.09946   4.11508   4.14058   4.17600
 Alpha virt. eigenvalues --    4.19616   4.24813   4.30185   4.33623   4.38314
 Alpha virt. eigenvalues --    4.44702   4.52310   4.58574   4.78510   4.89066
          Condensed to atoms (all electrons):
              1          2          3          4          5          6
     1  C    4.892045   0.252520  -0.044402  -0.006885   0.000440  -0.000045
     2  O    0.252520   8.210458   0.267926  -0.059850   0.003609   0.000391
     3  C   -0.044402   0.267926   4.548373   0.449564   0.005371  -0.039780
     4  C   -0.006885  -0.059850   0.449564   5.115687   0.473725  -0.000264
     5  C    0.000440   0.003609   0.005371   0.473725   5.103172   0.474138
     6  C   -0.000045   0.000391  -0.039780  -0.000264   0.474138   4.764893
     7  C   -0.000032   0.001376   0.007149  -0.035437  -0.049760   0.417743
     8  C    0.004144  -0.047935   0.505668  -0.064789  -0.057862  -0.081016
     9  C    0.000003  -0.000073   0.006387  -0.000016   0.016821   0.015893
    10  C   -0.000000   0.000000   0.000017   0.000006  -0.000134   0.015976
    11  C    0.000000   0.000000   0.000000  -0.000000   0.000001  -0.000336
    12  C    0.000000  -0.000000  -0.000000  -0.000000   0.000003  -0.000016
    13  C   -0.000000   0.000000   0.000002   0.000003  -0.000253   0.002784
    14  C   -0.000000   0.000001  -0.000165  -0.000008   0.002211  -0.104229
    15  N   -0.000000   0.000000  -0.000458   0.005831  -0.097035   0.274002
    16  C    0.000000  -0.000000  -0.000001  -0.000005  -0.004477  -0.046990
    17  H    0.384499  -0.031562   0.003334   0.000172   0.000002   0.000000
    18  H    0.362778  -0.036762  -0.004605   0.004943  -0.000176  -0.000001
    19  H    0.362656  -0.036745  -0.004444   0.004898  -0.000167  -0.000010
    20  H    0.005873  -0.007195  -0.042674   0.352108  -0.037304   0.002346
    21  H   -0.000006  -0.000042   0.002798  -0.037699   0.346725  -0.034601
    22  H   -0.000216   0.000319  -0.039059   0.007424  -0.000092   0.005814
    23  H   -0.000000  -0.000000   0.000004   0.000003  -0.000003  -0.000264
    24  H   -0.000000   0.000000  -0.000000  -0.000000  -0.000000   0.000005
    25  H    0.000000  -0.000000  -0.000000   0.000000  -0.000000   0.000001
    26  H   -0.000000   0.000000  -0.000000   0.000000  -0.000001  -0.000187
    27  H   -0.000000  -0.000000  -0.000000   0.000001   0.000017   0.001700
    28  H    0.000000   0.000000   0.000000   0.000017   0.004888  -0.002997
    29  H    0.000000   0.000000  -0.000001  -0.000001   0.001307   0.000709
              7          8          9         10         11         12
     1  C   -0.000032   0.004144   0.000003  -0.000000   0.000000   0.000000
     2  O    0.001376  -0.047935  -0.000073   0.000000   0.000000  -0.000000
     3  C    0.007149   0.505668   0.006387   0.000017   0.000000  -0.000000
     4  C   -0.035437  -0.064789  -0.000016   0.000006  -0.000000  -0.000000
     5  C   -0.049760  -0.057862   0.016821  -0.000134   0.000001   0.000003
     6  C    0.417743  -0.081016   0.015893   0.015976  -0.000336  -0.000016
     7  C    5.013752   0.479558   0.256822  -0.108734   0.008581  -0.000180
     8  C    0.479558   5.273837  -0.103683  -0.017103   0.000091   0.000007
     9  C    0.256822  -0.103683   5.004092   0.504096   0.001816  -0.037534
    10  C   -0.108734  -0.017103   0.504096   5.126075   0.502287  -0.024490
    11  C    0.008581   0.000091   0.001816   0.502287   4.897822   0.530451
    12  C   -0.000180   0.000007  -0.037534  -0.024490   0.530451   4.860619
    13  C    0.015790  -0.000150  -0.052548  -0.059005  -0.026931   0.521620
    14  C    0.012991   0.015475   0.426457  -0.075195  -0.042608   0.002520
    15  N   -0.054311   0.012548  -0.055956   0.011904  -0.000291   0.005293
    16  C    0.007447  -0.000158   0.007164  -0.000172   0.000006  -0.000036
    17  H   -0.000002  -0.000098  -0.000000  -0.000000   0.000000  -0.000000
    18  H    0.000009   0.000036   0.000000   0.000000   0.000000  -0.000000
    19  H    0.000019   0.000034   0.000000   0.000000  -0.000000   0.000000
    20  H    0.001082   0.004276   0.000012  -0.000000   0.000000   0.000000
    21  H    0.004253   0.000603  -0.000180   0.000002  -0.000000  -0.000000
    22  H   -0.035994   0.337274  -0.007810   0.002968  -0.000019   0.000002
    23  H   -0.008159   0.003058  -0.034025   0.348890  -0.047539   0.004692
    24  H   -0.000208  -0.000001   0.001948  -0.037580   0.358073  -0.041611
    25  H    0.000012  -0.000000   0.001073   0.004463  -0.040395   0.357642
    26  H   -0.000184   0.000002   0.004375   0.000555   0.004426  -0.041810
    27  H    0.000091   0.000008  -0.000276  -0.000022   0.000001   0.000016
    28  H   -0.000295  -0.000024   0.000104   0.000008  -0.000000   0.000001
    29  H   -0.000142   0.000002  -0.000127   0.000002  -0.000002   0.000003
             13         14         15         16         17         18
     1  C   -0.000000  -0.000000  -0.000000   0.000000   0.384499   0.362778
     2  O    0.000000   0.000001   0.000000  -0.000000  -0.031562  -0.036762
     3  C    0.000002  -0.000165  -0.000458  -0.000001   0.003334  -0.004605
     4  C    0.000003  -0.000008   0.005831  -0.000005   0.000172   0.004943
     5  C   -0.000253   0.002211  -0.097035  -0.004477   0.000002  -0.000176
     6  C    0.002784  -0.104229   0.274002  -0.046990   0.000000  -0.000001
     7  C    0.015790   0.012991  -0.054311   0.007447  -0.000002   0.000009
     8  C   -0.000150   0.015475   0.012548  -0.000158  -0.000098   0.000036
     9  C   -0.052548   0.426457  -0.055956   0.007164  -0.000000   0.000000
    10  C   -0.059005  -0.075195   0.011904  -0.000172  -0.000000   0.000000
    11  C   -0.026931  -0.042608  -0.000291   0.000006   0.000000   0.000000
    12  C    0.521620   0.002520   0.005293  -0.000036  -0.000000  -0.000000
    13  C    5.095414   0.467578  -0.096977  -0.004268  -0.000000  -0.000000
    14  C    0.467578   4.751047   0.284614  -0.046664   0.000000  -0.000000
    15  N   -0.096977   0.284614   7.193121   0.299823  -0.000000   0.000000
    16  C   -0.004268  -0.046664   0.299823   4.981998  -0.000000  -0.000000
    17  H   -0.000000   0.000000  -0.000000  -0.000000   0.547177  -0.034411
    18  H   -0.000000  -0.000000   0.000000  -0.000000  -0.034411   0.605662
    19  H   -0.000000  -0.000000   0.000000   0.000000  -0.034316  -0.048114
    20  H   -0.000000   0.000001  -0.000094  -0.000000  -0.000121   0.001848
    21  H   -0.000001  -0.000178  -0.007013   0.002941  -0.000000   0.000001
    22  H   -0.000002  -0.000254  -0.000082   0.000003  -0.000023   0.000028
    23  H    0.000466   0.005499  -0.000107   0.000003   0.000000  -0.000000
    24  H    0.004650   0.001077   0.000004  -0.000000   0.000000   0.000000
    25  H   -0.039836   0.002549  -0.000095  -0.000000  -0.000000   0.000000
    26  H    0.347940  -0.038311  -0.007359   0.003104   0.000000   0.000000
    27  H    0.004825  -0.002882  -0.034978   0.372778  -0.000000   0.000000
    28  H    0.000023   0.001765  -0.034008   0.372218   0.000000   0.000000
    29  H    0.001454   0.000342  -0.051660   0.380196   0.000000  -0.000000
             19         20         21         22         23         24
     1  C    0.362656   0.005873  -0.000006  -0.000216  -0.000000  -0.000000
     2  O   -0.036745  -0.007195  -0.000042   0.000319  -0.000000   0.000000
     3  C   -0.004444  -0.042674   0.002798  -0.039059   0.000004  -0.000000
     4  C    0.004898   0.352108  -0.037699   0.007424   0.000003  -0.000000
     5  C   -0.000167  -0.037304   0.346725  -0.000092  -0.000003  -0.000000
     6  C   -0.000010   0.002346  -0.034601   0.005814  -0.000264   0.000005
     7  C    0.000019   0.001082   0.004253  -0.035994  -0.008159  -0.000208
     8  C    0.000034   0.004276   0.000603   0.337274   0.003058  -0.000001
     9  C    0.000000   0.000012  -0.000180  -0.007810  -0.034025   0.001948
    10  C    0.000000  -0.000000   0.000002   0.002968   0.348890  -0.037580
    11  C   -0.000000   0.000000  -0.000000  -0.000019  -0.047539   0.358073
    12  C    0.000000   0.000000  -0.000000   0.000002   0.004692  -0.041611
    13  C   -0.000000  -0.000000  -0.000001  -0.000002   0.000466   0.004650
    14  C   -0.000000   0.000001  -0.000178  -0.000254   0.005499   0.001077
    15  N    0.000000  -0.000094  -0.007013  -0.000082  -0.000107   0.000004
    16  C    0.000000  -0.000000   0.002941   0.000003   0.000003  -0.000000
    17  H   -0.034316  -0.000121  -0.000000  -0.000023   0.000000   0.000000
    18  H   -0.048114   0.001848   0.000001   0.000028  -0.000000   0.000000
    19  H    0.605691   0.001763   0.000003   0.000027  -0.000000  -0.000000
    20  H    0.001763   0.595320  -0.005339  -0.000170  -0.000000  -0.000000
    21  H    0.000003  -0.005339   0.598002   0.000016   0.000000   0.000000
    22  H    0.000027  -0.000170   0.000016   0.594752   0.001835   0.000000
    23  H   -0.000000  -0.000000   0.000000   0.001835   0.602099  -0.004958
    24  H   -0.000000  -0.000000   0.000000   0.000000  -0.004958   0.602248
    25  H    0.000000  -0.000000  -0.000000  -0.000000  -0.000194  -0.005479
    26  H   -0.000000  -0.000000  -0.000000   0.000000   0.000018  -0.000185
    27  H   -0.000000  -0.000000  -0.000078  -0.000000   0.000000  -0.000000
    28  H   -0.000000   0.000000   0.003408   0.000000  -0.000000  -0.000000
    29  H    0.000000  -0.000000  -0.000051  -0.000000  -0.000000   0.000000
             25         26         27         28         29
     1  C    0.000000  -0.000000  -0.000000   0.000000   0.000000
     2  O   -0.000000   0.000000  -0.000000   0.000000   0.000000
     3  C   -0.000000  -0.000000  -0.000000   0.000000  -0.000001
     4  C    0.000000   0.000000   0.000001   0.000017  -0.000001
     5  C   -0.000000  -0.000001   0.000017   0.004888   0.001307
     6  C    0.000001  -0.000187   0.001700  -0.002997   0.000709
     7  C    0.000012  -0.000184   0.000091  -0.000295  -0.000142
     8  C   -0.000000   0.000002   0.000008  -0.000024   0.000002
     9  C    0.001073   0.004375  -0.000276   0.000104  -0.000127
    10  C    0.004463   0.000555  -0.000022   0.000008   0.000002
    11  C   -0.040395   0.004426   0.000001  -0.000000  -0.000002
    12  C    0.357642  -0.041810   0.000016   0.000001   0.000003
    13  C   -0.039836   0.347940   0.004825   0.000023   0.001454
    14  C    0.002549  -0.038311  -0.002882   0.001765   0.000342
    15  N   -0.000095  -0.007359  -0.034978  -0.034008  -0.051660
    16  C   -0.000000   0.003104   0.372778   0.372218   0.380196
    17  H   -0.000000   0.000000  -0.000000   0.000000   0.000000
    18  H    0.000000   0.000000   0.000000   0.000000  -0.000000
    19  H    0.000000  -0.000000  -0.000000  -0.000000   0.000000
    20  H   -0.000000  -0.000000  -0.000000   0.000000  -0.000000
    21  H   -0.000000  -0.000000  -0.000078   0.003408  -0.000051
    22  H   -0.000000   0.000000  -0.000000   0.000000  -0.000000
    23  H   -0.000194   0.000018   0.000000  -0.000000  -0.000000
    24  H   -0.005479  -0.000185  -0.000000  -0.000000   0.000000
    25  H    0.600361  -0.005342   0.000001  -0.000000  -0.000000
    26  H   -0.005342   0.606685   0.003175  -0.000068  -0.000031
    27  H    0.000001   0.003175   0.543979  -0.022135  -0.036598
    28  H   -0.000000  -0.000068  -0.022135   0.543975  -0.036134
    29  H   -0.000000  -0.000031  -0.036598  -0.036134   0.572075
 Mulliken atomic charges:
              1
     1  C   -0.213371
     2  O   -0.516435
     3  C    0.378998
     4  C   -0.209428
     5  C   -0.185164
     6  C    0.334340
     7  C    0.066764
     8  C   -0.263802
     9  C    0.045166
    10  C   -0.194817
    11  C   -0.145435
    12  C   -0.137192
    13  C   -0.182578
    14  C    0.336366
    15  N   -0.646715
    16  C   -0.324910
    17  H    0.165350
    18  H    0.148764
    19  H    0.148706
    20  H    0.128268
    21  H    0.126436
    22  H    0.133260
    23  H    0.128683
    24  H    0.122016
    25  H    0.125239
    26  H    0.123197
    27  H    0.170380
    28  H    0.169253
    29  H    0.168657
 Sum of Mulliken atomic charges =  -0.00000
 Mulliken charges with hydrogens summed into heavy atoms:
              1
     1  C    0.249450
     2  O   -0.516435
     3  C    0.378998
     4  C   -0.081159
     5  C   -0.058728
     6  C    0.334340
     7  C    0.066764
     8  C   -0.130542
     9  C    0.045166
    10  C   -0.066134
    11  C   -0.023419
    12  C   -0.011953
    13  C   -0.059380
    14  C    0.336366
    15  N   -0.646715
    16  C    0.183380
 Sum of Mulliken charges with hydrogens summed into heavy atoms =  -0.00000
 Electronic spatial extent (au):  <R**2>=           4066.2205
 Charge=             -0.0000 electrons
 Dipole moment (field-independent basis, Debye):
    X=             -0.5648    Y=              2.5556    Z=             -0.0296  Tot=              2.6174
 Quadrupole moment (field-independent basis, Debye-Ang):
   XX=            -77.1002   YY=            -82.8199   ZZ=            -97.1346
   XY=             -0.0944   XZ=             -0.1248   YZ=             -0.2068
 Traceless Quadrupole moment (field-independent basis, Debye-Ang):
   XX=              8.5847   YY=              2.8650   ZZ=            -11.4497
   XY=             -0.0944   XZ=             -0.1248   YZ=             -0.2068
 Octapole moment (field-independent basis, Debye-Ang**2):
  XXX=            -67.3820  YYY=             12.4455  ZZZ=              0.3864  XYY=             11.0073
  XXY=             10.6688  XXZ=              0.0465  XZZ=            -10.9480  YZZ=              2.7953
  YYZ=             -1.1528  XYZ=             -0.4046
 Hexadecapole moment (field-independent basis, Debye-Ang**3):
 XXXX=          -3496.4890 YYYY=          -1162.6003 ZZZZ=           -111.7039 XXXY=             27.9518
 XXXZ=             -1.9795 YYYX=             14.3959 YYYZ=             -4.1769 ZZZX=              0.4799
 ZZZY=              1.2430 XXYY=           -858.7184 XXZZ=           -737.9901 YYZZ=           -239.1228
 XXYZ=             -2.2505 YYXZ=             -1.2552 ZZXY=             20.4994
 N-N= 1.021217558135D+03 E-N=-3.600637760118D+03  KE= 6.650837962838D+02
 No NMR shielding tensors so no spin-rotation constants.
 Leave Link  601 at Fri Sep  3 00:09:33 2021, MaxMem=  268435456 cpu:       0.5
 (Enter /sw/target/amd/app/gaussian/Gaussian09RevA.02_gcc-4.9.2/g09/l701.exe)
 Compute integral first derivatives.
 ... and contract with generalized density number  0.
 Leave Link  701 at Fri Sep  3 00:09:34 2021, MaxMem=  268435456 cpu:       0.4
 (Enter /sw/target/amd/app/gaussian/Gaussian09RevA.02_gcc-4.9.2/g09/l702.exe)
 L702 exits ... SP integral derivatives will be done elsewhere.
 Leave Link  702 at Fri Sep  3 00:09:34 2021, MaxMem=  268435456 cpu:       0.0
 (Enter /sw/target/amd/app/gaussian/Gaussian09RevA.02_gcc-4.9.2/g09/l703.exe)
 Compute integral first derivatives, UseDBF=F ICtDFT=           0.
 Integral derivatives from FoFDir, PRISM(SPDF).
 Calling FoFJK, ICntrl=      2127 FMM=F ISym2X=0 I1Cent= 0 IOpClX= 0 NMat=1 NMatS=1 NMatT=0.
 FoFCou: FMM=F IPFlag=           0 FMFlag=      100000 FMFlg1=         800
         NFxFlg=           0 DoJE=F BraDBF=F KetDBF=F FulRan=T
         Omega=  0.000000  0.000000  1.000000  0.000000  0.000000 ICntrl=    2127 IOpCl=  0
         NMat0=    1 NMatS0=    1 NMatT0=    0 NMatD0=    1 NMtDS0=    0 NMtDT0=    0
         I1Cent=           0 NGrid=           0.
 Symmetry not used in FoFCou.
 Leave Link  703 at Fri Sep  3 00:11:18 2021, MaxMem=  268435456 cpu:     104.2
 (Enter /sw/target/amd/app/gaussian/Gaussian09RevA.02_gcc-4.9.2/g09/l716.exe)
 Dipole        =-2.22198327D-01 1.00545483D+00-1.16610100D-02
 ***** Axes restored to original set *****
 -------------------------------------------------------------------
 Center     Atomic                   Forces (Hartrees/Bohr)
 Number     Number              X              Y              Z
 -------------------------------------------------------------------
      1        6          -0.000122443   -0.003535486   -0.004719022
      2        8           0.010086533    0.001254241    0.001609778
      3        6          -0.013317690   -0.009424723   -0.012324845
      4        6           0.000091498    0.010231833    0.014029574
      5        6          -0.005753198   -0.003424067   -0.003899754
      6        6           0.004732583    0.006208765    0.008557400
      7        6           0.031523586   -0.014602853   -0.020424752
      8        6          -0.012975718    0.001127977    0.001369360
      9        6          -0.012785840   -0.019996937   -0.028079043
     10        6           0.000831558    0.002499641    0.003248149
     11        6           0.011928481   -0.006398361   -0.008366501
     12        6          -0.001234774    0.007754224    0.010939742
     13        6           0.000577062    0.000123130    0.000832827
     14        6          -0.004251746    0.004199705    0.006177911
     15        7          -0.009678616    0.011505212    0.025833740
     16        6           0.001080472   -0.000899414   -0.007561494
     17        1          -0.004033479   -0.001380185   -0.001835710
     18        1           0.000354737    0.002199692    0.003518712
     19        1           0.000312527    0.002789415    0.003067042
     20        1           0.000277669   -0.001031496   -0.001441413
     21        1           0.000420825    0.000276934   -0.000170093
     22        1           0.002912802   -0.000028799   -0.000013785
     23        1           0.000481004   -0.000373490   -0.000414572
     24        1           0.000406786    0.000165585    0.000164158
     25        1           0.000596759    0.000697478    0.000852332
     26        1           0.000331216    0.000865761    0.000614711
     27        1          -0.000718025    0.001755573    0.000560344
     28        1           0.000059362    0.001410331    0.000391592
     29        1          -0.002133933    0.006030312    0.007483612
 -------------------------------------------------------------------
 Cartesian Forces:  Max     0.031523586 RMS     0.008204446
 Leave Link  716 at Fri Sep  3 00:11:18 2021, MaxMem=  268435456 cpu:       0.1
 (Enter /sw/target/amd/app/gaussian/Gaussian09RevA.02_gcc-4.9.2/g09/l103.exe)

 GradGradGradGradGradGradGradGradGradGradGradGradGradGradGradGradGradGrad
 Berny optimization.
 Internal  Forces:  Max     0.024871507 RMS     0.004931249
 Search for a local minimum.
 Step number   1 out of a maximum of  164
 All quantities printed in internal units (Hartrees-Bohrs-Radians)
 RMS Force = .49312D-02 SwitMx=.10000D-02 MixMth= 1
 Mixed Optimization -- RFO/linear search
 Second derivative matrix not updated -- first step.
     Eigenvalues ---    0.01068   0.01407   0.01573   0.01872   0.01924
     Eigenvalues ---    0.01956   0.02000   0.02004   0.02009   0.02021
     Eigenvalues ---    0.02030   0.02048   0.02049   0.02055   0.02063
     Eigenvalues ---    0.02096   0.02120   0.02120   0.02148   0.02148
     Eigenvalues ---    0.02150   0.02174   0.07730   0.07811   0.09987
     Eigenvalues ---    0.10545   0.16000   0.16000   0.16000   0.16000
     Eigenvalues ---    0.16000   0.16000   0.16000   0.16000   0.16000
     Eigenvalues ---    0.16000   0.16000   0.16000   0.16000   0.22000
     Eigenvalues ---    0.22447   0.22597   0.23522   0.24521   0.24635
     Eigenvalues ---    0.24997   0.24997   0.24999   0.25000   0.25000
     Eigenvalues ---    0.34239   0.34240   0.34322   0.34501   0.34520
     Eigenvalues ---    0.34546   0.35097   0.35165   0.35260   0.35273
     Eigenvalues ---    0.35367   0.35373   0.35397   0.38103   0.38380
     Eigenvalues ---    0.38616   0.40855   0.40957   0.41638   0.42226
     Eigenvalues ---    0.43799   0.44500   0.44979   0.45280   0.45363
     Eigenvalues ---    0.45654   0.46371   0.46613   0.47102   0.48299
     Eigenvalues ---    0.510841000.000001000.000001000.000001000.00000
     Eigenvalues --- 1000.000001000.000001000.000001000.000001000.00000
     Eigenvalues --- 1000.000001000.000001000.000001000.000001000.00000
     Eigenvalues --- 1000.000001000.000001000.000001000.000001000.00000
     Eigenvalues --- 1000.000001000.000001000.000001000.000001000.00000
     Eigenvalues --- 1000.000001000.000001000.000001000.000001000.00000
     Eigenvalues --- 1000.000001000.000001000.000001000.000001000.00000
     Eigenvalues --- 1000.000001000.000001000.000001000.000001000.00000
     Eigenvalues --- 1000.000001000.000001000.000001000.000001000.00000
     Eigenvalues --- 1000.000001000.000001000.000001000.000001000.00000
     Eigenvalues --- 1000.000001000.000001000.000001000.000001000.00000
     Eigenvalues --- 1000.000001000.000001000.000001000.000001000.00000
     Eigenvalues --- 1000.000001000.000001000.000001000.000001000.00000
     Eigenvalues --- 1000.000001000.000001000.000001000.000001000.00000
     Eigenvalues --- 1000.000001000.000001000.000001000.00000
 RFO step:  Lambda=-1.11385964D-02 EMin= 1.06757904D-02
 Linear search not attempted -- first point.
 Iteration  1 RMS(Cart)=  0.03125918 RMS(Int)=  0.00049374
 Iteration  2 RMS(Cart)=  0.00065017 RMS(Int)=  0.00008972
 Iteration  3 RMS(Cart)=  0.00000017 RMS(Int)=  0.00008972
 Variable       Old X    -DE/DX   Delta X   Delta X   Delta X     New X
                                 (Linear)    (Quad)   (Total)
    R1        2.68636  -0.00318   0.00000  -0.00733  -0.00733   2.67903
    R2        2.06791  -0.00090   0.00000  -0.00255  -0.00255   2.06536
    R3        2.06928   0.00199   0.00000   0.00562   0.00562   2.07490
    R4        2.06929   0.00198   0.00000   0.00560   0.00560   2.07489
    R5        2.58787   0.00370   0.00000   0.00708   0.00708   2.59496
    R6        2.63098   0.01335   0.00000   0.02732   0.02730   2.65828
    R7        2.64563  -0.00303   0.00000  -0.00657  -0.00661   2.63902
    R8        2.64915  -0.00396   0.00000  -0.00892  -0.00891   2.64025
    R9        2.05083  -0.00057   0.00000  -0.00156  -0.00156   2.04927
   R10        2.65356  -0.00876   0.00000  -0.01893  -0.01889   2.63467
   R11        2.05073   0.00007   0.00000   0.00019   0.00019   2.05092
   R12        2.63631   0.02473   0.00000   0.05294   0.05296   2.68927
   R13        2.60999   0.01111   0.00000   0.02165   0.02160   2.63160
   R14        2.66732  -0.01186   0.00000  -0.02602  -0.02604   2.64127
   R15        2.70157   0.00993   0.00000   0.02455   0.02460   2.72616
   R16        2.05256  -0.00018   0.00000  -0.00049  -0.00049   2.05207
   R17        2.66727  -0.00917   0.00000  -0.02014  -0.02016   2.64711
   R18        2.63840   0.02487   0.00000   0.05327   0.05330   2.69170
   R19        2.64225  -0.00603   0.00000  -0.01326  -0.01328   2.62897
   R20        2.05234   0.00072   0.00000   0.00198   0.00198   2.05431
   R21        2.62805   0.01440   0.00000   0.02911   0.02911   2.65716
   R22        2.05407  -0.00041   0.00000  -0.00112  -0.00112   2.05295
   R23        2.64219  -0.00410   0.00000  -0.00900  -0.00899   2.63320
   R24        2.05518  -0.00059   0.00000  -0.00162  -0.00162   2.05356
   R25        2.65612  -0.00642   0.00000  -0.01355  -0.01352   2.64260
   R26        2.05036   0.00071   0.00000   0.00195   0.00195   2.05231
   R27        2.61058   0.00682   0.00000   0.01285   0.01281   2.62339
   R28        2.73479   0.00585   0.00000   0.01473   0.01473   2.74952
   R29        2.06461   0.00030   0.00000   0.00084   0.00084   2.06545
   R30        2.06418   0.00021   0.00000   0.00059   0.00059   2.06477
   R31        2.06493   0.00346   0.00000   0.00971   0.00971   2.07464
    A1        1.88117  -0.00630   0.00000  -0.03459  -0.03450   1.84667
    A2        1.93977   0.00200   0.00000   0.01051   0.01057   1.95034
    A3        1.93995   0.00193   0.00000   0.01009   0.01014   1.95010
    A4        1.87931   0.00310   0.00000   0.02035   0.02044   1.89975
    A5        1.87932   0.00312   0.00000   0.02046   0.02055   1.89987
    A6        1.94121  -0.00386   0.00000  -0.02644  -0.02640   1.91481
    A7        2.04112   0.00353   0.00000   0.01352   0.01352   2.05464
[...]
 Alpha  occ. eigenvalues --   -0.46521  -0.45975  -0.44221  -0.43663  -0.42404
 Alpha  occ. eigenvalues --   -0.41605  -0.40618  -0.40296  -0.39631  -0.38226
 Alpha  occ. eigenvalues --   -0.36378  -0.35885  -0.34459  -0.33404  -0.32747
 Alpha  occ. eigenvalues --   -0.31822  -0.29007  -0.27223  -0.23371  -0.20670
 Alpha  occ. eigenvalues --   -0.18264
 Alpha virt. eigenvalues --   -0.02320   0.01564   0.03864   0.05201   0.08611
 Alpha virt. eigenvalues --    0.10146   0.10903   0.11804   0.13203   0.13887
 Alpha virt. eigenvalues --    0.14312   0.15095   0.15784   0.16668   0.17145
 Alpha virt. eigenvalues --    0.17304   0.18027   0.19191   0.19984   0.20716
 Alpha virt. eigenvalues --    0.21758   0.24249   0.25484   0.26923   0.28067
 Alpha virt. eigenvalues --    0.29191   0.31794   0.33749   0.36002   0.37546
 Alpha virt. eigenvalues --    0.37788   0.39793   0.44011   0.45936   0.48872
 Alpha virt. eigenvalues --    0.50392   0.50578   0.51923   0.53307   0.53842
 Alpha virt. eigenvalues --    0.54611   0.54708   0.55606   0.56087   0.56512
 Alpha virt. eigenvalues --    0.57529   0.58520   0.59006   0.59766   0.60319
 Alpha virt. eigenvalues --    0.61435   0.61765   0.62190   0.62822   0.63582
 Alpha virt. eigenvalues --    0.64613   0.65205   0.65924   0.66598   0.69898
 Alpha virt. eigenvalues --    0.71976   0.73765   0.73983   0.74783   0.75659
 Alpha virt. eigenvalues --    0.80402   0.81758   0.82038   0.82604   0.83401
 Alpha virt. eigenvalues --    0.83849   0.84980   0.85469   0.86767   0.86924
 Alpha virt. eigenvalues --    0.87164   0.88487   0.89507   0.90928   0.92148
 Alpha virt. eigenvalues --    0.93607   0.93806   0.95164   0.95325   0.96928
 Alpha virt. eigenvalues --    0.98500   0.99425   1.00112   1.01191   1.04185
 Alpha virt. eigenvalues --    1.06235   1.06403   1.08673   1.11858   1.13989
 Alpha virt. eigenvalues --    1.17274   1.17911   1.19098   1.22390   1.23364
 Alpha virt. eigenvalues --    1.27632   1.27838   1.29624   1.32730   1.33261
 Alpha virt. eigenvalues --    1.34502   1.35647   1.38107   1.38881   1.40804
 Alpha virt. eigenvalues --    1.42708   1.45231   1.45965   1.46331   1.48405
 Alpha virt. eigenvalues --    1.48911   1.49432   1.50780   1.53191   1.58356
 Alpha virt. eigenvalues --    1.59666   1.63528   1.67210   1.71335   1.75105
 Alpha virt. eigenvalues --    1.78473   1.78767   1.80923   1.82044   1.83017
 Alpha virt. eigenvalues --    1.84923   1.86711   1.89319   1.89648   1.91522
 Alpha virt. eigenvalues --    1.94187   1.95410   1.95942   1.98100   1.99113
 Alpha virt. eigenvalues --    2.00527   2.02240   2.03474   2.04827   2.07747
 Alpha virt. eigenvalues --    2.08123   2.09421   2.11094   2.11807   2.13514
 Alpha virt. eigenvalues --    2.15387   2.17311   2.19260   2.20848   2.22294
 Alpha virt. eigenvalues --    2.23328   2.23680   2.25931   2.26863   2.27498
 Alpha virt. eigenvalues --    2.28893   2.31924   2.34604   2.35143   2.40691
 Alpha virt. eigenvalues --    2.42249   2.42549   2.49693   2.50346   2.51540
 Alpha virt. eigenvalues --    2.53773   2.56448   2.59732   2.60376   2.65859
 Alpha virt. eigenvalues --    2.67076   2.67687   2.68454   2.70484   2.71718
 Alpha virt. eigenvalues --    2.76614   2.78090   2.80226   2.84830   2.87275
 Alpha virt. eigenvalues --    2.89732   2.97748   2.98661   3.06567   3.10999
 Alpha virt. eigenvalues --    3.24350   3.34017   3.38789   3.53037   4.05931
 Alpha virt. eigenvalues --    4.07176   4.09735   4.11590   4.14290   4.17178
 Alpha virt. eigenvalues --    4.19241   4.24182   4.30270   4.33300   4.37733
 Alpha virt. eigenvalues --    4.44552   4.50261   4.56962   4.77975   4.87961
          Condensed to atoms (all electrons):
              1          2          3          4          5          6
     1  C    4.888288   0.253714  -0.043703  -0.006940   0.000444  -0.000046
     2  O    0.253714   8.210999   0.263786  -0.057378   0.003815   0.000417
     3  C   -0.043703   0.263786   4.544200   0.458721   0.004584  -0.038233
     4  C   -0.006940  -0.057378   0.458721   5.112269   0.471389  -0.002792
     5  C    0.000444   0.003815   0.004584   0.471389   5.106335   0.476728
     6  C   -0.000046   0.000417  -0.038233  -0.002792   0.476728   4.751675
     7  C   -0.000025   0.001147   0.010728  -0.036157  -0.047964   0.425349
     8  C    0.003915  -0.045875   0.501538  -0.066254  -0.055552  -0.078682
     9  C    0.000003  -0.000073   0.006178   0.000191   0.016950   0.015095
    10  C   -0.000000   0.000000   0.000045   0.000008  -0.000144   0.014551
    11  C    0.000000   0.000000   0.000000  -0.000000   0.000001  -0.000331
    12  C    0.000000  -0.000000  -0.000000  -0.000000   0.000004  -0.000017
    13  C    0.000000   0.000000   0.000002   0.000003  -0.000349   0.002367
    14  C   -0.000000   0.000001  -0.000208  -0.000003   0.001775  -0.098139
    15  N   -0.000000   0.000000  -0.000463   0.005915  -0.095645   0.279565
    16  C    0.000000  -0.000000  -0.000001  -0.000028  -0.004033  -0.045697
    17  H    0.386706  -0.034305   0.003357   0.000260   0.000002   0.000000
    18  H    0.360974  -0.036360  -0.004182   0.004492  -0.000208  -0.000001
    19  H    0.360905  -0.036309  -0.004087   0.004516  -0.000187  -0.000011
    20  H    0.006229  -0.007757  -0.042192   0.352360  -0.037559   0.002385
    21  H   -0.000005  -0.000044   0.002870  -0.038131   0.345994  -0.034676
    22  H   -0.000240   0.000588  -0.038009   0.007295  -0.000183   0.005117
    23  H   -0.000000  -0.000000   0.000002   0.000003  -0.000002  -0.000208
    24  H   -0.000000   0.000000  -0.000000  -0.000000  -0.000000   0.000005
    25  H   -0.000000  -0.000000   0.000000   0.000000  -0.000000   0.000001
    26  H   -0.000000   0.000000  -0.000000   0.000000   0.000001  -0.000121
    27  H   -0.000000  -0.000000  -0.000000   0.000002  -0.000012   0.001939
    28  H    0.000000   0.000000  -0.000000   0.000017   0.004690  -0.003264
    29  H    0.000000   0.000000  -0.000001  -0.000005   0.001458   0.000499
              7          8          9         10         11         12
     1  C   -0.000025   0.003915   0.000003  -0.000000   0.000000   0.000000
     2  O    0.001147  -0.045875  -0.000073   0.000000   0.000000  -0.000000
     3  C    0.010728   0.501538   0.006178   0.000045   0.000000  -0.000000
     4  C   -0.036157  -0.066254   0.000191   0.000008  -0.000000  -0.000000
     5  C   -0.047964  -0.055552   0.016950  -0.000144   0.000001   0.000004
     6  C    0.425349  -0.078682   0.015095   0.014551  -0.000331  -0.000017
     7  C    4.997978   0.476551   0.260197  -0.107248   0.008513  -0.000085
     8  C    0.476551   5.273578  -0.103099  -0.016602   0.000090   0.000009
     9  C    0.260197  -0.103099   4.987008   0.506993   0.002679  -0.038137
    10  C   -0.107248  -0.016602   0.506993   5.117306   0.499954  -0.024995
    11  C    0.008513   0.000090   0.002679   0.499954   4.903050   0.528808
    12  C   -0.000085   0.000009  -0.038137  -0.024995   0.528808   4.865528
    13  C    0.015802  -0.000156  -0.051586  -0.056544  -0.026490   0.521610
    14  C    0.011292   0.014430   0.430852  -0.070094  -0.042232   0.001157
    15  N   -0.055188   0.011565  -0.056942   0.010949  -0.000262   0.005382
    16  C    0.006139  -0.000109   0.006004  -0.000126   0.000001   0.000010
    17  H   -0.000002  -0.000101  -0.000000  -0.000000   0.000000  -0.000000
    18  H    0.000008   0.000014   0.000000   0.000000   0.000000  -0.000000
    19  H    0.000019   0.000013   0.000000   0.000000  -0.000000   0.000000
    20  H    0.001008   0.004330   0.000010  -0.000000   0.000000   0.000000
    21  H    0.004315   0.000580  -0.000185   0.000002  -0.000000   0.000000
    22  H   -0.037084   0.339079  -0.007228   0.002593  -0.000019   0.000002
    23  H   -0.008292   0.003079  -0.034722   0.350290  -0.047218   0.004566
    24  H   -0.000210  -0.000001   0.001962  -0.037864   0.357808  -0.040801
    25  H    0.000010  -0.000000   0.001075   0.004397  -0.040038   0.357257
    26  H   -0.000201   0.000002   0.004352   0.000519   0.004285  -0.041170
    27  H    0.000063   0.000007  -0.000271  -0.000017   0.000002   0.000018
    28  H   -0.000256  -0.000018   0.000067   0.000007  -0.000000   0.000001
    29  H   -0.000085  -0.000002  -0.000032   0.000001  -0.000001  -0.000000
             13         14         15         16         17         18
     1  C    0.000000  -0.000000  -0.000000   0.000000   0.386706   0.360974
     2  O    0.000000   0.000001   0.000000  -0.000000  -0.034305  -0.036360
     3  C    0.000002  -0.000208  -0.000463  -0.000001   0.003357  -0.004182
     4  C    0.000003  -0.000003   0.005915  -0.000028   0.000260   0.004492
     5  C   -0.000349   0.001775  -0.095645  -0.004033   0.000002  -0.000208
     6  C    0.002367  -0.098139   0.279565  -0.045697   0.000000  -0.000001
     7  C    0.015802   0.011292  -0.055188   0.006139  -0.000002   0.000008
     8  C   -0.000156   0.014430   0.011565  -0.000109  -0.000101   0.000014
     9  C   -0.051586   0.430852  -0.056942   0.006004  -0.000000   0.000000
    10  C   -0.056544  -0.070094   0.010949  -0.000126  -0.000000   0.000000
    11  C   -0.026490  -0.042232  -0.000262   0.000001   0.000000   0.000000
    12  C    0.521610   0.001157   0.005382   0.000010  -0.000000  -0.000000
    13  C    5.090272   0.470250  -0.094343  -0.004356  -0.000000  -0.000000
    14  C    0.470250   4.743562   0.286605  -0.044304   0.000000  -0.000000
    15  N   -0.094343   0.286605   7.153140   0.308799  -0.000000   0.000000
    16  C   -0.004356  -0.044304   0.308799   4.975535  -0.000000  -0.000000
    17  H   -0.000000   0.000000  -0.000000  -0.000000   0.543084  -0.032547
    18  H   -0.000000  -0.000000   0.000000  -0.000000  -0.032547   0.611181
    19  H   -0.000000  -0.000000   0.000000   0.000000  -0.032394  -0.052046
    20  H   -0.000000   0.000001  -0.000095  -0.000000  -0.000108   0.001973
    21  H    0.000000  -0.000137  -0.007725   0.003346  -0.000000   0.000001
    22  H   -0.000001  -0.000164  -0.000058   0.000002  -0.000025   0.000029
    23  H    0.000402   0.005219  -0.000089   0.000003   0.000000  -0.000000
    24  H    0.004525   0.001073   0.000004  -0.000000   0.000000   0.000000
    25  H   -0.040403   0.002711  -0.000106   0.000000  -0.000000   0.000000
    26  H    0.347064  -0.038304  -0.007727   0.002786   0.000000   0.000000
    27  H    0.004819  -0.003731  -0.034111   0.373590  -0.000000   0.000000
    28  H    0.000008   0.001801  -0.036156   0.372522   0.000000   0.000000
    29  H    0.001103   0.000355  -0.044877   0.375138  -0.000000  -0.000000
             19         20         21         22         23         24
     1  C    0.360905   0.006229  -0.000005  -0.000240  -0.000000  -0.000000
     2  O   -0.036309  -0.007757  -0.000044   0.000588  -0.000000   0.000000
     3  C   -0.004087  -0.042192   0.002870  -0.038009   0.000002  -0.000000
     4  C    0.004516   0.352360  -0.038131   0.007295   0.000003  -0.000000
     5  C   -0.000187  -0.037559   0.345994  -0.000183  -0.000002  -0.000000
     6  C   -0.000011   0.002385  -0.034676   0.005117  -0.000208   0.000005
     7  C    0.000019   0.001008   0.004315  -0.037084  -0.008292  -0.000210
     8  C    0.000013   0.004330   0.000580   0.339079   0.003079  -0.000001
     9  C    0.000000   0.000010  -0.000185  -0.007228  -0.034722   0.001962
    10  C    0.000000  -0.000000   0.000002   0.002593   0.350290  -0.037864
    11  C   -0.000000   0.000000  -0.000000  -0.000019  -0.047218   0.357808
    12  C    0.000000   0.000000   0.000000   0.000002   0.004566  -0.040801
    13  C   -0.000000  -0.000000   0.000000  -0.000001   0.000402   0.004525
    14  C   -0.000000   0.000001  -0.000137  -0.000164   0.005219   0.001073
    15  N    0.000000  -0.000095  -0.007725  -0.000058  -0.000089   0.000004
    16  C    0.000000  -0.000000   0.003346   0.000002   0.000003  -0.000000
    17  H   -0.032394  -0.000108  -0.000000  -0.000025   0.000000   0.000000
    18  H   -0.052046   0.001973   0.000001   0.000029  -0.000000   0.000000
    19  H    0.610991   0.001817   0.000003   0.000028  -0.000000  -0.000000
    20  H    0.001817   0.595836  -0.005295  -0.000166  -0.000000  -0.000000
    21  H    0.000003  -0.005295   0.600062   0.000017   0.000000   0.000000
    22  H    0.000028  -0.000166   0.000017   0.590625   0.001752   0.000000
    23  H   -0.000000  -0.000000   0.000000   0.001752   0.600383  -0.004896
    24  H   -0.000000  -0.000000   0.000000   0.000000  -0.004896   0.601919
    25  H    0.000000  -0.000000  -0.000000  -0.000000  -0.000186  -0.005295
    26  H   -0.000000  -0.000000  -0.000000   0.000000   0.000018  -0.000174
    27  H   -0.000000  -0.000000  -0.000079  -0.000000   0.000000  -0.000000
    28  H   -0.000000   0.000001   0.002954   0.000000  -0.000000  -0.000000
    29  H    0.000000  -0.000000   0.000069  -0.000000  -0.000000   0.000000
             25         26         27         28         29
     1  C   -0.000000  -0.000000  -0.000000   0.000000   0.000000
     2  O   -0.000000   0.000000  -0.000000   0.000000   0.000000
     3  C    0.000000  -0.000000  -0.000000  -0.000000  -0.000001
     4  C    0.000000   0.000000   0.000002   0.000017  -0.000005
     5  C   -0.000000   0.000001  -0.000012   0.004690   0.001458
     6  C    0.000001  -0.000121   0.001939  -0.003264   0.000499
     7  C    0.000010  -0.000201   0.000063  -0.000256  -0.000085
     8  C   -0.000000   0.000002   0.000007  -0.000018  -0.000002
     9  C    0.001075   0.004352  -0.000271   0.000067  -0.000032
    10  C    0.004397   0.000519  -0.000017   0.000007   0.000001
    11  C   -0.040038   0.004285   0.000002  -0.000000  -0.000001
    12  C    0.357257  -0.041170   0.000018   0.000001  -0.000000
    13  C   -0.040403   0.347064   0.004819   0.000008   0.001103
    14  C    0.002711  -0.038304  -0.003731   0.001801   0.000355
    15  N   -0.000106  -0.007727  -0.034111  -0.036156  -0.044877
    16  C    0.000000   0.002786   0.373590   0.372522   0.375138
    17  H   -0.000000   0.000000  -0.000000   0.000000  -0.000000
    18  H    0.000000   0.000000   0.000000   0.000000  -0.000000
    19  H    0.000000  -0.000000  -0.000000  -0.000000   0.000000
    20  H   -0.000000  -0.000000  -0.000000   0.000001  -0.000000
    21  H   -0.000000  -0.000000  -0.000079   0.002954   0.000069
    22  H   -0.000000   0.000000  -0.000000   0.000000  -0.000000
    23  H   -0.000186   0.000018   0.000000  -0.000000  -0.000000
    24  H   -0.005295  -0.000174  -0.000000  -0.000000   0.000000
    25  H    0.602117  -0.005452   0.000002  -0.000000  -0.000000
    26  H   -0.005452   0.606715   0.003715  -0.000078  -0.000000
    27  H    0.000002   0.003715   0.542336  -0.021901  -0.037856
    28  H   -0.000000  -0.000078  -0.021901   0.550758  -0.040696
    29  H   -0.000000  -0.000000  -0.037856  -0.040696   0.578379
 Mulliken atomic charges:
              1
     1  C   -0.210218
     2  O   -0.516367
     3  C    0.375066
     4  C   -0.209753
     5  C   -0.192335
     6  C    0.326523
     7  C    0.073677
     8  C   -0.262328
     9  C    0.052660
    10  C   -0.193981
    11  C   -0.148600
    12  C   -0.139146
    13  C   -0.184000
    14  C    0.326232
    15  N   -0.628136
    16  C   -0.325223
    17  H    0.166073
    18  H    0.146670
    19  H    0.146740
    20  H    0.127224
    21  H    0.126064
    22  H    0.136051
    23  H    0.129894
    24  H    0.121945
    25  H    0.123910
    26  H    0.123771
    27  H    0.171487
    28  H    0.169545
    29  H    0.166555
 Sum of Mulliken atomic charges =  -0.00000
 Mulliken charges with hydrogens summed into heavy atoms:
              1
     1  C    0.249265
     2  O   -0.516367
     3  C    0.375066
     4  C   -0.082529
     5  C   -0.066271
     6  C    0.326523
     7  C    0.073677
     8  C   -0.126276
     9  C    0.052660
    10  C   -0.064087
    11  C   -0.026654
    12  C   -0.015236
    13  C   -0.060229
    14  C    0.326232
    15  N   -0.628136
    16  C    0.182363
 Sum of Mulliken charges with hydrogens summed into heavy atoms =  -0.00000
 Electronic spatial extent (au):  <R**2>=           4070.9420
 Charge=             -0.0000 electrons
 Dipole moment (field-independent basis, Debye):
    X=             -0.5204    Y=              2.5718    Z=              0.0221  Tot=              2.6240
 Quadrupole moment (field-independent basis, Debye-Ang):
   XX=            -77.7645   YY=            -82.2385   ZZ=            -97.3838
   XY=              0.1835   XZ=             -0.0097   YZ=             -0.0767
 Traceless Quadrupole moment (field-independent basis, Debye-Ang):
   XX=              8.0311   YY=              3.5571   ZZ=            -11.5882
   XY=              0.1835   XZ=             -0.0097   YZ=             -0.0767
 Octapole moment (field-independent basis, Debye-Ang**2):
  XXX=            -64.9991  YYY=             13.4341  ZZZ=              0.4650  XYY=             11.3650
  XXY=             12.3287  XXZ=              0.0263  XZZ=            -10.9207  YZZ=              2.7674
  YYZ=             -0.4956  XYZ=             -0.2128
 Hexadecapole moment (field-independent basis, Debye-Ang**3):
 XXXX=          -3514.1518 YYYY=          -1165.4170 ZZZZ=           -111.9261 XXXY=             27.5279
 XXXZ=             -1.6819 YYYX=             20.5449 YYYZ=             -2.7571 ZZZX=              0.4701
 ZZZY=              1.4419 XXYY=           -856.8058 XXZZ=           -739.5286 YYZZ=           -241.4407
 XXYZ=             -1.8231 YYXZ=             -0.1799 ZZXY=             19.6010
 N-N= 1.019283889609D+03 E-N=-3.596633251888D+03  KE= 6.649250516858D+02
 No NMR shielding tensors so no spin-rotation constants.
 Leave Link  601 at Fri Sep  3 01:23:09 2021, MaxMem=  268435456 cpu:       0.5
 (Enter /sw/target/amd/app/gaussian/Gaussian09RevA.02_gcc-4.9.2/g09/l9999.exe)
 1\1\GINC-HERMITE\FOpt\RB3LYP\6-31G(d)\C14H13N1O1\JSCHLEINITZ\03-Sep-20
 21\0\\#p b3lyp 6-31G* opt scf(xqc,tight)\\opt calculation\\0,1\C,4.853
 1895949,-0.6021066249,-0.7988481426\O,3.5579614665,-0.9415653728,-1.25
 63828675\C,2.4751073276,-0.4402668696,-0.5771211765\C,2.5704108629,0.3
 991249855,0.5485772483\C,1.422140905,0.8725436752,1.1890568597\C,0.177
 8262078,0.4919383076,0.6920170038\C,0.0719558444,-0.3483483151,-0.4489
 109222\C,1.2254598439,-0.814553496,-1.0788467151\C,-1.3438547326,-0.52
 73384705,-0.6981724252\C,-2.0756226698,-1.2318496442,-1.6598189091\C,-
 3.4668748008,-1.1893197646,-1.6213229935\C,-4.1310549582,-0.4464302445
 ,-0.630194785\C,-3.4275233494,0.2644942631,0.3401725036\C,-2.030268371
 3,0.2128432021,0.3030761941\N,-1.1015315373,0.8068005668,1.1479852581\
 C,-1.4009172337,1.6876720084,2.2535256472\H,5.5509374831,-1.1043266647
 ,-1.4722084502\H,5.0302017685,0.481731966,-0.8407648643\H,5.0285173422
 ,-0.9527884631,0.2278134789\H,3.539624847,0.69456449,0.9331588967\H,1.
 5168942593,1.5268546919,2.0505489226\H,1.1825163067,-1.4591980209,-1.9
 513503659\H,-1.5625879959,-1.8030382341,-2.429402524\H,-4.0455290493,-
 1.731100831,-2.3639911192\H,-5.2175224123,-0.4204211502,-0.6202093361\
 H,-3.9559807334,0.8422451746,1.0927124733\H,-2.3720679155,1.4238736046
 ,2.6802371294\H,-0.6471573587,1.5638763687,3.0368561389\H,-1.424250941
 3,2.7440888616,1.9518058419\\Version=AM64L-G09RevA.02\State=1-A\HF=-67
 1.3016339\RMSD=6.216e-09\RMSF=1.346e-05\Dipole=0.2625737,0.6007523,0.7
 974518\Quadrupole=5.9442435,-4.6710128,-1.2732307,-0.2180114,-0.244784
 2,5.3818548\PG=C01 [X(C14H13N1O1)]\\@


 KEEP CLOSE TO NATURES HEART, YOURSELF;
 AND BREAK CLEAR AWAY, ONCE IN A WHILE, AND
 CLIMB A MOUNTAIN OR SPEND A WEEK IN THE
 WOODS.  WASH YOUR SPIRIT CLEAN...
                                         -- JOHN MUIR
 Job cpu time:  0 days  1 hours 17 minutes 51.8 seconds.
 File lengths (MBytes):  RWF=     52 Int=      0 D2E=      0 Chk=      6 Scr=      1
 Normal termination of Gaussian 09 at Fri Sep  3 01:23:09 2021.
