 Entering Gaussian System, Link 0=g09
 Input=mol_inp039.com
 Output=mol_inp039.log
 Initial command:
 /sw/target/amd/app/gaussian/Gaussian09RevA.02_gcc-4.9.2/g09/l1.exe /home/jschleinitz/optim_react/039/Gau-2804653.inp -scrdir=/home/jschleinitz/optim_react/039/
 Entering Link 1 = /sw/target/amd/app/gaussian/Gaussian09RevA.02_gcc-4.9.2/g09/l1.exe PID=   2804655.
  
 Copyright (c) 1988,1990,1992,1993,1995,1998,2003,2009, Gaussian, Inc.
                  All Rights Reserved.
  
 This is part of the Gaussian(R) 09 program.  It is based on
 the Gaussian(R) 03 system (copyright 2003, Gaussian, Inc.),
 the Gaussian(R) 98 system (copyright 1998, Gaussian, Inc.),
 the Gaussian(R) 94 system (copyright 1995, Gaussian, Inc.),
 the Gaussian 92(TM) system (copyright 1992, Gaussian, Inc.),
 the Gaussian 90(TM) system (copyright 1990, Gaussian, Inc.),
 the Gaussian 88(TM) system (copyright 1988, Gaussian, Inc.),
 the Gaussian 86(TM) system (copyright 1986, Carnegie Mellon
 University), and the Gaussian 82(TM) system (copyright 1983,
 Carnegie Mellon University). Gaussian is a federally registered
 trademark of Gaussian, Inc.
  
 This software contains proprietary and confidential information,
 including trade secrets, belonging to Gaussian, Inc.
  
 This software is provided under written license and may be
 used, copied, transmitted, or stored only in accord with that
 written license.
  
 The following legend is applicable only to US Government
 contracts under FAR:
  
                    RESTRICTED RIGHTS LEGEND
  
 Use, reproduction and disclosure by the US Government is
 subject to restrictions as set forth in subparagraphs (a)
 and (c) of the Commercial Computer Software - Restricted
 Rights clause in FAR 52.227-19.
  
 Gaussian, Inc.
 340 Quinnipiac St., Bldg. 40, Wallingford CT 06492
  
  
 ---------------------------------------------------------------
 Warning -- This program may not be used in any manner that
 competes with the business of Gaussian, Inc. or will provide
 assistance to any competitor of Gaussian, Inc.  The licensee
 of this program is prohibited from giving any competitor of
 Gaussian, Inc. access to this program.  By using this program,
 the user acknowledges that Gaussian, Inc. is engaged in the
 business of creating and licensing software in the field of
 computational chemistry and represents and warrants to the
 licensee that it is not a competitor of Gaussian, Inc. and that
 it will not use this program in any manner prohibited above.
 ---------------------------------------------------------------
  

 Cite this work as:
 Gaussian 09, Revision A.02,
 M. J. Frisch, G. W. Trucks, H. B. Schlegel, G. E. Scuseria, 
 M. A. Robb, J. R. Cheeseman, G. Scalmani, V. Barone, B. Mennucci, 
 G. A. Petersson, H. Nakatsuji, M. Caricato, X. Li, H. P. Hratchian, 
 A. F. Izmaylov, J. Bloino, G. Zheng, J. L. Sonnenberg, M. Hada, 
 M. Ehara, K. Toyota, R. Fukuda, J. Hasegawa, M. Ishida, T. Nakajima, 
 Y. Honda, O. Kitao, H. Nakai, T. Vreven, J. A. Montgomery, Jr., 
 J. E. Peralta, F. Ogliaro, M. Bearpark, J. J. Heyd, E. Brothers, 
 K. N. Kudin, V. N. Staroverov, R. Kobayashi, J. Normand, 
 K. Raghavachari, A. Rendell, J. C. Burant, S. S. Iyengar, J. Tomasi, 
 M. Cossi, N. Rega, J. M. Millam, M. Klene, J. E. Knox, J. B. Cross, 
 V. Bakken, C. Adamo, J. Jaramillo, R. Gomperts, R. E. Stratmann, 
 O. Yazyev, A. J. Austin, R. Cammi, C. Pomelli, J. W. Ochterski, 
 R. L. Martin, K. Morokuma, V. G. Zakrzewski, G. A. Voth, 
 P. Salvador, J. J. Dannenberg, S. Dapprich, A. D. Daniels, 
 O. Farkas, J. B. Foresman, J. V. Ortiz, J. Cioslowski, 
 and D. J. Fox, Gaussian, Inc., Wallingford CT, 2009.
 
 ******************************************
 Gaussian 09:  AM64L-G09RevA.02 11-Jun-2009
                 3-Sep-2021 
 ******************************************
 %chk=opt.chk
 %mem=2gb
 %nproc=1
 Will use up to    1 processors via shared memory.
 ----------------------------------
 #p b3lyp 6-31G* opt scf(xqc,tight)
 ----------------------------------
 1/14=-1,18=20,19=15,26=3,38=1/1,3;
 2/9=110,12=2,17=6,18=5,40=1/2;
 3/5=1,6=6,7=1,11=2,16=1,25=1,30=1,71=1,74=-5/1,2,3;
 4//1;
 5/5=2,8=3,13=1,32=2,38=5/2,8;
 6/7=2,8=2,9=2,10=2,28=1/1;
 7//1,2,3,16;
 1/14=-1,18=20,19=15/3(2);
 2/9=110/2;
 99//99;
 2/9=110/2;
 3/5=1,6=6,7=1,11=2,16=1,25=1,30=1,71=1,74=-5/1,2,3;
 4/5=5,16=3/1;
 5/5=2,8=3,13=1,32=2,38=5/2,8;
 7//1,2,3,16;
 1/14=-1,18=20,19=15/3(-5);
 2/9=110/2;
 6/7=2,8=2,9=2,10=2,19=2,28=1/1;
 99/9=1/99;
 Leave Link    1 at Fri Sep  3 00:08:09 2021, MaxMem=  268435456 cpu:       0.0
 (Enter /sw/target/amd/app/gaussian/Gaussian09RevA.02_gcc-4.9.2/g09/l101.exe)
 ---------------
 opt calculation
 ---------------
 Symbolic Z-matrix:
 Charge =  0 Multiplicity = 1
 C                     3.33903   2.36447  -1.4764 
 O                     1.97599   2.04031  -1.23566 
 C                     1.81171   0.91364  -0.45775 
 N                     2.87612   0.25666  -0.0148 
 C                     2.58883  -0.809     0.71897 
 O                     3.69434  -1.49433   1.17728 
 C                     3.36588  -2.63638   1.95799 
 N                     1.37205  -1.23892   1.02647 
 C                     0.3917   -0.49181   0.52963 
 O                    -0.88555  -0.95287   0.83353 
 C                    -1.93327  -0.13005   0.49447 
 C                    -2.25587   0.9425    1.33161 
 C                    -3.34373   1.75718   1.02439 
 C                    -4.11296   1.49098  -0.10733 
 C                    -3.80202   0.40505  -0.92987 
 C                    -2.71603  -0.42872  -0.6303 
 C                    -2.38436  -1.5896   -1.52122 
 N                     0.54892   0.59145  -0.22404 
 H                     3.36294   3.26484  -2.09806 
 H                     3.86503   2.59234  -0.54269 
 H                     3.84653   1.56632  -2.02941 
 H                     2.8183   -2.35487   2.86424 
 H                     2.80422  -3.37161   1.37114 
 H                     4.30293  -3.10772   2.27012 
 H                    -1.65959   1.1465    2.21609 
 H                    -3.5911    2.5991    1.66527 
 H                    -4.95887   2.12916  -0.35035 
 H                    -4.41638   0.21395  -1.80692 
 H                    -1.46232  -1.38774  -2.07536 
 H                    -2.25977  -2.50337  -0.93112 
 H                    -3.18271  -1.77747  -2.24691 
 
 NAtoms=     31 NQM=     31 NQMF=      0 NMic=      0 NMicF=      0 NTot=     31.
                    Isotopes and Nuclear Properties:
 (Nuclear quadrupole moments (NQMom) in fm**2, nuclear magnetic moments (NMagM)
  in nuclear magnetons)

  Atom         1           2           3           4           5           6           7           8           9          10
 IAtWgt=          12          16          12          14          12          16          12          14          12          16
 AtmWgt=  12.0000000  15.9949146  12.0000000  14.0030740  12.0000000  15.9949146  12.0000000  14.0030740  12.0000000  15.9949146
 NucSpn=           0           0           0           2           0           0           0           2           0           0
 AtZEff=   0.0000000   0.0000000   0.0000000   0.0000000   0.0000000   0.0000000   0.0000000   0.0000000   0.0000000   0.0000000
 NQMom=    0.0000000   0.0000000   0.0000000   2.0440000   0.0000000   0.0000000   0.0000000   2.0440000   0.0000000   0.0000000
 NMagM=    0.0000000   0.0000000   0.0000000   0.4037610   0.0000000   0.0000000   0.0000000   0.4037610   0.0000000   0.0000000

  Atom        11          12          13          14          15          16          17          18          19          20
 IAtWgt=          12          12          12          12          12          12          12          14           1           1
 AtmWgt=  12.0000000  12.0000000  12.0000000  12.0000000  12.0000000  12.0000000  12.0000000  14.0030740   1.0078250   1.0078250
 NucSpn=           0           0           0           0           0           0           0           2           1           1
 AtZEff=   0.0000000   0.0000000   0.0000000   0.0000000   0.0000000   0.0000000   0.0000000   0.0000000   0.0000000   0.0000000
 NQMom=    0.0000000   0.0000000   0.0000000   0.0000000   0.0000000   0.0000000   0.0000000   2.0440000   0.0000000   0.0000000
 NMagM=    0.0000000   0.0000000   0.0000000   0.0000000   0.0000000   0.0000000   0.0000000   0.4037610   2.7928460   2.7928460

  Atom        21          22          23          24          25          26          27          28          29          30
 IAtWgt=           1           1           1           1           1           1           1           1           1           1
 AtmWgt=   1.0078250   1.0078250   1.0078250   1.0078250   1.0078250   1.0078250   1.0078250   1.0078250   1.0078250   1.0078250
 NucSpn=           1           1           1           1           1           1           1           1           1           1
 AtZEff=   0.0000000   0.0000000   0.0000000   0.0000000   0.0000000   0.0000000   0.0000000   0.0000000   0.0000000   0.0000000
 NQMom=    0.0000000   0.0000000   0.0000000   0.0000000   0.0000000   0.0000000   0.0000000   0.0000000   0.0000000   0.0000000
 NMagM=    2.7928460   2.7928460   2.7928460   2.7928460   2.7928460   2.7928460   2.7928460   2.7928460   2.7928460   2.7928460

  Atom        31
 IAtWgt=           1
 AtmWgt=   1.0078250
 NucSpn=           1
 AtZEff=   0.0000000
 NQMom=    0.0000000
 NMagM=    2.7928460
 Leave Link  101 at Fri Sep  3 00:08:09 2021, MaxMem=  268435456 cpu:       0.2
 (Enter /sw/target/amd/app/gaussian/Gaussian09RevA.02_gcc-4.9.2/g09/l103.exe)

 GradGradGradGradGradGradGradGradGradGradGradGradGradGradGradGradGradGrad
 Berny optimization.
 Initialization pass.
                           ----------------------------
                           !    Initial Parameters    !
                           ! (Angstroms and Degrees)  !
 --------------------------                            --------------------------
 ! Name  Definition              Value          Derivative Info.                !
 --------------------------------------------------------------------------------
 ! R1    R(1,2)                  1.4216         estimate D2E/DX2                !
 ! R2    R(1,19)                 1.0944         estimate D2E/DX2                !
 ! R3    R(1,20)                 1.0956         estimate D2E/DX2                !
 ! R4    R(1,21)                 1.0956         estimate D2E/DX2                !
 ! R5    R(2,3)                  1.379          estimate D2E/DX2                !
 ! R6    R(3,4)                  1.327          estimate D2E/DX2                !
 ! R7    R(3,18)                 1.324          estimate D2E/DX2                !
 ! R8    R(4,5)                  1.3254         estimate D2E/DX2                !
 ! R9    R(5,6)                  1.3791         estimate D2E/DX2                !
 ! R10   R(5,8)                  1.3266         estimate D2E/DX2                !
 ! R11   R(6,7)                  1.4219         estimate D2E/DX2                !
 ! R12   R(7,22)                 1.0956         estimate D2E/DX2                !
 ! R13   R(7,23)                 1.0956         estimate D2E/DX2                !
 ! R14   R(7,24)                 1.0944         estimate D2E/DX2                !
 ! R15   R(8,9)                  1.329          estimate D2E/DX2                !
 ! R16   R(9,10)                 1.3915         estimate D2E/DX2                !
 ! R17   R(9,18)                 1.329          estimate D2E/DX2                !
 ! R18   R(10,11)                1.3747         estimate D2E/DX2                !
 ! R19   R(11,12)                1.3983         estimate D2E/DX2                !
 ! R20   R(11,16)                1.4025         estimate D2E/DX2                !
 ! R21   R(12,13)                1.3934         estimate D2E/DX2                !
 ! R22   R(12,25)                1.086          estimate D2E/DX2                !
 ! R23   R(13,14)                1.394          estimate D2E/DX2                !
 ! R24   R(13,26)                1.0866         estimate D2E/DX2                !
 ! R25   R(14,15)                1.3973         estimate D2E/DX2                !
 ! R26   R(14,27)                1.0871         estimate D2E/DX2                !
 ! R27   R(15,16)                1.4015         estimate D2E/DX2                !
 ! R28   R(15,28)                1.0877         estimate D2E/DX2                !
 ! R29   R(16,17)                1.5005         estimate D2E/DX2                !
 ! R30   R(17,29)                1.0945         estimate D2E/DX2                !
 ! R31   R(17,30)                1.0949         estimate D2E/DX2                !
 ! R32   R(17,31)                1.0951         estimate D2E/DX2                !
 ! A1    A(2,1,19)             107.7427         estimate D2E/DX2                !
 ! A2    A(2,1,20)             111.3104         estimate D2E/DX2                !
 ! A3    A(2,1,21)             111.3141         estimate D2E/DX2                !
 ! A4    A(19,1,20)            107.6075         estimate D2E/DX2                !
 ! A5    A(19,1,21)            107.608          estimate D2E/DX2                !
 ! A6    A(20,1,21)            111.0557         estimate D2E/DX2                !
 ! A7    A(1,2,3)              113.3328         estimate D2E/DX2                !
 ! A8    A(2,3,4)              119.8197         estimate D2E/DX2                !
 ! A9    A(2,3,18)             114.3321         estimate D2E/DX2                !
 ! A10   A(4,3,18)             125.8482         estimate D2E/DX2                !
 ! A11   A(3,4,5)              114.1435         estimate D2E/DX2                !
 ! A12   A(4,5,6)              114.1918         estimate D2E/DX2                !
 ! A13   A(4,5,8)              125.995          estimate D2E/DX2                !
 ! A14   A(6,5,8)              119.8132         estimate D2E/DX2                !
 ! A15   A(5,6,7)              113.3559         estimate D2E/DX2                !
 ! A16   A(6,7,22)             111.3001         estimate D2E/DX2                !
 ! A17   A(6,7,23)             111.3045         estimate D2E/DX2                !
 ! A18   A(6,7,24)             107.7428         estimate D2E/DX2                !
 ! A19   A(22,7,23)            111.0546         estimate D2E/DX2                !
 ! A20   A(22,7,24)            107.6187         estimate D2E/DX2                !
 ! A21   A(23,7,24)            107.6193         estimate D2E/DX2                !
 ! A22   A(5,8,9)              114.0647         estimate D2E/DX2                !
 ! A23   A(8,9,10)             114.1546         estimate D2E/DX2                !
 ! A24   A(8,9,18)             125.6599         estimate D2E/DX2                !
 ! A25   A(10,9,18)            120.167          estimate D2E/DX2                !
 ! A26   A(9,10,11)            116.5762         estimate D2E/DX2                !
 ! A27   A(10,11,12)           119.1623         estimate D2E/DX2                !
 ! A28   A(10,11,16)           119.717          estimate D2E/DX2                !
 ! A29   A(12,11,16)           120.9783         estimate D2E/DX2                !
 ! A30   A(11,12,13)           119.7746         estimate D2E/DX2                !
 ! A31   A(11,12,25)           120.3309         estimate D2E/DX2                !
 ! A32   A(13,12,25)           119.8936         estimate D2E/DX2                !
 ! A33   A(12,13,14)           119.8776         estimate D2E/DX2                !
 ! A34   A(12,13,26)           120.0465         estimate D2E/DX2                !
 ! A35   A(14,13,26)           120.0758         estimate D2E/DX2                !
 ! A36   A(13,14,15)           120.2318         estimate D2E/DX2                !
 ! A37   A(13,14,27)           119.9158         estimate D2E/DX2                !
 ! A38   A(15,14,27)           119.8523         estimate D2E/DX2                !
 ! A39   A(14,15,16)           120.5928         estimate D2E/DX2                !
 ! A40   A(14,15,28)           119.0449         estimate D2E/DX2                !
 ! A41   A(16,15,28)           120.3622         estimate D2E/DX2                !
 ! A42   A(11,16,15)           118.5019         estimate D2E/DX2                !
 ! A43   A(11,16,17)           121.1695         estimate D2E/DX2                !
 ! A44   A(15,16,17)           120.3068         estimate D2E/DX2                !
 ! A45   A(16,17,29)           110.129          estimate D2E/DX2                !
 ! A46   A(16,17,30)           110.5386         estimate D2E/DX2                !
 ! A47   A(16,17,31)           111.4101         estimate D2E/DX2                !
 ! A48   A(29,17,30)           109.3259         estimate D2E/DX2                !
 ! A49   A(29,17,31)           108.0756         estimate D2E/DX2                !
 ! A50   A(30,17,31)           107.2742         estimate D2E/DX2                !
 ! A51   A(3,18,9)             114.2857         estimate D2E/DX2                !
 ! D1    D(19,1,2,3)           179.9373         estimate D2E/DX2                !
 ! D2    D(20,1,2,3)           -62.3055         estimate D2E/DX2                !
 ! D3    D(21,1,2,3)            62.1774         estimate D2E/DX2                !
 ! D4    D(1,2,3,4)              0.1747         estimate D2E/DX2                !
 ! D5    D(1,2,3,18)          -179.8289         estimate D2E/DX2                !
 ! D6    D(2,3,4,5)           -179.8747         estimate D2E/DX2                !
 ! D7    D(18,3,4,5)             0.1293         estimate D2E/DX2                !
 ! D8    D(2,3,18,9)          -179.7766         estimate D2E/DX2                !
 ! D9    D(4,3,18,9)             0.2196         estimate D2E/DX2                !
 ! D10   D(3,4,5,6)            179.8576         estimate D2E/DX2                !
 ! D11   D(3,4,5,8)             -0.1366         estimate D2E/DX2                !
 ! D12   D(4,5,6,7)           -179.7866         estimate D2E/DX2                !
 ! D13   D(8,5,6,7)              0.2079         estimate D2E/DX2                !
 ! D14   D(4,5,8,9)             -0.2059         estimate D2E/DX2                !
 ! D15   D(6,5,8,9)            179.8002         estimate D2E/DX2                !
 ! D16   D(5,6,7,22)           -62.3116         estimate D2E/DX2                !
 ! D17   D(5,6,7,23)            62.1551         estimate D2E/DX2                !
 ! D18   D(5,6,7,24)           179.9234         estimate D2E/DX2                !
 ! D19   D(5,8,9,10)           179.0481         estimate D2E/DX2                !
 ! D20   D(5,8,9,18)             0.62           estimate D2E/DX2                !
 ! D21   D(8,9,10,11)          171.8913         estimate D2E/DX2                !
 ! D22   D(18,9,10,11)          -9.5859         estimate D2E/DX2                !
 ! D23   D(8,9,18,3)            -0.6271         estimate D2E/DX2                !
 ! D24   D(10,9,18,3)         -178.9681         estimate D2E/DX2                !
 ! D25   D(9,10,11,12)         -80.4452         estimate D2E/DX2                !
 ! D26   D(9,10,11,16)         103.8491         estimate D2E/DX2                !
 ! D27   D(10,11,12,13)       -177.8089         estimate D2E/DX2                !
 ! D28   D(10,11,12,25)          2.5382         estimate D2E/DX2                !
 ! D29   D(16,11,12,13)         -2.1591         estimate D2E/DX2                !
 ! D30   D(16,11,12,25)        178.1881         estimate D2E/DX2                !
 ! D31   D(10,11,16,15)        178.1359         estimate D2E/DX2                !
 ! D32   D(10,11,16,17)         -3.5533         estimate D2E/DX2                !
 ! D33   D(12,11,16,15)          2.5099         estimate D2E/DX2                !
 ! D34   D(12,11,16,17)       -179.1793         estimate D2E/DX2                !
 ! D35   D(11,12,13,14)          0.6685         estimate D2E/DX2                !
 ! D36   D(11,12,13,26)       -179.257          estimate D2E/DX2                !
 ! D37   D(25,12,13,14)       -179.6771         estimate D2E/DX2                !
 ! D38   D(25,12,13,26)          0.3974         estimate D2E/DX2                !
 ! D39   D(12,13,14,15)          0.4095         estimate D2E/DX2                !
 ! D40   D(12,13,14,27)       -179.6944         estimate D2E/DX2                !
 ! D41   D(26,13,14,15)       -179.665          estimate D2E/DX2                !
 ! D42   D(26,13,14,27)          0.2311         estimate D2E/DX2                !
 ! D43   D(13,14,15,16)         -0.0243         estimate D2E/DX2                !
 ! D44   D(13,14,15,28)        179.8765         estimate D2E/DX2                !
 ! D45   D(27,14,15,16)       -179.9204         estimate D2E/DX2                !
 ! D46   D(27,14,15,28)         -0.0196         estimate D2E/DX2                !
 ! D47   D(14,15,16,11)         -1.4133         estimate D2E/DX2                !
 ! D48   D(14,15,16,17)       -179.7393         estimate D2E/DX2                !
 ! D49   D(28,15,16,11)        178.6872         estimate D2E/DX2                !
 ! D50   D(28,15,16,17)          0.3613         estimate D2E/DX2                !
 ! D51   D(11,16,17,29)        -69.4861         estimate D2E/DX2                !
 ! D52   D(11,16,17,30)         51.4255         estimate D2E/DX2                !
 ! D53   D(11,16,17,31)        170.6023         estimate D2E/DX2                !
 ! D54   D(15,16,17,29)        108.7945         estimate D2E/DX2                !
 ! D55   D(15,16,17,30)       -130.2939         estimate D2E/DX2                !
 ! D56   D(15,16,17,31)        -11.1171         estimate D2E/DX2                !
 --------------------------------------------------------------------------------
 Trust Radius=3.00D-01 FncErr=1.00D-07 GrdErr=1.00D-06
 Number of steps in this run= 149 maximum allowed number of steps= 186.
 GradGradGradGradGradGradGradGradGradGradGradGradGradGradGradGradGradGrad

 Leave Link  103 at Fri Sep  3 00:08:09 2021, MaxMem=  268435456 cpu:       0.0
 (Enter /sw/target/amd/app/gaussian/Gaussian09RevA.02_gcc-4.9.2/g09/l202.exe)
                          Input orientation:                          
 ---------------------------------------------------------------------
 Center     Atomic      Atomic             Coordinates (Angstroms)
 Number     Number       Type             X           Y           Z
 ---------------------------------------------------------------------
      1          6           0        3.339029    2.364474   -1.476398
      2          8           0        1.975991    2.040314   -1.235659
      3          6           0        1.811707    0.913640   -0.457752
      4          7           0        2.876118    0.256657   -0.014802
      5          6           0        2.588825   -0.808996    0.718974
      6          8           0        3.694340   -1.494329    1.177282
      7          6           0        3.365878   -2.636380    1.957985
      8          7           0        1.372053   -1.238917    1.026468
      9          6           0        0.391695   -0.491813    0.529629
     10          8           0       -0.885549   -0.952866    0.833534
     11          6           0       -1.933269   -0.130049    0.494467
     12          6           0       -2.255866    0.942497    1.331607
     13          6           0       -3.343734    1.757180    1.024389
     14          6           0       -4.112963    1.490976   -0.107330
     15          6           0       -3.802022    0.405054   -0.929870
     16          6           0       -2.716029   -0.428723   -0.630299
     17          6           0       -2.384355   -1.589604   -1.521222
     18          7           0        0.548924    0.591452   -0.224036
     19          1           0        3.362938    3.264839   -2.098055
     20          1           0        3.865028    2.592343   -0.542688
     21          1           0        3.846526    1.566318   -2.029406
     22          1           0        2.818298   -2.354872    2.864244
     23          1           0        2.804219   -3.371607    1.371138
     24          1           0        4.302932   -3.107723    2.270121
     25          1           0       -1.659585    1.146504    2.216085
     26          1           0       -3.591100    2.599104    1.665269
     27          1           0       -4.958866    2.129158   -0.350350
     28          1           0       -4.416375    0.213947   -1.806916
     29          1           0       -1.462315   -1.387739   -2.075360
     30          1           0       -2.259767   -2.503371   -0.931115
     31          1           0       -3.182707   -1.777468   -2.246915
 ---------------------------------------------------------------------
                    Distance matrix (angstroms):
                    1          2          3          4          5
     1  C    0.000000
     2  O    1.421586   0.000000
     3  C    2.339930   1.378957   0.000000
     4  N    2.606423   2.341400   1.326952   0.000000
     5  C    3.931078   3.509234   2.226224   1.325361   0.000000
     6  O    4.696661   4.611801   3.466404   2.270794   1.379091
     7  C    6.066650   5.831176   4.566604   3.535734   2.340575
     8  N    4.808093   4.029307   2.651359   2.362879   1.326619
     9  C    4.568293   3.469568   2.228599   2.651220   2.227967
    10  O    5.847015   4.629157   3.525118   4.041381   3.479238
    11  C    6.156629   4.794385   4.002606   4.851711   4.578286
    12  C    6.419483   5.069977   4.443848   5.349809   5.187878
    13  C    7.161150   5.786835   5.430182   6.482133   6.470996
    14  C    7.626895   6.216933   5.963038   7.097842   7.133485
    15  C    7.425135   6.012738   5.656457   6.742175   6.710852
    16  C    6.721723   5.336446   4.725686   5.667512   5.486950
    17  C    6.956570   5.680710   5.000414   5.774994   5.510022
    18  N    3.535068   2.271366   1.324028   2.360445   2.647965
    19  H    1.094389   2.041277   3.259609   3.691354   5.013086
    20  H    1.095634   2.086482   2.653561   2.590760   3.845724
    21  H    1.095639   2.086530   2.652654   2.591435   3.844154
    22  H    6.433083   6.069295   4.767814   3.887458   2.654162
    23  H    6.426283   6.063847   4.763744   3.884623   2.653053
    24  H    6.701526   6.648867   5.460664   4.309956   3.260117
    25  H    6.332774   5.092234   4.387881   5.132376   4.910632
    26  H    7.612609   6.302391   6.044694   7.080579   7.120540
    27  H    8.377256   6.991703   6.879657   8.062619   8.169690
    28  H    8.054831   6.672653   6.410836   7.509591   7.516606
    29  H    6.122970   4.927331   4.316506   5.076607   4.955298
    30  H    7.439070   6.219282   5.336379   5.902093   5.394677
    31  H    7.764175   6.496943   5.948726   6.769738   6.560870
                    6          7          8          9         10
     6  O    0.000000
     7  C    1.421853   0.000000
     8  N    2.341153   2.606907   0.000000
     9  C    3.511689   3.935115   1.328953   0.000000
    10  O    4.624579   4.708847   2.283816   1.391503   0.000000
    11  C    5.830736   6.041899   3.526722   2.353204   1.374668
    12  C    6.431710   6.693632   4.244228   3.116086   2.391285
    13  C    7.754365   8.074272   5.587061   4.388187   3.663802
    14  C    8.456728   8.788268   6.230828   4.962773   4.156175
    15  C    8.015185   8.304747   5.770698   4.530096   3.668699
    16  C    6.745050   6.968684   4.484831   3.317734   2.401706
    17  C    6.651431   6.801897   4.552396   3.621821   2.862993
    18  N    4.025893   4.807842   2.364646   1.328983   2.358195
    19  H    5.786825   7.160716   5.831817   5.463098   6.665800
    20  H    4.437152   5.817393   4.832776   4.767171   6.085267
    21  H    4.435490   5.813173   4.830189   4.766594   6.077438
    22  H    2.086582   1.095626   2.591216   3.848353   4.450605
    23  H    2.086640   1.095632   2.591961   3.849886   4.444515
    24  H    2.041500   1.094378   3.691769   5.016978   5.798925
    25  H    6.059507   6.295404   4.036862   3.120251   2.630196
    26  H    8.370900   8.711803   6.306454   5.167795   4.541837
    27  H    9.504804   9.866110   7.302061   6.022653   5.243316
    28  H    8.809503   9.102873   6.606419   5.392131   4.560719
    29  H    6.097715   6.413924   4.204418   3.320543   2.997238
    30  H    6.396475   6.325541   4.315216   3.634610   2.721494
    31  H    7.687592   7.829616   5.634795   4.705152   3.930149
                   11         12         13         14         15
    11  C    0.000000
    12  C    1.398294   0.000000
    13  C    2.414925   1.393394   0.000000
    14  C    2.782256   2.412505   1.394047   0.000000
    15  C    2.409836   2.791724   2.420207   1.397313   0.000000
    16  C    1.402504   2.437431   2.812504   2.431083   1.401538
    17  C    2.529186   3.816632   4.312946   3.804885   2.517566
    18  N    2.682926   3.226469   4.250914   4.749311   4.411766
    19  H    6.804134   6.980459   7.549976   7.937170   7.802543
    20  H    6.489018   6.610622   7.424249   8.065413   7.982343
    21  H    6.530974   6.994623   7.814213   8.188621   7.813949
    22  H    5.757002   6.242496   7.633130   8.465411   8.114255
    23  H    5.806896   6.649625   8.013864   8.583588   7.949857
    24  H    7.135103   7.765496   9.148258   9.880668   9.395202
    25  H    2.160662   1.086035   2.151609   3.396466   3.877734
    26  H    3.401096   2.153724   1.086625   2.154622   3.404863
    27  H    3.869363   3.397551   2.153352   1.087146   2.155613
    28  H    3.403015   3.879293   3.398296   2.147430   1.087732
    29  H    2.899585   4.203231   4.799864   4.380191   3.162354
    30  H    2.787749   4.122370   4.811577   4.479706   3.292034
    31  H    3.433695   4.589451   4.818827   4.015710   2.623273
                   16         17         18         19         20
    16  C    0.000000
    17  C    1.500465   0.000000
    18  N    3.444666   3.878637   0.000000
    19  H    7.262957   7.545179   4.310176   0.000000
    20  H    7.241880   7.582941   3.886084   1.767346   0.000000
    21  H    7.000344   7.002997   3.883800   1.767355   1.806488
    22  H    6.822804   6.847302   4.834083   7.516794   6.097357
    23  H    6.568063   6.201821   4.830815   7.509320   6.352696
    24  H    8.053278   7.835737   5.830720   7.782936   6.371374
    25  H    3.420426   4.688181   3.337632   6.951610   6.342131
    26  H    3.899118   5.399559   4.973926   7.935015   7.776179
    27  H    3.413421   4.672070   5.719812   8.578850   8.838136
    28  H    2.165324   2.731945   5.225152   8.361245   8.708426
    29  H    2.140026   1.094521   3.374860   6.702989   6.824274
    30  H    2.145421   1.094860   4.238707   8.139337   7.976860
    31  H    2.156467   1.095121   4.860956   8.263927   8.465826
                   21         22         23         24         25
    21  H    0.000000
    22  H    6.354588   0.000000
    23  H    6.085491   1.806464   0.000000
    24  H    6.367173   1.767457   1.767469   0.000000
    25  H    6.965465   5.721117   6.407247   7.324819   0.000000
    26  H    8.368725   8.189005   8.754199   9.759583   2.478749
    27  H    8.981701   9.535430   9.668890  10.957769   4.293885
    28  H    8.375795   8.986604   8.665633  10.182438   4.965289
    29  H    6.075554   6.607472   5.832443   7.421565   4.987765
    30  H    7.419934   6.341415   5.630112   7.326812   4.856611
    31  H    7.787062   7.903759   7.174599   8.843528   5.548683
                   26         27         28         29         30
    26  H    0.000000
    27  H    2.480797   0.000000
    28  H    4.292566   2.466559   0.000000
    29  H    5.866766   5.250723   3.371043   0.000000
    30  H    5.877832   5.392842   3.577961   1.786018   0.000000
    31  H    5.884416   4.691847   2.383541   1.772306   1.763543
                   31
    31  H    0.000000
 Stoichiometry    C12H13N3O3
 Framework group  C1[X(C12H13N3O3)]
 Deg. of freedom    87
 Full point group                 C1      NOp   1
 Largest Abelian subgroup         C1      NOp   1
 Largest concise Abelian subgroup C1      NOp   1
                         Standard orientation:                         
 ---------------------------------------------------------------------
 Center     Atomic      Atomic             Coordinates (Angstroms)
 Number     Number       Type             X           Y           Z
 ---------------------------------------------------------------------
      1          6           0       -2.666858    3.327939    0.330073
      2          8           0       -1.394731    2.697667    0.256873
      3          6           0       -1.471121    1.329037    0.106743
      4          7           0       -2.657164    0.737513    0.041909
      5          6           0       -2.599340   -0.578976   -0.099847
      6          8           0       -3.831461   -1.195111   -0.164231
      7          6           0       -3.748708   -2.606905   -0.311392
      8          7           0       -1.493021   -1.306705   -0.179770
      9          6           0       -0.371469   -0.597276   -0.109443
     10          8           0        0.790140   -1.360833   -0.172094
     11          6           0        1.974578   -0.671089   -0.277324
     12          6           0        2.372860   -0.187786   -1.527530
     13          6           0        3.592683    0.473064   -1.657364
     14          6           0        4.415721    0.636791   -0.544185
     15          6           0        4.025593    0.133049    0.699409
     16          6           0        2.805509   -0.541115    0.845030
     17          6           0        2.390245   -1.074340    2.184666
     18          7           0       -0.296777    0.721171    0.039934
     19          1           0       -2.500075    4.403007    0.448817
     20          1           0       -3.237696    3.181129   -0.593509
     21          1           0       -3.233072    2.982087    1.201974
     22          1           0       -3.251915   -2.880909   -1.248683
     23          1           0       -3.249685   -3.068146    0.548051
     24          1           0       -4.769852   -2.998520   -0.350942
     25          1           0        1.733854   -0.320099   -2.395652
     26          1           0        3.901055    0.861052   -2.624383
     27          1           0        5.365306    1.156661   -0.643742
     28          1           0        4.683608    0.269940    1.554650
     29          1           0        1.563373   -0.480461    2.586619
     30          1           0        2.078180   -2.120504    2.101753
     31          1           0        3.215910   -1.037246    2.903130
 ---------------------------------------------------------------------
 Rotational constants (GHZ):      0.6848171      0.2564553      0.2154823
 Leave Link  202 at Fri Sep  3 00:08:09 2021, MaxMem=  268435456 cpu:       0.0
 (Enter /sw/target/amd/app/gaussian/Gaussian09RevA.02_gcc-4.9.2/g09/l301.exe)
 Standard basis: 6-31G(d) (6D, 7F)
 Ernie: Thresh=  0.10000D-02 Tol=  0.10000D-05 Strict=F.
 There are   296 symmetry adapted basis functions of A   symmetry.
 Integral buffers will be    131072 words long.
 Raffenetti 2 integral format.
 Two-electron integral symmetry is turned on.
   296 basis functions,   556 primitive gaussians,   296 cartesian basis functions
    65 alpha electrons       65 beta electrons
       nuclear repulsion energy      1296.1242995869 Hartrees.
 IExCor=  402 DFT=T Ex+Corr=B3LYP ExCW=0 ScaHFX=  0.200000
 ScaDFX=  0.800000  0.720000  1.000000  0.810000 ScalE2=  1.000000  1.000000
 IRadAn=      0 IRanWt=     -1 IRanGd=            0 ICorTp=0
 NAtoms=   31 NActive=   31 NUniq=   31 SFac= 7.50D-01 NAtFMM=   80 NAOKFM=F Big=F
 Leave Link  301 at Fri Sep  3 00:08:09 2021, MaxMem=  268435456 cpu:       0.1
 (Enter /sw/target/amd/app/gaussian/Gaussian09RevA.02_gcc-4.9.2/g09/l302.exe)
 NPDir=0 NMtPBC=     1 NCelOv=     1 NCel=       1 NClECP=     1 NCelD=      1
         NCelK=      1 NCelE2=     1 NClLst=     1 CellRange=     0.0.
 One-electron integrals computed using PRISM.
 NBasis=   296 RedAO= T  NBF=   296
 NBsUse=   296 1.00D-06 NBFU=   296
 Precomputing XC quadrature grid using
 IXCGrd= 2 IRadAn=           0 IRanWt=          -1 IRanGd=           0 AccXCQ= 1.00D-10.
 NRdTot=    1970 NPtTot=      250866 NUsed=      265072 NTot=      265104
 NSgBfM=   294   294   294   294   294 NAtAll=    31    31.
 Leave Link  302 at Fri Sep  3 00:08:11 2021, MaxMem=  268435456 cpu:       1.8
 (Enter /sw/target/amd/app/gaussian/Gaussian09RevA.02_gcc-4.9.2/g09/l303.exe)
 DipDrv:  MaxL=1.
 Leave Link  303 at Fri Sep  3 00:08:11 2021, MaxMem=  268435456 cpu:       0.1
 (Enter /sw/target/amd/app/gaussian/Gaussian09RevA.02_gcc-4.9.2/g09/l401.exe)
 Harris functional with IExCor=  402 diagonalized for initial guess.
 ExpMin= 1.61D-01 ExpMax= 5.48D+03 ExpMxC= 8.25D+02 IAcc=1 IRadAn=         1 AccDes= 0.00D+00
 HarFok:  IExCor=  402 AccDes= 0.00D+00 IRadAn=         1 IDoV= 1
 ScaDFX=  1.000000  1.000000  1.000000  1.000000
 FoFCou: FMM=F IPFlag=           0 FMFlag=      100000 FMFlg1=           0
         NFxFlg=           0 DoJE=T BraDBF=F KetDBF=T FulRan=T
         Omega=  0.000000  0.000000  1.000000  0.000000  0.000000 ICntrl=     500 IOpCl=  0
         NMat0=    1 NMatS0=    1 NMatT0=    0 NMatD0=    1 NMtDS0=    0 NMtDT0=    0
         I1Cent=           4 NGrid=           0.
 Petite list used in FoFCou.
 Harris En= -855.116940450417    
 Initial guess orbital symmetries:
       Occupied  (A) (A) (A) (A) (A) (A) (A) (A) (A) (A) (A) (A)
                 (A) (A) (A) (A) (A) (A) (A) (A) (A) (A) (A) (A)
                 (A) (A) (A) (A) (A) (A) (A) (A) (A) (A) (A) (A)
                 (A) (A) (A) (A) (A) (A) (A) (A) (A) (A) (A) (A)
                 (A) (A) (A) (A) (A) (A) (A) (A) (A) (A) (A) (A)
                 (A) (A) (A) (A) (A)
       Virtual   (A) (A) (A) (A) (A) (A) (A) (A) (A) (A) (A) (A)
                 (A) (A) (A) (A) (A) (A) (A) (A) (A) (A) (A) (A)
                 (A) (A) (A) (A) (A) (A) (A) (A) (A) (A) (A) (A)
                 (A) (A) (A) (A) (A) (A) (A) (A) (A) (A) (A) (A)
                 (A) (A) (A) (A) (A) (A) (A) (A) (A) (A) (A) (A)
                 (A) (A) (A) (A) (A) (A) (A) (A) (A) (A) (A) (A)
                 (A) (A) (A) (A) (A) (A) (A) (A) (A) (A) (A) (A)
                 (A) (A) (A) (A) (A) (A) (A) (A) (A) (A) (A) (A)
                 (A) (A) (A) (A) (A) (A) (A) (A) (A) (A) (A) (A)
                 (A) (A) (A) (A) (A) (A) (A) (A) (A) (A) (A) (A)
                 (A) (A) (A) (A) (A) (A) (A) (A) (A) (A) (A) (A)
                 (A) (A) (A) (A) (A) (A) (A) (A) (A) (A) (A) (A)
                 (A) (A) (A) (A) (A) (A) (A) (A) (A) (A) (A) (A)
                 (A) (A) (A) (A) (A) (A) (A) (A) (A) (A) (A) (A)
                 (A) (A) (A) (A) (A) (A) (A) (A) (A) (A) (A) (A)
                 (A) (A) (A) (A) (A) (A) (A) (A) (A) (A) (A) (A)
                 (A) (A) (A) (A) (A) (A) (A) (A) (A) (A) (A) (A)
                 (A) (A) (A) (A) (A) (A) (A) (A) (A) (A) (A) (A)
                 (A) (A) (A) (A) (A) (A) (A) (A) (A) (A) (A) (A)
                 (A) (A) (A)
 The electronic state of the initial guess is 1-A.
 Leave Link  401 at Fri Sep  3 00:08:19 2021, MaxMem=  268435456 cpu:       8.3
 (Enter /sw/target/amd/app/gaussian/Gaussian09RevA.02_gcc-4.9.2/g09/l502.exe)
 Closed shell SCF:
 Requested convergence on RMS density matrix=1.00D-08 within  64 cycles.
 Requested convergence on MAX density matrix=1.00D-06.
 Requested convergence on             energy=1.00D-06.
 No special actions if energy rises.
 Using DIIS extrapolation, IDIIS=  1040.
 Integral symmetry usage will be decided dynamically.
       264780 words used for storage of precomputed grid.
 IEnd=      537174 IEndB=      537174 NGot=   268435456 MDV=   267990419
 LenX=   267990419 LenY=   267902362
 Fock matrices will be formed incrementally for  20 cycles.
 Integral accuracy reduced to 1.0D-05 until final iterations.

 Cycle   1  Pass 0  IDiag  1:
 FoFCou: FMM=F IPFlag=           0 FMFlag=      100000 FMFlg1=           0
         NFxFlg=           0 DoJE=F BraDBF=F KetDBF=F FulRan=T
         Omega=  0.000000  0.000000  1.000000  0.000000  0.000000 ICntrl=       0 IOpCl=  0
         NMat0=    1 NMatS0=    1 NMatT0=    0 NMatD0=    1 NMtDS0=    0 NMtDT0=    0
         I1Cent=           0 NGrid=           0.
 Symmetry not used in FoFCou.
 E= -854.612551535090    
 DIIS: error= 3.01D-02 at cycle   1 NSaved=   1.
 NSaved= 1 IEnMin= 1 EnMin= -854.612551535090     IErMin= 1 ErrMin= 3.01D-02
 ErrMax= 3.01D-02 EMaxC= 1.00D-01 BMatC= 4.52D-01 BMatP= 4.52D-01
 IDIUse=3 WtCom= 6.99D-01 WtEn= 3.01D-01
 Coeff-Com:  0.100D+01
 Coeff-En:   0.100D+01
 Coeff:      0.100D+01
 Gap=     0.266 Goal=   None    Shift=    0.000
 GapD=    0.266 DampG=1.000 DampE=0.500 DampFc=0.5000 IDamp=-1.
 Damping current iteration by 5.00D-01
 RMSDP=4.61D-03 MaxDP=1.57D-01              OVMax= 2.17D-01

 Cycle   2  Pass 0  IDiag  1:
 RMSU=  1.61D-03    CP:  9.80D-01
 E= -854.785396552305     Delta-E=       -0.172845017214 Rises=F Damp=T
 DIIS: error= 6.14D-03 at cycle   2 NSaved=   2.
 NSaved= 2 IEnMin= 2 EnMin= -854.785396552305     IErMin= 2 ErrMin= 6.14D-03
 ErrMax= 6.14D-03 EMaxC= 1.00D-01 BMatC= 3.27D-02 BMatP= 4.52D-01
 IDIUse=3 WtCom= 9.39D-01 WtEn= 6.14D-02
 Coeff-Com:  0.114D+00 0.886D+00
 Coeff-En:   0.186D+00 0.814D+00
 Coeff:      0.118D+00 0.882D+00
 Gap=     0.217 Goal=   None    Shift=    0.000
 RMSDP=1.18D-03 MaxDP=4.85D-02 DE=-1.73D-01 OVMax= 1.87D-01

 Cycle   3  Pass 0  IDiag  1:
 RMSU=  7.99D-04    CP:  9.76D-01  8.64D-01
 E= -855.015818992047     Delta-E=       -0.230422439743 Rises=F Damp=F
 DIIS: error= 5.90D-03 at cycle   3 NSaved=   3.
 NSaved= 3 IEnMin= 3 EnMin= -855.015818992047     IErMin= 3 ErrMin= 5.90D-03
 ErrMax= 5.90D-03 EMaxC= 1.00D-01 BMatC= 1.97D-02 BMatP= 3.27D-02
 IDIUse=3 WtCom= 9.41D-01 WtEn= 5.90D-02
 Coeff-Com:  0.157D-01 0.426D+00 0.558D+00
 Coeff-En:   0.000D+00 0.000D+00 0.100D+01
 Coeff:      0.148D-01 0.401D+00 0.584D+00
 Gap=     0.222 Goal=   None    Shift=    0.000
 RMSDP=7.82D-04 MaxDP=2.94D-02 DE=-2.30D-01 OVMax= 7.26D-02

 Cycle   4  Pass 0  IDiag  1:
 RMSU=  3.97D-04    CP:  9.77D-01  9.15D-01  5.30D-01
 E= -855.028631884232     Delta-E=       -0.012812892185 Rises=F Damp=F
 DIIS: error= 4.00D-03 at cycle   4 NSaved=   4.
 NSaved= 4 IEnMin= 4 EnMin= -855.028631884232     IErMin= 4 ErrMin= 4.00D-03
 ErrMax= 4.00D-03 EMaxC= 1.00D-01 BMatC= 6.88D-03 BMatP= 1.97D-02
 IDIUse=3 WtCom= 9.60D-01 WtEn= 4.00D-02
 Coeff-Com: -0.321D-02 0.123D+00 0.378D+00 0.502D+00
 Coeff-En:   0.000D+00 0.000D+00 0.292D+00 0.708D+00
 Coeff:     -0.308D-02 0.118D+00 0.374D+00 0.511D+00
 Gap=     0.208 Goal=   None    Shift=    0.000
 RMSDP=3.68D-04 MaxDP=1.37D-02 DE=-1.28D-02 OVMax= 3.38D-02

 Cycle   5  Pass 0  IDiag  1:
 RMSU=  1.02D-04    CP:  9.77D-01  8.90D-01  6.88D-01  4.98D-01
 E= -855.035212180132     Delta-E=       -0.006580295900 Rises=F Damp=F
 DIIS: error= 1.43D-03 at cycle   5 NSaved=   5.
 NSaved= 5 IEnMin= 5 EnMin= -855.035212180132     IErMin= 5 ErrMin= 1.43D-03
 ErrMax= 1.43D-03 EMaxC= 1.00D-01 BMatC= 5.98D-04 BMatP= 6.88D-03
 IDIUse=3 WtCom= 9.86D-01 WtEn= 1.43D-02
 Coeff-Com: -0.208D-02 0.216D-01 0.152D+00 0.298D+00 0.530D+00
 Coeff-En:   0.000D+00 0.000D+00 0.000D+00 0.332D-01 0.967D+00
 Coeff:     -0.205D-02 0.213D-01 0.150D+00 0.295D+00 0.536D+00
 Gap=     0.209 Goal=   None    Shift=    0.000
 RMSDP=8.93D-05 MaxDP=2.81D-03 DE=-6.58D-03 OVMax= 7.04D-03

 Cycle   6  Pass 0  IDiag  1:
 RMSU=  3.04D-05    CP:  9.77D-01  8.99D-01  6.74D-01  5.68D-01  5.67D-01
 E= -855.035767714649     Delta-E=       -0.000555534517 Rises=F Damp=F
 DIIS: error= 2.27D-04 at cycle   6 NSaved=   6.
 NSaved= 6 IEnMin= 6 EnMin= -855.035767714649     IErMin= 6 ErrMin= 2.27D-04
 ErrMax= 2.27D-04 EMaxC= 1.00D-01 BMatC= 2.79D-05 BMatP= 5.98D-04
 IDIUse=3 WtCom= 9.98D-01 WtEn= 2.27D-03
 Coeff-Com: -0.731D-03 0.182D-02 0.456D-01 0.104D+00 0.264D+00 0.585D+00
 Coeff-En:   0.000D+00 0.000D+00 0.000D+00 0.000D+00 0.000D+00 0.100D+01
 Coeff:     -0.730D-03 0.181D-02 0.455D-01 0.104D+00 0.263D+00 0.586D+00
 Gap=     0.209 Goal=   None    Shift=    0.000
 RMSDP=1.94D-05 MaxDP=8.15D-04 DE=-5.56D-04 OVMax= 1.11D-03

 Cycle   7  Pass 0  IDiag  1:
 RMSU=  8.77D-06    CP:  9.77D-01  8.97D-01  6.78D-01  5.68D-01  6.06D-01
                    CP:  7.11D-01
 E= -855.035790466849     Delta-E=       -0.000022752200 Rises=F Damp=F
 DIIS: error= 6.22D-05 at cycle   7 NSaved=   7.
 NSaved= 7 IEnMin= 7 EnMin= -855.035790466849     IErMin= 7 ErrMin= 6.22D-05
 ErrMax= 6.22D-05 EMaxC= 1.00D-01 BMatC= 2.87D-06 BMatP= 2.79D-05
 IDIUse=1 WtCom= 1.00D+00 WtEn= 0.00D+00
 Coeff-Com: -0.272D-03-0.363D-03 0.163D-01 0.403D-01 0.119D+00 0.336D+00
 Coeff-Com:  0.489D+00
 Coeff:     -0.272D-03-0.363D-03 0.163D-01 0.403D-01 0.119D+00 0.336D+00
 Coeff:      0.489D+00
 Gap=     0.209 Goal=   None    Shift=    0.000
 RMSDP=6.49D-06 MaxDP=2.86D-04 DE=-2.28D-05 OVMax= 3.57D-04

 Initial convergence to 1.0D-05 achieved.  Increase integral accuracy.
 Cycle   8  Pass 1  IDiag  1:
 E= -855.035838277161     Delta-E=       -0.000047810313 Rises=F Damp=F
 DIIS: error= 4.76D-05 at cycle   1 NSaved=   1.
 NSaved= 1 IEnMin= 1 EnMin= -855.035838277161     IErMin= 1 ErrMin= 4.76D-05
 ErrMax= 4.76D-05 EMaxC= 1.00D-01 BMatC= 5.26D-07 BMatP= 5.26D-07
 IDIUse=1 WtCom= 1.00D+00 WtEn= 0.00D+00
 Coeff-Com:  0.100D+01
 Coeff:      0.100D+01
 Gap=     0.209 Goal=   None    Shift=    0.000
 RMSDP=6.49D-06 MaxDP=2.86D-04 DE=-4.78D-05 OVMax= 3.03D-04

 Cycle   9  Pass 1  IDiag  1:
 RMSU=  1.15D-05    CP:  1.00D+00
 E= -855.035838049188     Delta-E=        0.000000227974 Rises=F Damp=F
 DIIS: error= 4.29D-05 at cycle   2 NSaved=   2.
 NSaved= 2 IEnMin= 1 EnMin= -855.035838277161     IErMin= 2 ErrMin= 4.29D-05
 ErrMax= 4.29D-05 EMaxC= 1.00D-01 BMatC= 8.99D-07 BMatP= 5.26D-07
 IDIUse=1 WtCom= 1.00D+00 WtEn= 0.00D+00
 Coeff-Com:  0.579D+00 0.421D+00
 Coeff:      0.579D+00 0.421D+00
 Gap=     0.209 Goal=   None    Shift=    0.000
 RMSDP=3.67D-06 MaxDP=2.18D-04 DE= 2.28D-07 OVMax= 2.62D-04

 Cycle  10  Pass 1  IDiag  1:
 RMSU=  2.52D-06    CP:  1.00D+00  9.47D-01
 E= -855.035838780140     Delta-E=       -0.000000730953 Rises=F Damp=F
 DIIS: error= 1.19D-05 at cycle   3 NSaved=   3.
 NSaved= 3 IEnMin= 3 EnMin= -855.035838780140     IErMin= 3 ErrMin= 1.19D-05
 ErrMax= 1.19D-05 EMaxC= 1.00D-01 BMatC= 6.27D-08 BMatP= 5.26D-07
 IDIUse=1 WtCom= 1.00D+00 WtEn= 0.00D+00
 Coeff-Com:  0.359D-01 0.208D+00 0.756D+00
 Coeff:      0.359D-01 0.208D+00 0.756D+00
 Gap=     0.209 Goal=   None    Shift=    0.000
 RMSDP=1.05D-06 MaxDP=4.83D-05 DE=-7.31D-07 OVMax= 8.34D-05

 Cycle  11  Pass 1  IDiag  1:
 RMSU=  4.86D-07    CP:  1.00D+00  9.71D-01  8.07D-01
 E= -855.035838828831     Delta-E=       -0.000000048691 Rises=F Damp=F
 DIIS: error= 3.87D-06 at cycle   4 NSaved=   4.
 NSaved= 4 IEnMin= 4 EnMin= -855.035838828831     IErMin= 4 ErrMin= 3.87D-06
 ErrMax= 3.87D-06 EMaxC= 1.00D-01 BMatC= 9.14D-09 BMatP= 6.27D-08
 IDIUse=1 WtCom= 1.00D+00 WtEn= 0.00D+00
 Coeff-Com: -0.115D-01 0.973D-01 0.442D+00 0.472D+00
 Coeff:     -0.115D-01 0.973D-01 0.442D+00 0.472D+00
 Gap=     0.209 Goal=   None    Shift=    0.000
 RMSDP=3.75D-07 MaxDP=1.51D-05 DE=-4.87D-08 OVMax= 2.64D-05

 Cycle  12  Pass 1  IDiag  1:
 RMSU=  1.25D-07    CP:  1.00D+00  9.72D-01  8.24D-01  5.29D-01
 E= -855.035838837017     Delta-E=       -0.000000008186 Rises=F Damp=F
 DIIS: error= 9.75D-07 at cycle   5 NSaved=   5.
 NSaved= 5 IEnMin= 5 EnMin= -855.035838837017     IErMin= 5 ErrMin= 9.75D-07
 ErrMax= 9.75D-07 EMaxC= 1.00D-01 BMatC= 4.97D-10 BMatP= 9.14D-09
 IDIUse=1 WtCom= 1.00D+00 WtEn= 0.00D+00
 Coeff-Com: -0.877D-02 0.496D-01 0.236D+00 0.284D+00 0.439D+00
 Coeff:     -0.877D-02 0.496D-01 0.236D+00 0.284D+00 0.439D+00
 Gap=     0.209 Goal=   None    Shift=    0.000
 RMSDP=9.03D-08 MaxDP=3.61D-06 DE=-8.19D-09 OVMax= 8.02D-06

 Cycle  13  Pass 1  IDiag  1:
 RMSU=  4.67D-08    CP:  1.00D+00  9.72D-01  8.21D-01  5.56D-01  6.74D-01
 E= -855.035838837499     Delta-E=       -0.000000000482 Rises=F Damp=F
 DIIS: error= 2.32D-07 at cycle   6 NSaved=   6.
 NSaved= 6 IEnMin= 6 EnMin= -855.035838837499     IErMin= 6 ErrMin= 2.32D-07
 ErrMax= 2.32D-07 EMaxC= 1.00D-01 BMatC= 2.40D-11 BMatP= 4.97D-10
 IDIUse=1 WtCom= 1.00D+00 WtEn= 0.00D+00
 Coeff-Com: -0.265D-02 0.123D-01 0.612D-01 0.801D-01 0.215D+00 0.635D+00
 Coeff:     -0.265D-02 0.123D-01 0.612D-01 0.801D-01 0.215D+00 0.635D+00
 Gap=     0.209 Goal=   None    Shift=    0.000
 RMSDP=2.38D-08 MaxDP=1.04D-06 DE=-4.82D-10 OVMax= 2.46D-06

 Cycle  14  Pass 1  IDiag  1:
 RMSU=  1.13D-08    CP:  1.00D+00  9.72D-01  8.22D-01  5.53D-01  7.36D-01
                    CP:  8.04D-01
 E= -855.035838837559     Delta-E=       -0.000000000060 Rises=F Damp=F
 DIIS: error= 9.89D-08 at cycle   7 NSaved=   7.
 NSaved= 7 IEnMin= 7 EnMin= -855.035838837559     IErMin= 7 ErrMin= 9.89D-08
 ErrMax= 9.89D-08 EMaxC= 1.00D-01 BMatC= 4.23D-12 BMatP= 2.40D-11
 IDIUse=1 WtCom= 1.00D+00 WtEn= 0.00D+00
 Coeff-Com: -0.427D-03 0.868D-03 0.560D-02 0.102D-01 0.640D-01 0.362D+00
 Coeff-Com:  0.558D+00
 Coeff:     -0.427D-03 0.868D-03 0.560D-02 0.102D-01 0.640D-01 0.362D+00
 Coeff:      0.558D+00
 Gap=     0.209 Goal=   None    Shift=    0.000
 RMSDP=8.34D-09 MaxDP=3.12D-07 DE=-6.00D-11 OVMax= 7.82D-07

 SCF Done:  E(RB3LYP) =  -855.035838838     A.U. after   14 cycles
             Convg  =    0.8336D-08             -V/T =  2.0093
 KE= 8.471439526448D+02 PE=-4.583790478038D+03 EE= 1.585486386969D+03
 Leave Link  502 at Fri Sep  3 00:14:08 2021, MaxMem=  268435456 cpu:     347.6
 (Enter /sw/target/amd/app/gaussian/Gaussian09RevA.02_gcc-4.9.2/g09/l508.exe)
 QCSCF skips out because SCF is already converged.
 Leave Link  508 at Fri Sep  3 00:14:08 2021, MaxMem=  268435456 cpu:       0.0
 (Enter /sw/target/amd/app/gaussian/Gaussian09RevA.02_gcc-4.9.2/g09/l601.exe)
 Copying SCF densities to generalized density rwf, IOpCl= 0 IROHF=0.

 **********************************************************************

            Population analysis using the SCF density.

 **********************************************************************

 Orbital symmetries:
       Occupied  (A) (A) (A) (A) (A) (A) (A) (A) (A) (A) (A) (A)
                 (A) (A) (A) (A) (A) (A) (A) (A) (A) (A) (A) (A)
                 (A) (A) (A) (A) (A) (A) (A) (A) (A) (A) (A) (A)
                 (A) (A) (A) (A) (A) (A) (A) (A) (A) (A) (A) (A)
                 (A) (A) (A) (A) (A) (A) (A) (A) (A) (A) (A) (A)
                 (A) (A) (A) (A) (A)
       Virtual   (A) (A) (A) (A) (A) (A) (A) (A) (A) (A) (A) (A)
                 (A) (A) (A) (A) (A) (A) (A) (A) (A) (A) (A) (A)
                 (A) (A) (A) (A) (A) (A) (A) (A) (A) (A) (A) (A)
                 (A) (A) (A) (A) (A) (A) (A) (A) (A) (A) (A) (A)
                 (A) (A) (A) (A) (A) (A) (A) (A) (A) (A) (A) (A)
                 (A) (A) (A) (A) (A) (A) (A) (A) (A) (A) (A) (A)
                 (A) (A) (A) (A) (A) (A) (A) (A) (A) (A) (A) (A)
                 (A) (A) (A) (A) (A) (A) (A) (A) (A) (A) (A) (A)
                 (A) (A) (A) (A) (A) (A) (A) (A) (A) (A) (A) (A)
                 (A) (A) (A) (A) (A) (A) (A) (A) (A) (A) (A) (A)
                 (A) (A) (A) (A) (A) (A) (A) (A) (A) (A) (A) (A)
                 (A) (A) (A) (A) (A) (A) (A) (A) (A) (A) (A) (A)
                 (A) (A) (A) (A) (A) (A) (A) (A) (A) (A) (A) (A)
                 (A) (A) (A) (A) (A) (A) (A) (A) (A) (A) (A) (A)
                 (A) (A) (A) (A) (A) (A) (A) (A) (A) (A) (A) (A)
                 (A) (A) (A) (A) (A) (A) (A) (A) (A) (A) (A) (A)
                 (A) (A) (A) (A) (A) (A) (A) (A) (A) (A) (A) (A)
                 (A) (A) (A) (A) (A) (A) (A) (A) (A) (A) (A) (A)
                 (A) (A) (A) (A) (A) (A) (A) (A) (A) (A) (A) (A)
                 (A) (A) (A)
 The electronic state is 1-A.
 Alpha  occ. eigenvalues --  -19.20567 -19.19993 -19.19817 -14.34516 -14.34302
 Alpha  occ. eigenvalues --  -14.34275 -10.33760 -10.33234 -10.33092 -10.24417
 Alpha  occ. eigenvalues --  -10.23935 -10.23778 -10.19731 -10.18979 -10.18802
 Alpha  occ. eigenvalues --  -10.18783 -10.18629 -10.18086  -1.10989  -1.09285
 Alpha  occ. eigenvalues --   -1.08533  -1.00945  -0.91126  -0.90857  -0.85149
 Alpha  occ. eigenvalues --   -0.77244  -0.74918  -0.73556  -0.72376  -0.69204
 Alpha  occ. eigenvalues --   -0.66749  -0.64078  -0.60794  -0.59453  -0.58366
 Alpha  occ. eigenvalues --   -0.55663  -0.52321  -0.50743  -0.50556  -0.48547
 Alpha  occ. eigenvalues --   -0.47969  -0.47548  -0.44843  -0.44320  -0.44001
 Alpha  occ. eigenvalues --   -0.43436  -0.42617  -0.41082  -0.40640  -0.39343
 Alpha  occ. eigenvalues --   -0.39255  -0.38398  -0.37151  -0.35973  -0.35704
 Alpha  occ. eigenvalues --   -0.35150  -0.34841  -0.34327  -0.30446  -0.28483
 Alpha  occ. eigenvalues --   -0.28320  -0.28219  -0.28017  -0.24371  -0.23522
 Alpha virt. eigenvalues --   -0.02621  -0.02276   0.00089   0.00463   0.09644
 Alpha virt. eigenvalues --    0.10913   0.11735   0.11837   0.12697   0.13247
 Alpha virt. eigenvalues --    0.13517   0.14191   0.14564   0.15403   0.15664
 Alpha virt. eigenvalues --    0.16371   0.17160   0.17436   0.17682   0.17784
 Alpha virt. eigenvalues --    0.19627   0.20203   0.23163   0.24173   0.24856
 Alpha virt. eigenvalues --    0.25889   0.28459   0.29641   0.29967   0.30942
 Alpha virt. eigenvalues --    0.32891   0.35625   0.36087   0.40898   0.41406
 Alpha virt. eigenvalues --    0.46131   0.48523   0.49836   0.50292   0.50812
 Alpha virt. eigenvalues --    0.51782   0.52407   0.53428   0.53773   0.54516
 Alpha virt. eigenvalues --    0.54672   0.55975   0.56211   0.57161   0.57982
 Alpha virt. eigenvalues --    0.58568   0.59116   0.59928   0.60940   0.61118
 Alpha virt. eigenvalues --    0.61401   0.61780   0.63040   0.64747   0.65456
 Alpha virt. eigenvalues --    0.65771   0.67143   0.67736   0.68937   0.68999
 Alpha virt. eigenvalues --    0.70264   0.72801   0.75195   0.78039   0.78669
 Alpha virt. eigenvalues --    0.79861   0.81552   0.82568   0.83226   0.83454
 Alpha virt. eigenvalues --    0.84003   0.85060   0.85391   0.85819   0.86620
 Alpha virt. eigenvalues --    0.88442   0.88580   0.89967   0.90878   0.91441
 Alpha virt. eigenvalues --    0.92154   0.93368   0.94183   0.94725   0.95775
 Alpha virt. eigenvalues --    0.96681   0.97218   0.97748   0.99874   1.00355
 Alpha virt. eigenvalues --    1.02467   1.03289   1.04478   1.06789   1.07066
 Alpha virt. eigenvalues --    1.07965   1.09583   1.12612   1.14059   1.16820
 Alpha virt. eigenvalues --    1.17630   1.19643   1.21057   1.24894   1.27235
 Alpha virt. eigenvalues --    1.27741   1.30021   1.33302   1.36603   1.37770
 Alpha virt. eigenvalues --    1.38240   1.38877   1.41033   1.42828   1.44435
 Alpha virt. eigenvalues --    1.44999   1.46546   1.46941   1.47375   1.49297
 Alpha virt. eigenvalues --    1.49538   1.50125   1.50674   1.50942   1.51560
 Alpha virt. eigenvalues --    1.55454   1.56727   1.63737   1.67369   1.69162
 Alpha virt. eigenvalues --    1.71033   1.73557   1.78386   1.79263   1.79640
 Alpha virt. eigenvalues --    1.81533   1.82009   1.84518   1.86044   1.87097
 Alpha virt. eigenvalues --    1.88248   1.90203   1.91287   1.93201   1.97107
 Alpha virt. eigenvalues --    1.97762   1.98189   1.98574   1.99648   2.00869
 Alpha virt. eigenvalues --    2.01688   2.04321   2.07238   2.08120   2.09513
 Alpha virt. eigenvalues --    2.10358   2.11098   2.12091   2.16463   2.18059
 Alpha virt. eigenvalues --    2.18507   2.20868   2.21770   2.24138   2.25576
 Alpha virt. eigenvalues --    2.26237   2.27143   2.27490   2.29791   2.30478
 Alpha virt. eigenvalues --    2.31069   2.32089   2.35167   2.37347   2.38269
 Alpha virt. eigenvalues --    2.40637   2.44062   2.46050   2.46324   2.50073
 Alpha virt. eigenvalues --    2.50825   2.53243   2.55461   2.56901   2.57654
 Alpha virt. eigenvalues --    2.60270   2.61593   2.66970   2.68224   2.68758
 Alpha virt. eigenvalues --    2.72181   2.73499   2.74661   2.77148   2.77584
 Alpha virt. eigenvalues --    2.79257   2.80831   2.83602   2.85590   2.90146
 Alpha virt. eigenvalues --    2.95109   3.03705   3.14281   3.21277   3.23182
 Alpha virt. eigenvalues --    3.28473   3.42140   3.47788   4.04021   4.05076
 Alpha virt. eigenvalues --    4.09359   4.10341   4.10827   4.12709   4.17731
 Alpha virt. eigenvalues --    4.22232   4.24169   4.27289   4.29146   4.31409
 Alpha virt. eigenvalues --    4.40232   4.41334   4.54216   4.67733   4.71317
 Alpha virt. eigenvalues --    4.82286
          Condensed to atoms (all electrons):
              1          2          3          4          5          6
     1  C    4.896263   0.226792  -0.030937  -0.008048   0.000584  -0.000018
     2  O    0.226792   8.179359   0.309460  -0.081721   0.001822  -0.000010
     3  C   -0.030937   0.309460   4.318686   0.386557  -0.041836   0.001136
     4  N   -0.008048  -0.081721   0.386557   6.981936   0.465457  -0.080834
     5  C    0.000584   0.001822  -0.041836   0.465457   4.307614   0.309511
     6  O   -0.000018  -0.000010   0.001136  -0.080834   0.309511   8.182543
     7  C    0.000000   0.000001  -0.000072   0.004657  -0.030938   0.226737
     8  N    0.000089  -0.000197  -0.030790  -0.075218   0.388830  -0.081326
     9  C   -0.000083   0.001121  -0.044404  -0.031462  -0.041407   0.001441
    10  O    0.000000  -0.000009   0.001957  -0.000181   0.001063  -0.000011
    11  C   -0.000000   0.000001   0.000387   0.000042   0.000127  -0.000000
    12  C   -0.000000   0.000003   0.000057  -0.000009   0.000028   0.000000
    13  C    0.000000   0.000000   0.000005  -0.000000  -0.000000   0.000000
    14  C    0.000000  -0.000000   0.000001   0.000000  -0.000000  -0.000000
    15  C    0.000000  -0.000000   0.000001  -0.000000  -0.000000   0.000000
    16  C   -0.000000   0.000002  -0.000018  -0.000003   0.000007   0.000000
    17  C   -0.000000   0.000001  -0.000012  -0.000000   0.000000  -0.000000
    18  N    0.004641  -0.079758   0.463081  -0.076059  -0.031267  -0.000192
    19  H    0.374315  -0.030472   0.004115   0.000977  -0.000004  -0.000000
    20  H    0.374140  -0.031401  -0.007840   0.007018  -0.000003  -0.000000
    21  H    0.374009  -0.031358  -0.007868   0.007002   0.000023  -0.000000
    22  H   -0.000000   0.000000   0.000047  -0.000124  -0.007823  -0.031404
    23  H   -0.000000   0.000000   0.000047  -0.000121  -0.007764  -0.031396
    24  H   -0.000000  -0.000000   0.000002  -0.000009   0.004102  -0.030459
    25  H   -0.000000   0.000000  -0.000026  -0.000000   0.000009  -0.000000
    26  H   -0.000000  -0.000000  -0.000000  -0.000000   0.000000  -0.000000
    27  H   -0.000000   0.000000  -0.000000   0.000000  -0.000000  -0.000000
    28  H    0.000000  -0.000000  -0.000000  -0.000000   0.000000  -0.000000
    29  H    0.000000  -0.000004   0.000070   0.000004  -0.000001   0.000000
    30  H   -0.000000   0.000000  -0.000000  -0.000000   0.000001   0.000000
    31  H   -0.000000   0.000000  -0.000000   0.000000   0.000000   0.000000
              7          8          9         10         11         12
     1  C    0.000000   0.000089  -0.000083   0.000000  -0.000000  -0.000000
     2  O    0.000001  -0.000197   0.001121  -0.000009   0.000001   0.000003
     3  C   -0.000072  -0.030790  -0.044404   0.001957   0.000387   0.000057
     4  N    0.004657  -0.075218  -0.031462  -0.000181   0.000042  -0.000009
     5  C   -0.030938   0.388830  -0.041407   0.001063   0.000127   0.000028
     6  O    0.226737  -0.081326   0.001441  -0.000011  -0.000000   0.000000
     7  C    4.896377  -0.008068   0.000589  -0.000020   0.000000  -0.000000
     8  N   -0.008068   7.001209   0.448136  -0.078136   0.000371  -0.000250
     9  C    0.000589   0.448136   4.337896   0.291239  -0.018206  -0.006919
    10  O   -0.000020  -0.078136   0.291239   8.314521   0.208472  -0.059935
    11  C    0.000000   0.000371  -0.018206   0.208472   4.641405   0.500390
    12  C   -0.000000  -0.000250  -0.006919  -0.059935   0.500390   5.006392
    13  C    0.000000   0.000000   0.000007   0.004556  -0.008415   0.507436
    14  C    0.000000  -0.000000   0.000030  -0.000037  -0.047076  -0.027203
    15  C    0.000000   0.000004   0.000195   0.004222   0.002253  -0.054780
    16  C   -0.000000  -0.000080  -0.005110  -0.068119   0.518311  -0.054573
    17  C   -0.000000  -0.000192  -0.000023  -0.002340  -0.063309   0.009440
    18  N    0.000083  -0.076463   0.405136  -0.079045   0.001393   0.003463
    19  H    0.000000   0.000001   0.000002  -0.000000  -0.000000   0.000000
    20  H   -0.000000  -0.000010   0.000051   0.000000   0.000000   0.000000
    21  H   -0.000000  -0.000010   0.000045   0.000000   0.000000   0.000000
    22  H    0.374210   0.007012   0.000016   0.000002   0.000000   0.000000
    23  H    0.374268   0.006894   0.000007   0.000001   0.000000  -0.000000
    24  H    0.374282   0.000975  -0.000004  -0.000000   0.000000  -0.000000
    25  H   -0.000000  -0.000233   0.001758  -0.003314  -0.036817   0.347699
    26  H   -0.000000  -0.000000  -0.000011  -0.000062   0.003228  -0.036920
    27  H    0.000000   0.000000   0.000000   0.000002   0.001058   0.004515
    28  H   -0.000000  -0.000000  -0.000005  -0.000054   0.004678   0.000359
    29  H   -0.000000   0.000018   0.002116  -0.000067  -0.003848  -0.000143
    30  H   -0.000000  -0.000011  -0.000045   0.003779  -0.006031   0.000061
    31  H    0.000000   0.000000  -0.000021   0.000291   0.003799  -0.000155
             13         14         15         16         17         18
     1  C    0.000000   0.000000   0.000000  -0.000000  -0.000000   0.004641
     2  O    0.000000  -0.000000  -0.000000   0.000002   0.000001  -0.079758
     3  C    0.000005   0.000001   0.000001  -0.000018  -0.000012   0.463081
     4  N   -0.000000   0.000000  -0.000000  -0.000003  -0.000000  -0.076059
     5  C   -0.000000  -0.000000  -0.000000   0.000007   0.000000  -0.031267
     6  O    0.000000  -0.000000   0.000000   0.000000  -0.000000  -0.000192
     7  C    0.000000   0.000000   0.000000  -0.000000  -0.000000   0.000083
     8  N    0.000000  -0.000000   0.000004  -0.000080  -0.000192  -0.076463
     9  C    0.000007   0.000030   0.000195  -0.005110  -0.000023   0.405136
    10  O    0.004556  -0.000037   0.004222  -0.068119  -0.002340  -0.079045
    11  C   -0.008415  -0.047076   0.002253   0.518311  -0.063309   0.001393
    12  C    0.507436  -0.027203  -0.054780  -0.054573   0.009440   0.003463
    13  C    4.873169   0.545843  -0.025833  -0.034150  -0.000240  -0.000440
    14  C    0.545843   4.872571   0.517164  -0.024864   0.008165   0.000077
    15  C   -0.025833   0.517164   4.967727   0.534776  -0.068420  -0.000176
    16  C   -0.034150  -0.024864   0.534776   4.742326   0.341959   0.002605
    17  C   -0.000240   0.008165  -0.068420   0.341959   5.227576  -0.001098
    18  N   -0.000440   0.000077  -0.000176   0.002605  -0.001098   6.938354
    19  H    0.000000  -0.000000   0.000000   0.000000   0.000000  -0.000005
    20  H   -0.000000  -0.000000   0.000000   0.000000   0.000000  -0.000131
    21  H    0.000000   0.000000  -0.000000   0.000000  -0.000000  -0.000126
    22  H   -0.000000   0.000000  -0.000000  -0.000000   0.000000  -0.000010
    23  H    0.000000  -0.000000  -0.000000   0.000000   0.000000  -0.000010
    24  H    0.000000  -0.000000   0.000000  -0.000000  -0.000000   0.000001
    25  H   -0.040672   0.004750   0.000497   0.005283  -0.000155   0.000117
    26  H    0.355694  -0.041160   0.004402   0.000882   0.000009  -0.000002
    27  H   -0.042205   0.355670  -0.038844   0.003671  -0.000194   0.000000
    28  H    0.004829  -0.045623   0.354513  -0.038425  -0.010521  -0.000001
    29  H    0.000041  -0.000215   0.000028  -0.025115   0.359914   0.001451
    30  H    0.000020  -0.000195   0.001901  -0.026658   0.365265   0.000053
    31  H    0.000008   0.000194  -0.003189  -0.028723   0.363434   0.000004
             19         20         21         22         23         24
     1  C    0.374315   0.374140   0.374009  -0.000000  -0.000000  -0.000000
     2  O   -0.030472  -0.031401  -0.031358   0.000000   0.000000  -0.000000
     3  C    0.004115  -0.007840  -0.007868   0.000047   0.000047   0.000002
     4  N    0.000977   0.007018   0.007002  -0.000124  -0.000121  -0.000009
     5  C   -0.000004  -0.000003   0.000023  -0.007823  -0.007764   0.004102
     6  O   -0.000000  -0.000000  -0.000000  -0.031404  -0.031396  -0.030459
     7  C    0.000000  -0.000000  -0.000000   0.374210   0.374268   0.374282
     8  N    0.000001  -0.000010  -0.000010   0.007012   0.006894   0.000975
     9  C    0.000002   0.000051   0.000045   0.000016   0.000007  -0.000004
    10  O   -0.000000   0.000000   0.000000   0.000002   0.000001  -0.000000
    11  C   -0.000000   0.000000   0.000000   0.000000   0.000000   0.000000
    12  C    0.000000   0.000000   0.000000   0.000000  -0.000000  -0.000000
    13  C    0.000000  -0.000000   0.000000  -0.000000   0.000000   0.000000
    14  C   -0.000000  -0.000000   0.000000   0.000000  -0.000000  -0.000000
    15  C    0.000000   0.000000  -0.000000  -0.000000  -0.000000   0.000000
    16  C    0.000000   0.000000   0.000000  -0.000000   0.000000  -0.000000
    17  C    0.000000   0.000000  -0.000000   0.000000   0.000000  -0.000000
    18  N   -0.000005  -0.000131  -0.000126  -0.000010  -0.000010   0.000001
    19  H    0.555365  -0.034333  -0.034309  -0.000000  -0.000000  -0.000000
    20  H   -0.034333   0.559084  -0.035423   0.000000  -0.000000   0.000000
    21  H   -0.034309  -0.035423   0.559389  -0.000000   0.000000   0.000000
    22  H   -0.000000   0.000000  -0.000000   0.558474  -0.035363  -0.034259
    23  H   -0.000000  -0.000000   0.000000  -0.035363   0.558522  -0.034269
    24  H   -0.000000   0.000000   0.000000  -0.034259  -0.034269   0.555319
    25  H   -0.000000   0.000000   0.000000   0.000000   0.000000  -0.000000
    26  H    0.000000   0.000000  -0.000000   0.000000  -0.000000  -0.000000
    27  H   -0.000000   0.000000  -0.000000   0.000000   0.000000   0.000000
    28  H    0.000000   0.000000   0.000000  -0.000000   0.000000  -0.000000
    29  H   -0.000000  -0.000000   0.000000   0.000000  -0.000000  -0.000000
    30  H    0.000000   0.000000  -0.000000  -0.000000   0.000000   0.000000
    31  H   -0.000000  -0.000000   0.000000   0.000000  -0.000000   0.000000
             25         26         27         28         29         30
     1  C   -0.000000  -0.000000  -0.000000   0.000000   0.000000  -0.000000
     2  O    0.000000  -0.000000   0.000000  -0.000000  -0.000004   0.000000
     3  C   -0.000026  -0.000000  -0.000000  -0.000000   0.000070  -0.000000
     4  N   -0.000000  -0.000000   0.000000  -0.000000   0.000004  -0.000000
     5  C    0.000009   0.000000  -0.000000   0.000000  -0.000001   0.000001
     6  O   -0.000000  -0.000000  -0.000000  -0.000000   0.000000   0.000000
     7  C   -0.000000  -0.000000   0.000000  -0.000000  -0.000000  -0.000000
     8  N   -0.000233  -0.000000   0.000000  -0.000000   0.000018  -0.000011
     9  C    0.001758  -0.000011   0.000000  -0.000005   0.002116  -0.000045
    10  O   -0.003314  -0.000062   0.000002  -0.000054  -0.000067   0.003779
    11  C   -0.036817   0.003228   0.001058   0.004678  -0.003848  -0.006031
    12  C    0.347699  -0.036920   0.004515   0.000359  -0.000143   0.000061
    13  C   -0.040672   0.355694  -0.042205   0.004829   0.000041   0.000020
    14  C    0.004750  -0.041160   0.355670  -0.045623  -0.000215  -0.000195
    15  C    0.000497   0.004402  -0.038844   0.354513   0.000028   0.001901
    16  C    0.005283   0.000882   0.003671  -0.038425  -0.025115  -0.026658
    17  C   -0.000155   0.000009  -0.000194  -0.010521   0.359914   0.365265
    18  N    0.000117  -0.000002   0.000000  -0.000001   0.001451   0.000053
    19  H   -0.000000   0.000000  -0.000000   0.000000  -0.000000   0.000000
    20  H    0.000000   0.000000   0.000000   0.000000  -0.000000   0.000000
    21  H    0.000000  -0.000000  -0.000000   0.000000   0.000000  -0.000000
    22  H    0.000000   0.000000   0.000000  -0.000000   0.000000  -0.000000
    23  H    0.000000  -0.000000   0.000000   0.000000  -0.000000   0.000000
    24  H   -0.000000  -0.000000   0.000000  -0.000000  -0.000000   0.000000
    25  H    0.592570  -0.005779  -0.000184   0.000016  -0.000000  -0.000000
    26  H   -0.005779   0.593417  -0.005338  -0.000204  -0.000000  -0.000000
    27  H   -0.000184  -0.005338   0.599527  -0.005290   0.000003   0.000003
    28  H    0.000016  -0.000204  -0.005290   0.600677   0.000277   0.000111
    29  H   -0.000000  -0.000000   0.000003   0.000277   0.552449  -0.029067
    30  H   -0.000000  -0.000000   0.000003   0.000111  -0.029067   0.549036
    31  H    0.000002  -0.000000  -0.000012   0.006300  -0.027954  -0.028424
             31
     1  C   -0.000000
     2  O    0.000000
     3  C   -0.000000
     4  N    0.000000
     5  C    0.000000
     6  O    0.000000
     7  C    0.000000
     8  N    0.000000
     9  C   -0.000021
    10  O    0.000291
    11  C    0.003799
    12  C   -0.000155
    13  C    0.000008
    14  C    0.000194
    15  C   -0.003189
    16  C   -0.028723
    17  C    0.363434
    18  N    0.000004
    19  H   -0.000000
    20  H   -0.000000
    21  H    0.000000
    22  H    0.000000
    23  H   -0.000000
    24  H    0.000000
    25  H    0.000002
    26  H   -0.000000
    27  H   -0.000012
    28  H    0.006300
    29  H   -0.027954
    30  H   -0.028424
    31  H    0.560853
 Mulliken atomic charges:
              1
     1  C   -0.211749
     2  O   -0.463630
     3  C    0.678192
     4  N   -0.499860
     5  C    0.681866
     6  O   -0.465718
     7  C   -0.212107
     8  N   -0.502553
     9  C    0.657916
    10  O   -0.538776
    11  C    0.297789
    12  C   -0.138956
    13  C   -0.139655
    14  C   -0.118090
    15  C   -0.196440
    16  C    0.156015
    17  C   -0.529258
    18  N   -0.475674
    19  H    0.164347
    20  H    0.168847
    21  H    0.168626
    22  H    0.169223
    23  H    0.169184
    24  H    0.164319
    25  H    0.134479
    26  H    0.131844
    27  H    0.127620
    28  H    0.128362
    29  H    0.170042
    30  H    0.170202
    31  H    0.153594
 Sum of Mulliken atomic charges =  -0.00000
 Mulliken charges with hydrogens summed into heavy atoms:
              1
     1  C    0.290071
     2  O   -0.463630
     3  C    0.678192
     4  N   -0.499860
     5  C    0.681866
     6  O   -0.465718
     7  C    0.290618
     8  N   -0.502553
     9  C    0.657916
    10  O   -0.538776
    11  C    0.297789
    12  C   -0.004477
    13  C   -0.007812
    14  C    0.009530
    15  C   -0.068078
    16  C    0.156015
    17  C   -0.035419
    18  N   -0.475674
 Sum of Mulliken charges with hydrogens summed into heavy atoms =  -0.00000
 Electronic spatial extent (au):  <R**2>=           5204.5409
 Charge=             -0.0000 electrons
 Dipole moment (field-independent basis, Debye):
    X=             -0.4891    Y=             -0.0344    Z=              0.1111  Tot=              0.5027
 Quadrupole moment (field-independent basis, Debye-Ang):
   XX=            -95.5218   YY=            -97.6489   ZZ=            -96.3129
   XY=              2.4824   XZ=              1.0860   YZ=             -0.9027
 Traceless Quadrupole moment (field-independent basis, Debye-Ang):
   XX=              0.9728   YY=             -1.1544   ZZ=              0.1816
   XY=              2.4824   XZ=              1.0860   YZ=             -0.9027
 Octapole moment (field-independent basis, Debye-Ang**2):
  XXX=              4.2858  YYY=             13.2880  ZZZ=             -4.5308  XYY=            -60.3194
  XXY=              4.6905  XXZ=              4.2092  XZZ=             -0.3134  YZZ=              1.1790
  YYZ=              2.9009  XYZ=            -10.7798
 Hexadecapole moment (field-independent basis, Debye-Ang**3):
 XXXX=          -4609.0099 YYYY=          -1383.6970 ZZZZ=           -598.7747 XXXY=            162.7211
 XXXZ=             33.4140 YYYX=            -30.3845 YYYZ=             16.3136 ZZZX=             -5.0442
 ZZZY=              1.1922 XXYY=           -884.5107 XXZZ=           -837.6494 YYZZ=           -353.7227
 XXYZ=             -5.0158 YYXZ=              0.9479 ZZXY=              5.8992
 N-N= 1.296124299587D+03 E-N=-4.583790459450D+03  KE= 8.471439526448D+02
 No NMR shielding tensors so no spin-rotation constants.
 Leave Link  601 at Fri Sep  3 00:14:09 2021, MaxMem=  268435456 cpu:       0.6
 (Enter /sw/target/amd/app/gaussian/Gaussian09RevA.02_gcc-4.9.2/g09/l701.exe)
 Compute integral first derivatives.
 ... and contract with generalized density number  0.
 Leave Link  701 at Fri Sep  3 00:14:09 2021, MaxMem=  268435456 cpu:       0.5
 (Enter /sw/target/amd/app/gaussian/Gaussian09RevA.02_gcc-4.9.2/g09/l702.exe)
 L702 exits ... SP integral derivatives will be done elsewhere.
 Leave Link  702 at Fri Sep  3 00:14:09 2021, MaxMem=  268435456 cpu:       0.1
 (Enter /sw/target/amd/app/gaussian/Gaussian09RevA.02_gcc-4.9.2/g09/l703.exe)
 Compute integral first derivatives, UseDBF=F ICtDFT=           0.
 Integral derivatives from FoFDir, PRISM(SPDF).
 Calling FoFJK, ICntrl=      2127 FMM=F ISym2X=0 I1Cent= 0 IOpClX= 0 NMat=1 NMatS=1 NMatT=0.
 FoFCou: FMM=F IPFlag=           0 FMFlag=      100000 FMFlg1=         800
         NFxFlg=           0 DoJE=F BraDBF=F KetDBF=F FulRan=T
         Omega=  0.000000  0.000000  1.000000  0.000000  0.000000 ICntrl=    2127 IOpCl=  0
         NMat0=    1 NMatS0=    1 NMatT0=    0 NMatD0=    1 NMtDS0=    0 NMtDT0=    0
         I1Cent=           0 NGrid=           0.
 Symmetry not used in FoFCou.
 Leave Link  703 at Fri Sep  3 00:16:23 2021, MaxMem=  268435456 cpu:     133.1
 (Enter /sw/target/amd/app/gaussian/Gaussian09RevA.02_gcc-4.9.2/g09/l716.exe)
 Dipole        =-1.92411620D-01-1.35164372D-02 4.37056022D-02
 ***** Axes restored to original set *****
 -------------------------------------------------------------------
 Center     Atomic                   Forces (Hartrees/Bohr)
 Number     Number              X              Y              Z
 -------------------------------------------------------------------
      1        6           0.012130605    0.010706428   -0.007528988
      2        8          -0.003162106   -0.029663208    0.020230501
      3        6           0.004746140    0.021543403   -0.014236561
      4        7           0.009499743    0.008648618   -0.005902320
      5        6           0.022164160   -0.012591010    0.008020099
      6        8          -0.029651951    0.016659104   -0.011151197
      7        6           0.005307943   -0.014063813    0.009596778
      8        7          -0.002097681   -0.009315732    0.006985756
      9        6          -0.015197512   -0.004499425   -0.001135159
     10        8           0.042169939    0.003519778   -0.004475863
     11        6          -0.023199974    0.016426907   -0.001120722
     12        6           0.000201074   -0.000376295   -0.001272327
     13        6          -0.000769907   -0.000319585   -0.000378622
     14        6          -0.001372270   -0.000054207   -0.002389301
     15        6           0.000323365    0.005118203    0.008608687
     16        6          -0.001807368    0.001257097   -0.004103543
     17        6          -0.000902875   -0.003441303    0.000451691
     18        7          -0.020290013   -0.003051885    0.002831470
     19        1          -0.006853864   -0.000377208    0.000336054
     20        1           0.000641329   -0.004706936   -0.001081048
     21        1           0.000754677   -0.000664558    0.004761039
     22        1          -0.003158106   -0.001157161   -0.003483571
     23        1          -0.003097039    0.002828308    0.002408038
     24        1           0.002955568    0.005077115   -0.003490463
     25        1           0.001723942   -0.001830442   -0.000765746
     26        1           0.000484299   -0.000451478    0.000430603
     27        1           0.000128690   -0.000229896   -0.000084026
     28        1           0.001784805   -0.002324577    0.000245972
     29        1           0.002234549   -0.003504748   -0.000769573
     30        1           0.003812295   -0.001019396   -0.001553038
     31        1           0.000497543    0.001857906    0.000015380
 -------------------------------------------------------------------
 Cartesian Forces:  Max     0.042169939 RMS     0.009644695
 Leave Link  716 at Fri Sep  3 00:16:23 2021, MaxMem=  268435456 cpu:       0.1
 (Enter /sw/target/amd/app/gaussian/Gaussian09RevA.02_gcc-4.9.2/g09/l103.exe)

 GradGradGradGradGradGradGradGradGradGradGradGradGradGradGradGradGradGrad
 Berny optimization.
 Internal  Forces:  Max     0.029649155 RMS     0.006088065
 Search for a local minimum.
 Step number   1 out of a maximum of  149
 All quantities printed in internal units (Hartrees-Bohrs-Radians)
 RMS Force = .60881D-02 SwitMx=.10000D-02 MixMth= 1
 Mixed Optimization -- RFO/linear search
 Second derivative matrix not updated -- first step.
     Eigenvalues ---    0.00760   0.01403   0.01406   0.01534   0.01804
     Eigenvalues ---    0.01968   0.01970   0.02027   0.02070   0.02087
     Eigenvalues ---    0.02097   0.02117   0.02141   0.02147   0.02159
     Eigenvalues ---    0.02172   0.02411   0.02479   0.02491   0.02637
     Eigenvalues ---    0.02669   0.02674   0.07272   0.07315   0.09957
     Eigenvalues ---    0.09958   0.10536   0.10537   0.16000   0.16000
     Eigenvalues ---    0.16000   0.16000   0.16000   0.16000   0.16000
     Eigenvalues ---    0.16000   0.16000   0.16000   0.16000   0.16000
     Eigenvalues ---    0.16000   0.22000   0.22483   0.24464   0.24928
     Eigenvalues ---    0.24990   0.24996   0.24998   0.25000   0.25000
     Eigenvalues ---    0.25000   0.25000   0.25000   0.25000   0.25000
     Eigenvalues ---    0.32329   0.34169   0.34170   0.34170   0.34171
     Eigenvalues ---    0.34228   0.34257   0.34295   0.34310   0.34312
     Eigenvalues ---    0.35076   0.35145   0.35206   0.35275   0.41786
     Eigenvalues ---    0.41928   0.42183   0.42222   0.45431   0.45988
     Eigenvalues ---    0.46075   0.46570   0.47058   0.49269   0.49293
     Eigenvalues ---    0.50090   0.54474   0.54804   0.59858   0.60077
     Eigenvalues ---    0.60432   0.607411000.000001000.000001000.00000
     Eigenvalues --- 1000.000001000.000001000.000001000.000001000.00000
     Eigenvalues --- 1000.000001000.000001000.000001000.000001000.00000
     Eigenvalues --- 1000.000001000.000001000.000001000.000001000.00000
     Eigenvalues --- 1000.000001000.000001000.000001000.000001000.00000
     Eigenvalues --- 1000.000001000.000001000.000001000.000001000.00000
     Eigenvalues --- 1000.000001000.000001000.000001000.000001000.00000
     Eigenvalues --- 1000.000001000.000001000.000001000.000001000.00000
     Eigenvalues --- 1000.000001000.000001000.000001000.000001000.00000
     Eigenvalues --- 1000.000001000.000001000.000001000.000001000.00000
     Eigenvalues --- 1000.000001000.000001000.000001000.00000
 RFO step:  Lambda=-1.44357914D-02 EMin= 7.59792350D-03
 Linear search not attempted -- first point.
 Iteration  1 RMS(Cart)=  0.07345718 RMS(Int)=  0.00154239
 Iteration  2 RMS(Cart)=  0.00285631 RMS(Int)=  0.00005915
 Iteration  3 RMS(Cart)=  0.00000185 RMS(Int)=  0.00005914
 Iteration  4 RMS(Cart)=  0.00000000 RMS(Int)=  0.00005914
 Variable       Old X    -DE/DX   Delta X   Delta X   Delta X     New X
                                 (Linear)    (Quad)   (Total)
    R1        2.68641   0.00813   0.00000   0.01861   0.01861   2.70502
    R2        2.06809  -0.00065   0.00000  -0.00182  -0.00182   2.06627
    R3        2.07045  -0.00159   0.00000  -0.00446  -0.00446   2.06599
    R4        2.07046  -0.00157   0.00000  -0.00441  -0.00441   2.06605
    R5        2.60585  -0.02920   0.00000  -0.05756  -0.05756   2.54829
    R6        2.50758   0.00152   0.00000   0.00304   0.00301   2.51059
    R7        2.50205   0.01110   0.00000   0.01786   0.01786   2.51991
    R8        2.50457   0.00892   0.00000   0.01490   0.01488   2.51944
[...]
 Alpha virt. eigenvalues --    1.45142   1.46276   1.47532   1.49132   1.49362
 Alpha virt. eigenvalues --    1.50558   1.50918   1.51268   1.51522   1.52639
 Alpha virt. eigenvalues --    1.56852   1.57374   1.65593   1.68988   1.69933
 Alpha virt. eigenvalues --    1.71542   1.75458   1.79154   1.79673   1.80629
 Alpha virt. eigenvalues --    1.81626   1.82954   1.84613   1.85403   1.86503
 Alpha virt. eigenvalues --    1.88006   1.90494   1.90864   1.93297   1.97287
 Alpha virt. eigenvalues --    1.97984   1.98909   2.00176   2.00570   2.01081
 Alpha virt. eigenvalues --    2.02144   2.03353   2.06307   2.07955   2.08697
 Alpha virt. eigenvalues --    2.11209   2.11418   2.12377   2.15507   2.17757
 Alpha virt. eigenvalues --    2.18481   2.20436   2.21837   2.24298   2.24639
 Alpha virt. eigenvalues --    2.25693   2.26304   2.27411   2.28433   2.29015
 Alpha virt. eigenvalues --    2.30536   2.32329   2.35293   2.38821   2.40169
 Alpha virt. eigenvalues --    2.41484   2.46764   2.47026   2.49514   2.50838
 Alpha virt. eigenvalues --    2.53579   2.55161   2.57631   2.58392   2.59047
 Alpha virt. eigenvalues --    2.61553   2.62734   2.67763   2.68599   2.69964
 Alpha virt. eigenvalues --    2.71285   2.72715   2.74883   2.75850   2.76807
 Alpha virt. eigenvalues --    2.79324   2.79694   2.84595   2.86217   2.92069
 Alpha virt. eigenvalues --    2.96000   3.04039   3.13324   3.24985   3.26972
 Alpha virt. eigenvalues --    3.30635   3.42561   3.46569   4.03852   4.05554
 Alpha virt. eigenvalues --    4.09239   4.11462   4.11807   4.12708   4.18783
 Alpha virt. eigenvalues --    4.23109   4.23494   4.27463   4.28728   4.32743
 Alpha virt. eigenvalues --    4.38973   4.41650   4.54946   4.71232   4.73977
 Alpha virt. eigenvalues --    4.81700
          Condensed to atoms (all electrons):
              1          2          3          4          5          6
     1  C    4.894385   0.224557  -0.029384  -0.006230   0.000531  -0.000020
     2  O    0.224557   8.167631   0.327018  -0.086670   0.002026  -0.000012
     3  C   -0.029384   0.327018   4.305560   0.393304  -0.042205   0.001011
     4  N   -0.006230  -0.086670   0.393304   7.017920   0.449561  -0.084649
     5  C    0.000531   0.002026  -0.042205   0.449561   4.291523   0.326706
     6  O   -0.000020  -0.000012   0.001011  -0.084649   0.326706   8.170421
     7  C    0.000000   0.000001  -0.000089   0.004828  -0.029328   0.224397
     8  N    0.000079  -0.000184  -0.029451  -0.076930   0.397109  -0.085998
     9  C   -0.000103   0.001047  -0.043774  -0.029326  -0.041746   0.001667
    10  O    0.000001  -0.000011   0.002266  -0.000182   0.001089  -0.000014
    11  C    0.000000  -0.000004   0.000278   0.000047   0.000098  -0.000000
    12  C   -0.000000   0.000002  -0.000043  -0.000004   0.000012   0.000000
    13  C    0.000000  -0.000000   0.000002  -0.000000  -0.000000   0.000000
    14  C    0.000000  -0.000000   0.000000   0.000000  -0.000000  -0.000000
    15  C    0.000000   0.000000   0.000004  -0.000000  -0.000000   0.000000
    16  C   -0.000000   0.000004  -0.000006  -0.000005   0.000012   0.000000
    17  C   -0.000000   0.000004  -0.000005  -0.000006   0.000002  -0.000000
    18  N    0.004857  -0.084177   0.445454  -0.075988  -0.029950  -0.000191
    19  H    0.378229  -0.033034   0.003609   0.000912  -0.000003  -0.000000
    20  H    0.372229  -0.030278  -0.005796   0.007285  -0.000057  -0.000000
    21  H    0.371947  -0.030329  -0.005781   0.007352  -0.000048  -0.000001
    22  H   -0.000000   0.000000   0.000044  -0.000131  -0.005797  -0.030262
    23  H   -0.000000   0.000000   0.000046  -0.000129  -0.005675  -0.030327
    24  H   -0.000000  -0.000000   0.000002  -0.000002   0.003614  -0.033029
    25  H   -0.000000   0.000000  -0.000011  -0.000000   0.000004  -0.000000
    26  H    0.000000  -0.000000  -0.000000  -0.000000   0.000000  -0.000000
    27  H   -0.000000   0.000000  -0.000000   0.000000  -0.000000  -0.000000
    28  H   -0.000000  -0.000000  -0.000000  -0.000000   0.000000  -0.000000
    29  H    0.000001  -0.000046   0.000444   0.000026   0.000013   0.000000
    30  H   -0.000000   0.000000  -0.000005   0.000001   0.000006   0.000000
    31  H   -0.000000  -0.000000  -0.000001   0.000000  -0.000000   0.000000
              7          8          9         10         11         12
     1  C    0.000000   0.000079  -0.000103   0.000001   0.000000  -0.000000
     2  O    0.000001  -0.000184   0.001047  -0.000011  -0.000004   0.000002
     3  C   -0.000089  -0.029451  -0.043774   0.002266   0.000278  -0.000043
     4  N    0.004828  -0.076930  -0.029326  -0.000182   0.000047  -0.000004
     5  C   -0.029328   0.397109  -0.041746   0.001089   0.000098   0.000012
     6  O    0.224397  -0.085998   0.001667  -0.000014  -0.000000   0.000000
     7  C    4.894394  -0.006173   0.000524  -0.000024   0.000000  -0.000000
     8  N   -0.006173   7.032429   0.439124  -0.084724   0.000698  -0.000238
     9  C    0.000524   0.439124   4.315078   0.304818  -0.014277  -0.004139
    10  O   -0.000024  -0.084724   0.304818   8.311688   0.194688  -0.057299
    11  C    0.000000   0.000698  -0.014277   0.194688   4.645776   0.511094
    12  C   -0.000000  -0.000238  -0.004139  -0.057299   0.511094   5.002100
    13  C    0.000000   0.000002   0.000014   0.004291  -0.006264   0.502880
    14  C    0.000000  -0.000000   0.000020   0.000005  -0.049034  -0.028285
    15  C    0.000000   0.000004   0.000182   0.004329   0.007051  -0.057108
    16  C   -0.000000   0.000045  -0.006853  -0.060070   0.511296  -0.053829
    17  C   -0.000000  -0.000467   0.000283  -0.003930  -0.060941   0.009498
    18  N    0.000075  -0.076556   0.404847  -0.084908   0.005244   0.001588
    19  H    0.000000   0.000001   0.000002  -0.000000  -0.000000   0.000000
    20  H   -0.000000  -0.000007   0.000048   0.000000  -0.000000   0.000000
    21  H   -0.000000  -0.000007   0.000047   0.000000   0.000000   0.000000
    22  H    0.372288   0.007304  -0.000018   0.000001   0.000000   0.000000
    23  H    0.372245   0.007201  -0.000070   0.000001   0.000000  -0.000000
    24  H    0.378112   0.000909  -0.000003  -0.000000   0.000000  -0.000000
    25  H   -0.000000  -0.000148   0.000869  -0.002383  -0.035554   0.348434
    26  H   -0.000000  -0.000000  -0.000006  -0.000062   0.003193  -0.036778
    27  H    0.000000   0.000000   0.000000   0.000002   0.000991   0.004296
    28  H   -0.000000  -0.000000  -0.000007  -0.000059   0.005162   0.000497
    29  H   -0.000000   0.000082   0.002626  -0.001190  -0.003931  -0.000179
    30  H   -0.000000  -0.000037   0.000164   0.004378  -0.005735   0.000074
    31  H    0.000000   0.000000  -0.000005   0.000260   0.003732  -0.000177
             13         14         15         16         17         18
     1  C    0.000000   0.000000   0.000000  -0.000000  -0.000000   0.004857
     2  O   -0.000000  -0.000000   0.000000   0.000004   0.000004  -0.084177
     3  C    0.000002   0.000000   0.000004  -0.000006  -0.000005   0.445454
     4  N   -0.000000   0.000000  -0.000000  -0.000005  -0.000006  -0.075988
     5  C   -0.000000  -0.000000  -0.000000   0.000012   0.000002  -0.029950
     6  O    0.000000  -0.000000   0.000000   0.000000  -0.000000  -0.000191
     7  C    0.000000   0.000000   0.000000  -0.000000  -0.000000   0.000075
     8  N    0.000002  -0.000000   0.000004   0.000045  -0.000467  -0.076556
     9  C    0.000014   0.000020   0.000182  -0.006853   0.000283   0.404847
    10  O    0.004291   0.000005   0.004329  -0.060070  -0.003930  -0.084908
    11  C   -0.006264  -0.049034   0.007051   0.511296  -0.060941   0.005244
    12  C    0.502880  -0.028285  -0.057108  -0.053829   0.009498   0.001588
    13  C    4.882919   0.543677  -0.022353  -0.034975  -0.000367  -0.000184
    14  C    0.543677   4.875105   0.513819  -0.024999   0.007978   0.000059
    15  C   -0.022353   0.513819   4.977071   0.530870  -0.067542  -0.000294
    16  C   -0.034975  -0.024999   0.530870   4.711802   0.344812   0.003136
    17  C   -0.000367   0.007978  -0.067542   0.344812   5.244444  -0.003847
    18  N   -0.000184   0.000059  -0.000294   0.003136  -0.003847   6.982467
    19  H    0.000000  -0.000000   0.000000   0.000000   0.000000   0.000001
    20  H   -0.000000  -0.000000   0.000000   0.000000   0.000000  -0.000138
    21  H   -0.000000  -0.000000  -0.000000  -0.000000  -0.000000  -0.000136
    22  H   -0.000000   0.000000  -0.000000  -0.000000   0.000000  -0.000006
    23  H    0.000000   0.000000  -0.000000   0.000000  -0.000000  -0.000008
    24  H    0.000000  -0.000000   0.000000  -0.000000  -0.000000   0.000001
    25  H   -0.040992   0.004547   0.000422   0.005430  -0.000152   0.000095
    26  H    0.355827  -0.040637   0.004293   0.000922   0.000009  -0.000001
    27  H   -0.042073   0.357692  -0.038454   0.003576  -0.000171   0.000000
    28  H    0.004752  -0.045874   0.352314  -0.038418  -0.010553  -0.000003
    29  H    0.000046  -0.000195  -0.000207  -0.022872   0.356682   0.005447
    30  H    0.000018  -0.000168   0.001837  -0.026384   0.364772   0.000032
    31  H    0.000014   0.000121  -0.002668  -0.027884   0.360632   0.000046
             19         20         21         22         23         24
     1  C    0.378229   0.372229   0.371947  -0.000000  -0.000000  -0.000000
     2  O   -0.033034  -0.030278  -0.030329   0.000000   0.000000  -0.000000
     3  C    0.003609  -0.005796  -0.005781   0.000044   0.000046   0.000002
     4  N    0.000912   0.007285   0.007352  -0.000131  -0.000129  -0.000002
     5  C   -0.000003  -0.000057  -0.000048  -0.005797  -0.005675   0.003614
     6  O   -0.000000  -0.000000  -0.000001  -0.030262  -0.030327  -0.033029
     7  C    0.000000  -0.000000  -0.000000   0.372288   0.372245   0.378112
     8  N    0.000001  -0.000007  -0.000007   0.007304   0.007201   0.000909
     9  C    0.000002   0.000048   0.000047  -0.000018  -0.000070  -0.000003
    10  O   -0.000000   0.000000   0.000000   0.000001   0.000001  -0.000000
    11  C   -0.000000  -0.000000   0.000000   0.000000   0.000000   0.000000
    12  C    0.000000   0.000000   0.000000   0.000000  -0.000000  -0.000000
    13  C    0.000000  -0.000000  -0.000000  -0.000000   0.000000   0.000000
    14  C   -0.000000  -0.000000  -0.000000   0.000000   0.000000  -0.000000
    15  C    0.000000   0.000000  -0.000000  -0.000000  -0.000000   0.000000
    16  C    0.000000   0.000000  -0.000000  -0.000000   0.000000  -0.000000
    17  C    0.000000   0.000000  -0.000000   0.000000  -0.000000  -0.000000
    18  N    0.000001  -0.000138  -0.000136  -0.000006  -0.000008   0.000001
    19  H    0.543358  -0.030805  -0.030910  -0.000000  -0.000000  -0.000000
    20  H   -0.030805   0.551179  -0.037041   0.000000  -0.000000   0.000000
    21  H   -0.030910  -0.037041   0.552133  -0.000000   0.000000   0.000000
    22  H   -0.000000   0.000000  -0.000000   0.550378  -0.036944  -0.030795
    23  H   -0.000000  -0.000000   0.000000  -0.036944   0.551187  -0.030891
    24  H   -0.000000   0.000000   0.000000  -0.030795  -0.030891   0.543720
    25  H   -0.000000   0.000000   0.000000   0.000000   0.000000  -0.000000
    26  H    0.000000   0.000000   0.000000   0.000000  -0.000000  -0.000000
    27  H   -0.000000  -0.000000   0.000000   0.000000   0.000000   0.000000
    28  H    0.000000   0.000000   0.000000  -0.000000   0.000000  -0.000000
    29  H   -0.000000  -0.000000   0.000000   0.000000  -0.000000  -0.000000
    30  H    0.000000   0.000000  -0.000000  -0.000000   0.000000   0.000000
    31  H   -0.000000  -0.000000   0.000000   0.000000  -0.000000   0.000000
             25         26         27         28         29         30
     1  C   -0.000000   0.000000  -0.000000  -0.000000   0.000001  -0.000000
     2  O    0.000000  -0.000000   0.000000  -0.000000  -0.000046   0.000000
     3  C   -0.000011  -0.000000  -0.000000  -0.000000   0.000444  -0.000005
     4  N   -0.000000  -0.000000   0.000000  -0.000000   0.000026   0.000001
     5  C    0.000004   0.000000  -0.000000   0.000000   0.000013   0.000006
     6  O   -0.000000  -0.000000  -0.000000  -0.000000   0.000000   0.000000
     7  C   -0.000000  -0.000000   0.000000  -0.000000  -0.000000  -0.000000
     8  N   -0.000148  -0.000000   0.000000  -0.000000   0.000082  -0.000037
     9  C    0.000869  -0.000006   0.000000  -0.000007   0.002626   0.000164
    10  O   -0.002383  -0.000062   0.000002  -0.000059  -0.001190   0.004378
    11  C   -0.035554   0.003193   0.000991   0.005162  -0.003931  -0.005735
    12  C    0.348434  -0.036778   0.004296   0.000497  -0.000179   0.000074
    13  C   -0.040992   0.355827  -0.042073   0.004752   0.000046   0.000018
    14  C    0.004547  -0.040637   0.357692  -0.045874  -0.000195  -0.000168
    15  C    0.000422   0.004293  -0.038454   0.352314  -0.000207   0.001837
    16  C    0.005430   0.000922   0.003576  -0.038418  -0.022872  -0.026384
    17  C   -0.000152   0.000009  -0.000171  -0.010553   0.356682   0.364772
    18  N    0.000095  -0.000001   0.000000  -0.000003   0.005447   0.000032
    19  H   -0.000000   0.000000  -0.000000   0.000000  -0.000000   0.000000
    20  H    0.000000   0.000000  -0.000000   0.000000  -0.000000   0.000000
    21  H    0.000000   0.000000   0.000000   0.000000   0.000000  -0.000000
    22  H    0.000000   0.000000   0.000000  -0.000000   0.000000  -0.000000
    23  H    0.000000  -0.000000   0.000000   0.000000  -0.000000   0.000000
    24  H   -0.000000  -0.000000   0.000000  -0.000000  -0.000000   0.000000
    25  H    0.585253  -0.005498  -0.000172   0.000017   0.000000  -0.000001
    26  H   -0.005498   0.590583  -0.005112  -0.000199  -0.000000  -0.000000
    27  H   -0.000172  -0.005112   0.595121  -0.005380   0.000002   0.000003
    28  H    0.000017  -0.000199  -0.005380   0.603577   0.000275   0.000066
    29  H    0.000000  -0.000000   0.000002   0.000275   0.545088  -0.032165
    30  H   -0.000001  -0.000000   0.000003   0.000066  -0.032165   0.548340
    31  H    0.000002  -0.000000  -0.000012   0.006691  -0.026944  -0.026434
             31
     1  C   -0.000000
     2  O   -0.000000
     3  C   -0.000001
     4  N    0.000000
     5  C   -0.000000
     6  O    0.000000
     7  C    0.000000
     8  N    0.000000
     9  C   -0.000005
    10  O    0.000260
    11  C    0.003732
    12  C   -0.000177
    13  C    0.000014
    14  C    0.000121
    15  C   -0.002668
    16  C   -0.027884
    17  C    0.360632
    18  N    0.000046
    19  H   -0.000000
    20  H   -0.000000
    21  H    0.000000
    22  H    0.000000
    23  H   -0.000000
    24  H    0.000000
    25  H    0.000002
    26  H   -0.000000
    27  H   -0.000012
    28  H    0.006691
    29  H   -0.026944
    30  H   -0.026434
    31  H    0.558505
 Mulliken atomic charges:
              1
     1  C   -0.211080
     2  O   -0.457543
     3  C    0.677508
     4  N   -0.520983
     5  C    0.682502
     6  O   -0.459698
     7  C   -0.211249
     8  N   -0.524067
     9  C    0.668965
    10  O   -0.532959
    11  C    0.286393
    12  C   -0.142398
    13  C   -0.147235
    14  C   -0.113832
    15  C   -0.203570
    16  C    0.184391
    17  C   -0.541132
    18  N   -0.496964
    19  H    0.168640
    20  H    0.173381
    21  H    0.172775
    22  H    0.173938
    23  H    0.173364
    24  H    0.168362
    25  H    0.139839
    26  H    0.133467
    27  H    0.129689
    28  H    0.127143
    29  H    0.176998
    30  H    0.171239
    31  H    0.154120
 Sum of Mulliken atomic charges =  -0.00000
 Mulliken charges with hydrogens summed into heavy atoms:
              1
     1  C    0.303715
     2  O   -0.457543
     3  C    0.677508
     4  N   -0.520983
     5  C    0.682502
     6  O   -0.459698
     7  C    0.304415
     8  N   -0.524067
     9  C    0.668965
    10  O   -0.532959
    11  C    0.286393
    12  C   -0.002560
    13  C   -0.013769
    14  C    0.015857
    15  C   -0.076428
    16  C    0.184391
    17  C   -0.038775
    18  N   -0.496964
 Sum of Mulliken charges with hydrogens summed into heavy atoms =  -0.00000
 Electronic spatial extent (au):  <R**2>=           5201.0158
 Charge=              0.0000 electrons
 Dipole moment (field-independent basis, Debye):
    X=             -0.5541    Y=              0.0677    Z=              0.2564  Tot=              0.6143
 Quadrupole moment (field-independent basis, Debye-Ang):
   XX=            -93.2246   YY=            -96.3988   ZZ=            -95.9389
   XY=              2.6284   XZ=              0.1528   YZ=              0.5922
 Traceless Quadrupole moment (field-independent basis, Debye-Ang):
   XX=              1.9628   YY=             -1.2113   ZZ=             -0.7515
   XY=              2.6284   XZ=              0.1528   YZ=              0.5922
 Octapole moment (field-independent basis, Debye-Ang**2):
  XXX=             -0.0603  YYY=             18.0161  ZZZ=             -4.5495  XYY=            -68.2196
  XXY=              2.1862  XXZ=             -3.0094  XZZ=              2.7286  YZZ=             -1.4980
  YYZ=              1.5405  XYZ=              0.7699
 Hexadecapole moment (field-independent basis, Debye-Ang**3):
 XXXX=          -4561.9477 YYYY=          -1319.0548 ZZZZ=           -597.6813 XXXY=            172.3121
 XXXZ=            -13.2675 YYYX=            -27.2497 YYYZ=             -1.3927 ZZZX=             -7.3549
 ZZZY=              6.4171 XXYY=           -885.3431 XXZZ=           -835.7239 YYZZ=           -348.9554
 XXYZ=              3.6862 YYXZ=              6.3947 ZZXY=              0.1093
 N-N= 1.298647882148D+03 E-N=-4.589178333662D+03  KE= 8.472511908757D+02
 No NMR shielding tensors so no spin-rotation constants.
 Leave Link  601 at Fri Sep  3 01:59:08 2021, MaxMem=  268435456 cpu:       0.6
 (Enter /sw/target/amd/app/gaussian/Gaussian09RevA.02_gcc-4.9.2/g09/l9999.exe)
 1\1\GINC-HERMITE\FOpt\RB3LYP\6-31G(d)\C12H13N3O3\JSCHLEINITZ\03-Sep-20
 21\0\\#p b3lyp 6-31G* opt scf(xqc,tight)\\opt calculation\\0,1\C,3.353
 551862,2.2086371992,-1.6894636362\O,2.0044863741,1.894203355,-1.313804
 56\C,1.8198607798,0.8522194351,-0.5040223743\N,2.8743626228,0.15612787
 56,-0.0873523692\C,2.5512105031,-0.8683097691,0.7160209981\O,3.5960525
 986,-1.5792478718,1.1394032653\C,3.3311265075,-2.6942854215,2.00404299
 88\N,1.3264305515,-1.2151511297,1.1057368883\C,0.3690221545,-0.4193939
 854,0.6098608507\O,-0.8691759951,-0.7641344498,1.0041351996\C,-1.97250
 21471,0.0045875013,0.5960948654\C,-2.4671402925,0.9496526383,1.4871998
 811\C,-3.6231172921,1.6584265123,1.159774926\C,-4.2678156833,1.4037149
 307,-0.0504934696\C,-3.7566097865,0.4429481271,-0.9242906032\C,-2.5968
 552983,-0.281267969,-0.6232055673\C,-2.036224443,-1.3146059261,-1.5663
 804739\N,0.5332982645,0.6211416971,-0.1952504053\H,3.2681647019,3.0794
 474885,-2.340459437\H,3.9573979345,2.4436166762,-0.8091826913\H,3.8139
 411546,1.3727693489,-2.2225868005\H,2.8413162534,-2.3651779215,2.92403
 87992\H,2.6938025301,-3.4296000519,1.506228515\H,4.3112885795,-3.12015
 95645,2.2216125915\H,-1.9464549503,1.1159383948,2.4250197018\H,-4.0156
 915609,2.4006505655,1.8489345413\H,-5.1709588942,1.9472473053,-0.31376
 14652\H,-4.2658177448,0.2438764469,-1.8642543175\H,-1.0994744672,-0.96
 43825144,-2.0171731407\H,-1.8163186973,-2.2541208944,-1.0473928508\H,-
 2.7411571197,-1.5253680287,-2.3760108601\\Version=AM64L-G09RevA.02\Sta
 te=1-A\HF=-855.0456243\RMSD=9.538e-09\RMSF=2.950e-05\Dipole=0.2130029,
 -0.0777463,-0.0835997\Quadrupole=0.6979117,-0.5964346,-0.1014771,-1.84
 47955,1.3173915,-0.2941222\PG=C01 [X(C12H13N3O3)]\\@


 SCIENCE AT ITS BEST PROVIDES US WITH BETTER QUESTIONS, 
 NOT ABSOLUTE ANSWERS

                                    -- NORMAN COUSINS, 1976
 Job cpu time:  0 days  1 hours 50 minutes 23.7 seconds.
 File lengths (MBytes):  RWF=     62 Int=      0 D2E=      0 Chk=      7 Scr=      1
 Normal termination of Gaussian 09 at Fri Sep  3 01:59:08 2021.
