 Entering Gaussian System, Link 0=g09
 Input=mol_inp003.com
 Output=mol_inp003.log
 Initial command:
 /sw/target/amd/app/gaussian/Gaussian09RevA.02_gcc-4.9.2/g09/l1.exe /home/jschleinitz/optim_react/003/Gau-2803559.inp -scrdir=/home/jschleinitz/optim_react/003/
 Entering Link 1 = /sw/target/amd/app/gaussian/Gaussian09RevA.02_gcc-4.9.2/g09/l1.exe PID=   2803561.
  
 Copyright (c) 1988,1990,1992,1993,1995,1998,2003,2009, Gaussian, Inc.
                  All Rights Reserved.
  
 This is part of the Gaussian(R) 09 program.  It is based on
 the Gaussian(R) 03 system (copyright 2003, Gaussian, Inc.),
 the Gaussian(R) 98 system (copyright 1998, Gaussian, Inc.),
 the Gaussian(R) 94 system (copyright 1995, Gaussian, Inc.),
 the Gaussian 92(TM) system (copyright 1992, Gaussian, Inc.),
 the Gaussian 90(TM) system (copyright 1990, Gaussian, Inc.),
 the Gaussian 88(TM) system (copyright 1988, Gaussian, Inc.),
 the Gaussian 86(TM) system (copyright 1986, Carnegie Mellon
 University), and the Gaussian 82(TM) system (copyright 1983,
 Carnegie Mellon University). Gaussian is a federally registered
 trademark of Gaussian, Inc.
  
 This software contains proprietary and confidential information,
 including trade secrets, belonging to Gaussian, Inc.
  
 This software is provided under written license and may be
 used, copied, transmitted, or stored only in accord with that
 written license.
  
 The following legend is applicable only to US Government
 contracts under FAR:
  
                    RESTRICTED RIGHTS LEGEND
  
 Use, reproduction and disclosure by the US Government is
 subject to restrictions as set forth in subparagraphs (a)
 and (c) of the Commercial Computer Software - Restricted
 Rights clause in FAR 52.227-19.
  
 Gaussian, Inc.
 340 Quinnipiac St., Bldg. 40, Wallingford CT 06492
  
  
 ---------------------------------------------------------------
 Warning -- This program may not be used in any manner that
 competes with the business of Gaussian, Inc. or will provide
 assistance to any competitor of Gaussian, Inc.  The licensee
 of this program is prohibited from giving any competitor of
 Gaussian, Inc. access to this program.  By using this program,
 the user acknowledges that Gaussian, Inc. is engaged in the
 business of creating and licensing software in the field of
 computational chemistry and represents and warrants to the
 licensee that it is not a competitor of Gaussian, Inc. and that
 it will not use this program in any manner prohibited above.
 ---------------------------------------------------------------
  

 Cite this work as:
 Gaussian 09, Revision A.02,
 M. J. Frisch, G. W. Trucks, H. B. Schlegel, G. E. Scuseria, 
 M. A. Robb, J. R. Cheeseman, G. Scalmani, V. Barone, B. Mennucci, 
 G. A. Petersson, H. Nakatsuji, M. Caricato, X. Li, H. P. Hratchian, 
 A. F. Izmaylov, J. Bloino, G. Zheng, J. L. Sonnenberg, M. Hada, 
 M. Ehara, K. Toyota, R. Fukuda, J. Hasegawa, M. Ishida, T. Nakajima, 
 Y. Honda, O. Kitao, H. Nakai, T. Vreven, J. A. Montgomery, Jr., 
 J. E. Peralta, F. Ogliaro, M. Bearpark, J. J. Heyd, E. Brothers, 
 K. N. Kudin, V. N. Staroverov, R. Kobayashi, J. Normand, 
 K. Raghavachari, A. Rendell, J. C. Burant, S. S. Iyengar, J. Tomasi, 
 M. Cossi, N. Rega, J. M. Millam, M. Klene, J. E. Knox, J. B. Cross, 
 V. Bakken, C. Adamo, J. Jaramillo, R. Gomperts, R. E. Stratmann, 
 O. Yazyev, A. J. Austin, R. Cammi, C. Pomelli, J. W. Ochterski, 
 R. L. Martin, K. Morokuma, V. G. Zakrzewski, G. A. Voth, 
 P. Salvador, J. J. Dannenberg, S. Dapprich, A. D. Daniels, 
 O. Farkas, J. B. Foresman, J. V. Ortiz, J. Cioslowski, 
 and D. J. Fox, Gaussian, Inc., Wallingford CT, 2009.
 
 ******************************************
 Gaussian 09:  AM64L-G09RevA.02 11-Jun-2009
                 3-Sep-2021 
 ******************************************
 %chk=opt.chk
 %mem=2gb
 %nproc=1
 Will use up to    1 processors via shared memory.
 ----------------------------------
 #p b3lyp 6-31G* opt scf(xqc,tight)
 ----------------------------------
 1/14=-1,18=20,19=15,26=3,38=1/1,3;
 2/9=110,12=2,17=6,18=5,40=1/2;
 3/5=1,6=6,7=1,11=2,16=1,25=1,30=1,71=1,74=-5/1,2,3;
 4//1;
 5/5=2,8=3,13=1,32=2,38=5/2,8;
 6/7=2,8=2,9=2,10=2,28=1/1;
 7//1,2,3,16;
 1/14=-1,18=20,19=15/3(2);
 2/9=110/2;
 99//99;
 2/9=110/2;
 3/5=1,6=6,7=1,11=2,16=1,25=1,30=1,71=1,74=-5/1,2,3;
 4/5=5,16=3/1;
 5/5=2,8=3,13=1,32=2,38=5/2,8;
 7//1,2,3,16;
 1/14=-1,18=20,19=15/3(-5);
 2/9=110/2;
 6/7=2,8=2,9=2,10=2,19=2,28=1/1;
 99/9=1/99;
 Leave Link    1 at Fri Sep  3 00:02:37 2021, MaxMem=  268435456 cpu:       0.0
 (Enter /sw/target/amd/app/gaussian/Gaussian09RevA.02_gcc-4.9.2/g09/l101.exe)
 ---------------
 opt calculation
 ---------------
 Symbolic Z-matrix:
 Charge =  0 Multiplicity = 1
 C                    -4.11041   0.4161    0.01579 
 O                    -2.88035   1.10287   0.20948 
 C                    -1.73349   0.37257   0.05766 
 C                    -1.66019  -0.97957  -0.26866 
 C                    -0.415    -1.60565  -0.39304 
 C                     0.77539  -0.89051  -0.19333 
 C                     2.03095  -1.50806  -0.31541 
 C                     3.20365  -0.77973  -0.11289 
 C                     3.12758   0.56717   0.21211 
 O                     4.29852   1.24049   0.40125 
 C                     1.89567   1.20349   0.33926 
 C                     0.70673   0.48182   0.138 
 C                    -0.55237   1.09354   0.25858 
 H                    -4.23257  -0.38905   0.74783 
 H                    -4.19385   0.0368   -1.00804 
 H                    -4.92184   1.13349   0.17189 
 H                    -2.54926  -1.57864  -0.43357 
 H                    -0.38275  -2.66268  -0.64869 
 H                     2.10544  -2.56277  -0.56957 
 H                     4.17182  -1.2627   -0.20866 
 H                     4.09343   2.16406   0.62072 
 H                     1.84758   2.25807   0.59398 
 H                    -0.62471   2.14891   0.51295 
 
 NAtoms=     23 NQM=     23 NQMF=      0 NMic=      0 NMicF=      0 NTot=     23.
                    Isotopes and Nuclear Properties:
 (Nuclear quadrupole moments (NQMom) in fm**2, nuclear magnetic moments (NMagM)
  in nuclear magnetons)

  Atom         1           2           3           4           5           6           7           8           9          10
 IAtWgt=          12          16          12          12          12          12          12          12          12          16
 AtmWgt=  12.0000000  15.9949146  12.0000000  12.0000000  12.0000000  12.0000000  12.0000000  12.0000000  12.0000000  15.9949146
 NucSpn=           0           0           0           0           0           0           0           0           0           0
 AtZEff=   0.0000000   0.0000000   0.0000000   0.0000000   0.0000000   0.0000000   0.0000000   0.0000000   0.0000000   0.0000000
 NQMom=    0.0000000   0.0000000   0.0000000   0.0000000   0.0000000   0.0000000   0.0000000   0.0000000   0.0000000   0.0000000
 NMagM=    0.0000000   0.0000000   0.0000000   0.0000000   0.0000000   0.0000000   0.0000000   0.0000000   0.0000000   0.0000000

  Atom        11          12          13          14          15          16          17          18          19          20
 IAtWgt=          12          12          12           1           1           1           1           1           1           1
 AtmWgt=  12.0000000  12.0000000  12.0000000   1.0078250   1.0078250   1.0078250   1.0078250   1.0078250   1.0078250   1.0078250
 NucSpn=           0           0           0           1           1           1           1           1           1           1
 AtZEff=   0.0000000   0.0000000   0.0000000   0.0000000   0.0000000   0.0000000   0.0000000   0.0000000   0.0000000   0.0000000
 NQMom=    0.0000000   0.0000000   0.0000000   0.0000000   0.0000000   0.0000000   0.0000000   0.0000000   0.0000000   0.0000000
 NMagM=    0.0000000   0.0000000   0.0000000   2.7928460   2.7928460   2.7928460   2.7928460   2.7928460   2.7928460   2.7928460

  Atom        21          22          23
 IAtWgt=           1           1           1
 AtmWgt=   1.0078250   1.0078250   1.0078250
 NucSpn=           1           1           1
 AtZEff=   0.0000000   0.0000000   0.0000000
 NQMom=    0.0000000   0.0000000   0.0000000
 NMagM=    2.7928460   2.7928460   2.7928460
 Leave Link  101 at Fri Sep  3 00:02:37 2021, MaxMem=  268435456 cpu:       0.1
 (Enter /sw/target/amd/app/gaussian/Gaussian09RevA.02_gcc-4.9.2/g09/l103.exe)

 GradGradGradGradGradGradGradGradGradGradGradGradGradGradGradGradGradGrad
 Berny optimization.
 Initialization pass.
                           ----------------------------
                           !    Initial Parameters    !
                           ! (Angstroms and Degrees)  !
 --------------------------                            --------------------------
 ! Name  Definition              Value          Derivative Info.                !
 --------------------------------------------------------------------------------
 ! R1    R(1,2)                  1.422          estimate D2E/DX2                !
 ! R2    R(1,14)                 1.095          estimate D2E/DX2                !
 ! R3    R(1,15)                 1.095          estimate D2E/DX2                !
 ! R4    R(1,16)                 1.0943         estimate D2E/DX2                !
 ! R5    R(2,3)                  1.3681         estimate D2E/DX2                !
 ! R6    R(3,4)                  1.3929         estimate D2E/DX2                !
 ! R7    R(3,13)                 1.3983         estimate D2E/DX2                !
 ! R8    R(4,5)                  1.3993         estimate D2E/DX2                !
 ! R9    R(4,17)                 1.0847         estimate D2E/DX2                !
 ! R10   R(5,6)                  1.403          estimate D2E/DX2                !
 ! R11   R(5,18)                 1.088          estimate D2E/DX2                !
 ! R12   R(6,7)                  1.4045         estimate D2E/DX2                !
 ! R13   R(6,12)                 1.4134         estimate D2E/DX2                !
 ! R14   R(7,8)                  1.3952         estimate D2E/DX2                !
 ! R15   R(7,19)                 1.0874         estimate D2E/DX2                !
 ! R16   R(8,9)                  1.3876         estimate D2E/DX2                !
 ! R17   R(8,20)                 1.0862         estimate D2E/DX2                !
 ! R18   R(9,10)                 1.3639         estimate D2E/DX2                !
 ! R19   R(9,11)                 1.3924         estimate D2E/DX2                !
 ! R20   R(10,21)                0.9712         estimate D2E/DX2                !
 ! R21   R(11,12)                1.4053         estimate D2E/DX2                !
 ! R22   R(11,22)                1.086          estimate D2E/DX2                !
 ! R23   R(12,13)                1.405          estimate D2E/DX2                !
 ! R24   R(13,23)                1.088          estimate D2E/DX2                !
 ! A1    A(2,1,14)             111.1341         estimate D2E/DX2                !
 ! A2    A(2,1,15)             111.1341         estimate D2E/DX2                !
 ! A3    A(2,1,16)             107.7807         estimate D2E/DX2                !
 ! A4    A(14,1,15)            111.2144         estimate D2E/DX2                !
 ! A5    A(14,1,16)            107.6951         estimate D2E/DX2                !
 ! A6    A(15,1,16)            107.6951         estimate D2E/DX2                !
 ! A7    A(1,2,3)              116.8848         estimate D2E/DX2                !
 ! A8    A(2,3,4)              126.0368         estimate D2E/DX2                !
 ! A9    A(2,3,13)             114.6397         estimate D2E/DX2                !
 ! A10   A(4,3,13)             119.3235         estimate D2E/DX2                !
 ! A11   A(3,4,5)              120.1319         estimate D2E/DX2                !
 ! A12   A(3,4,17)             121.9128         estimate D2E/DX2                !
 ! A13   A(5,4,17)             117.9553         estimate D2E/DX2                !
 ! A14   A(4,5,6)              120.9528         estimate D2E/DX2                !
 ! A15   A(4,5,18)             118.8137         estimate D2E/DX2                !
 ! A16   A(6,5,18)             120.2335         estimate D2E/DX2                !
 ! A17   A(5,6,7)              121.4661         estimate D2E/DX2                !
 ! A18   A(5,6,12)             119.1475         estimate D2E/DX2                !
 ! A19   A(7,6,12)             119.3864         estimate D2E/DX2                !
 ! A20   A(6,7,8)              120.6118         estimate D2E/DX2                !
 ! A21   A(6,7,19)             120.53           estimate D2E/DX2                !
 ! A22   A(8,7,19)             118.8582         estimate D2E/DX2                !
 ! A23   A(7,8,9)              119.6435         estimate D2E/DX2                !
 ! A24   A(7,8,20)             120.2833         estimate D2E/DX2                !
 ! A25   A(9,8,20)             120.0732         estimate D2E/DX2                !
 ! A26   A(8,9,10)             117.6838         estimate D2E/DX2                !
 ! A27   A(8,9,11)             120.896          estimate D2E/DX2                !
 ! A28   A(10,9,11)            121.4203         estimate D2E/DX2                !
 ! A29   A(9,10,21)            108.6325         estimate D2E/DX2                !
 ! A30   A(9,11,12)            120.0514         estimate D2E/DX2                !
 ! A31   A(9,11,22)            120.2918         estimate D2E/DX2                !
 ! A32   A(12,11,22)           119.6569         estimate D2E/DX2                !
 ! A33   A(6,12,11)            119.411          estimate D2E/DX2                !
 ! A34   A(6,12,13)            119.1021         estimate D2E/DX2                !
 ! A35   A(11,12,13)           121.4868         estimate D2E/DX2                !
 ! A36   A(3,13,12)            121.3422         estimate D2E/DX2                !
 ! A37   A(3,13,23)            118.5273         estimate D2E/DX2                !
 ! A38   A(12,13,23)           120.1305         estimate D2E/DX2                !
 ! D1    D(14,1,2,3)            62.213          estimate D2E/DX2                !
 ! D2    D(15,1,2,3)           -62.2137         estimate D2E/DX2                !
 ! D3    D(16,1,2,3)           179.9997         estimate D2E/DX2                !
 ! D4    D(1,2,3,4)              0.0005         estimate D2E/DX2                !
 ! D5    D(1,2,3,13)          -179.9994         estimate D2E/DX2                !
 ! D6    D(2,3,4,5)            180.0            estimate D2E/DX2                !
 ! D7    D(2,3,4,17)             0.0            estimate D2E/DX2                !
 ! D8    D(13,3,4,5)             0.0            estimate D2E/DX2                !
 ! D9    D(13,3,4,17)          180.0            estimate D2E/DX2                !
 ! D10   D(2,3,13,12)          180.0            estimate D2E/DX2                !
 ! D11   D(2,3,13,23)            0.0001         estimate D2E/DX2                !
 ! D12   D(4,3,13,12)            0.0            estimate D2E/DX2                !
 ! D13   D(4,3,13,23)         -179.9999         estimate D2E/DX2                !
 ! D14   D(3,4,5,6)              0.0            estimate D2E/DX2                !
 ! D15   D(3,4,5,18)          -180.0            estimate D2E/DX2                !
 ! D16   D(17,4,5,6)           180.0            estimate D2E/DX2                !
 ! D17   D(17,4,5,18)            0.0            estimate D2E/DX2                !
 ! D18   D(4,5,6,7)           -179.9999         estimate D2E/DX2                !
 ! D19   D(4,5,6,12)             0.0001         estimate D2E/DX2                !
 ! D20   D(18,5,6,7)             0.0001         estimate D2E/DX2                !
 ! D21   D(18,5,6,12)         -179.9999         estimate D2E/DX2                !
 ! D22   D(5,6,7,8)           -179.9999         estimate D2E/DX2                !
 ! D23   D(5,6,7,19)             0.0001         estimate D2E/DX2                !
 ! D24   D(12,6,7,8)             0.0002         estimate D2E/DX2                !
 ! D25   D(12,6,7,19)         -179.9999         estimate D2E/DX2                !
 ! D26   D(5,6,12,11)          179.9999         estimate D2E/DX2                !
 ! D27   D(5,6,12,13)           -0.0002         estimate D2E/DX2                !
 ! D28   D(7,6,12,11)           -0.0002         estimate D2E/DX2                !
 ! D29   D(7,6,12,13)          179.9998         estimate D2E/DX2                !
 ! D30   D(6,7,8,9)             -0.0001         estimate D2E/DX2                !
 ! D31   D(6,7,8,20)           179.9999         estimate D2E/DX2                !
 ! D32   D(19,7,8,9)           180.0            estimate D2E/DX2                !
 ! D33   D(19,7,8,20)            0.0            estimate D2E/DX2                !
 ! D34   D(7,8,9,10)          -180.0            estimate D2E/DX2                !
 ! D35   D(7,8,9,11)             0.0            estimate D2E/DX2                !
 ! D36   D(20,8,9,10)            0.0            estimate D2E/DX2                !
 ! D37   D(20,8,9,11)          180.0            estimate D2E/DX2                !
 ! D38   D(8,9,10,21)         -179.9999         estimate D2E/DX2                !
 ! D39   D(11,9,10,21)           0.0001         estimate D2E/DX2                !
 ! D40   D(8,9,11,12)            0.0            estimate D2E/DX2                !
 ! D41   D(8,9,11,22)          179.9999         estimate D2E/DX2                !
 ! D42   D(10,9,11,12)         180.0            estimate D2E/DX2                !
 ! D43   D(10,9,11,22)          -0.0001         estimate D2E/DX2                !
 ! D44   D(9,11,12,6)            0.0001         estimate D2E/DX2                !
 ! D45   D(9,11,12,13)        -179.9999         estimate D2E/DX2                !
 ! D46   D(22,11,12,6)        -179.9999         estimate D2E/DX2                !
 ! D47   D(22,11,12,13)          0.0001         estimate D2E/DX2                !
 ! D48   D(6,12,13,3)            0.0001         estimate D2E/DX2                !
 ! D49   D(6,12,13,23)        -180.0            estimate D2E/DX2                !
 ! D50   D(11,12,13,3)        -179.9999         estimate D2E/DX2                !
 ! D51   D(11,12,13,23)          0.0            estimate D2E/DX2                !
 --------------------------------------------------------------------------------
 Trust Radius=3.00D-01 FncErr=1.00D-07 GrdErr=1.00D-06
 Number of steps in this run= 123 maximum allowed number of steps= 138.
 GradGradGradGradGradGradGradGradGradGradGradGradGradGradGradGradGradGrad

 Leave Link  103 at Fri Sep  3 00:02:37 2021, MaxMem=  268435456 cpu:       0.0
 (Enter /sw/target/amd/app/gaussian/Gaussian09RevA.02_gcc-4.9.2/g09/l202.exe)
                          Input orientation:                          
 ---------------------------------------------------------------------
 Center     Atomic      Atomic             Coordinates (Angstroms)
 Number     Number       Type             X           Y           Z
 ---------------------------------------------------------------------
      1          6           0       -4.110407    0.416102    0.015792
      2          8           0       -2.880349    1.102872    0.209483
      3          6           0       -1.733485    0.372565    0.057661
      4          6           0       -1.660189   -0.979573   -0.268662
      5          6           0       -0.414996   -1.605648   -0.393035
      6          6           0        0.775392   -0.890514   -0.193328
      7          6           0        2.030954   -1.508062   -0.315407
      8          6           0        3.203652   -0.779734   -0.112887
      9          6           0        3.127582    0.567166    0.212108
     10          8           0        4.298524    1.240486    0.401247
     11          6           0        1.895674    1.203486    0.339260
     12          6           0        0.706734    0.481822    0.137998
     13          6           0       -0.552366    1.093536    0.258580
     14          1           0       -4.232575   -0.389051    0.747827
     15          1           0       -4.193851    0.036802   -1.008044
     16          1           0       -4.921842    1.133492    0.171886
     17          1           0       -2.549260   -1.578639   -0.433571
     18          1           0       -0.382748   -2.662681   -0.648691
     19          1           0        2.105440   -2.562765   -0.569569
     20          1           0        4.171819   -1.262695   -0.208663
     21          1           0        4.093426    2.164055    0.620723
     22          1           0        1.847576    2.258071    0.593976
     23          1           0       -0.624706    2.148906    0.512949
 ---------------------------------------------------------------------
                    Distance matrix (angstroms):
                    1          2          3          4          5
     1  C    0.000000
     2  O    1.422045   0.000000
     3  C    2.377689   1.368099   0.000000
     4  C    2.834147   2.460486   1.392888   0.000000
     5  C    4.232101   3.711748   2.419683   1.399266   0.000000
     6  C    5.061819   4.183334   2.820076   2.438373   1.402969
     7  C    6.444254   5.586894   4.224564   3.729078   2.449126
     8  C    7.412290   6.376770   5.072692   4.870436   3.722261
     9  C    7.242227   6.031768   4.867412   5.054334   4.199664
    10  O    8.458032   7.182752   6.103808   6.394036   5.563150
    11  C    6.066104   4.778845   3.733701   4.216572   3.710348
    12  C    4.819139   3.641151   2.443984   2.811294   2.428540
    13  C    3.630085   2.328519   1.398288   2.408949   2.780120
    14  H    1.095021   2.084266   2.702191   2.828274   4.166003
    15  H    1.095021   2.084266   2.702196   2.828276   4.166008
    16  H    1.094276   2.042069   3.279890   3.911203   5.304120
    17  H    2.572567   2.777344   2.171174   1.084676   2.134820
    18  H    4.880152   4.599333   3.396490   2.146888   1.087988
    19  H    6.917590   6.237139   4.873082   4.095974   2.701821
    20  H    8.453639   7.450089   6.133320   5.839184   4.603312
    21  H    8.409766   7.066029   6.122039   6.616456   5.963576
    22  H    6.262963   4.882171   4.082495   4.850866   4.584948
    23  H    3.924269   2.504836   2.142910   3.386816   3.868005
                    6          7          8          9         10
     6  C    0.000000
     7  C    1.404530   0.000000
     8  C    2.432116   1.395241   0.000000
     9  C    2.796785   2.405709   1.387641   0.000000
    10  O    4.160185   3.634554   2.354648   1.363906   0.000000
    11  C    2.433828   2.792737   2.418348   1.392361   2.403934
    12  C    1.413434   2.432853   2.808748   2.423485   3.680466
    13  C    2.429736   3.710972   4.213644   3.717693   4.855212
    14  H    5.120251   6.450926   7.496061   7.441321   8.692247
    15  H    5.120259   6.450934   7.496071   7.441333   8.692260
    16  H    6.057100   7.453632   8.352555   8.069422   9.223839
    17  H    3.403607   4.582282   5.816965   6.103107   7.452284
    18  H    2.165461   2.696327   4.085932   4.847195   6.184771
    19  H    2.169564   1.087449   2.143322   3.384119   4.496312
    20  H    3.416792   2.157522   1.086173   2.148458   2.579527
    21  H    4.582840   4.314461   3.161610   1.910465   0.971192
    22  H    3.418042   3.878706   3.401008   2.154855   2.660784
    23  H    3.420113   4.594793   4.860548   4.083145   5.007584
                   11         12         13         14         15
    11  C    0.000000
    12  C    1.405306   0.000000
    13  C    2.451836   1.405015   0.000000
    14  H    6.344962   5.052434   3.997670   0.000000
    15  H    6.344974   5.052444   3.997679   1.807189   0.000000
    16  H    6.819929   5.666277   4.370519   1.767748   1.767748
    17  H    5.300465   3.895342   3.406931   2.375788   2.375784
    18  H    4.595052   3.419613   3.867955   4.684103   4.684106
    19  H    3.880028   3.424404   4.595465   6.828689   6.828695
    20  H    3.400456   3.894910   5.299817   8.503644   8.503654
    21  H    2.414959   3.812167   4.781270   8.709581   8.709595
    22  H    1.085976   2.159745   2.688560   6.633186   6.633200
    23  H    2.697462   2.166216   1.087999   4.417365   4.417375
                   16         17         18         19         20
    16  H    0.000000
    17  H    3.653954   0.000000
    18  H    5.973914   2.432118   0.000000
    19  H    7.974633   4.759541   2.491450   0.000000
    20  H    9.411759   6.732259   4.785151   2.467865   0.000000
    21  H    9.085074   7.697050   6.704098   5.264191   3.526562
    22  H    6.875162   5.925231   5.543678   4.965963   4.294430
    23  H    4.428630   4.300512   4.955736   5.552061   5.930126
                   21         22         23
    21  H    0.000000
    22  H    2.247976   0.000000
    23  H    4.719387   2.476017   0.000000
 Stoichiometry    C11H10O2
 Framework group  C1[X(C11H10O2)]
 Deg. of freedom    63
 Full point group                 C1      NOp   1
 Largest Abelian subgroup         C1      NOp   1
 Largest concise Abelian subgroup C1      NOp   1
                         Standard orientation:                         
 ---------------------------------------------------------------------
 Center     Atomic      Atomic             Coordinates (Angstroms)
 Number     Number       Type             X           Y           Z
 ---------------------------------------------------------------------
      1          6           0        4.393598   -0.357046    0.000007
      2          8           0        3.156162   -1.057736   -0.000006
      3          6           0        2.016575   -0.300744   -0.000004
      4          6           0        1.957226    1.090879   -0.000000
      5          6           0        0.718211    1.741097   -0.000000
      6          6           0       -0.479838    1.011028   -0.000000
      7          6           0       -1.729313    1.652524   -0.000002
      8          6           0       -2.909805    0.908793   -0.000000
      9          6           0       -2.847628   -0.477455    0.000001
     10          8           0       -4.025795   -1.164594    0.000002
     11          6           0       -1.622006   -1.138151    0.000000
     12          6           0       -0.425338   -0.401355   -0.000001
     13          6           0        0.827737   -1.036864   -0.000004
     14          1           0        4.502537    0.251816    0.903606
     15          1           0        4.502551    0.251826   -0.903584
     16          1           0        5.197812   -1.099125    0.000010
     17          1           0        2.852690    1.702979   -0.000000
     18          1           0        0.696872    2.828876    0.000002
     19          1           0       -1.792924    2.738111   -0.000003
     20          1           0       -3.873208    1.410416   -0.000000
     21          1           0       -3.830188   -2.115884    0.000004
     22          1           0       -1.584788   -2.223489    0.000003
     23          1           0        0.889194   -2.123126   -0.000005
 ---------------------------------------------------------------------
 Rotational constants (GHZ):      2.3131946      0.4412737      0.3714769
 Leave Link  202 at Fri Sep  3 00:02:37 2021, MaxMem=  268435456 cpu:       0.0
 (Enter /sw/target/amd/app/gaussian/Gaussian09RevA.02_gcc-4.9.2/g09/l301.exe)
 Standard basis: 6-31G(d) (6D, 7F)
 Ernie: Thresh=  0.10000D-02 Tol=  0.10000D-05 Strict=F.
 There are   215 symmetry adapted basis functions of A   symmetry.
 Integral buffers will be    131072 words long.
 Raffenetti 2 integral format.
 Two-electron integral symmetry is turned on.
   215 basis functions,   404 primitive gaussians,   215 cartesian basis functions
    46 alpha electrons       46 beta electrons
       nuclear repulsion energy       730.4268795572 Hartrees.
 IExCor=  402 DFT=T Ex+Corr=B3LYP ExCW=0 ScaHFX=  0.200000
 ScaDFX=  0.800000  0.720000  1.000000  0.810000 ScalE2=  1.000000  1.000000
 IRadAn=      0 IRanWt=     -1 IRanGd=            0 ICorTp=0
 NAtoms=   23 NActive=   23 NUniq=   23 SFac= 7.50D-01 NAtFMM=   80 NAOKFM=F Big=F
 Leave Link  301 at Fri Sep  3 00:02:37 2021, MaxMem=  268435456 cpu:       0.1
 (Enter /sw/target/amd/app/gaussian/Gaussian09RevA.02_gcc-4.9.2/g09/l302.exe)
 NPDir=0 NMtPBC=     1 NCelOv=     1 NCel=       1 NClECP=     1 NCelD=      1
         NCelK=      1 NCelE2=     1 NClLst=     1 CellRange=     0.0.
 One-electron integrals computed using PRISM.
 NBasis=   215 RedAO= T  NBF=   215
 NBsUse=   215 1.00D-06 NBFU=   215
 Precomputing XC quadrature grid using
 IXCGrd= 2 IRadAn=           0 IRanWt=          -1 IRanGd=           0 AccXCQ= 1.00D-10.
 NRdTot=    1452 NPtTot=      184964 NUsed=      195440 NTot=      195472
 NSgBfM=   214   214   214   214   214 NAtAll=    23    23.
 Leave Link  302 at Fri Sep  3 00:02:38 2021, MaxMem=  268435456 cpu:       0.9
 (Enter /sw/target/amd/app/gaussian/Gaussian09RevA.02_gcc-4.9.2/g09/l303.exe)
 DipDrv:  MaxL=1.
 Leave Link  303 at Fri Sep  3 00:02:38 2021, MaxMem=  268435456 cpu:       0.1
 (Enter /sw/target/amd/app/gaussian/Gaussian09RevA.02_gcc-4.9.2/g09/l401.exe)
 Harris functional with IExCor=  402 diagonalized for initial guess.
 ExpMin= 1.61D-01 ExpMax= 5.48D+03 ExpMxC= 8.25D+02 IAcc=1 IRadAn=         1 AccDes= 0.00D+00
 HarFok:  IExCor=  402 AccDes= 0.00D+00 IRadAn=         1 IDoV= 1
 ScaDFX=  1.000000  1.000000  1.000000  1.000000
 FoFCou: FMM=F IPFlag=           0 FMFlag=      100000 FMFlg1=           0
         NFxFlg=           0 DoJE=T BraDBF=F KetDBF=T FulRan=T
         Omega=  0.000000  0.000000  1.000000  0.000000  0.000000 ICntrl=     500 IOpCl=  0
         NMat0=    1 NMatS0=    1 NMatT0=    0 NMatD0=    1 NMtDS0=    0 NMtDT0=    0
         I1Cent=           4 NGrid=           0.
 Petite list used in FoFCou.
 Harris En= -575.694292376015    
 Initial guess orbital symmetries:
       Occupied  (A) (A) (A) (A) (A) (A) (A) (A) (A) (A) (A) (A)
                 (A) (A) (A) (A) (A) (A) (A) (A) (A) (A) (A) (A)
                 (A) (A) (A) (A) (A) (A) (A) (A) (A) (A) (A) (A)
                 (A) (A) (A) (A) (A) (A) (A) (A) (A) (A)
       Virtual   (A) (A) (A) (A) (A) (A) (A) (A) (A) (A) (A) (A)
                 (A) (A) (A) (A) (A) (A) (A) (A) (A) (A) (A) (A)
                 (A) (A) (A) (A) (A) (A) (A) (A) (A) (A) (A) (A)
                 (A) (A) (A) (A) (A) (A) (A) (A) (A) (A) (A) (A)
                 (A) (A) (A) (A) (A) (A) (A) (A) (A) (A) (A) (A)
                 (A) (A) (A) (A) (A) (A) (A) (A) (A) (A) (A) (A)
                 (A) (A) (A) (A) (A) (A) (A) (A) (A) (A) (A) (A)
                 (A) (A) (A) (A) (A) (A) (A) (A) (A) (A) (A) (A)
                 (A) (A) (A) (A) (A) (A) (A) (A) (A) (A) (A) (A)
                 (A) (A) (A) (A) (A) (A) (A) (A) (A) (A) (A) (A)
                 (A) (A) (A) (A) (A) (A) (A) (A) (A) (A) (A) (A)
                 (A) (A) (A) (A) (A) (A) (A) (A) (A) (A) (A) (A)
                 (A) (A) (A) (A) (A) (A) (A) (A) (A) (A) (A) (A)
                 (A) (A) (A) (A) (A) (A) (A) (A) (A) (A) (A) (A)
                 (A)
 The electronic state of the initial guess is 1-A.
 Leave Link  401 at Fri Sep  3 00:02:42 2021, MaxMem=  268435456 cpu:       4.5
 (Enter /sw/target/amd/app/gaussian/Gaussian09RevA.02_gcc-4.9.2/g09/l502.exe)
 Closed shell SCF:
 Requested convergence on RMS density matrix=1.00D-08 within  64 cycles.
 Requested convergence on MAX density matrix=1.00D-06.
 Requested convergence on             energy=1.00D-06.
 No special actions if energy rises.
 Using DIIS extrapolation, IDIIS=  1040.
 Integral symmetry usage will be decided dynamically.
       195220 words used for storage of precomputed grid.
 IEnd=      342346 IEndB=      342346 NGot=   268435456 MDV=   268143775
 LenX=   268143775 LenY=   268097109
 Fock matrices will be formed incrementally for  20 cycles.
 Integral accuracy reduced to 1.0D-05 until final iterations.

 Cycle   1  Pass 0  IDiag  1:
 FoFCou: FMM=F IPFlag=           0 FMFlag=      100000 FMFlg1=           0
         NFxFlg=           0 DoJE=F BraDBF=F KetDBF=F FulRan=T
         Omega=  0.000000  0.000000  1.000000  0.000000  0.000000 ICntrl=       0 IOpCl=  0
         NMat0=    1 NMatS0=    1 NMatT0=    0 NMatD0=    1 NMtDS0=    0 NMtDT0=    0
         I1Cent=           0 NGrid=           0.
 Symmetry not used in FoFCou.
 E= -575.338420157740    
 DIIS: error= 3.95D-02 at cycle   1 NSaved=   1.
 NSaved= 1 IEnMin= 1 EnMin= -575.338420157740     IErMin= 1 ErrMin= 3.95D-02
 ErrMax= 3.95D-02 EMaxC= 1.00D-01 BMatC= 2.77D-01 BMatP= 2.77D-01
 IDIUse=3 WtCom= 6.05D-01 WtEn= 3.95D-01
 Coeff-Com:  0.100D+01
 Coeff-En:   0.100D+01
 Coeff:      0.100D+01
 Gap=     0.160 Goal=   None    Shift=    0.000
 GapD=    0.160 DampG=1.000 DampE=0.500 DampFc=0.5000 IDamp=-1.
 Damping current iteration by 5.00D-01
 RMSDP=5.86D-03 MaxDP=1.24D-01              OVMax= 1.68D-01

 Cycle   2  Pass 0  IDiag  1:
 RMSU=  2.02D-03    CP:  9.72D-01
 E= -575.475306162799     Delta-E=       -0.136886005059 Rises=F Damp=T
 DIIS: error= 6.83D-03 at cycle   2 NSaved=   2.
 NSaved= 2 IEnMin= 2 EnMin= -575.475306162799     IErMin= 2 ErrMin= 6.83D-03
 ErrMax= 6.83D-03 EMaxC= 1.00D-01 BMatC= 1.45D-02 BMatP= 2.77D-01
 IDIUse=3 WtCom= 9.32D-01 WtEn= 6.83D-02
 Coeff-Com:  0.103D-01 0.990D+00
 Coeff-En:   0.836D-02 0.992D+00
 Coeff:      0.102D-01 0.990D+00
 Gap=     0.158 Goal=   None    Shift=    0.000
 RMSDP=1.98D-03 MaxDP=4.12D-02 DE=-1.37D-01 OVMax= 1.29D-01

 Cycle   3  Pass 0  IDiag  1:
 RMSU=  1.36D-03    CP:  9.53D-01  9.94D-01
 E= -575.613879816090     Delta-E=       -0.138573653291 Rises=F Damp=F
 DIIS: error= 5.60D-03 at cycle   3 NSaved=   3.
 NSaved= 3 IEnMin= 3 EnMin= -575.613879816090     IErMin= 3 ErrMin= 5.60D-03
 ErrMax= 5.60D-03 EMaxC= 1.00D-01 BMatC= 1.24D-02 BMatP= 1.45D-02
 IDIUse=3 WtCom= 9.44D-01 WtEn= 5.60D-02
 Coeff-Com: -0.340D-01 0.491D+00 0.543D+00
 Coeff-En:   0.000D+00 0.000D+00 0.100D+01
 Coeff:     -0.321D-01 0.464D+00 0.568D+00
 Gap=     0.157 Goal=   None    Shift=    0.000
 RMSDP=9.15D-04 MaxDP=2.80D-02 DE=-1.39D-01 OVMax= 5.58D-02

 Cycle   4  Pass 0  IDiag  1:
 RMSU=  4.33D-04    CP:  9.57D-01  1.03D+00  6.54D-01
 E= -575.622773703887     Delta-E=       -0.008893887797 Rises=F Damp=F
 DIIS: error= 3.99D-03 at cycle   4 NSaved=   4.
 NSaved= 4 IEnMin= 4 EnMin= -575.622773703887     IErMin= 4 ErrMin= 3.99D-03
 ErrMax= 3.99D-03 EMaxC= 1.00D-01 BMatC= 4.09D-03 BMatP= 1.24D-02
 IDIUse=3 WtCom= 9.60D-01 WtEn= 3.99D-02
 Coeff-Com: -0.197D-01 0.112D+00 0.371D+00 0.536D+00
 Coeff-En:   0.000D+00 0.000D+00 0.283D+00 0.717D+00
 Coeff:     -0.189D-01 0.108D+00 0.368D+00 0.543D+00
 Gap=     0.158 Goal=   None    Shift=    0.000
 RMSDP=3.59D-04 MaxDP=8.79D-03 DE=-8.89D-03 OVMax= 2.13D-02

 Cycle   5  Pass 0  IDiag  1:
 RMSU=  9.99D-05    CP:  9.56D-01  1.03D+00  7.49D-01  5.51D-01
 E= -575.626918087837     Delta-E=       -0.004144383950 Rises=F Damp=F
 DIIS: error= 9.01D-04 at cycle   5 NSaved=   5.
 NSaved= 5 IEnMin= 5 EnMin= -575.626918087837     IErMin= 5 ErrMin= 9.01D-04
 ErrMax= 9.01D-04 EMaxC= 1.00D-01 BMatC= 1.93D-04 BMatP= 4.09D-03
 IDIUse=3 WtCom= 9.91D-01 WtEn= 9.01D-03
 Coeff-Com: -0.705D-02 0.281D-01 0.164D+00 0.292D+00 0.524D+00
 Coeff-En:   0.000D+00 0.000D+00 0.000D+00 0.000D+00 0.100D+01
 Coeff:     -0.699D-02 0.279D-01 0.162D+00 0.289D+00 0.528D+00
 Gap=     0.158 Goal=   None    Shift=    0.000
 RMSDP=7.79D-05 MaxDP=2.46D-03 DE=-4.14D-03 OVMax= 4.18D-03

 Cycle   6  Pass 0  IDiag  1:
 RMSU=  3.83D-05    CP:  9.56D-01  1.03D+00  7.43D-01  5.98D-01  6.80D-01
 E= -575.627078028053     Delta-E=       -0.000159940216 Rises=F Damp=F
 DIIS: error= 3.55D-04 at cycle   6 NSaved=   6.
 NSaved= 6 IEnMin= 6 EnMin= -575.627078028053     IErMin= 6 ErrMin= 3.55D-04
 ErrMax= 3.55D-04 EMaxC= 1.00D-01 BMatC= 1.67D-05 BMatP= 1.93D-04
 IDIUse=3 WtCom= 9.96D-01 WtEn= 3.55D-03
 Coeff-Com: -0.137D-02 0.201D-02 0.415D-01 0.852D-01 0.280D+00 0.593D+00
 Coeff-En:   0.000D+00 0.000D+00 0.000D+00 0.000D+00 0.267D-01 0.973D+00
 Coeff:     -0.136D-02 0.200D-02 0.414D-01 0.849D-01 0.279D+00 0.594D+00
 Gap=     0.158 Goal=   None    Shift=    0.000
 RMSDP=2.30D-05 MaxDP=7.57D-04 DE=-1.60D-04 OVMax= 1.26D-03

 Cycle   7  Pass 0  IDiag  1:
 RMSU=  7.11D-06    CP:  9.56D-01  1.03D+00  7.48D-01  5.97D-01  7.19D-01
                    CP:  6.71D-01
 E= -575.627091794996     Delta-E=       -0.000013766943 Rises=F Damp=F
 DIIS: error= 7.59D-05 at cycle   7 NSaved=   7.
 NSaved= 7 IEnMin= 7 EnMin= -575.627091794996     IErMin= 7 ErrMin= 7.59D-05
 ErrMax= 7.59D-05 EMaxC= 1.00D-01 BMatC= 1.03D-06 BMatP= 1.67D-05
 IDIUse=1 WtCom= 1.00D+00 WtEn= 0.00D+00
 Coeff-Com: -0.510D-03 0.171D-03 0.187D-01 0.391D-01 0.144D+00 0.336D+00
 Coeff-Com:  0.462D+00
 Coeff:     -0.510D-03 0.171D-03 0.187D-01 0.391D-01 0.144D+00 0.336D+00
 Coeff:      0.462D+00
 Gap=     0.158 Goal=   None    Shift=    0.000
 RMSDP=6.29D-06 MaxDP=2.15D-04 DE=-1.38D-05 OVMax= 5.99D-04

 Initial convergence to 1.0D-05 achieved.  Increase integral accuracy.
 Cycle   8  Pass 1  IDiag  1:
 E= -575.627021845036     Delta-E=        0.000069949961 Rises=F Damp=F
 DIIS: error= 3.45D-05 at cycle   1 NSaved=   1.
 NSaved= 1 IEnMin= 1 EnMin= -575.627021845036     IErMin= 1 ErrMin= 3.45D-05
 ErrMax= 3.45D-05 EMaxC= 1.00D-01 BMatC= 2.01D-07 BMatP= 2.01D-07
 IDIUse=1 WtCom= 1.00D+00 WtEn= 0.00D+00
 Coeff-Com:  0.100D+01
 Coeff:      0.100D+01
 Gap=     0.158 Goal=   None    Shift=    0.000
 RMSDP=6.29D-06 MaxDP=2.15D-04 DE= 6.99D-05 OVMax= 4.88D-04

 Cycle   9  Pass 1  IDiag  1:
 RMSU=  1.05D-05    CP:  1.00D+00
 E= -575.627021639350     Delta-E=        0.000000205686 Rises=F Damp=F
 DIIS: error= 5.31D-05 at cycle   2 NSaved=   2.
 NSaved= 2 IEnMin= 1 EnMin= -575.627021845036     IErMin= 1 ErrMin= 3.45D-05
 ErrMax= 5.31D-05 EMaxC= 1.00D-01 BMatC= 3.90D-07 BMatP= 2.01D-07
 IDIUse=1 WtCom= 1.00D+00 WtEn= 0.00D+00
 Coeff-Com:  0.598D+00 0.402D+00
 Coeff:      0.598D+00 0.402D+00
 Gap=     0.158 Goal=   None    Shift=    0.000
 RMSDP=4.26D-06 MaxDP=1.44D-04 DE= 2.06D-07 OVMax= 4.68D-04

 Cycle  10  Pass 1  IDiag  1:
 RMSU=  2.86D-06    CP:  1.00D+00  9.09D-01
 E= -575.627022043517     Delta-E=       -0.000000404167 Rises=F Damp=F
 DIIS: error= 1.54D-05 at cycle   3 NSaved=   3.
 NSaved= 3 IEnMin= 3 EnMin= -575.627022043517     IErMin= 3 ErrMin= 1.54D-05
 ErrMax= 1.54D-05 EMaxC= 1.00D-01 BMatC= 3.01D-08 BMatP= 2.01D-07
 IDIUse=1 WtCom= 1.00D+00 WtEn= 0.00D+00
 Coeff-Com:  0.242D-01 0.216D+00 0.759D+00
 Coeff:      0.242D-01 0.216D+00 0.759D+00
 Gap=     0.158 Goal=   None    Shift=    0.000
 RMSDP=1.16D-06 MaxDP=3.29D-05 DE=-4.04D-07 OVMax= 1.12D-04

 Cycle  11  Pass 1  IDiag  1:
 RMSU=  3.51D-07    CP:  1.00D+00  9.39D-01  7.67D-01
 E= -575.627022075729     Delta-E=       -0.000000032212 Rises=F Damp=F
 DIIS: error= 2.58D-06 at cycle   4 NSaved=   4.
 NSaved= 4 IEnMin= 4 EnMin= -575.627022075729     IErMin= 4 ErrMin= 2.58D-06
 ErrMax= 2.58D-06 EMaxC= 1.00D-01 BMatC= 2.95D-09 BMatP= 3.01D-08
 IDIUse=1 WtCom= 1.00D+00 WtEn= 0.00D+00
 Coeff-Com: -0.957D-02 0.111D+00 0.446D+00 0.453D+00
 Coeff:     -0.957D-02 0.111D+00 0.446D+00 0.453D+00
 Gap=     0.158 Goal=   None    Shift=    0.000
 RMSDP=2.94D-07 MaxDP=1.08D-05 DE=-3.22D-08 OVMax= 2.31D-05

 Cycle  12  Pass 1  IDiag  1:
 RMSU=  1.18D-07    CP:  1.00D+00  9.38D-01  7.89D-01  5.47D-01
 E= -575.627022078753     Delta-E=       -0.000000003024 Rises=F Damp=F
 DIIS: error= 5.04D-07 at cycle   5 NSaved=   5.
 NSaved= 5 IEnMin= 5 EnMin= -575.627022078753     IErMin= 5 ErrMin= 5.04D-07
 ErrMax= 5.04D-07 EMaxC= 1.00D-01 BMatC= 8.83D-11 BMatP= 2.95D-09
 IDIUse=1 WtCom= 1.00D+00 WtEn= 0.00D+00
 Coeff-Com: -0.589D-02 0.392D-01 0.162D+00 0.216D+00 0.588D+00
 Coeff:     -0.589D-02 0.392D-01 0.162D+00 0.216D+00 0.588D+00
 Gap=     0.158 Goal=   None    Shift=    0.000
 RMSDP=6.55D-08 MaxDP=1.95D-06 DE=-3.02D-09 OVMax= 4.59D-06

 Cycle  13  Pass 1  IDiag  1:
 RMSU=  3.12D-08    CP:  1.00D+00  9.38D-01  7.89D-01  5.77D-01  7.24D-01
 E= -575.627022078831     Delta-E=       -0.000000000077 Rises=F Damp=F
 DIIS: error= 2.08D-07 at cycle   6 NSaved=   6.
 NSaved= 6 IEnMin= 6 EnMin= -575.627022078831     IErMin= 6 ErrMin= 2.08D-07
 ErrMax= 2.08D-07 EMaxC= 1.00D-01 BMatC= 1.41D-11 BMatP= 8.83D-11
 IDIUse=1 WtCom= 1.00D+00 WtEn= 0.00D+00
 Coeff-Com: -0.283D-02 0.159D-01 0.649D-01 0.954D-01 0.338D+00 0.489D+00
 Coeff:     -0.283D-02 0.159D-01 0.649D-01 0.954D-01 0.338D+00 0.489D+00
 Gap=     0.158 Goal=   None    Shift=    0.000
 RMSDP=2.26D-08 MaxDP=8.87D-07 DE=-7.73D-11 OVMax= 1.99D-06

 Cycle  14  Pass 1  IDiag  1:
 RMSU=  1.15D-08    CP:  1.00D+00  9.38D-01  7.89D-01  5.71D-01  7.69D-01
                    CP:  6.98D-01
 E= -575.627022078857     Delta-E=       -0.000000000026 Rises=F Damp=F
 DIIS: error= 6.82D-08 at cycle   7 NSaved=   7.
 NSaved= 7 IEnMin= 7 EnMin= -575.627022078857     IErMin= 7 ErrMin= 6.82D-08
 ErrMax= 6.82D-08 EMaxC= 1.00D-01 BMatC= 9.03D-13 BMatP= 1.41D-11
 IDIUse=1 WtCom= 1.00D+00 WtEn= 0.00D+00
 Coeff-Com: -0.174D-03 0.452D-03-0.168D-03 0.262D-02 0.296D-01 0.204D+00
 Coeff-Com:  0.764D+00
 Coeff:     -0.174D-03 0.452D-03-0.168D-03 0.262D-02 0.296D-01 0.204D+00
 Coeff:      0.764D+00
 Gap=     0.158 Goal=   None    Shift=    0.000
 RMSDP=7.07D-09 MaxDP=1.86D-07 DE=-2.61D-11 OVMax= 6.12D-07

 SCF Done:  E(RB3LYP) =  -575.627022079     A.U. after   14 cycles
             Convg  =    0.7070D-08             -V/T =  2.0091
 KE= 5.704430478347D+02 PE=-2.800268223654D+03 EE= 9.237712741836D+02
 Leave Link  502 at Fri Sep  3 00:04:57 2021, MaxMem=  268435456 cpu:     134.1
 (Enter /sw/target/amd/app/gaussian/Gaussian09RevA.02_gcc-4.9.2/g09/l508.exe)
 QCSCF skips out because SCF is already converged.
 Leave Link  508 at Fri Sep  3 00:04:57 2021, MaxMem=  268435456 cpu:       0.0
 (Enter /sw/target/amd/app/gaussian/Gaussian09RevA.02_gcc-4.9.2/g09/l601.exe)
 Copying SCF densities to generalized density rwf, IOpCl= 0 IROHF=0.

 **********************************************************************

            Population analysis using the SCF density.

 **********************************************************************

 Orbital symmetries:
       Occupied  (A) (A) (A) (A) (A) (A) (A) (A) (A) (A) (A) (A)
                 (A) (A) (A) (A) (A) (A) (A) (A) (A) (A) (A) (A)
                 (A) (A) (A) (A) (A) (A) (A) (A) (A) (A) (A) (A)
                 (A) (A) (A) (A) (A) (A) (A) (A) (A) (A)
       Virtual   (A) (A) (A) (A) (A) (A) (A) (A) (A) (A) (A) (A)
                 (A) (A) (A) (A) (A) (A) (A) (A) (A) (A) (A) (A)
                 (A) (A) (A) (A) (A) (A) (A) (A) (A) (A) (A) (A)
                 (A) (A) (A) (A) (A) (A) (A) (A) (A) (A) (A) (A)
                 (A) (A) (A) (A) (A) (A) (A) (A) (A) (A) (A) (A)
                 (A) (A) (A) (A) (A) (A) (A) (A) (A) (A) (A) (A)
                 (A) (A) (A) (A) (A) (A) (A) (A) (A) (A) (A) (A)
                 (A) (A) (A) (A) (A) (A) (A) (A) (A) (A) (A) (A)
                 (A) (A) (A) (A) (A) (A) (A) (A) (A) (A) (A) (A)
                 (A) (A) (A) (A) (A) (A) (A) (A) (A) (A) (A) (A)
                 (A) (A) (A) (A) (A) (A) (A) (A) (A) (A) (A) (A)
                 (A) (A) (A) (A) (A) (A) (A) (A) (A) (A) (A) (A)
                 (A) (A) (A) (A) (A) (A) (A) (A) (A) (A) (A) (A)
                 (A) (A) (A) (A) (A) (A) (A) (A) (A) (A) (A) (A)
                 (A)
 The electronic state is 1-A.
 Alpha  occ. eigenvalues --  -19.17611 -19.17600 -10.24553 -10.24382 -10.23976
 Alpha  occ. eigenvalues --  -10.19222 -10.19129 -10.19076 -10.18647 -10.18406
 Alpha  occ. eigenvalues --  -10.18249 -10.17956 -10.17539  -1.06061  -1.05779
 Alpha  occ. eigenvalues --   -0.87009  -0.81328  -0.76998  -0.74473  -0.72167
 Alpha  occ. eigenvalues --   -0.68604  -0.63841  -0.60122  -0.59650  -0.54586
 Alpha  occ. eigenvalues --   -0.52868  -0.51177  -0.47608  -0.46915  -0.46450
 Alpha  occ. eigenvalues --   -0.45034  -0.42377  -0.41700  -0.40821  -0.40770
 Alpha  occ. eigenvalues --   -0.39622  -0.37720  -0.37453  -0.35028  -0.33805
 Alpha  occ. eigenvalues --   -0.33780  -0.32572  -0.28122  -0.27417  -0.21624
 Alpha  occ. eigenvalues --   -0.19326
 Alpha virt. eigenvalues --   -0.03492   0.01405   0.03862   0.07002   0.09453
 Alpha virt. eigenvalues --    0.10720   0.11897   0.12156   0.12743   0.14563
 Alpha virt. eigenvalues --    0.15304   0.16927   0.18018   0.19271   0.20140
 Alpha virt. eigenvalues --    0.21472   0.23498   0.26240   0.27565   0.29407
 Alpha virt. eigenvalues --    0.31971   0.32639   0.36590   0.37257   0.40773
 Alpha virt. eigenvalues --    0.47156   0.49133   0.51299   0.51325   0.51798
 Alpha virt. eigenvalues --    0.53771   0.53990   0.54250   0.56565   0.56956
 Alpha virt. eigenvalues --    0.57237   0.58020   0.59599   0.60688   0.61092
 Alpha virt. eigenvalues --    0.62153   0.62203   0.62961   0.63428   0.63873
 Alpha virt. eigenvalues --    0.68544   0.68631   0.69501   0.70197   0.74988
 Alpha virt. eigenvalues --    0.75115   0.78111   0.82477   0.83384   0.83866
 Alpha virt. eigenvalues --    0.84203   0.84247   0.86425   0.86767   0.87784
 Alpha virt. eigenvalues --    0.88328   0.89729   0.91581   0.92469   0.93763
 Alpha virt. eigenvalues --    0.96053   0.96209   0.97400   1.00062   1.02902
 Alpha virt. eigenvalues --    1.04083   1.05193   1.06234   1.08777   1.10967
 Alpha virt. eigenvalues --    1.16249   1.18826   1.19903   1.23404   1.23610
 Alpha virt. eigenvalues --    1.24781   1.25672   1.28409   1.36508   1.36921
 Alpha virt. eigenvalues --    1.37856   1.39792   1.40126   1.42497   1.45085
 Alpha virt. eigenvalues --    1.46939   1.47525   1.48768   1.49235   1.50688
 Alpha virt. eigenvalues --    1.51969   1.52711   1.68540   1.70823   1.73527
 Alpha virt. eigenvalues --    1.76437   1.78610   1.81707   1.85551   1.86353
 Alpha virt. eigenvalues --    1.86930   1.88893   1.89786   1.93326   1.93831
 Alpha virt. eigenvalues --    1.93938   1.96494   1.98068   1.98601   1.98816
 Alpha virt. eigenvalues --    2.02792   2.05504   2.06923   2.08968   2.11406
 Alpha virt. eigenvalues --    2.13834   2.14557   2.17032   2.19249   2.25836
 Alpha virt. eigenvalues --    2.26521   2.28370   2.29472   2.33052   2.33517
 Alpha virt. eigenvalues --    2.33860   2.39262   2.39420   2.43125   2.43400
 Alpha virt. eigenvalues --    2.49817   2.52900   2.56622   2.58607   2.63007
 Alpha virt. eigenvalues --    2.65153   2.69778   2.69786   2.71720   2.76135
 Alpha virt. eigenvalues --    2.80992   2.81343   2.88215   2.91301   2.93816
 Alpha virt. eigenvalues --    2.97596   3.03830   3.10254   3.17017   3.40655
 Alpha virt. eigenvalues --    3.51245   3.94679   4.05725   4.09858   4.12018
 Alpha virt. eigenvalues --    4.12463   4.18998   4.21722   4.30088   4.32939
 Alpha virt. eigenvalues --    4.40651   4.48351   4.65129   4.86694
          Condensed to atoms (all electrons):
              1          2          3          4          5          6
     1  C    4.895202   0.247915  -0.043385  -0.006479   0.000432  -0.000045
     2  O    0.247915   8.204142   0.272523  -0.060621   0.003490   0.000387
     3  C   -0.043385   0.272523   4.550642   0.424400   0.013344  -0.036912
     4  C   -0.006479  -0.060621   0.424400   5.156784   0.456498  -0.004843
     5  C    0.000432   0.003490   0.013344   0.456498   5.154726   0.444061
     6  C   -0.000045   0.000387  -0.036912  -0.004843   0.444061   4.708197
     7  C   -0.000000   0.000001  -0.000852   0.009693  -0.103091   0.438384
     8  C    0.000000  -0.000000   0.000050  -0.000362   0.008628  -0.010640
     9  C   -0.000000   0.000000  -0.000234   0.000062  -0.000734  -0.035174
    10  O    0.000000  -0.000000   0.000000  -0.000000   0.000000   0.000566
    11  C    0.000004  -0.000089   0.007996  -0.000664   0.018917  -0.051643
    12  C   -0.000040   0.002010   0.008881  -0.040944  -0.019603   0.486696
    13  C    0.004075  -0.049584   0.505752  -0.058852  -0.075895  -0.030604
    14  H    0.364638  -0.035892  -0.004963   0.004491  -0.000147  -0.000001
    15  H    0.364638  -0.035892  -0.004963   0.004491  -0.000147  -0.000001
    16  H    0.384295  -0.031188   0.003270   0.000165   0.000002   0.000000
    17  H    0.005783  -0.007026  -0.044335   0.351091  -0.034294   0.002522
    18  H   -0.000006  -0.000047   0.002883  -0.041099   0.352995  -0.037356
    19  H    0.000000  -0.000000   0.000009   0.000211  -0.008270  -0.040508
    20  H   -0.000000   0.000000  -0.000000   0.000003  -0.000172   0.003069
    21  H    0.000000   0.000000  -0.000000   0.000000  -0.000001  -0.000026
    22  H    0.000000  -0.000002   0.000094   0.000010  -0.000206   0.005119
    23  H   -0.000223   0.000518  -0.038598   0.007689  -0.000063   0.005259
              7          8          9         10         11         12
     1  C   -0.000000   0.000000  -0.000000   0.000000   0.000004  -0.000040
     2  O    0.000001  -0.000000   0.000000  -0.000000  -0.000089   0.002010
     3  C   -0.000852   0.000050  -0.000234   0.000000   0.007996   0.008881
     4  C    0.009693  -0.000362   0.000062  -0.000000  -0.000664  -0.040944
     5  C   -0.103091   0.008628  -0.000734   0.000000   0.018917  -0.019603
     6  C    0.438384  -0.010640  -0.035174   0.000566  -0.051643   0.486696
     7  C    5.140544   0.497537  -0.001352   0.002641  -0.077129  -0.024467
     8  C    0.497537   4.995010   0.506986  -0.047779  -0.061265  -0.035010
     9  C   -0.001352   0.506986   4.507184   0.278851   0.468390   0.019191
    10  O    0.002641  -0.047779   0.278851   8.225103  -0.055091   0.004441
    11  C   -0.077129  -0.061265   0.468390  -0.055091   5.421147   0.375400
    12  C   -0.024467  -0.035010   0.019191   0.004441   0.375400   4.688804
    13  C    0.016932  -0.000327   0.006509  -0.000098  -0.084322   0.422823
    14  H    0.000000   0.000000  -0.000000   0.000000  -0.000000   0.000004
    15  H    0.000000   0.000000  -0.000000   0.000000  -0.000000   0.000004
    16  H   -0.000000   0.000000   0.000000  -0.000000  -0.000000   0.000001
    17  H   -0.000197   0.000004  -0.000001   0.000000   0.000010   0.001027
    18  H   -0.008263   0.000170   0.000014   0.000000  -0.000215   0.004237
    19  H    0.354864  -0.042951   0.004161  -0.000062   0.000589   0.004461
    20  H   -0.037040   0.345495  -0.034647  -0.001105   0.006497   0.000498
    21  H   -0.000166   0.005925  -0.034563   0.244846  -0.003413   0.001065
    22  H    0.000433   0.004975  -0.049165  -0.005551   0.337074  -0.027887
    23  H   -0.000152   0.000006   0.000194  -0.000000  -0.010468  -0.042354
             13         14         15         16         17         18
     1  C    0.004075   0.364638   0.364638   0.384295   0.005783  -0.000006
     2  O   -0.049584  -0.035892  -0.035892  -0.031188  -0.007026  -0.000047
     3  C    0.505752  -0.004963  -0.004963   0.003270  -0.044335   0.002883
     4  C   -0.058852   0.004491   0.004491   0.000165   0.351091  -0.041099
     5  C   -0.075895  -0.000147  -0.000147   0.000002  -0.034294   0.352995
     6  C   -0.030604  -0.000001  -0.000001   0.000000   0.002522  -0.037356
     7  C    0.016932   0.000000   0.000000  -0.000000  -0.000197  -0.008263
     8  C   -0.000327   0.000000   0.000000   0.000000   0.000004   0.000170
     9  C    0.006509  -0.000000  -0.000000   0.000000  -0.000001   0.000014
    10  O   -0.000098   0.000000   0.000000  -0.000000   0.000000   0.000000
    11  C   -0.084322  -0.000000  -0.000000  -0.000000   0.000010  -0.000215
    12  C    0.422823   0.000004   0.000004   0.000001   0.001027   0.004237
    13  C    5.285104   0.000071   0.000071  -0.000089   0.004161   0.000694
    14  H    0.000071   0.597351  -0.046179  -0.033946   0.001755   0.000002
    15  H    0.000071  -0.046179   0.597351  -0.033946   0.001755   0.000002
    16  H   -0.000089  -0.033946  -0.033946   0.543664  -0.000113  -0.000000
    17  H    0.004161   0.001755   0.001755  -0.000113   0.593827  -0.005249
    18  H    0.000694   0.000002   0.000002  -0.000000  -0.005249   0.593467
    19  H   -0.000203   0.000000   0.000000  -0.000000  -0.000012   0.006134
    20  H    0.000012   0.000000   0.000000  -0.000000  -0.000000  -0.000010
    21  H   -0.000017   0.000000   0.000000  -0.000000  -0.000000   0.000000
    22  H   -0.009575  -0.000000  -0.000000  -0.000000  -0.000000   0.000003
    23  H    0.341774   0.000031   0.000031  -0.000027  -0.000176   0.000018
             19         20         21         22         23
     1  C    0.000000  -0.000000   0.000000   0.000000  -0.000223
     2  O   -0.000000   0.000000   0.000000  -0.000002   0.000518
     3  C    0.000009  -0.000000  -0.000000   0.000094  -0.038598
     4  C    0.000211   0.000003   0.000000   0.000010   0.007689
     5  C   -0.008270  -0.000172  -0.000001  -0.000206  -0.000063
     6  C   -0.040508   0.003069  -0.000026   0.005119   0.005259
     7  C    0.354864  -0.037040  -0.000166   0.000433  -0.000152
     8  C   -0.042951   0.345495   0.005925   0.004975   0.000006
     9  C    0.004161  -0.034647  -0.034563  -0.049165   0.000194
    10  O   -0.000062  -0.001105   0.244846  -0.005551  -0.000000
    11  C    0.000589   0.006497  -0.003413   0.337074  -0.010468
    12  C    0.004461   0.000498   0.001065  -0.027887  -0.042354
    13  C   -0.000203   0.000012  -0.000017  -0.009575   0.341774
    14  H    0.000000   0.000000   0.000000  -0.000000   0.000031
    15  H    0.000000   0.000000   0.000000  -0.000000   0.000031
    16  H   -0.000000  -0.000000  -0.000000  -0.000000  -0.000027
    17  H   -0.000012  -0.000000  -0.000000  -0.000000  -0.000176
    18  H    0.006134  -0.000010   0.000000   0.000003   0.000018
    19  H    0.595122  -0.005661   0.000006   0.000018   0.000003
    20  H   -0.005661   0.585294  -0.000316  -0.000181  -0.000000
    21  H    0.000006  -0.000316   0.370229   0.007567   0.000006
    22  H    0.000018  -0.000181   0.007567   0.615753   0.006238
    23  H    0.000003  -0.000000   0.000006   0.006238   0.601031
 Mulliken atomic charges:
              1
     1  C   -0.216802
     2  O   -0.510644
     3  C    0.384397
     4  C   -0.201726
     5  C   -0.210472
     6  C    0.153492
     7  C   -0.208320
     8  C   -0.166450
     9  C    0.364327
    10  O   -0.646762
    11  C   -0.291726
    12  C    0.170761
    13  C   -0.278413
    14  H    0.152787
    15  H    0.152787
    16  H    0.167911
    17  H    0.129468
    18  H    0.131627
    19  H    0.132091
    20  H    0.138265
    21  H    0.408857
    22  H    0.115283
    23  H    0.129263
 Sum of Mulliken atomic charges =  -0.00000
 Mulliken charges with hydrogens summed into heavy atoms:
              1
     1  C    0.256682
     2  O   -0.510644
     3  C    0.384397
     4  C   -0.072258
     5  C   -0.078845
     6  C    0.153492
     7  C   -0.076228
     8  C   -0.028186
     9  C    0.364327
    10  O   -0.237905
    11  C   -0.176443
    12  C    0.170761
    13  C   -0.149150
 Sum of Mulliken charges with hydrogens summed into heavy atoms =  -0.00000
 Electronic spatial extent (au):  <R**2>=           2854.1386
 Charge=             -0.0000 electrons
 Dipole moment (field-independent basis, Debye):
    X=              1.6925    Y=              0.0769    Z=              0.0000  Tot=              1.6942
 Quadrupole moment (field-independent basis, Debye-Ang):
   XX=            -66.4049   YY=            -64.9396   ZZ=            -78.5627
   XY=              6.2117   XZ=              0.0000   YZ=             -0.0000
 Traceless Quadrupole moment (field-independent basis, Debye-Ang):
   XX=              3.5642   YY=              5.0294   ZZ=             -8.5936
   XY=              6.2117   XZ=              0.0000   YZ=             -0.0000
 Octapole moment (field-independent basis, Debye-Ang**2):
  XXX=             83.1540  YYY=            -16.0611  ZZZ=              0.0000  XYY=            -27.1867
  XXY=             -5.2835  XXZ=              0.0003  XZZ=              3.2572  YZZ=             -4.9632
  YYZ=              0.0000  XYZ=             -0.0000
 Hexadecapole moment (field-independent basis, Debye-Ang**3):
 XXXX=          -2749.5461 YYYY=           -576.5669 ZZZZ=            -84.4485 XXXY=             26.9397
 XXXZ=              0.0007 YYYX=             66.5864 YYYZ=             -0.0001 ZZZX=             -0.0001
 ZZZY=             -0.0000 XXYY=           -517.2562 XXZZ=           -517.5376 YYZZ=           -133.8831
 XXYZ=             -0.0005 YYXZ=             -0.0001 ZZXY=              4.6894
 N-N= 7.304268795572D+02 E-N=-2.800268218698D+03  KE= 5.704430478347D+02
 No NMR shielding tensors so no spin-rotation constants.
 Leave Link  601 at Fri Sep  3 00:04:57 2021, MaxMem=  268435456 cpu:       0.3
 (Enter /sw/target/amd/app/gaussian/Gaussian09RevA.02_gcc-4.9.2/g09/l701.exe)
 Compute integral first derivatives.
 ... and contract with generalized density number  0.
 Leave Link  701 at Fri Sep  3 00:04:57 2021, MaxMem=  268435456 cpu:       0.3
 (Enter /sw/target/amd/app/gaussian/Gaussian09RevA.02_gcc-4.9.2/g09/l702.exe)
 L702 exits ... SP integral derivatives will be done elsewhere.
 Leave Link  702 at Fri Sep  3 00:04:57 2021, MaxMem=  268435456 cpu:       0.0
 (Enter /sw/target/amd/app/gaussian/Gaussian09RevA.02_gcc-4.9.2/g09/l703.exe)
 Compute integral first derivatives, UseDBF=F ICtDFT=           0.
 Integral derivatives from FoFDir, PRISM(SPDF).
 Calling FoFJK, ICntrl=      2127 FMM=F ISym2X=0 I1Cent= 0 IOpClX= 0 NMat=1 NMatS=1 NMatT=0.
 FoFCou: FMM=F IPFlag=           0 FMFlag=      100000 FMFlg1=         800
         NFxFlg=           0 DoJE=F BraDBF=F KetDBF=F FulRan=T
         Omega=  0.000000  0.000000  1.000000  0.000000  0.000000 ICntrl=    2127 IOpCl=  0
         NMat0=    1 NMatS0=    1 NMatT0=    0 NMatD0=    1 NMtDS0=    0 NMtDT0=    0
         I1Cent=           0 NGrid=           0.
 Symmetry not used in FoFCou.
 Leave Link  703 at Fri Sep  3 00:05:39 2021, MaxMem=  268435456 cpu:      41.7
 (Enter /sw/target/amd/app/gaussian/Gaussian09RevA.02_gcc-4.9.2/g09/l716.exe)
 Dipole        = 6.65872642D-01 3.02463948D-02 7.42381410D-06
 ***** Axes restored to original set *****
 -------------------------------------------------------------------
 Center     Atomic                   Forces (Hartrees/Bohr)
 Number     Number              X              Y              Z
 -------------------------------------------------------------------
      1        6          -0.002400606    0.004522021    0.001043802
      2        8          -0.005970893   -0.005477945   -0.001460259
      3        6           0.015117736    0.027431640    0.006986778
      4        6           0.008503053   -0.027726437   -0.006537256
      5        6          -0.023626081    0.006136155    0.000967204
      6        6          -0.001417299   -0.016579582   -0.004052707
      7        6           0.027812521    0.006875517    0.002281383
      8        6          -0.010563637   -0.033080570   -0.008256395
      9        6          -0.012002684    0.029478725    0.006884786
     10        8           0.005454882    0.000349676    0.000205225
     11        6           0.016575183   -0.004048981   -0.000616169
     12        6          -0.006615019    0.013646353    0.003163732
     13        6          -0.013593603   -0.000561704   -0.000436013
     14        1           0.000179544   -0.003489346   -0.001469785
     15        1           0.000153405   -0.003776650   -0.000285134
     16        1           0.003857228    0.002649876    0.000727709
     17        1          -0.001094683    0.001574046    0.000357655
     18        1           0.001264935    0.000959058    0.000260451
     19        1          -0.001964041    0.000386616    0.000050469
     20        1           0.000328471    0.001869708    0.000460698
     21        1           0.000513685   -0.001459708   -0.000342716
     22        1          -0.000043208    0.001678589    0.000406055
     23        1          -0.000468889   -0.001357056   -0.000339514
 -------------------------------------------------------------------
 Cartesian Forces:  Max     0.033080570 RMS     0.009984889
 Leave Link  716 at Fri Sep  3 00:05:39 2021, MaxMem=  268435456 cpu:       0.0
 (Enter /sw/target/amd/app/gaussian/Gaussian09RevA.02_gcc-4.9.2/g09/l103.exe)

 GradGradGradGradGradGradGradGradGradGradGradGradGradGradGradGradGradGrad
 Berny optimization.
 Internal  Forces:  Max     0.023787947 RMS     0.004884115
 Search for a local minimum.
 Step number   1 out of a maximum of  123
 All quantities printed in internal units (Hartrees-Bohrs-Radians)
 RMS Force = .48841D-02 SwitMx=.10000D-02 MixMth= 1
 Mixed Optimization -- RFO/linear search
 Second derivative matrix not updated -- first step.
     Eigenvalues ---    0.01400   0.01987   0.01999   0.02007   0.02066
     Eigenvalues ---    0.02070   0.02073   0.02089   0.02096   0.02103
     Eigenvalues ---    0.02114   0.02132   0.02134   0.02154   0.02169
     Eigenvalues ---    0.02194   0.02195   0.02220   0.09988   0.10543
     Eigenvalues ---    0.16000   0.16000   0.16000   0.16000   0.16000
     Eigenvalues ---    0.16000   0.16000   0.16000   0.16000   0.16000
     Eigenvalues ---    0.22268   0.22592   0.23427   0.23612   0.24465
     Eigenvalues ---    0.24775   0.25000   0.25000   0.25000   0.34239
     Eigenvalues ---    0.34239   0.34323   0.35045   0.35046   0.35109
     Eigenvalues ---    0.35259   0.35282   0.35435   0.38722   0.41056
     Eigenvalues ---    0.41699   0.42154   0.43693   0.44578   0.45332
     Eigenvalues ---    0.45549   0.45790   0.46143   0.46372   0.47232
     Eigenvalues ---    0.51344   0.52166   0.531341000.000001000.00000
     Eigenvalues --- 1000.000001000.000001000.000001000.000001000.00000
     Eigenvalues --- 1000.000001000.000001000.000001000.000001000.00000
     Eigenvalues --- 1000.000001000.000001000.000001000.000001000.00000
     Eigenvalues --- 1000.000001000.000001000.000001000.000001000.00000
     Eigenvalues --- 1000.000001000.000001000.000001000.000001000.00000
     Eigenvalues --- 1000.000001000.000001000.000001000.000001000.00000
     Eigenvalues --- 1000.000001000.000001000.000001000.000001000.00000
     Eigenvalues --- 1000.000001000.000001000.000001000.000001000.00000
     Eigenvalues --- 1000.000001000.000001000.000001000.000001000.00000
     Eigenvalues --- 1000.000001000.000001000.00000
 RFO step:  Lambda=-6.76897439D-03 EMin= 1.40016751D-02
 Linear search not attempted -- first point.
 Iteration  1 RMS(Cart)=  0.02139800 RMS(Int)=  0.00017497
 Iteration  2 RMS(Cart)=  0.00028146 RMS(Int)=  0.00002474
 Iteration  3 RMS(Cart)=  0.00000002 RMS(Int)=  0.00002474
 Variable       Old X    -DE/DX   Delta X   Delta X   Delta X     New X
                                 (Linear)    (Quad)   (Total)
    R1        2.68728  -0.00149   0.00000  -0.00348  -0.00348   2.68380
    R2        2.06929   0.00157   0.00000   0.00449   0.00449   2.07378
    R3        2.06929   0.00157   0.00000   0.00449   0.00449   2.07378
    R4        2.06788  -0.00102   0.00000  -0.00292  -0.00292   2.06496
    R5        2.58533   0.00036   0.00000   0.00069   0.00069   2.58602
    R6        2.63218   0.01853   0.00000   0.03779   0.03778   2.66995
    R7        2.64238  -0.00803   0.00000  -0.01759  -0.01760   2.62478
    R8        2.64423  -0.01370   0.00000  -0.03039  -0.03038   2.61384
    R9        2.04974  -0.00003   0.00000  -0.00007  -0.00007   2.04967
   R10        2.65123   0.00994   0.00000   0.02206   0.02207   2.67330
   R11        2.05600  -0.00095   0.00000  -0.00267  -0.00267   2.05333
   R12        2.65418   0.01284   0.00000   0.02839   0.02840   2.68258
   R13        2.67100   0.01886   0.00000   0.04537   0.04542   2.71642
   R14        2.63662  -0.01457   0.00000  -0.03197  -0.03199   2.60463
   R15        2.05498  -0.00052   0.00000  -0.00146  -0.00146   2.05352
   R16        2.62226   0.02379   0.00000   0.04794   0.04790   2.67016
   R17        2.05257  -0.00058   0.00000  -0.00161  -0.00161   2.05095
   R18        2.57741   0.00456   0.00000   0.00863   0.00863   2.58604
   R19        2.63118  -0.00640   0.00000  -0.01368  -0.01369   2.61749
   R20        1.83529  -0.00157   0.00000  -0.00291  -0.00291   1.83238
   R21        2.65564   0.01194   0.00000   0.02734   0.02737   2.68301
   R22        2.05220   0.00173   0.00000   0.00481   0.00481   2.05701
   R23        2.65509   0.00699   0.00000   0.01625   0.01625   2.67134
   R24        2.05602  -0.00137   0.00000  -0.00382  -0.00382   2.05220
    A1        1.93966   0.00198   0.00000   0.01080   0.01086   1.95051
    A2        1.93966   0.00198   0.00000   0.01080   0.01086   1.95051
    A3        1.88113  -0.00649   0.00000  -0.03689  -0.03679   1.84433
    A4        1.94106  -0.00362   0.00000  -0.02525  -0.02522   1.91583
    A5        1.87963   0.00306   0.00000   0.02039   0.02048   1.90011
    A6        1.87963   0.00306   0.00000   0.02039   0.02048   1.90011
    A7        2.04002   0.00504   0.00000   0.01961   0.01961   2.05963
    A8        2.19976  -0.00894   0.00000  -0.03366  -0.03365   2.16611
    A9        2.00084   0.00446   0.00000   0.01855   0.01856   2.01940
   A10        2.08259   0.00448   0.00000   0.01511   0.01509   2.09768
   A11        2.09670  -0.00079   0.00000  -0.00722  -0.00722   2.08948
   A12        2.12778  -0.00160   0.00000  -0.00834  -0.00835   2.11943
   A13        2.05871   0.00239   0.00000   0.01557   0.01557   2.07427
   A14        2.11102   0.00249   0.00000   0.01063   0.01066   2.12168
   A15        2.07369   0.00009   0.00000   0.00269   0.00267   2.07636
   A16        2.09847  -0.00258   0.00000  -0.01332  -0.01333   2.08514
   A17        2.11998   0.00561   0.00000   0.01855   0.01850   2.13849
   A18        2.07952  -0.00281   0.00000  -0.00880  -0.00879   2.07073
   A19        2.08368  -0.00280   0.00000  -0.00975  -0.00971   2.07397
   A20        2.10507   0.00284   0.00000   0.01110   0.01108   2.11616
   A21        2.10364  -0.00340   0.00000  -0.01743  -0.01743   2.08622
   A22        2.07447   0.00056   0.00000   0.00634   0.00634   2.08081
   A23        2.08817   0.00168   0.00000   0.00294   0.00288   2.09105
   A24        2.09934   0.00108   0.00000   0.01005   0.01008   2.10942
   A25        2.09567  -0.00276   0.00000  -0.01299  -0.01296   2.08271
   A26        2.05397  -0.00535   0.00000  -0.01963  -0.01961   2.03436
   A27        2.11003   0.00006   0.00000  -0.00220  -0.00224   2.10779
   A28        2.11918   0.00529   0.00000   0.02183   0.02185   2.14104
   A29        1.89600   0.00034   0.00000   0.00202   0.00202   1.89801
   A30        2.09529   0.00138   0.00000   0.00805   0.00808   2.10337
   A31        2.09949  -0.00072   0.00000  -0.00421  -0.00422   2.09527
   A32        2.08841  -0.00066   0.00000  -0.00384  -0.00385   2.08455
   A33        2.08412  -0.00317   0.00000  -0.01014  -0.01008   2.07404
   A34        2.07872  -0.00188   0.00000  -0.00494  -0.00496   2.07376
   A35        2.12035   0.00504   0.00000   0.01509   0.01504   2.13539
   A36        2.11782  -0.00149   0.00000  -0.00476  -0.00477   2.11305
   A37        2.06869   0.00016   0.00000  -0.00110  -0.00109   2.06760
   A38        2.09667   0.00132   0.00000   0.00586   0.00587   2.10254
    D1        1.08582  -0.00090   0.00000  -0.00848  -0.00843   1.07740
    D2       -1.08583   0.00090   0.00000   0.00848   0.00843  -1.07741
    D3        3.14159   0.00000   0.00000   0.00000   0.00000   3.14159
    D4        0.00001  -0.00000   0.00000  -0.00000  -0.00000   0.00001
    D5       -3.14158  -0.00000   0.00000  -0.00000  -0.00000  -3.14159
    D6        3.14159  -0.00000   0.00000   0.00000   0.00000   3.14159
    D7        0.00000  -0.00000   0.00000  -0.00000  -0.00000  -0.00000
    D8       -0.00000   0.00000   0.00000   0.00000   0.00000  -0.00000
    D9       -3.14159  -0.00000   0.00000  -0.00000  -0.00000  -3.14159
   D10        3.14159   0.00000   0.00000   0.00000   0.00000  -3.14159
   D11        0.00000  -0.00000   0.00000   0.00000   0.00000   0.00000
   D12        0.00000  -0.00000   0.00000  -0.00000  -0.00000   0.00000
   D13       -3.14159  -0.00000   0.00000  -0.00000  -0.00000  -3.14159
   D14        0.00000  -0.00000   0.00000  -0.00000  -0.00000   0.00000
   D15       -3.14159  -0.00000   0.00000  -0.00000  -0.00000   3.14159
   D16        3.14159  -0.00000   0.00000  -0.00000  -0.00000   3.14159
   D17       -0.00000   0.00000   0.00000   0.00000   0.00000  -0.00000
   D18       -3.14159  -0.00000   0.00000  -0.00000  -0.00000  -3.14159
   D19       -0.00000   0.00000   0.00000   0.00000   0.00000   0.00000
   D20        0.00000  -0.00000   0.00000  -0.00000  -0.00000   0.00000
   D21       -3.14159  -0.00000   0.00000  -0.00000  -0.00000  -3.14159
   D22       -3.14159  -0.00000   0.00000  -0.00000  -0.00000  -3.14159
   D23        0.00000   0.00000   0.00000   0.00000   0.00000   0.00000
   D24        0.00000  -0.00000   0.00000  -0.00000  -0.00000   0.00000
   D25       -3.14159  -0.00000   0.00000  -0.00000  -0.00000  -3.14159
   D26        3.14159   0.00000   0.00000   0.00000   0.00000   3.14159
   D27       -0.00000   0.00000   0.00000   0.00000   0.00000  -0.00000
   D28       -0.00000   0.00000   0.00000   0.00000   0.00000  -0.00000
   D29        3.14159   0.00000   0.00000   0.00000   0.00000   3.14159
   D30       -0.00000   0.00000   0.00000   0.00000   0.00000   0.00000
   D31        3.14159   0.00000   0.00000   0.00000   0.00000  -3.14159
   D32        3.14159   0.00000   0.00000   0.00000   0.00000   3.14159
   D33       -0.00000   0.00000   0.00000   0.00000   0.00000   0.00000
   D34       -3.14159  -0.00000   0.00000  -0.00000  -0.00000   3.14159
   D35       -0.00000   0.00000   0.00000   0.00000   0.00000  -0.00000
   D36        0.00000  -0.00000   0.00000  -0.00000  -0.00000  -0.00000
   D37        3.14159   0.00000   0.00000   0.00000   0.00000   3.14159
   D38       -3.14159   0.00000   0.00000   0.00000   0.00000  -3.14159
   D39        0.00000  -0.00000   0.00000  -0.00000  -0.00000   0.00000
   D40        0.00000  -0.00000   0.00000  -0.00000  -0.00000   0.00000
   D41        3.14159   0.00000   0.00000   0.00000   0.00000   3.14159
   D42        3.14159  -0.00000   0.00000   0.00000   0.00000  -3.14159
   D43       -0.00000   0.00000   0.00000   0.00000   0.00000  -0.00000
   D44        0.00000  -0.00000   0.00000  -0.00000  -0.00000   0.00000
   D45       -3.14159  -0.00000   0.00000  -0.00000  -0.00000  -3.14159
   D46       -3.14159  -0.00000   0.00000  -0.00000  -0.00000  -3.14159
   D47        0.00000  -0.00000   0.00000  -0.00000  -0.00000   0.00000
   D48        0.00000  -0.00000   0.00000  -0.00000  -0.00000   0.00000
   D49        3.14159  -0.00000   0.00000   0.00000   0.00000   3.14159
   D50       -3.14159  -0.00000   0.00000  -0.00000  -0.00000  -3.14159
   D51       -0.00000   0.00000   0.00000   0.00000   0.00000  -0.00000
         Item               Value     Threshold  Converged?
 Maximum Force            0.023788     0.000450     NO 
 RMS     Force            0.004884     0.000300     NO 
 Maximum Displacement     0.107574     0.001800     NO 
 RMS     Displacement     0.021373     0.001200     NO 
 Predicted change in Energy=-3.449336D-03
 GradGradGradGradGradGradGradGradGradGradGradGradGradGradGradGradGradGrad

 Leave Link  103 at Fri Sep  3 00:05:39 2021, MaxMem=  268435456 cpu:       0.0
 (Enter /sw/target/amd/app/gaussian/Gaussian09RevA.02_gcc-4.9.2/g09/l202.exe)
                          Input orientation:                          
 ---------------------------------------------------------------------
 Center     Atomic      Atomic             Coordinates (Angstroms)
 Number     Number       Type             X           Y           Z
 ---------------------------------------------------------------------
      1          6           0       -4.122869    0.395754    0.010581
      2          8           0       -2.899351    1.089891    0.205919
      3          6           0       -1.732819    0.389114    0.061692
      4          6           0       -1.668530   -0.982859   -0.269642
      5          6           0       -0.437588   -1.601632   -0.392559
      6          6           0        0.770551   -0.892955   -0.194026
      7          6           0        2.044551   -1.507331   -0.314928
      8          6           0        3.205363   -0.791402   -0.115680
      9          6           0        3.136403    0.580488    0.215532
     10          8           0        4.328848    1.226480    0.398517
     11          6           0        1.913350    1.217984    0.343165
     12          6           0        0.703277    0.502822    0.143016
     13          6           0       -0.565518    1.114365    0.263345
     14          1           0       -4.247651   -0.420069    0.733864
     15          1           0       -4.209177    0.002994   -1.010481
     16          1           0       -4.910900    1.135235    0.172549
     17          1           0       -2.567071   -1.568410   -0.431483
     18          1           0       -0.402381   -2.657215   -0.647799
     19          1           0        2.108691   -2.561869   -0.569278
     20          1           0        4.176153   -1.267468   -0.209726
     21          1           0        4.150352    2.153602    0.619441
     22          1           0        1.873840    2.275339    0.598742
     23          1           0       -0.647525    2.167144    0.516873
 ---------------------------------------------------------------------
                    Distance matrix (angstroms):
                    1          2          3          4          5
     1  C    0.000000
     2  O    1.420204   0.000000
     3  C    2.390606   1.368462   0.000000
     4  C    2.828937   2.457106   1.412878   0.000000
     5  C    4.211101   3.696316   2.418065   1.383187   0.000000
     6  C    5.064405   4.190443   2.824173   2.441908   1.414651
     7  C    6.462566   5.608833   4.243450   3.750212   2.485142
     8  C    7.424842   6.396110   5.080425   4.880081   3.742222
     9  C    7.264515   6.057220   4.875409   5.076104   4.231411
    10  O    8.501302   7.232055   6.128494   6.426209   5.598476
    11  C    6.101035   4.816362   3.749773   4.248424   3.744120
    12  C    4.829150   3.650690   2.440104   2.828958   2.452986
    13  C    3.638000   2.334668   1.388972   2.428798   2.797001
    14  H    1.097396   2.092037   2.725981   2.824115   4.145058
    15  H    1.097396   2.092037   2.725986   2.824117   4.145062
    16  H    1.092730   2.012336   3.266372   3.898053   5.274496
    17  H    2.544380   2.753771   2.184284   1.084638   2.130098
    18  H    4.857584   4.583067   3.399054   2.132980   1.086574
    19  H    6.922147   6.246341   4.885041   4.104930   2.727053
    20  H    8.466913   7.469448   6.142791   5.851915   4.629438
    21  H    8.479795   7.141484   6.167349   6.669875   6.014575
    22  H    6.311838   4.933858   4.105393   4.890637   4.621286
    23  H    3.933468   2.515529   2.132239   3.403465   3.882629
                    6          7          8          9         10
     6  C    0.000000
     7  C    1.419560   0.000000
     8  C    2.438188   1.378310   0.000000
     9  C    2.817097   2.415061   1.412990   0.000000
    10  O    4.183849   3.633282   2.366108   1.368471   0.000000
    11  C    2.459803   2.806714   2.432585   1.385117   2.416147
    12  C    1.437469   2.459561   2.828847   2.435445   3.705904
    13  C    2.454303   3.744348   4.242069   3.740526   4.897516
    14  H    5.125129   6.471005   7.510462   7.469541   8.739561
    15  H    5.125136   6.471011   7.510469   7.469549   8.739569
    16  H    6.043742   7.456479   8.346780   8.066516   9.242961
    17  H    3.413553   4.613499   5.833050   6.129112   7.486923
    18  H    2.166632   2.724062   4.096368   4.873506   6.209863
    19  H    2.171798   1.086674   2.131430   3.398019   4.496367
    20  H    3.426169   2.147633   1.085318   2.162607   2.571586
    21  H    4.622369   4.325491   3.179065   1.914659   0.969651
    22  H    3.447291   3.895193   3.418809   2.147891   2.677174
    23  H    3.446813   4.630435   4.898762   4.114170   5.065881
                   11         12         13         14         15
    11  C    0.000000
    12  C    1.419787   0.000000
    13  C    2.482317   1.413614   0.000000
    14  H    6.387002   5.070751   4.016712   0.000000
    15  H    6.387011   5.070759   4.016719   1.795329   0.000000
    16  H    6.826884   5.649761   4.346381   1.781557   1.781557
    17  H    5.332752   3.913467   3.418520   2.345436   2.345434
    18  H    4.621882   3.440015   3.883505   4.658317   4.658320
    19  H    3.893328   3.445995   4.621618   6.832903   6.832909
    20  H    3.406382   3.913977   5.327322   8.518739   8.518746
    21  H    2.440468   3.851542   4.842132   8.784266   8.784275
    22  H    1.088522   2.172492   2.722282   6.690003   6.690012
    23  H    2.736633   2.175868   1.085977   4.438655   4.438662
                   16         17         18         19         20
    16  H    0.000000
    17  H    3.628785   0.000000
    18  H    5.948310   2.432730   0.000000
    19  H    7.968284   4.782123   2.514108   0.000000
    20  H    9.407106   6.753578   4.804818   2.465593   0.000000
    21  H    9.129242   7.751231   6.743681   5.274192   3.520214
    22  H    6.893053   5.963008   5.573611   4.981768   4.301831
    23  H    4.399973   4.305624   4.969004   5.580324   5.965934
                   21         22         23
    21  H    0.000000
    22  H    2.279858   0.000000
    23  H    4.798992   2.525013   0.000000
 Stoichiometry    C11H10O2
 Framework group  C1[X(C11H10O2)]
 Deg. of freedom    63
 Full point group                 C1      NOp   1
 Largest Abelian subgroup         C1      NOp   1
 Largest concise Abelian subgroup C1      NOp   1
                         Standard orientation:                         
 ---------------------------------------------------------------------
 Center     Atomic      Atomic             Coordinates (Angstroms)
 Number     Number       Type             X           Y           Z
 ---------------------------------------------------------------------
      1          6           0        4.405186   -0.344914    0.000004
      2          8           0        3.172673   -1.050530   -0.000004
      3          6           0        2.014696   -0.321300   -0.000002
      4          6           0        1.967641    1.090794   -0.000001
      5          6           0        0.744209    1.736101   -0.000000
      6          6           0       -0.473103    1.015415   -0.000000
      7          6           0       -1.739658    1.656500   -0.000000
      8          6           0       -2.909725    0.928020    0.000000
      9          6           0       -2.857997   -0.484023    0.000000
     10          8           0       -4.058824   -1.140322    0.000001
     11          6           0       -1.642691   -1.148539    0.000000
     12          6           0       -0.423362   -0.421193   -0.000000
     13          6           0        0.838022   -1.059326   -0.000001
     14          1           0        4.518346    0.276107    0.897670
     15          1           0        4.518355    0.276111   -0.897658
     16          1           0        5.184092   -1.111310    0.000006
     17          1           0        2.873740    1.686968   -0.000001
     18          1           0        0.722265    2.822453    0.000001
     19          1           0       -1.790555    2.741981   -0.000001
     20          1           0       -3.874742    1.424667   -0.000000
     21          1           0       -3.891944   -2.095505    0.000002
     22          1           0       -1.616465   -2.236745    0.000001
     23          1           0        0.906812   -2.143122   -0.000001
 ---------------------------------------------------------------------
 Rotational constants (GHZ):      2.3071531      0.4370846      0.3683386
 Leave Link  202 at Fri Sep  3 00:05:39 2021, MaxMem=  268435456 cpu:       0.0
 (Enter /sw/target/amd/app/gaussian/Gaussian09RevA.02_gcc-4.9.2/g09/l301.exe)
[...]
    19  H    3.892706   3.440600   4.615992   6.824199   6.824202
    20  H    3.400060   3.913745   5.327241   8.525396   8.525400
    21  H    2.448055   3.861092   4.851762   8.796394   8.796398
    22  H    1.089073   2.171299   2.716494   6.687297   6.687301
    23  H    2.733902   2.174786   1.086154   4.445500   4.445503
                   16         17         18         19         20
    16  H    0.000000
    17  H    3.620264   0.000000
    18  H    5.959140   2.452668   0.000000
    19  H    7.960339   4.779326   2.491355   0.000000
    20  H    9.410278   6.765747   4.803204   2.487222   0.000000
    21  H    9.138478   7.758262   6.738727   5.278181   3.501876
    22  H    6.885441   5.955859   5.565434   4.981770   4.297484
    23  H    4.402493   4.301875   4.969542   5.574003   5.960535
                   21         22         23
    21  H    0.000000
    22  H    2.297496   0.000000
    23  H    4.805970   2.514565   0.000000
 Stoichiometry    C11H10O2
 Framework group  C1[X(C11H10O2)]
 Deg. of freedom    63
 Full point group                 C1      NOp   1
 Largest Abelian subgroup         C1      NOp   1
 Largest concise Abelian subgroup C1      NOp   1
                         Standard orientation:                         
 ---------------------------------------------------------------------
 Center     Atomic      Atomic             Coordinates (Angstroms)
 Number     Number       Type             X           Y           Z
 ---------------------------------------------------------------------
      1          6           0        4.407462   -0.346511    0.000002
      2          8           0        3.173420   -1.044910   -0.000001
      3          6           0        2.011323   -0.324504   -0.000001
      4          6           0        1.965615    1.093789   -0.000001
      5          6           0        0.744436    1.734519   -0.000000
      6          6           0       -0.473178    1.014065   -0.000000
      7          6           0       -1.743271    1.654074    0.000000
      8          6           0       -2.908456    0.929637    0.000000
      9          6           0       -2.853334   -0.490118    0.000000
     10          8           0       -4.059560   -1.134727    0.000000
     11          6           0       -1.642942   -1.149248   -0.000000
     12          6           0       -0.421943   -0.419906   -0.000000
     13          6           0        0.838535   -1.059885   -0.000001
     14          1           0        4.521008    0.279880    0.894799
     15          1           0        4.521012    0.279881   -0.894794
     16          1           0        5.183837   -1.114093    0.000003
     17          1           0        2.878770    1.677498   -0.000001
     18          1           0        0.709326    2.821653   -0.000000
     19          1           0       -1.780724    2.741018    0.000000
     20          1           0       -3.881677    1.409751    0.000001
     21          1           0       -3.902160   -2.092066    0.000000
     22          1           0       -1.609291   -2.237801   -0.000000
     23          1           0        0.903528   -2.144092   -0.000001
 ---------------------------------------------------------------------
 Rotational constants (GHZ):      2.3117164      0.4370757      0.3684428
 Leave Link  202 at Fri Sep  3 00:23:12 2021, MaxMem=  268435456 cpu:       0.0
 (Enter /sw/target/amd/app/gaussian/Gaussian09RevA.02_gcc-4.9.2/g09/l601.exe)
 Copying SCF densities to generalized density rwf, IOpCl= 0 IROHF=0.

 **********************************************************************

            Population analysis using the SCF density.

 **********************************************************************

 Orbital symmetries:
       Occupied  (A) (A) (A) (A) (A) (A) (A) (A) (A) (A) (A) (A)
                 (A) (A) (A) (A) (A) (A) (A) (A) (A) (A) (A) (A)
                 (A) (A) (A) (A) (A) (A) (A) (A) (A) (A) (A) (A)
                 (A) (A) (A) (A) (A) (A) (A) (A) (A) (A)
       Virtual   (A) (A) (A) (A) (A) (A) (A) (A) (A) (A) (A) (A)
                 (A) (A) (A) (A) (A) (A) (A) (A) (A) (A) (A) (A)
                 (A) (A) (A) (A) (A) (A) (A) (A) (A) (A) (A) (A)
                 (A) (A) (A) (A) (A) (A) (A) (A) (A) (A) (A) (A)
                 (A) (A) (A) (A) (A) (A) (A) (A) (A) (A) (A) (A)
                 (A) (A) (A) (A) (A) (A) (A) (A) (A) (A) (A) (A)
                 (A) (A) (A) (A) (A) (A) (A) (A) (A) (A) (A) (A)
                 (A) (A) (A) (A) (A) (A) (A) (A) (A) (A) (A) (A)
                 (A) (A) (A) (A) (A) (A) (A) (A) (A) (A) (A) (A)
                 (A) (A) (A) (A) (A) (A) (A) (A) (A) (A) (A) (A)
                 (A) (A) (A) (A) (A) (A) (A) (A) (A) (A) (A) (A)
                 (A) (A) (A) (A) (A) (A) (A) (A) (A) (A) (A) (A)
                 (A) (A) (A) (A) (A) (A) (A) (A) (A) (A) (A) (A)
                 (A) (A) (A) (A) (A) (A) (A) (A) (A) (A) (A) (A)
                 (A)
 The electronic state is 1-A.
 Alpha  occ. eigenvalues --  -19.17776 -19.17530 -10.24765 -10.24507 -10.24072
 Alpha  occ. eigenvalues --  -10.19702 -10.19095 -10.19026 -10.18731 -10.18681
 Alpha  occ. eigenvalues --  -10.18340 -10.18118 -10.17645  -1.06084  -1.05751
 Alpha  occ. eigenvalues --   -0.86522  -0.81204  -0.76946  -0.74251  -0.72197
 Alpha  occ. eigenvalues --   -0.68758  -0.63516  -0.59900  -0.59693  -0.54477
 Alpha  occ. eigenvalues --   -0.52957  -0.51139  -0.47393  -0.46685  -0.46331
 Alpha  occ. eigenvalues --   -0.44884  -0.42751  -0.41783  -0.40899  -0.40619
 Alpha  occ. eigenvalues --   -0.39578  -0.37734  -0.37552  -0.35087  -0.33730
 Alpha  occ. eigenvalues --   -0.33576  -0.32164  -0.28206  -0.27421  -0.21281
 Alpha  occ. eigenvalues --   -0.19788
 Alpha virt. eigenvalues --   -0.02964   0.00840   0.04017   0.06997   0.09427
 Alpha virt. eigenvalues --    0.10744   0.11705   0.12294   0.12631   0.14458
 Alpha virt. eigenvalues --    0.15536   0.16741   0.18010   0.19028   0.20233
 Alpha virt. eigenvalues --    0.21064   0.23116   0.26026   0.27049   0.29373
 Alpha virt. eigenvalues --    0.31187   0.32729   0.36331   0.37044   0.40751
 Alpha virt. eigenvalues --    0.46265   0.48852   0.50640   0.51288   0.51815
 Alpha virt. eigenvalues --    0.53483   0.53756   0.54112   0.56480   0.56688
 Alpha virt. eigenvalues --    0.57244   0.57573   0.59497   0.60332   0.60877
 Alpha virt. eigenvalues --    0.62012   0.62442   0.63049   0.63218   0.63589
 Alpha virt. eigenvalues --    0.68410   0.68501   0.69485   0.70304   0.74303
 Alpha virt. eigenvalues --    0.75401   0.77872   0.82610   0.83354   0.83877
 Alpha virt. eigenvalues --    0.83912   0.84598   0.86201   0.86469   0.87595
 Alpha virt. eigenvalues --    0.88328   0.89658   0.91702   0.92371   0.93786
 Alpha virt. eigenvalues --    0.96046   0.96330   0.97022   0.99939   1.02799
 Alpha virt. eigenvalues --    1.04051   1.05153   1.05604   1.08643   1.10947
 Alpha virt. eigenvalues --    1.15816   1.17611   1.19628   1.23334   1.23743
 Alpha virt. eigenvalues --    1.24444   1.25554   1.28736   1.36640   1.36964
 Alpha virt. eigenvalues --    1.37888   1.39373   1.39857   1.43040   1.44746
 Alpha virt. eigenvalues --    1.46999   1.47321   1.48843   1.49311   1.50636
 Alpha virt. eigenvalues --    1.51547   1.52895   1.68909   1.70575   1.73380
 Alpha virt. eigenvalues --    1.75298   1.77392   1.80595   1.84932   1.85154
 Alpha virt. eigenvalues --    1.86821   1.89054   1.90015   1.92608   1.93192
 Alpha virt. eigenvalues --    1.93373   1.95301   1.96621   1.98150   1.98599
 Alpha virt. eigenvalues --    2.03758   2.05535   2.06607   2.09196   2.11158
 Alpha virt. eigenvalues --    2.12425   2.14220   2.16261   2.20101   2.25309
 Alpha virt. eigenvalues --    2.25352   2.27788   2.28975   2.32339   2.32793
 Alpha virt. eigenvalues --    2.34194   2.38460   2.38622   2.42756   2.43182
 Alpha virt. eigenvalues --    2.49649   2.53220   2.56586   2.57456   2.62517
 Alpha virt. eigenvalues --    2.63821   2.68370   2.70014   2.72659   2.75502
 Alpha virt. eigenvalues --    2.79879   2.80831   2.87782   2.89583   2.92836
 Alpha virt. eigenvalues --    2.96960   3.03682   3.09738   3.17170   3.37357
 Alpha virt. eigenvalues --    3.49270   3.94408   4.05209   4.08776   4.12110
 Alpha virt. eigenvalues --    4.12943   4.18943   4.21327   4.29628   4.32737
 Alpha virt. eigenvalues --    4.40217   4.47724   4.64281   4.85098
          Condensed to atoms (all electrons):
              1          2          3          4          5          6
     1  C    4.891468   0.249211  -0.042804  -0.006658   0.000467  -0.000039
     2  O    0.249211   8.203776   0.269782  -0.057681   0.003873   0.000387
     3  C   -0.042804   0.269782   4.540411   0.428040   0.011327  -0.034862
     4  C   -0.006658  -0.057681   0.428040   5.143318   0.465530  -0.008982
     5  C    0.000467   0.003873   0.011327   0.465530   5.126738   0.450125
     6  C   -0.000039   0.000387  -0.034862  -0.008982   0.450125   4.721268
     7  C   -0.000000   0.000001  -0.000773   0.009074  -0.092373   0.439655
     8  C    0.000000  -0.000000   0.000047  -0.000333   0.008118  -0.011548
     9  C   -0.000000   0.000000  -0.000217   0.000050  -0.000615  -0.034495
    10  O    0.000000  -0.000000   0.000000  -0.000000   0.000000   0.000523
    11  C    0.000003  -0.000079   0.007198  -0.000422   0.016285  -0.048872
    12  C   -0.000039   0.001911   0.009227  -0.039970  -0.021258   0.486232
    13  C    0.003857  -0.048807   0.515094  -0.059605  -0.069249  -0.035105
    14  H    0.362837  -0.035339  -0.004305   0.003855  -0.000181  -0.000001
    15  H    0.362837  -0.035339  -0.004305   0.003855  -0.000181  -0.000001
    16  H    0.386676  -0.033866   0.003237   0.000261   0.000003   0.000000
    17  H    0.006192  -0.007502  -0.042970   0.352020  -0.034827   0.002462
    18  H   -0.000006  -0.000051   0.002958  -0.041680   0.350517  -0.037576
    19  H    0.000000  -0.000000   0.000010   0.000169  -0.008246  -0.040809
    20  H   -0.000000  -0.000000  -0.000000   0.000003  -0.000154   0.003020
    21  H    0.000000   0.000000  -0.000000   0.000000  -0.000001  -0.000027
    22  H    0.000000  -0.000002   0.000090   0.000009  -0.000185   0.004819
    23  H   -0.000221   0.000389  -0.038366   0.007443  -0.000155   0.004925
              7          8          9         10         11         12
     1  C   -0.000000   0.000000  -0.000000   0.000000   0.000003  -0.000039
     2  O    0.000001  -0.000000   0.000000  -0.000000  -0.000079   0.001911
     3  C   -0.000773   0.000047  -0.000217   0.000000   0.007198   0.009227
     4  C    0.009074  -0.000333   0.000050  -0.000000  -0.000422  -0.039970
     5  C   -0.092373   0.008118  -0.000615   0.000000   0.016285  -0.021258
     6  C    0.439655  -0.011548  -0.034495   0.000523  -0.048872   0.486232
     7  C    5.103796   0.512905  -0.004302   0.002697  -0.069127  -0.026392
     8  C    0.512905   4.989610   0.492529  -0.047516  -0.062407  -0.033734
     9  C   -0.004302   0.492529   4.522744   0.280385   0.476909   0.019289
    10  O    0.002697  -0.047516   0.280385   8.223566  -0.055559   0.003921
    11  C   -0.069127  -0.062407   0.476909  -0.055559   5.381419   0.379432
    12  C   -0.026392  -0.033734   0.019289   0.003921   0.379432   4.708064
    13  C    0.014802  -0.000281   0.005976  -0.000082  -0.076824   0.425744
    14  H    0.000000   0.000000  -0.000000   0.000000  -0.000000   0.000004
    15  H    0.000000   0.000000  -0.000000   0.000000  -0.000000   0.000004
    16  H   -0.000000   0.000000   0.000000  -0.000000  -0.000000   0.000001
    17  H   -0.000171   0.000003  -0.000000   0.000000   0.000010   0.000916
    18  H   -0.008212   0.000135   0.000014   0.000000  -0.000207   0.004396
    19  H    0.353279  -0.043766   0.004237  -0.000063   0.000526   0.004595
    20  H   -0.037534   0.346437  -0.034562  -0.000631   0.006514   0.000456
    21  H   -0.000173   0.006087  -0.032682   0.242800  -0.003877   0.000850
    22  H    0.000366   0.004902  -0.049338  -0.005397   0.337839  -0.029275
    23  H   -0.000133   0.000005   0.000165  -0.000000  -0.009626  -0.042063
             13         14         15         16         17         18
     1  C    0.003857   0.362837   0.362837   0.386676   0.006192  -0.000006
     2  O   -0.048807  -0.035339  -0.035339  -0.033866  -0.007502  -0.000051
     3  C    0.515094  -0.004305  -0.004305   0.003237  -0.042970   0.002958
     4  C   -0.059605   0.003855   0.003855   0.000261   0.352020  -0.041680
     5  C   -0.069249  -0.000181  -0.000181   0.000003  -0.034827   0.350517
     6  C   -0.035105  -0.000001  -0.000001   0.000000   0.002462  -0.037576
     7  C    0.014802   0.000000   0.000000  -0.000000  -0.000171  -0.008212
     8  C   -0.000281   0.000000   0.000000   0.000000   0.000003   0.000135
     9  C    0.005976  -0.000000  -0.000000   0.000000  -0.000000   0.000014
    10  O   -0.000082   0.000000   0.000000  -0.000000   0.000000   0.000000
    11  C   -0.076824  -0.000000  -0.000000  -0.000000   0.000010  -0.000207
    12  C    0.425744   0.000004   0.000004   0.000001   0.000916   0.004396
    13  C    5.255131   0.000056   0.000056  -0.000092   0.004128   0.000686
    14  H    0.000056   0.601410  -0.049668  -0.032046   0.001809   0.000003
    15  H    0.000056  -0.049668   0.601410  -0.032046   0.001809   0.000003
    16  H   -0.000092  -0.032046  -0.032046   0.538657  -0.000096  -0.000000
    17  H    0.004128   0.001809   0.001809  -0.000096   0.591420  -0.005302
    18  H    0.000686   0.000003   0.000003  -0.000000  -0.005302   0.597641
    19  H   -0.000194   0.000000   0.000000  -0.000000  -0.000011   0.006415
    20  H    0.000011   0.000000   0.000000  -0.000000  -0.000000  -0.000010
    21  H   -0.000012   0.000000   0.000000  -0.000000  -0.000000   0.000000
    22  H   -0.009055  -0.000000  -0.000000  -0.000000  -0.000000   0.000003
    23  H    0.341407   0.000030   0.000030  -0.000030  -0.000169   0.000019
             19         20         21         22         23
     1  C    0.000000  -0.000000   0.000000   0.000000  -0.000221
     2  O   -0.000000  -0.000000   0.000000  -0.000002   0.000389
     3  C    0.000010  -0.000000  -0.000000   0.000090  -0.038366
     4  C    0.000169   0.000003   0.000000   0.000009   0.007443
     5  C   -0.008246  -0.000154  -0.000001  -0.000185  -0.000155
     6  C   -0.040809   0.003020  -0.000027   0.004819   0.004925
     7  C    0.353279  -0.037534  -0.000173   0.000366  -0.000133
     8  C   -0.043766   0.346437   0.006087   0.004902   0.000005
     9  C    0.004237  -0.034562  -0.032682  -0.049338   0.000165
    10  O   -0.000063  -0.000631   0.242800  -0.005397  -0.000000
    11  C    0.000526   0.006514  -0.003877   0.337839  -0.009626
    12  C    0.004595   0.000456   0.000850  -0.029275  -0.042063
    13  C   -0.000194   0.000011  -0.000012  -0.009055   0.341407
    14  H    0.000000   0.000000   0.000000  -0.000000   0.000030
    15  H    0.000000   0.000000   0.000000  -0.000000   0.000030
    16  H   -0.000000  -0.000000  -0.000000  -0.000000  -0.000030
    17  H   -0.000011  -0.000000  -0.000000  -0.000000  -0.000169
    18  H    0.006415  -0.000010   0.000000   0.000003   0.000019
    19  H    0.598813  -0.005835   0.000006   0.000018   0.000002
    20  H   -0.005835   0.583241  -0.000353  -0.000180  -0.000000
    21  H    0.000006  -0.000353   0.372216   0.007223   0.000005
    22  H    0.000018  -0.000180   0.007223   0.617282   0.005863
    23  H    0.000002  -0.000000   0.000005   0.005863   0.600199
 Mulliken atomic charges:
              1
     1  C   -0.213781
     2  O   -0.510665
     3  C    0.381183
     4  C   -0.198295
     5  C   -0.205560
     6  C    0.138902
     7  C   -0.197384
     8  C   -0.161194
     9  C    0.353914
    10  O   -0.644644
    11  C   -0.279134
    12  C    0.147689
    13  C   -0.267642
    14  H    0.151537
    15  H    0.151537
    16  H    0.169340
    17  H    0.130277
    18  H    0.130256
    19  H    0.130853
    20  H    0.139577
    21  H    0.407939
    22  H    0.115016
    23  H    0.130280
 Sum of Mulliken atomic charges =  -0.00000
 Mulliken charges with hydrogens summed into heavy atoms:
              1
     1  C    0.258634
     2  O   -0.510665
     3  C    0.381183
     4  C   -0.068019
     5  C   -0.075304
     6  C    0.138902
     7  C   -0.066531
     8  C   -0.021617
     9  C    0.353914
    10  O   -0.236706
    11  C   -0.164118
    12  C    0.147689
    13  C   -0.137362
 Sum of Mulliken charges with hydrogens summed into heavy atoms =  -0.00000
 Electronic spatial extent (au):  <R**2>=           2875.6224
 Charge=             -0.0000 electrons
 Dipole moment (field-independent basis, Debye):
    X=              1.6262    Y=             -0.0270    Z=              0.0000  Tot=              1.6264
 Quadrupole moment (field-independent basis, Debye-Ang):
   XX=            -65.8940   YY=            -64.9452   ZZ=            -78.7301
   XY=              6.6388   XZ=              0.0000   YZ=             -0.0000
 Traceless Quadrupole moment (field-independent basis, Debye-Ang):
   XX=              3.9624   YY=              4.9112   ZZ=             -8.8737
   XY=              6.6388   XZ=              0.0000   YZ=             -0.0000
 Octapole moment (field-independent basis, Debye-Ang**2):
  XXX=             79.5803  YYY=            -16.3990  ZZZ=              0.0000  XYY=            -27.1273
  XXY=             -7.4258  XXZ=              0.0001  XZZ=              3.0536  YZZ=             -4.8669
  YYZ=              0.0000  XYZ=             -0.0000
 Hexadecapole moment (field-independent basis, Debye-Ang**3):
 XXXX=          -2765.0598 YYYY=           -580.2842 ZZZZ=            -84.6661 XXXY=             40.4122
 XXXZ=              0.0002 YYYX=             66.0782 YYYZ=             -0.0000 ZZZX=             -0.0000
 ZZZY=              0.0000 XXYY=           -516.2837 XXZZ=           -523.3920 YYZZ=           -134.1412
 XXYZ=             -0.0001 YYXZ=             -0.0000 ZZXY=              4.7093
 N-N= 7.278322090143D+02 E-N=-2.794950566806D+03  KE= 5.702810879354D+02
 No NMR shielding tensors so no spin-rotation constants.
 Leave Link  601 at Fri Sep  3 00:23:12 2021, MaxMem=  268435456 cpu:       0.4
 (Enter /sw/target/amd/app/gaussian/Gaussian09RevA.02_gcc-4.9.2/g09/l9999.exe)
 1\1\GINC-HERMITE\FOpt\RB3LYP\6-31G(d)\C11H10O2\JSCHLEINITZ\03-Sep-2021
 \0\\#p b3lyp 6-31G* opt scf(xqc,tight)\\opt calculation\\0,1\C,-4.1252
 933963,0.3973419057,0.0109113159\O,-2.8999948965,1.084202417,0.2045285
 593\C,-1.7296129409,0.3917697976,0.062409148\C,-1.6669174878,-0.986247
 8576,-0.2704271275\C,-0.4384267579,-1.6008596035,-0.3923904357\C,0.770
 183408,-0.8926749601,-0.1939661225\C,2.0475658328,-1.5062637514,-0.314
 6026952\C,3.2037149492,-0.7945542718,-0.116480861\C,3.131592126,0.5848
 220929,0.2164769039\O,4.3297265691,1.2192239737,0.3967750755\C,1.91366
 36731,1.217387015,0.3430275321\C,0.7017756532,0.5005418642,0.142430411
 9\C,-0.5659938641,1.1141647555,0.2632874127\H,-4.2504761887,-0.4230024
 582,0.730136822\H,-4.2121204917,-0.001287823,-1.0086358188\H,-4.910634
 692,1.1381660265,0.1732637367\H,-2.5728007791,-1.5595322747,-0.4294547
 524\H,-0.3902959093,-2.6571228225,-0.6475108754\H,2.0980360409,-2.5623
 265228,-0.5696228541\H,4.1823973705,-1.2547139511,-0.2064950788\H,4.16
 08993276,2.1485421816,0.6184439968\H,1.8669744862,2.2750376763,0.59851
 62127\H,-0.6439630158,2.1673857722,0.517011744\\Version=AM64L-G09RevA.
 02\State=1-A\HF=-575.6311774\RMSD=4.919e-09\RMSF=1.164e-05\Dipole=-0.6
 397133,0.0060911,-0.0126342\Quadrupole=2.8233882,3.1455564,-5.9689446,
 4.7383943,1.3570566,2.4675485\PG=C01 [X(C11H10O2)]\\@


 The best way to pay for a lovely moment is to enjoy it.
 -- Richard Bach
 Job cpu time:  0 days  0 hours 20 minutes 32.0 seconds.
 File lengths (MBytes):  RWF=     36 Int=      0 D2E=      0 Chk=      4 Scr=      1
 Normal termination of Gaussian 09 at Fri Sep  3 00:23:12 2021.
