 Entering Gaussian System, Link 0=g09
 Input=mol_inp037.com
 Output=mol_inp037.log
 Initial command:
 /sw/target/amd/app/gaussian/Gaussian09RevA.02_gcc-4.9.2/g09/l1.exe /home/jschleinitz/optim_react/037/Gau-2804596.inp -scrdir=/home/jschleinitz/optim_react/037/
 Entering Link 1 = /sw/target/amd/app/gaussian/Gaussian09RevA.02_gcc-4.9.2/g09/l1.exe PID=   2804598.
  
 Copyright (c) 1988,1990,1992,1993,1995,1998,2003,2009, Gaussian, Inc.
                  All Rights Reserved.
  
 This is part of the Gaussian(R) 09 program.  It is based on
 the Gaussian(R) 03 system (copyright 2003, Gaussian, Inc.),
 the Gaussian(R) 98 system (copyright 1998, Gaussian, Inc.),
 the Gaussian(R) 94 system (copyright 1995, Gaussian, Inc.),
 the Gaussian 92(TM) system (copyright 1992, Gaussian, Inc.),
 the Gaussian 90(TM) system (copyright 1990, Gaussian, Inc.),
 the Gaussian 88(TM) system (copyright 1988, Gaussian, Inc.),
 the Gaussian 86(TM) system (copyright 1986, Carnegie Mellon
 University), and the Gaussian 82(TM) system (copyright 1983,
 Carnegie Mellon University). Gaussian is a federally registered
 trademark of Gaussian, Inc.
  
 This software contains proprietary and confidential information,
 including trade secrets, belonging to Gaussian, Inc.
  
 This software is provided under written license and may be
 used, copied, transmitted, or stored only in accord with that
 written license.
  
 The following legend is applicable only to US Government
 contracts under FAR:
  
                    RESTRICTED RIGHTS LEGEND
  
 Use, reproduction and disclosure by the US Government is
 subject to restrictions as set forth in subparagraphs (a)
 and (c) of the Commercial Computer Software - Restricted
 Rights clause in FAR 52.227-19.
  
 Gaussian, Inc.
 340 Quinnipiac St., Bldg. 40, Wallingford CT 06492
  
  
 ---------------------------------------------------------------
 Warning -- This program may not be used in any manner that
 competes with the business of Gaussian, Inc. or will provide
 assistance to any competitor of Gaussian, Inc.  The licensee
 of this program is prohibited from giving any competitor of
 Gaussian, Inc. access to this program.  By using this program,
 the user acknowledges that Gaussian, Inc. is engaged in the
 business of creating and licensing software in the field of
 computational chemistry and represents and warrants to the
 licensee that it is not a competitor of Gaussian, Inc. and that
 it will not use this program in any manner prohibited above.
 ---------------------------------------------------------------
  

 Cite this work as:
 Gaussian 09, Revision A.02,
 M. J. Frisch, G. W. Trucks, H. B. Schlegel, G. E. Scuseria, 
 M. A. Robb, J. R. Cheeseman, G. Scalmani, V. Barone, B. Mennucci, 
 G. A. Petersson, H. Nakatsuji, M. Caricato, X. Li, H. P. Hratchian, 
 A. F. Izmaylov, J. Bloino, G. Zheng, J. L. Sonnenberg, M. Hada, 
 M. Ehara, K. Toyota, R. Fukuda, J. Hasegawa, M. Ishida, T. Nakajima, 
 Y. Honda, O. Kitao, H. Nakai, T. Vreven, J. A. Montgomery, Jr., 
 J. E. Peralta, F. Ogliaro, M. Bearpark, J. J. Heyd, E. Brothers, 
 K. N. Kudin, V. N. Staroverov, R. Kobayashi, J. Normand, 
 K. Raghavachari, A. Rendell, J. C. Burant, S. S. Iyengar, J. Tomasi, 
 M. Cossi, N. Rega, J. M. Millam, M. Klene, J. E. Knox, J. B. Cross, 
 V. Bakken, C. Adamo, J. Jaramillo, R. Gomperts, R. E. Stratmann, 
 O. Yazyev, A. J. Austin, R. Cammi, C. Pomelli, J. W. Ochterski, 
 R. L. Martin, K. Morokuma, V. G. Zakrzewski, G. A. Voth, 
 P. Salvador, J. J. Dannenberg, S. Dapprich, A. D. Daniels, 
 O. Farkas, J. B. Foresman, J. V. Ortiz, J. Cioslowski, 
 and D. J. Fox, Gaussian, Inc., Wallingford CT, 2009.
 
 ******************************************
 Gaussian 09:  AM64L-G09RevA.02 11-Jun-2009
                 3-Sep-2021 
 ******************************************
 %chk=opt.chk
 %mem=2gb
 %nproc=1
 Will use up to    1 processors via shared memory.
 ----------------------------------
 #p b3lyp 6-31G* opt scf(xqc,tight)
 ----------------------------------
 1/14=-1,18=20,19=15,26=3,38=1/1,3;
 2/9=110,12=2,17=6,18=5,40=1/2;
 3/5=1,6=6,7=1,11=2,16=1,25=1,30=1,71=1,74=-5/1,2,3;
 4//1;
 5/5=2,8=3,13=1,32=2,38=5/2,8;
 6/7=2,8=2,9=2,10=2,28=1/1;
 7//1,2,3,16;
 1/14=-1,18=20,19=15/3(2);
 2/9=110/2;
 99//99;
 2/9=110/2;
 3/5=1,6=6,7=1,11=2,16=1,25=1,30=1,71=1,74=-5/1,2,3;
 4/5=5,16=3/1;
 5/5=2,8=3,13=1,32=2,38=5/2,8;
 7//1,2,3,16;
 1/14=-1,18=20,19=15/3(-5);
 2/9=110/2;
 6/7=2,8=2,9=2,10=2,19=2,28=1/1;
 99/9=1/99;
 Leave Link    1 at Fri Sep  3 00:08:00 2021, MaxMem=  268435456 cpu:       0.0
 (Enter /sw/target/amd/app/gaussian/Gaussian09RevA.02_gcc-4.9.2/g09/l101.exe)
 ---------------
 opt calculation
 ---------------
 Symbolic Z-matrix:
 Charge =  0 Multiplicity = 1
 C                    -3.02235  -2.07189   1.62978 
 O                    -1.8027   -1.95428   0.91043 
 C                    -1.68946  -0.77071   0.21121 
 N                    -2.68091   0.11293   0.24732 
 C                    -2.45672   1.20438  -0.47694 
 O                    -3.4158    2.19396  -0.53556 
 C                    -4.56685   1.91431   0.24906 
 N                    -1.37022   1.45737  -1.18881 
 C                    -0.44261   0.50923  -1.11939 
 O                     0.68821   0.74885  -1.89255 
 C                     1.81578   0.03738  -1.54997 
 C                     2.26231  -0.92803  -2.45654 
 C                     3.41773  -1.65358  -2.17885 
 C                     4.12912  -1.40047  -1.00697 
 C                     3.69364  -0.41645  -0.11135 
 C                     2.53542   0.31949  -0.37726 
 O                     2.03997   1.32216   0.41386 
 C                     2.70781   1.57227   1.64264 
 N                    -0.55638  -0.64111  -0.45887 
 H                    -3.11503  -1.28614   2.38773 
 H                    -3.8848   -2.06954   0.95408 
 H                    -3.01185  -3.03458   2.15013 
 H                    -5.25718   2.75668   0.1418 
 H                    -5.08239   1.01553  -0.10705 
 H                    -4.31313   1.8265    1.31134 
 H                     1.70465  -1.11704  -3.36921 
 H                     3.76351  -2.41376  -2.8743 
 H                     5.03158  -1.96698  -0.78988 
 H                     4.28709  -0.24643   0.78053 
 H                     2.16483   2.36775   2.1621 
 H                     2.69681   0.68698   2.28706 
 H                     3.72991   1.9252    1.47076 
 
 NAtoms=     32 NQM=     32 NQMF=      0 NMic=      0 NMicF=      0 NTot=     32.
                    Isotopes and Nuclear Properties:
 (Nuclear quadrupole moments (NQMom) in fm**2, nuclear magnetic moments (NMagM)
  in nuclear magnetons)

  Atom         1           2           3           4           5           6           7           8           9          10
 IAtWgt=          12          16          12          14          12          16          12          14          12          16
 AtmWgt=  12.0000000  15.9949146  12.0000000  14.0030740  12.0000000  15.9949146  12.0000000  14.0030740  12.0000000  15.9949146
 NucSpn=           0           0           0           2           0           0           0           2           0           0
 AtZEff=   0.0000000   0.0000000   0.0000000   0.0000000   0.0000000   0.0000000   0.0000000   0.0000000   0.0000000   0.0000000
 NQMom=    0.0000000   0.0000000   0.0000000   2.0440000   0.0000000   0.0000000   0.0000000   2.0440000   0.0000000   0.0000000
 NMagM=    0.0000000   0.0000000   0.0000000   0.4037610   0.0000000   0.0000000   0.0000000   0.4037610   0.0000000   0.0000000

  Atom        11          12          13          14          15          16          17          18          19          20
 IAtWgt=          12          12          12          12          12          12          16          12          14           1
 AtmWgt=  12.0000000  12.0000000  12.0000000  12.0000000  12.0000000  12.0000000  15.9949146  12.0000000  14.0030740   1.0078250
 NucSpn=           0           0           0           0           0           0           0           0           2           1
 AtZEff=   0.0000000   0.0000000   0.0000000   0.0000000   0.0000000   0.0000000   0.0000000   0.0000000   0.0000000   0.0000000
 NQMom=    0.0000000   0.0000000   0.0000000   0.0000000   0.0000000   0.0000000   0.0000000   0.0000000   2.0440000   0.0000000
 NMagM=    0.0000000   0.0000000   0.0000000   0.0000000   0.0000000   0.0000000   0.0000000   0.0000000   0.4037610   2.7928460

  Atom        21          22          23          24          25          26          27          28          29          30
 IAtWgt=           1           1           1           1           1           1           1           1           1           1
 AtmWgt=   1.0078250   1.0078250   1.0078250   1.0078250   1.0078250   1.0078250   1.0078250   1.0078250   1.0078250   1.0078250
 NucSpn=           1           1           1           1           1           1           1           1           1           1
 AtZEff=   0.0000000   0.0000000   0.0000000   0.0000000   0.0000000   0.0000000   0.0000000   0.0000000   0.0000000   0.0000000
 NQMom=    0.0000000   0.0000000   0.0000000   0.0000000   0.0000000   0.0000000   0.0000000   0.0000000   0.0000000   0.0000000
 NMagM=    2.7928460   2.7928460   2.7928460   2.7928460   2.7928460   2.7928460   2.7928460   2.7928460   2.7928460   2.7928460

  Atom        31          32
 IAtWgt=           1           1
 AtmWgt=   1.0078250   1.0078250
 NucSpn=           1           1
 AtZEff=   0.0000000   0.0000000
 NQMom=    0.0000000   0.0000000
 NMagM=    2.7928460   2.7928460
 Leave Link  101 at Fri Sep  3 00:08:00 2021, MaxMem=  268435456 cpu:       0.2
 (Enter /sw/target/amd/app/gaussian/Gaussian09RevA.02_gcc-4.9.2/g09/l103.exe)

 GradGradGradGradGradGradGradGradGradGradGradGradGradGradGradGradGradGrad
 Berny optimization.
 Initialization pass.
                           ----------------------------
                           !    Initial Parameters    !
                           ! (Angstroms and Degrees)  !
 --------------------------                            --------------------------
 ! Name  Definition              Value          Derivative Info.                !
 --------------------------------------------------------------------------------
 ! R1    R(1,2)                  1.4209         estimate D2E/DX2                !
 ! R2    R(1,20)                 1.0957         estimate D2E/DX2                !
 ! R3    R(1,21)                 1.0956         estimate D2E/DX2                !
 ! R4    R(1,22)                 1.0944         estimate D2E/DX2                !
 ! R5    R(2,3)                  1.3793         estimate D2E/DX2                !
 ! R6    R(3,4)                  1.3286         estimate D2E/DX2                !
 ! R7    R(3,19)                 1.3228         estimate D2E/DX2                !
 ! R8    R(4,5)                  1.3289         estimate D2E/DX2                !
 ! R9    R(5,6)                  1.3793         estimate D2E/DX2                !
 ! R10   R(5,8)                  1.3233         estimate D2E/DX2                !
 ! R11   R(6,7)                  1.4208         estimate D2E/DX2                !
 ! R12   R(7,23)                 1.0944         estimate D2E/DX2                !
 ! R13   R(7,24)                 1.0956         estimate D2E/DX2                !
 ! R14   R(7,25)                 1.0957         estimate D2E/DX2                !
 ! R15   R(8,9)                  1.3282         estimate D2E/DX2                !
 ! R16   R(9,10)                 1.3907         estimate D2E/DX2                !
 ! R17   R(9,19)                 1.3314         estimate D2E/DX2                !
 ! R18   R(10,11)                1.3766         estimate D2E/DX2                !
 ! R19   R(11,12)                1.3976         estimate D2E/DX2                !
 ! R20   R(11,16)                1.4045         estimate D2E/DX2                !
 ! R21   R(12,13)                1.3923         estimate D2E/DX2                !
 ! R22   R(12,26)                1.0861         estimate D2E/DX2                !
 ! R23   R(13,14)                1.3941         estimate D2E/DX2                !
 ! R24   R(13,27)                1.0868         estimate D2E/DX2                !
 ! R25   R(14,15)                1.4            estimate D2E/DX2                !
 ! R26   R(14,28)                1.0874         estimate D2E/DX2                !
 ! R27   R(15,16)                1.3978         estimate D2E/DX2                !
 ! R28   R(15,29)                1.0847         estimate D2E/DX2                !
 ! R29   R(16,17)                1.3699         estimate D2E/DX2                !
 ! R30   R(17,18)                1.4207         estimate D2E/DX2                !
 ! R31   R(18,30)                1.0943         estimate D2E/DX2                !
 ! R32   R(18,31)                1.0951         estimate D2E/DX2                !
 ! R33   R(18,32)                1.0949         estimate D2E/DX2                !
 ! A1    A(2,1,20)             111.3139         estimate D2E/DX2                !
 ! A2    A(2,1,21)             111.3023         estimate D2E/DX2                !
 ! A3    A(2,1,22)             107.7764         estimate D2E/DX2                !
 ! A4    A(20,1,21)            111.0088         estimate D2E/DX2                !
 ! A5    A(20,1,22)            107.6226         estimate D2E/DX2                !
 ! A6    A(21,1,22)            107.6184         estimate D2E/DX2                !
 ! A7    A(1,2,3)              113.4624         estimate D2E/DX2                !
 ! A8    A(2,3,4)              119.7133         estimate D2E/DX2                !
 ! A9    A(2,3,19)             114.2801         estimate D2E/DX2                !
 ! A10   A(4,3,19)             126.0048         estimate D2E/DX2                !
 ! A11   A(3,4,5)              113.925          estimate D2E/DX2                !
 ! A12   A(4,5,6)              119.6759         estimate D2E/DX2                !
 ! A13   A(4,5,8)              126.064          estimate D2E/DX2                !
 ! A14   A(6,5,8)              114.2584         estimate D2E/DX2                !
 ! A15   A(5,6,7)              113.4918         estimate D2E/DX2                !
 ! A16   A(6,7,23)             107.7823         estimate D2E/DX2                !
 ! A17   A(6,7,24)             111.295          estimate D2E/DX2                !
 ! A18   A(6,7,25)             111.3202         estimate D2E/DX2                !
 ! A19   A(23,7,24)            107.6232         estimate D2E/DX2                !
 ! A20   A(23,7,25)            107.6249         estimate D2E/DX2                !
 ! A21   A(24,7,25)            110.9976         estimate D2E/DX2                !
 ! A22   A(5,8,9)              114.1291         estimate D2E/DX2                !
 ! A23   A(8,9,10)             114.5713         estimate D2E/DX2                !
 ! A24   A(8,9,19)             125.6638         estimate D2E/DX2                !
 ! A25   A(10,9,19)            119.6162         estimate D2E/DX2                !
 ! A26   A(9,10,11)            116.0175         estimate D2E/DX2                !
 ! A27   A(10,11,12)           117.2123         estimate D2E/DX2                !
 ! A28   A(10,11,16)           121.5787         estimate D2E/DX2                !
 ! A29   A(12,11,16)           121.1072         estimate D2E/DX2                !
 ! A30   A(11,12,13)           119.7182         estimate D2E/DX2                !
 ! A31   A(11,12,26)           120.0816         estimate D2E/DX2                !
 ! A32   A(13,12,26)           120.1979         estimate D2E/DX2                !
 ! A33   A(12,13,14)           119.7695         estimate D2E/DX2                !
 ! A34   A(12,13,27)           120.0606         estimate D2E/DX2                !
 ! A35   A(14,13,27)           120.1699         estimate D2E/DX2                !
 ! A36   A(13,14,15)           120.4405         estimate D2E/DX2                !
 ! A37   A(13,14,28)           119.7837         estimate D2E/DX2                !
 ! A38   A(15,14,28)           119.7748         estimate D2E/DX2                !
 ! A39   A(14,15,16)           120.4043         estimate D2E/DX2                !
 ! A40   A(14,15,29)           117.7751         estimate D2E/DX2                !
 ! A41   A(16,15,29)           121.8192         estimate D2E/DX2                !
 ! A42   A(11,16,15)           118.5317         estimate D2E/DX2                !
 ! A43   A(11,16,17)           116.3516         estimate D2E/DX2                !
 ! A44   A(15,16,17)           125.1119         estimate D2E/DX2                !
 ! A45   A(16,17,18)           117.2782         estimate D2E/DX2                !
 ! A46   A(17,18,30)           107.7761         estimate D2E/DX2                !
 ! A47   A(17,18,31)           111.219          estimate D2E/DX2                !
 ! A48   A(17,18,32)           111.0875         estimate D2E/DX2                !
 ! A49   A(30,18,31)           107.6591         estimate D2E/DX2                !
 ! A50   A(30,18,32)           107.6617         estimate D2E/DX2                !
 ! A51   A(31,18,32)           111.2451         estimate D2E/DX2                !
 ! A52   A(3,19,9)             114.1532         estimate D2E/DX2                !
 ! D1    D(20,1,2,3)           -61.9046         estimate D2E/DX2                !
 ! D2    D(21,1,2,3)            62.5109         estimate D2E/DX2                !
 ! D3    D(22,1,2,3)          -179.7027         estimate D2E/DX2                !
 ! D4    D(1,2,3,4)             -0.8108         estimate D2E/DX2                !
 ! D5    D(1,2,3,19)           179.6529         estimate D2E/DX2                !
 ! D6    D(2,3,4,5)           -179.3455         estimate D2E/DX2                !
 ! D7    D(19,3,4,5)             0.132          estimate D2E/DX2                !
 ! D8    D(2,3,19,9)          -179.2086         estimate D2E/DX2                !
 ! D9    D(4,3,19,9)             1.2892         estimate D2E/DX2                !
 ! D10   D(3,4,5,6)            179.287          estimate D2E/DX2                !
 ! D11   D(3,4,5,8)             -0.2136         estimate D2E/DX2                !
 ! D12   D(4,5,6,7)              1.2742         estimate D2E/DX2                !
 ! D13   D(8,5,6,7)           -179.1686         estimate D2E/DX2                !
 ! D14   D(4,5,8,9)             -1.1426         estimate D2E/DX2                !
 ! D15   D(6,5,8,9)            179.3332         estimate D2E/DX2                !
 ! D16   D(5,6,7,23)           179.5381         estimate D2E/DX2                !
 ! D17   D(5,6,7,24)           -62.6702         estimate D2E/DX2                !
 ! D18   D(5,6,7,25)            61.7301         estimate D2E/DX2                !
 ! D19   D(5,8,9,10)           178.3551         estimate D2E/DX2                !
 ! D20   D(5,8,9,19)             2.8323         estimate D2E/DX2                !
 ! D21   D(8,9,10,11)          160.7493         estimate D2E/DX2                !
 ! D22   D(19,9,10,11)         -23.4344         estimate D2E/DX2                !
 ! D23   D(8,9,19,3)            -2.9011         estimate D2E/DX2                !
 ! D24   D(10,9,19,3)         -178.2169         estimate D2E/DX2                !
 ! D25   D(9,10,11,12)         112.1119         estimate D2E/DX2                !
 ! D26   D(9,10,11,16)         -71.5201         estimate D2E/DX2                !
 ! D27   D(10,11,12,13)        178.3202         estimate D2E/DX2                !
 ! D28   D(10,11,12,26)         -2.2342         estimate D2E/DX2                !
 ! D29   D(16,11,12,13)          1.9341         estimate D2E/DX2                !
 ! D30   D(16,11,12,26)       -178.6203         estimate D2E/DX2                !
 ! D31   D(10,11,16,15)       -178.1344         estimate D2E/DX2                !
 ! D32   D(10,11,16,17)          1.1143         estimate D2E/DX2                !
 ! D33   D(12,11,16,15)         -1.9071         estimate D2E/DX2                !
 ! D34   D(12,11,16,17)        177.3416         estimate D2E/DX2                !
 ! D35   D(11,12,13,14)         -0.7744         estimate D2E/DX2                !
 ! D36   D(11,12,13,27)        179.2805         estimate D2E/DX2                !
 ! D37   D(26,12,13,14)        179.7807         estimate D2E/DX2                !
 ! D38   D(26,12,13,27)         -0.1645         estimate D2E/DX2                !
 ! D39   D(12,13,14,15)         -0.3636         estimate D2E/DX2                !
 ! D40   D(12,13,14,28)       -179.9982         estimate D2E/DX2                !
 ! D41   D(27,13,14,15)        179.5815         estimate D2E/DX2                !
 ! D42   D(27,13,14,28)         -0.0531         estimate D2E/DX2                !
 ! D43   D(13,14,15,16)          0.3706         estimate D2E/DX2                !
 ! D44   D(13,14,15,29)       -179.2105         estimate D2E/DX2                !
 ! D45   D(28,14,15,16)       -179.9948         estimate D2E/DX2                !
 ! D46   D(28,14,15,29)          0.4241         estimate D2E/DX2                !
 ! D47   D(14,15,16,11)          0.7492         estimate D2E/DX2                !
 ! D48   D(14,15,16,17)       -178.4278         estimate D2E/DX2                !
 ! D49   D(29,15,16,11)       -179.687          estimate D2E/DX2                !
 ! D50   D(29,15,16,17)          1.136          estimate D2E/DX2                !
 ! D51   D(11,16,17,18)        176.4596         estimate D2E/DX2                !
 ! D52   D(15,16,17,18)         -4.3473         estimate D2E/DX2                !
 ! D53   D(16,17,18,30)       -177.8007         estimate D2E/DX2                !
 ! D54   D(16,17,18,31)        -60.0124         estimate D2E/DX2                !
 ! D55   D(16,17,18,32)         64.4823         estimate D2E/DX2                !
 --------------------------------------------------------------------------------
 Trust Radius=3.00D-01 FncErr=1.00D-07 GrdErr=1.00D-06
 Number of steps in this run= 150 maximum allowed number of steps= 192.
 GradGradGradGradGradGradGradGradGradGradGradGradGradGradGradGradGradGrad

 Leave Link  103 at Fri Sep  3 00:08:00 2021, MaxMem=  268435456 cpu:       0.0
 (Enter /sw/target/amd/app/gaussian/Gaussian09RevA.02_gcc-4.9.2/g09/l202.exe)
                          Input orientation:                          
 ---------------------------------------------------------------------
 Center     Atomic      Atomic             Coordinates (Angstroms)
 Number     Number       Type             X           Y           Z
 ---------------------------------------------------------------------
      1          6           0       -3.022348   -2.071886    1.629779
      2          8           0       -1.802703   -1.954275    0.910428
      3          6           0       -1.689458   -0.770710    0.211208
      4          7           0       -2.680912    0.112933    0.247321
      5          6           0       -2.456722    1.204377   -0.476940
      6          8           0       -3.415796    2.193963   -0.535564
      7          6           0       -4.566846    1.914313    0.249063
      8          7           0       -1.370221    1.457371   -1.188813
      9          6           0       -0.442611    0.509233   -1.119387
     10          8           0        0.688205    0.748847   -1.892554
     11          6           0        1.815782    0.037379   -1.549969
     12          6           0        2.262312   -0.928027   -2.456535
     13          6           0        3.417735   -1.653580   -2.178848
     14          6           0        4.129122   -1.400467   -1.006971
     15          6           0        3.693643   -0.416451   -0.111348
     16          6           0        2.535422    0.319487   -0.377261
     17          8           0        2.039967    1.322157    0.413863
     18          6           0        2.707810    1.572267    1.642638
     19          7           0       -0.556376   -0.641112   -0.458873
     20          1           0       -3.115027   -1.286137    2.387729
     21          1           0       -3.884798   -2.069537    0.954080
     22          1           0       -3.011848   -3.034582    2.150127
     23          1           0       -5.257175    2.756683    0.141800
     24          1           0       -5.082395    1.015525   -0.107050
     25          1           0       -4.313134    1.826497    1.311337
     26          1           0        1.704648   -1.117036   -3.369213
     27          1           0        3.763512   -2.413761   -2.874296
     28          1           0        5.031575   -1.966979   -0.789876
     29          1           0        4.287085   -0.246428    0.780532
     30          1           0        2.164832    2.367752    2.162103
     31          1           0        2.696812    0.686978    2.287060
     32          1           0        3.729910    1.925204    1.470758
 ---------------------------------------------------------------------
                    Distance matrix (angstroms):
                    1          2          3          4          5
     1  C    0.000000
     2  O    1.420856   0.000000
     3  C    2.341367   1.379333   0.000000
     4  N    2.607912   2.341861   1.328574   0.000000
     5  C    3.936000   3.511355   2.227826   1.328934   0.000000
     6  O    4.800102   4.679833   3.511011   2.341719   1.379326
     7  C    4.492397   4.800402   3.935752   2.608011   2.341733
     8  N    4.809328   4.029042   2.650720   2.363875   1.323349
     9  C    4.568931   3.469708   2.227861   2.652345   2.225445
    10  O    5.842223   4.622575   3.519680   4.041584   3.478798
    11  C    6.161761   4.807668   4.005179   4.843162   4.557145
    12  C    6.777463   5.377171   4.770544   5.729738   5.543936
    13  C    7.493683   6.073468   5.707473   6.797085   6.750826
    14  C    7.651587   6.258568   5.977995   7.088032   7.102076
    15  C    7.132778   5.798168   5.404380   6.406547   6.370850
    16  C    6.374612   5.064333   4.402776   5.257652   5.070943
    17  O    6.214902   5.074219   4.281328   4.876131   4.585588
    18  C    6.790783   5.772119   5.184062   5.754554   5.594671
    19  N    3.534204   2.269959   1.322754   2.362403   2.649051
    20  H    1.095664   2.085910   2.652387   2.593684   3.852578
    21  H    1.095625   2.085740   2.656751   2.590758   3.847822
    22  H    1.094375   2.041066   3.260865   3.692836   5.017810
    23  H    5.524818   5.892138   5.017562   3.692923   3.261139
    24  H    4.097862   4.539973   3.847590   2.589859   2.658316
    25  H    4.118850   4.556010   3.852200   2.594722   2.651647
    26  H    6.945945   5.596232   4.945636   5.815950   5.574155
    27  H    8.151777   6.746704   6.477255   7.593371   7.584824
    28  H    8.410197   7.042624   6.899675   8.055077   8.138183
    29  H    7.581644   6.326068   6.026447   6.997602   7.011776
    30  H    6.848401   5.998995   5.339615   5.677309   5.447637
    31  H    6.383740   5.396014   5.066891   5.780137   5.870802
    32  H    7.848248   6.780423   6.182554   6.773460   6.525913
                    6          7          8          9         10
     6  O    0.000000
     7  C    1.420831   0.000000
     8  N    2.270172   3.534784   0.000000
     9  C    3.466842   4.566861   1.328249   0.000000
    10  O    4.557697   5.793133   2.287876   1.390664   0.000000
    11  C    5.748850   6.891831   3.506769   2.346995   1.376583
    12  C    6.758540   7.876329   4.526869   3.342198   2.368078
    13  C    8.012560   9.076241   5.795059   4.549999   3.647459
    14  C    8.370659   9.390700   6.200248   4.955838   4.152556
    15  C    7.585403   8.590578   5.505893   4.356791   3.682835
    16  C    6.241451   7.306022   4.148186   3.074969   2.427483
    17  O    5.605962   6.635344   3.770442   3.029009   2.734137
    18  C    6.529136   7.414827   4.965949   4.322496   4.153842
    19  N    4.027383   4.807831   2.366176   1.331358   2.352958
    20  H    4.554909   4.113946   4.833512   4.760780   6.076722
    21  H    4.540532   4.102840   4.832615   4.774722   6.079389
    22  H    5.891841   5.524819   5.832761   5.463454   6.659429
    23  H    2.041115   1.094370   4.308962   5.460920   6.596783
    24  H    2.085640   1.095640   3.891744   4.775851   6.046401
    25  H    2.085975   1.095677   3.879142   4.756527   6.036525
    26  H    6.723929   7.849372   4.564705   3.509585   2.587508
    27  H    8.845522   9.893557   6.646934   5.414339   4.519228
    28  H    9.419989  10.405456   7.271060   6.017218   5.239892
    29  H    8.186696   9.129258   6.227870   5.152741   4.592156
    30  H    6.200889   7.012904   4.955202   4.584870   4.608853
    31  H    6.899434   7.643331   5.405179   4.635887   4.637618
    32  H    7.426889   8.386228   5.770920   5.111140   4.684832
                   11         12         13         14         15
    11  C    0.000000
    12  C    1.397591   0.000000
    13  C    2.412692   1.392314   0.000000
    14  C    2.777371   2.410273   1.394071   0.000000
    15  C    2.408725   2.794695   2.425112   1.400025   0.000000
    16  C    1.404532   2.440135   2.813749   2.427891   1.397781
    17  O    2.357446   3.654032   4.180360   3.714299   2.456267
    18  C    3.652990   4.822153   5.051122   4.228203   2.829016
    19  N    2.697772   3.466695   4.447130   4.778172   4.270118
    20  H    6.447483   7.246441   7.979074   8.000922   7.304774
    21  H    6.573125   7.121959   7.957088   8.277457   7.829470
    22  H    6.814225   7.312706   7.873165   7.976907   7.545362
    23  H    7.764240   8.767618  10.004494  10.329770   9.500000
    24  H    7.115029   7.952496   9.147058   9.565507   8.892099
    25  H    6.996544   8.063545   9.168351   9.330570   8.435836
    26  H    2.157469   1.086138   2.153953   3.396851   3.880800
    27  H    3.399350   2.153028   1.086777   2.155769   3.409987
    28  H    3.864779   3.394995   2.152195   1.087422   2.157452
    29  H    3.408683   3.878516   3.390247   2.133524   1.084680
    30  H    4.396812   5.674811   6.048531   5.301032   3.906101
    31  H    3.990111   5.029784   5.093356   4.154465   2.821983
    32  H    4.043830   5.071331   5.121013   4.166365   2.826256
                   16         17         18         19         20
    16  C    0.000000
    17  O    1.369927   0.000000
    18  C    2.383100   1.420724   0.000000
    19  N    3.238615   3.370028   4.468815   0.000000
    20  H    6.492363   6.105187   6.529247   3.881481   0.000000
    21  H    6.978476   6.848231   7.563024   3.887831   1.805993
    22  H    6.957706   6.893230   7.361731   4.308703   1.767530
    23  H    8.181315   7.441785   8.191236   5.831237   5.096802
    24  H    7.654320   7.147966   8.003666   4.832502   3.923278
    25  H    7.212847   6.435970   7.033353   4.830732   3.504650
    26  H    3.421339   4.513731   5.775581   3.716021   7.510010
    27  H    3.900517   5.266847   6.116013   5.257184   8.733541
    28  H    3.410126   4.606205   4.882957   5.752624   8.770852
    29  H    2.174642   2.764859   2.558317   5.015079   7.645609
    30  H    3.283458   2.040883   1.094288   4.829881   6.424852
    31  H    2.694384   2.084170   1.095051   4.459507   6.138468
    32  H    2.724023   2.082450   1.094895   5.355530   7.616214
                   21         22         23         24         25
    21  H    0.000000
    22  H    1.767451   0.000000
    23  H    5.082875   6.527911   0.000000
    24  H    3.475319   5.077931   1.767514   0.000000
    25  H    3.935757   5.101667   1.767562   1.805896   0.000000
    26  H    7.130219   7.509023   8.706313   7.826460   8.172248
    27  H    8.559883   8.457881  10.826039   9.882698  10.036509
    28  H    9.085902   8.630182  11.359550  10.566644  10.301900
    29  H    8.374576   7.932466  10.025944   9.495656   8.862423
    30  H    7.599137   7.482204   7.701888   7.713616   6.555975
    31  H    7.258981   6.815978   8.494217   8.145905   7.168674
    32  H    8.614447   8.397161   9.122784   8.998540   8.045229
                   26         27         28         29         30
    26  H    0.000000
    27  H    2.483014   0.000000
    28  H    4.294628   2.480404   0.000000
    29  H    4.964607   4.281265   2.445556   0.000000
    30  H    6.553699   7.126286   5.976813   3.639592   0.000000
    31  H    6.019326   6.114902   4.686378   2.381143   1.767376
    32  H    6.064836   6.140622   4.685497   2.345814   1.767279
                   31         32
    31  H    0.000000
    32  H    1.807441   0.000000
 Stoichiometry    C12H13N3O4
 Framework group  C1[X(C12H13N3O4)]
 Deg. of freedom    90
 Full point group                 C1      NOp   1
 Largest Abelian subgroup         C1      NOp   1
 Largest concise Abelian subgroup C1      NOp   1
                         Standard orientation:                         
 ---------------------------------------------------------------------
 Center     Atomic      Atomic             Coordinates (Angstroms)
 Number     Number       Type             X           Y           Z
 ---------------------------------------------------------------------
      1          6           0        2.941224    2.819099    0.968288
      2          8           0        1.647821    2.432968    0.524618
      3          6           0        1.590660    1.134614    0.062484
      4          7           0        2.691168    0.390385    0.051763
      5          6           0        2.508298   -0.835206   -0.428395
      6          8           0        3.576586   -1.704153   -0.507341
      7          6           0        4.790683   -1.155403   -0.013782
      8          7           0        1.365543   -1.337106   -0.868235
      9          6           0        0.335744   -0.503059   -0.778098
     10          8           0       -0.862480   -1.008321   -1.270965
     11          6           0       -2.007044   -0.376760   -0.839589
     12          6           0       -2.734660    0.346079   -1.788977
     13          6           0       -3.919343    0.976145   -1.417383
     14          6           0       -4.379010    0.867840   -0.105739
     15          6           0       -3.661323    0.123554    0.838207
     16          6           0       -2.470428   -0.514136    0.479166
     17          8           0       -1.709168   -1.289388    1.313532
     18          6           0       -2.117227   -1.379248    2.671424
     19          7           0        0.391693    0.755708   -0.348110
     20          1           0        3.272818    2.204091    1.812261
     21          1           0        3.668684    2.787656    0.149626
     22          1           0        2.879515    3.854599    1.316985
     23          1           0        5.567461   -1.919957   -0.112376
     24          1           0        5.103501   -0.286709   -0.603648
     25          1           0        4.709545   -0.899975    1.048612
     26          1           0       -2.371956    0.422911   -2.809878
     27          1           0       -4.483498    1.549413   -2.148257
     28          1           0       -5.304255    1.359814    0.184727
     29          1           0       -4.065160    0.057349    1.842729
     30          1           0       -1.385331   -1.997647    3.199984
     31          1           0       -2.125889   -0.393726    3.148716
     32          1           0       -3.091784   -1.870678    2.758203
 ---------------------------------------------------------------------
 Rotational constants (GHZ):      0.6608326      0.2220892      0.2092834
 Leave Link  202 at Fri Sep  3 00:08:00 2021, MaxMem=  268435456 cpu:       0.0
 (Enter /sw/target/amd/app/gaussian/Gaussian09RevA.02_gcc-4.9.2/g09/l301.exe)
 Standard basis: 6-31G(d) (6D, 7F)
 Ernie: Thresh=  0.10000D-02 Tol=  0.10000D-05 Strict=F.
 There are   311 symmetry adapted basis functions of A   symmetry.
 Integral buffers will be    131072 words long.
 Raffenetti 2 integral format.
 Two-electron integral symmetry is turned on.
   311 basis functions,   584 primitive gaussians,   311 cartesian basis functions
    69 alpha electrons       69 beta electrons
       nuclear repulsion energy      1441.1549516573 Hartrees.
 IExCor=  402 DFT=T Ex+Corr=B3LYP ExCW=0 ScaHFX=  0.200000
 ScaDFX=  0.800000  0.720000  1.000000  0.810000 ScalE2=  1.000000  1.000000
 IRadAn=      0 IRanWt=     -1 IRanGd=            0 ICorTp=0
 NAtoms=   32 NActive=   32 NUniq=   32 SFac= 7.50D-01 NAtFMM=   80 NAOKFM=F Big=F
 Leave Link  301 at Fri Sep  3 00:08:00 2021, MaxMem=  268435456 cpu:       0.1
 (Enter /sw/target/amd/app/gaussian/Gaussian09RevA.02_gcc-4.9.2/g09/l302.exe)
 NPDir=0 NMtPBC=     1 NCelOv=     1 NCel=       1 NClECP=     1 NCelD=      1
         NCelK=      1 NCelE2=     1 NClLst=     1 CellRange=     0.0.
 One-electron integrals computed using PRISM.
 NBasis=   311 RedAO= T  NBF=   311
 NBsUse=   311 1.00D-06 NBFU=   311
 Precomputing XC quadrature grid using
 IXCGrd= 2 IRadAn=           0 IRanWt=          -1 IRanGd=           0 AccXCQ= 1.00D-10.
 NRdTot=    2036 NPtTot=      259788 NUsed=      274469 NTot=      274501
 NSgBfM=   308   308   308   308   308 NAtAll=    32    32.
 Leave Link  302 at Fri Sep  3 00:08:02 2021, MaxMem=  268435456 cpu:       1.8
 (Enter /sw/target/amd/app/gaussian/Gaussian09RevA.02_gcc-4.9.2/g09/l303.exe)
 DipDrv:  MaxL=1.
 Leave Link  303 at Fri Sep  3 00:08:02 2021, MaxMem=  268435456 cpu:       0.1
 (Enter /sw/target/amd/app/gaussian/Gaussian09RevA.02_gcc-4.9.2/g09/l401.exe)
 Harris functional with IExCor=  402 diagonalized for initial guess.
 ExpMin= 1.61D-01 ExpMax= 5.48D+03 ExpMxC= 8.25D+02 IAcc=1 IRadAn=         1 AccDes= 0.00D+00
 HarFok:  IExCor=  402 AccDes= 0.00D+00 IRadAn=         1 IDoV= 1
 ScaDFX=  1.000000  1.000000  1.000000  1.000000
 FoFCou: FMM=F IPFlag=           0 FMFlag=      100000 FMFlg1=           0
         NFxFlg=           0 DoJE=T BraDBF=F KetDBF=T FulRan=T
         Omega=  0.000000  0.000000  1.000000  0.000000  0.000000 ICntrl=     500 IOpCl=  0
         NMat0=    1 NMatS0=    1 NMatT0=    0 NMatD0=    1 NMtDS0=    0 NMtDT0=    0
         I1Cent=           4 NGrid=           0.
 Petite list used in FoFCou.
 Harris En= -930.302140109683    
 Initial guess orbital symmetries:
       Occupied  (A) (A) (A) (A) (A) (A) (A) (A) (A) (A) (A) (A)
                 (A) (A) (A) (A) (A) (A) (A) (A) (A) (A) (A) (A)
                 (A) (A) (A) (A) (A) (A) (A) (A) (A) (A) (A) (A)
                 (A) (A) (A) (A) (A) (A) (A) (A) (A) (A) (A) (A)
                 (A) (A) (A) (A) (A) (A) (A) (A) (A) (A) (A) (A)
                 (A) (A) (A) (A) (A) (A) (A) (A) (A)
       Virtual   (A) (A) (A) (A) (A) (A) (A) (A) (A) (A) (A) (A)
                 (A) (A) (A) (A) (A) (A) (A) (A) (A) (A) (A) (A)
                 (A) (A) (A) (A) (A) (A) (A) (A) (A) (A) (A) (A)
                 (A) (A) (A) (A) (A) (A) (A) (A) (A) (A) (A) (A)
                 (A) (A) (A) (A) (A) (A) (A) (A) (A) (A) (A) (A)
                 (A) (A) (A) (A) (A) (A) (A) (A) (A) (A) (A) (A)
                 (A) (A) (A) (A) (A) (A) (A) (A) (A) (A) (A) (A)
                 (A) (A) (A) (A) (A) (A) (A) (A) (A) (A) (A) (A)
                 (A) (A) (A) (A) (A) (A) (A) (A) (A) (A) (A) (A)
                 (A) (A) (A) (A) (A) (A) (A) (A) (A) (A) (A) (A)
                 (A) (A) (A) (A) (A) (A) (A) (A) (A) (A) (A) (A)
                 (A) (A) (A) (A) (A) (A) (A) (A) (A) (A) (A) (A)
                 (A) (A) (A) (A) (A) (A) (A) (A) (A) (A) (A) (A)
                 (A) (A) (A) (A) (A) (A) (A) (A) (A) (A) (A) (A)
                 (A) (A) (A) (A) (A) (A) (A) (A) (A) (A) (A) (A)
                 (A) (A) (A) (A) (A) (A) (A) (A) (A) (A) (A) (A)
                 (A) (A) (A) (A) (A) (A) (A) (A) (A) (A) (A) (A)
                 (A) (A) (A) (A) (A) (A) (A) (A) (A) (A) (A) (A)
                 (A) (A) (A) (A) (A) (A) (A) (A) (A) (A) (A) (A)
                 (A) (A) (A) (A) (A) (A) (A) (A) (A) (A) (A) (A)
                 (A) (A)
 The electronic state of the initial guess is 1-A.
 Leave Link  401 at Fri Sep  3 00:08:11 2021, MaxMem=  268435456 cpu:       8.8
 (Enter /sw/target/amd/app/gaussian/Gaussian09RevA.02_gcc-4.9.2/g09/l502.exe)
 Closed shell SCF:
 Requested convergence on RMS density matrix=1.00D-08 within  64 cycles.
 Requested convergence on MAX density matrix=1.00D-06.
 Requested convergence on             energy=1.00D-06.
 No special actions if energy rises.
 Using DIIS extrapolation, IDIIS=  1040.
 Integral symmetry usage will be decided dynamically.
       274168 words used for storage of precomputed grid.
 IEnd=      574078 IEndB=      574078 NGot=   268435456 MDV=   267962635
 LenX=   267962635 LenY=   267865473
 Fock matrices will be formed incrementally for  20 cycles.
 Integral accuracy reduced to 1.0D-05 until final iterations.

 Cycle   1  Pass 0  IDiag  1:
 FoFCou: FMM=F IPFlag=           0 FMFlag=      100000 FMFlg1=           0
         NFxFlg=           0 DoJE=F BraDBF=F KetDBF=F FulRan=T
         Omega=  0.000000  0.000000  1.000000  0.000000  0.000000 ICntrl=       0 IOpCl=  0
         NMat0=    1 NMatS0=    1 NMatT0=    0 NMatD0=    1 NMtDS0=    0 NMtDT0=    0
         I1Cent=           0 NGrid=           0.
 Symmetry not used in FoFCou.
 E= -929.823526042170    
 DIIS: error= 1.96D-02 at cycle   1 NSaved=   1.
 NSaved= 1 IEnMin= 1 EnMin= -929.823526042170     IErMin= 1 ErrMin= 1.96D-02
 ErrMax= 1.96D-02 EMaxC= 1.00D-01 BMatC= 4.48D-01 BMatP= 4.48D-01
 IDIUse=3 WtCom= 8.04D-01 WtEn= 1.96D-01
 Coeff-Com:  0.100D+01
 Coeff-En:   0.100D+01
 Coeff:      0.100D+01
 Gap=     0.234 Goal=   None    Shift=    0.000
 GapD=    0.234 DampG=1.000 DampE=0.500 DampFc=0.5000 IDamp=-1.
 Damping current iteration by 5.00D-01
 RMSDP=4.37D-03 MaxDP=1.58D-01              OVMax= 2.39D-01

 Cycle   2  Pass 0  IDiag  1:
 RMSU=  1.52D-03    CP:  9.82D-01
 E= -929.985760125651     Delta-E=       -0.162234083481 Rises=F Damp=T
 DIIS: error= 5.79D-03 at cycle   2 NSaved=   2.
 NSaved= 2 IEnMin= 2 EnMin= -929.985760125651     IErMin= 2 ErrMin= 5.79D-03
 ErrMax= 5.79D-03 EMaxC= 1.00D-01 BMatC= 3.65D-02 BMatP= 4.48D-01
 IDIUse=3 WtCom= 9.42D-01 WtEn= 5.79D-02
 Coeff-Com:  0.123D+00 0.877D+00
 Coeff-En:   0.207D+00 0.793D+00
 Coeff:      0.128D+00 0.872D+00
 Gap=     0.217 Goal=   None    Shift=    0.000
 RMSDP=1.16D-03 MaxDP=4.08D-02 DE=-1.62D-01 OVMax= 1.98D-01

 Cycle   3  Pass 0  IDiag  1:
 RMSU=  7.92D-04    CP:  9.79D-01  8.72D-01
 E= -930.209918101021     Delta-E=       -0.224157975370 Rises=F Damp=F
 DIIS: error= 5.39D-03 at cycle   3 NSaved=   3.
 NSaved= 3 IEnMin= 3 EnMin= -930.209918101021     IErMin= 3 ErrMin= 5.39D-03
 ErrMax= 5.39D-03 EMaxC= 1.00D-01 BMatC= 2.35D-02 BMatP= 3.65D-02
 IDIUse=3 WtCom= 9.46D-01 WtEn= 5.39D-02
 Coeff-Com:  0.155D-01 0.436D+00 0.548D+00
 Coeff-En:   0.000D+00 0.000D+00 0.100D+01
 Coeff:      0.147D-01 0.413D+00 0.573D+00
 Gap=     0.205 Goal=   None    Shift=    0.000
 RMSDP=8.13D-04 MaxDP=3.10D-02 DE=-2.24D-01 OVMax= 9.02D-02

 Cycle   4  Pass 0  IDiag  1:
 RMSU=  3.47D-04    CP:  9.80D-01  9.27D-01  4.32D-01
 E= -930.227170202405     Delta-E=       -0.017252101384 Rises=F Damp=F
 DIIS: error= 3.57D-03 at cycle   4 NSaved=   4.
 NSaved= 4 IEnMin= 4 EnMin= -930.227170202405     IErMin= 4 ErrMin= 3.57D-03
 ErrMax= 3.57D-03 EMaxC= 1.00D-01 BMatC= 7.02D-03 BMatP= 2.35D-02
 IDIUse=3 WtCom= 9.64D-01 WtEn= 3.57D-02
 Coeff-Com: -0.377D-02 0.126D+00 0.364D+00 0.514D+00
 Coeff-En:   0.000D+00 0.000D+00 0.263D+00 0.737D+00
 Coeff:     -0.363D-02 0.122D+00 0.360D+00 0.522D+00
 Gap=     0.195 Goal=   None    Shift=    0.000
 RMSDP=3.56D-04 MaxDP=1.23D-02 DE=-1.73D-02 OVMax= 3.83D-02

 Cycle   5  Pass 0  IDiag  1:
 RMSU=  9.75D-05    CP:  9.80D-01  9.01D-01  6.27D-01  5.15D-01
 E= -930.234135004395     Delta-E=       -0.006964801990 Rises=F Damp=F
 DIIS: error= 8.53D-04 at cycle   5 NSaved=   5.
 NSaved= 5 IEnMin= 5 EnMin= -930.234135004395     IErMin= 5 ErrMin= 8.53D-04
 ErrMax= 8.53D-04 EMaxC= 1.00D-01 BMatC= 6.32D-04 BMatP= 7.02D-03
 IDIUse=3 WtCom= 9.91D-01 WtEn= 8.53D-03
 Coeff-Com: -0.212D-02 0.224D-01 0.144D+00 0.303D+00 0.533D+00
 Coeff-En:   0.000D+00 0.000D+00 0.000D+00 0.273D-01 0.973D+00
 Coeff:     -0.210D-02 0.223D-01 0.143D+00 0.300D+00 0.537D+00
 Gap=     0.195 Goal=   None    Shift=    0.000
 RMSDP=8.61D-05 MaxDP=2.96D-03 DE=-6.96D-03 OVMax= 7.67D-03

 Cycle   6  Pass 0  IDiag  1:
 RMSU=  3.28D-05    CP:  9.80D-01  9.08D-01  6.13D-01  5.84D-01  5.65D-01
 E= -930.234707708433     Delta-E=       -0.000572704039 Rises=F Damp=F
 DIIS: error= 2.92D-04 at cycle   6 NSaved=   6.
 NSaved= 6 IEnMin= 6 EnMin= -930.234707708433     IErMin= 6 ErrMin= 2.92D-04
 ErrMax= 2.92D-04 EMaxC= 1.00D-01 BMatC= 3.51D-05 BMatP= 6.32D-04
 IDIUse=3 WtCom= 9.97D-01 WtEn= 2.92D-03
 Coeff-Com: -0.726D-03 0.208D-02 0.455D-01 0.114D+00 0.276D+00 0.564D+00
 Coeff-En:   0.000D+00 0.000D+00 0.000D+00 0.000D+00 0.000D+00 0.100D+01
 Coeff:     -0.724D-03 0.207D-02 0.454D-01 0.113D+00 0.275D+00 0.565D+00
 Gap=     0.195 Goal=   None    Shift=    0.000
 RMSDP=2.42D-05 MaxDP=9.37D-04 DE=-5.73D-04 OVMax= 1.74D-03

 Cycle   7  Pass 0  IDiag  1:
 RMSU=  1.12D-05    CP:  9.80D-01  9.08D-01  6.15D-01  5.86D-01  6.08D-01
                    CP:  6.33D-01
 E= -930.234734750286     Delta-E=       -0.000027041853 Rises=F Damp=F
 DIIS: error= 1.42D-04 at cycle   7 NSaved=   7.
 NSaved= 7 IEnMin= 7 EnMin= -930.234734750286     IErMin= 7 ErrMin= 1.42D-04
 ErrMax= 1.42D-04 EMaxC= 1.00D-01 BMatC= 5.77D-06 BMatP= 3.51D-05
 IDIUse=3 WtCom= 9.99D-01 WtEn= 1.42D-03
 Coeff-Com: -0.239D-03-0.655D-03 0.159D-01 0.441D-01 0.127D+00 0.354D+00
 Coeff-Com:  0.460D+00
 Coeff-En:   0.000D+00 0.000D+00 0.000D+00 0.000D+00 0.000D+00 0.109D+00
 Coeff-En:   0.891D+00
 Coeff:     -0.239D-03-0.654D-03 0.159D-01 0.441D-01 0.127D+00 0.354D+00
 Coeff:      0.461D+00
 Gap=     0.195 Goal=   None    Shift=    0.000
 RMSDP=8.64D-06 MaxDP=4.85D-04 DE=-2.70D-05 OVMax= 7.36D-04

 Initial convergence to 1.0D-05 achieved.  Increase integral accuracy.
 Cycle   8  Pass 1  IDiag  1:
 E= -930.234825856207     Delta-E=       -0.000091105921 Rises=F Damp=F
 DIIS: error= 2.82D-05 at cycle   1 NSaved=   1.
 NSaved= 1 IEnMin= 1 EnMin= -930.234825856207     IErMin= 1 ErrMin= 2.82D-05
 ErrMax= 2.82D-05 EMaxC= 1.00D-01 BMatC= 4.50D-07 BMatP= 4.50D-07
 IDIUse=1 WtCom= 1.00D+00 WtEn= 0.00D+00
 Coeff-Com:  0.100D+01
 Coeff:      0.100D+01
 Gap=     0.195 Goal=   None    Shift=    0.000
 RMSDP=8.64D-06 MaxDP=4.85D-04 DE=-9.11D-05 OVMax= 4.02D-04

 Cycle   9  Pass 1  IDiag  1:
 RMSU=  1.13D-05    CP:  1.00D+00
 E= -930.234825736374     Delta-E=        0.000000119833 Rises=F Damp=F
 DIIS: error= 4.54D-05 at cycle   2 NSaved=   2.
 NSaved= 2 IEnMin= 1 EnMin= -930.234825856207     IErMin= 1 ErrMin= 2.82D-05
 ErrMax= 4.54D-05 EMaxC= 1.00D-01 BMatC= 6.41D-07 BMatP= 4.50D-07
 IDIUse=1 WtCom= 1.00D+00 WtEn= 0.00D+00
 Coeff-Com:  0.553D+00 0.447D+00
 Coeff:      0.553D+00 0.447D+00
 Gap=     0.195 Goal=   None    Shift=    0.000
 RMSDP=3.26D-06 MaxDP=2.11D-04 DE= 1.20D-07 OVMax= 3.42D-04

 Cycle  10  Pass 1  IDiag  1:
 RMSU=  2.25D-06    CP:  1.00D+00  9.56D-01
 E= -930.234826283171     Delta-E=       -0.000000546797 Rises=F Damp=F
 DIIS: error= 1.76D-05 at cycle   3 NSaved=   3.
 NSaved= 3 IEnMin= 3 EnMin= -930.234826283171     IErMin= 3 ErrMin= 1.76D-05
 ErrMax= 1.76D-05 EMaxC= 1.00D-01 BMatC= 7.21D-08 BMatP= 4.50D-07
 IDIUse=1 WtCom= 1.00D+00 WtEn= 0.00D+00
 Coeff-Com:  0.777D-01 0.251D+00 0.671D+00
 Coeff:      0.777D-01 0.251D+00 0.671D+00
 Gap=     0.195 Goal=   None    Shift=    0.000
 RMSDP=1.16D-06 MaxDP=4.64D-05 DE=-5.47D-07 OVMax= 9.32D-05

 Cycle  11  Pass 1  IDiag  1:
 RMSU=  5.40D-07    CP:  1.00D+00  9.80D-01  7.54D-01
 E= -930.234826343466     Delta-E=       -0.000000060295 Rises=F Damp=F
 DIIS: error= 4.08D-06 at cycle   4 NSaved=   4.
 NSaved= 4 IEnMin= 4 EnMin= -930.234826343466     IErMin= 4 ErrMin= 4.08D-06
 ErrMax= 4.08D-06 EMaxC= 1.00D-01 BMatC= 1.23D-08 BMatP= 7.21D-08
 IDIUse=1 WtCom= 1.00D+00 WtEn= 0.00D+00
 Coeff-Com: -0.870D-02 0.106D+00 0.404D+00 0.499D+00
 Coeff:     -0.870D-02 0.106D+00 0.404D+00 0.499D+00
 Gap=     0.195 Goal=   None    Shift=    0.000
 RMSDP=3.97D-07 MaxDP=1.23D-05 DE=-6.03D-08 OVMax= 3.72D-05

 Cycle  12  Pass 1  IDiag  1:
 RMSU=  1.30D-07    CP:  1.00D+00  9.82D-01  7.84D-01  5.59D-01
 E= -930.234826354614     Delta-E=       -0.000000011148 Rises=F Damp=F
 DIIS: error= 8.25D-07 at cycle   5 NSaved=   5.
 NSaved= 5 IEnMin= 5 EnMin= -930.234826354614     IErMin= 5 ErrMin= 8.25D-07
 ErrMax= 8.25D-07 EMaxC= 1.00D-01 BMatC= 5.33D-10 BMatP= 1.23D-08
 IDIUse=1 WtCom= 1.00D+00 WtEn= 0.00D+00
 Coeff-Com: -0.764D-02 0.537D-01 0.216D+00 0.294D+00 0.443D+00
 Coeff:     -0.764D-02 0.537D-01 0.216D+00 0.294D+00 0.443D+00
 Gap=     0.195 Goal=   None    Shift=    0.000
 RMSDP=9.15D-08 MaxDP=2.78D-06 DE=-1.11D-08 OVMax= 9.29D-06

 Cycle  13  Pass 1  IDiag  1:
 RMSU=  5.25D-08    CP:  1.00D+00  9.82D-01  7.82D-01  5.68D-01  7.18D-01
 E= -930.234826355139     Delta-E=       -0.000000000525 Rises=F Damp=F
 DIIS: error= 1.96D-07 at cycle   6 NSaved=   6.
 NSaved= 6 IEnMin= 6 EnMin= -930.234826355139     IErMin= 6 ErrMin= 1.96D-07
 ErrMax= 1.96D-07 EMaxC= 1.00D-01 BMatC= 3.16D-11 BMatP= 5.33D-10
 IDIUse=1 WtCom= 1.00D+00 WtEn= 0.00D+00
 Coeff-Com: -0.267D-02 0.142D-01 0.605D-01 0.896D-01 0.227D+00 0.611D+00
 Coeff:     -0.267D-02 0.142D-01 0.605D-01 0.896D-01 0.227D+00 0.611D+00
 Gap=     0.195 Goal=   None    Shift=    0.000
 RMSDP=2.61D-08 MaxDP=8.60D-07 DE=-5.25D-10 OVMax= 3.41D-06

 Cycle  14  Pass 1  IDiag  1:
 RMSU=  1.20D-08    CP:  1.00D+00  9.82D-01  7.84D-01  5.66D-01  7.89D-01
                    CP:  8.12D-01
 E= -930.234826355169     Delta-E=       -0.000000000030 Rises=F Damp=F
 DIIS: error= 6.50D-08 at cycle   7 NSaved=   7.
 NSaved= 7 IEnMin= 7 EnMin= -930.234826355169     IErMin= 7 ErrMin= 6.50D-08
 ErrMax= 6.50D-08 EMaxC= 1.00D-01 BMatC= 5.16D-12 BMatP= 3.16D-11
 IDIUse=1 WtCom= 1.00D+00 WtEn= 0.00D+00
 Coeff-Com: -0.557D-03 0.105D-02 0.571D-02 0.124D-01 0.649D-01 0.342D+00
 Coeff-Com:  0.575D+00
 Coeff:     -0.557D-03 0.105D-02 0.571D-02 0.124D-01 0.649D-01 0.342D+00
 Coeff:      0.575D+00
 Gap=     0.195 Goal=   None    Shift=    0.000
 RMSDP=7.94D-09 MaxDP=3.36D-07 DE=-3.00D-11 OVMax= 9.46D-07

 SCF Done:  E(RB3LYP) =  -930.234826355     A.U. after   14 cycles
             Convg  =    0.7936D-08             -V/T =  2.0092
 KE= 9.217167423931D+02 PE=-5.051521619426D+03 EE= 1.758415099020D+03
 Leave Link  502 at Fri Sep  3 00:14:53 2021, MaxMem=  268435456 cpu:     399.8
 (Enter /sw/target/amd/app/gaussian/Gaussian09RevA.02_gcc-4.9.2/g09/l508.exe)
 QCSCF skips out because SCF is already converged.
 Leave Link  508 at Fri Sep  3 00:14:53 2021, MaxMem=  268435456 cpu:       0.0
 (Enter /sw/target/amd/app/gaussian/Gaussian09RevA.02_gcc-4.9.2/g09/l601.exe)
 Copying SCF densities to generalized density rwf, IOpCl= 0 IROHF=0.

 **********************************************************************

            Population analysis using the SCF density.

 **********************************************************************

 Orbital symmetries:
       Occupied  (A) (A) (A) (A) (A) (A) (A) (A) (A) (A) (A) (A)
                 (A) (A) (A) (A) (A) (A) (A) (A) (A) (A) (A) (A)
                 (A) (A) (A) (A) (A) (A) (A) (A) (A) (A) (A) (A)
                 (A) (A) (A) (A) (A) (A) (A) (A) (A) (A) (A) (A)
                 (A) (A) (A) (A) (A) (A) (A) (A) (A) (A) (A) (A)
                 (A) (A) (A) (A) (A) (A) (A) (A) (A)
       Virtual   (A) (A) (A) (A) (A) (A) (A) (A) (A) (A) (A) (A)
                 (A) (A) (A) (A) (A) (A) (A) (A) (A) (A) (A) (A)
                 (A) (A) (A) (A) (A) (A) (A) (A) (A) (A) (A) (A)
                 (A) (A) (A) (A) (A) (A) (A) (A) (A) (A) (A) (A)
                 (A) (A) (A) (A) (A) (A) (A) (A) (A) (A) (A) (A)
                 (A) (A) (A) (A) (A) (A) (A) (A) (A) (A) (A) (A)
                 (A) (A) (A) (A) (A) (A) (A) (A) (A) (A) (A) (A)
                 (A) (A) (A) (A) (A) (A) (A) (A) (A) (A) (A) (A)
                 (A) (A) (A) (A) (A) (A) (A) (A) (A) (A) (A) (A)
                 (A) (A) (A) (A) (A) (A) (A) (A) (A) (A) (A) (A)
                 (A) (A) (A) (A) (A) (A) (A) (A) (A) (A) (A) (A)
                 (A) (A) (A) (A) (A) (A) (A) (A) (A) (A) (A) (A)
                 (A) (A) (A) (A) (A) (A) (A) (A) (A) (A) (A) (A)
                 (A) (A) (A) (A) (A) (A) (A) (A) (A) (A) (A) (A)
                 (A) (A) (A) (A) (A) (A) (A) (A) (A) (A) (A) (A)
                 (A) (A) (A) (A) (A) (A) (A) (A) (A) (A) (A) (A)
                 (A) (A) (A) (A) (A) (A) (A) (A) (A) (A) (A) (A)
                 (A) (A) (A) (A) (A) (A) (A) (A) (A) (A) (A) (A)
                 (A) (A) (A) (A) (A) (A) (A) (A) (A) (A) (A) (A)
                 (A) (A) (A) (A) (A) (A) (A) (A) (A) (A) (A) (A)
                 (A) (A)
 The electronic state is 1-A.
 Alpha  occ. eigenvalues --  -19.19863 -19.19732 -19.19713 -19.18178 -14.34535
 Alpha  occ. eigenvalues --  -14.33824 -14.33491 -10.32996 -10.32922 -10.32838
 Alpha  occ. eigenvalues --  -10.25082 -10.24314 -10.24260 -10.24172 -10.24049
 Alpha  occ. eigenvalues --  -10.19033 -10.18926 -10.18824 -10.18324  -1.10550
 Alpha  occ. eigenvalues --   -1.09015  -1.08418  -1.06270  -1.00506  -0.90672
 Alpha  occ. eigenvalues --   -0.90402  -0.84746  -0.75801  -0.75058  -0.73151
 Alpha  occ. eigenvalues --   -0.72609  -0.69957  -0.66006  -0.65219  -0.60912
 Alpha  occ. eigenvalues --   -0.59867  -0.58083  -0.56155  -0.53195  -0.51251
 Alpha  occ. eigenvalues --   -0.50488  -0.50467  -0.48955  -0.47533  -0.47277
 Alpha  occ. eigenvalues --   -0.46336  -0.44994  -0.44254  -0.44015  -0.43637
 Alpha  occ. eigenvalues --   -0.42310  -0.41411  -0.38956  -0.38814  -0.37629
 Alpha  occ. eigenvalues --   -0.37227  -0.36729  -0.36429  -0.35461  -0.35061
 Alpha  occ. eigenvalues --   -0.33284  -0.31914  -0.30398  -0.28751  -0.28256
 Alpha  occ. eigenvalues --   -0.27519  -0.27109  -0.24269  -0.21726
 Alpha virt. eigenvalues --   -0.02192  -0.02031   0.00381   0.01374   0.08293
 Alpha virt. eigenvalues --    0.09620   0.10468   0.12180   0.12384   0.12837
 Alpha virt. eigenvalues --    0.13674   0.13852   0.14843   0.15053   0.15407
 Alpha virt. eigenvalues --    0.15497   0.15574   0.16244   0.16891   0.18332
 Alpha virt. eigenvalues --    0.18619   0.19471   0.19941   0.21195   0.24334
 Alpha virt. eigenvalues --    0.25919   0.27401   0.28871   0.29749   0.30382
 Alpha virt. eigenvalues --    0.31550   0.33473   0.35184   0.37067   0.40179
 Alpha virt. eigenvalues --    0.42683   0.47162   0.48255   0.50022   0.50331
 Alpha virt. eigenvalues --    0.51013   0.51594   0.52209   0.53466   0.54168
 Alpha virt. eigenvalues --    0.54358   0.54428   0.55247   0.56445   0.56978
 Alpha virt. eigenvalues --    0.58094   0.58486   0.58954   0.59301   0.59932
 Alpha virt. eigenvalues --    0.60809   0.61109   0.61476   0.61616   0.63029
 Alpha virt. eigenvalues --    0.63281   0.65160   0.65962   0.66655   0.66745
 Alpha virt. eigenvalues --    0.68737   0.68964   0.71833   0.74075   0.76371
 Alpha virt. eigenvalues --    0.76807   0.78613   0.81517   0.82607   0.83485
 Alpha virt. eigenvalues --    0.83830   0.84098   0.84431   0.84572   0.85508
 Alpha virt. eigenvalues --    0.85673   0.86084   0.86717   0.88275   0.89131
 Alpha virt. eigenvalues --    0.90336   0.91280   0.91929   0.92308   0.92977
 Alpha virt. eigenvalues --    0.93798   0.95068   0.96153   0.96384   0.99678
 Alpha virt. eigenvalues --    1.01132   1.01771   1.02904   1.03416   1.03597
 Alpha virt. eigenvalues --    1.05131   1.05276   1.06335   1.07254   1.09743
 Alpha virt. eigenvalues --    1.11996   1.14756   1.15173   1.17382   1.20194
 Alpha virt. eigenvalues --    1.20944   1.24690   1.25357   1.27420   1.28917
 Alpha virt. eigenvalues --    1.30547   1.33160   1.34472   1.37158   1.38242
 Alpha virt. eigenvalues --    1.38328   1.39919   1.42510   1.43880   1.44634
 Alpha virt. eigenvalues --    1.45607   1.47177   1.47609   1.49268   1.50052
 Alpha virt. eigenvalues --    1.50589   1.50651   1.50996   1.51921   1.54261
 Alpha virt. eigenvalues --    1.55279   1.57818   1.59395   1.65268   1.66791
 Alpha virt. eigenvalues --    1.70260   1.74279   1.75045   1.77676   1.77966
 Alpha virt. eigenvalues --    1.79519   1.81884   1.83068   1.85003   1.85488
 Alpha virt. eigenvalues --    1.86871   1.89849   1.92071   1.93434   1.94905
 Alpha virt. eigenvalues --    1.95446   1.98107   1.98383   1.99624   2.00974
 Alpha virt. eigenvalues --    2.01512   2.02787   2.04303   2.04796   2.06146
 Alpha virt. eigenvalues --    2.08162   2.10776   2.11151   2.11785   2.12262
 Alpha virt. eigenvalues --    2.13049   2.15832   2.16773   2.20417   2.21582
 Alpha virt. eigenvalues --    2.22638   2.23469   2.24001   2.26517   2.26945
 Alpha virt. eigenvalues --    2.28209   2.28550   2.29937   2.30598   2.35769
 Alpha virt. eigenvalues --    2.37072   2.39234   2.41119   2.43583   2.44736
 Alpha virt. eigenvalues --    2.46458   2.47964   2.49699   2.52405   2.53387
 Alpha virt. eigenvalues --    2.55693   2.56720   2.57757   2.61108   2.64714
 Alpha virt. eigenvalues --    2.65137   2.66400   2.67907   2.68309   2.71814
 Alpha virt. eigenvalues --    2.72501   2.73881   2.76110   2.77518   2.78795
 Alpha virt. eigenvalues --    2.82802   2.85517   2.85932   2.90029   2.94033
 Alpha virt. eigenvalues --    2.98758   3.05439   3.17862   3.21887   3.23912
 Alpha virt. eigenvalues --    3.31453   3.43466   3.48310   4.03995   4.04498
 Alpha virt. eigenvalues --    4.07101   4.08996   4.10205   4.12161   4.16693
 Alpha virt. eigenvalues --    4.22463   4.24717   4.26195   4.28590   4.29500
 Alpha virt. eigenvalues --    4.35158   4.40565   4.50125   4.54349   4.65447
 Alpha virt. eigenvalues --    4.71591   5.00139
          Condensed to atoms (all electrons):
              1          2          3          4          5          6
     1  C    4.893657   0.228640  -0.031373  -0.007861   0.000624  -0.000008
     2  O    0.228640   8.183645   0.306952  -0.082432   0.000951  -0.000014
     3  C   -0.031373   0.306952   4.299173   0.394098  -0.038359   0.000905
     4  N   -0.007861  -0.082432   0.394098   7.073383   0.388066  -0.081312
     5  C    0.000624   0.000951  -0.038359   0.388066   4.314658   0.309305
     6  O   -0.000008  -0.000014   0.000905  -0.081312   0.309305   8.177241
     7  C   -0.000068  -0.000007   0.000630  -0.008080  -0.031827   0.229147
     8  N    0.000078  -0.000184  -0.032017  -0.074652   0.463221  -0.080642
     9  C   -0.000089   0.001202  -0.043913  -0.031106  -0.045465   0.001548
    10  O    0.000000  -0.000010   0.001824  -0.000177   0.001866  -0.000007
    11  C   -0.000000   0.000007   0.000109   0.000037   0.000049  -0.000000
    12  C   -0.000000   0.000003  -0.000001  -0.000003   0.000009  -0.000000
    13  C    0.000000  -0.000000   0.000003  -0.000000  -0.000000   0.000000
    14  C    0.000000  -0.000000  -0.000000   0.000000  -0.000000  -0.000000
    15  C    0.000000  -0.000000   0.000017   0.000000  -0.000000   0.000000
    16  C    0.000000  -0.000001   0.000098  -0.000003   0.000017   0.000000
    17  O    0.000000  -0.000000   0.000151  -0.000003   0.000011  -0.000000
    18  C    0.000000  -0.000000   0.000002  -0.000000   0.000000  -0.000000
    19  N    0.004702  -0.080929   0.472835  -0.076566  -0.031876  -0.000187
    20  H    0.372447  -0.031883  -0.007925   0.006952  -0.000140  -0.000004
    21  H    0.372718  -0.031710  -0.008093   0.007089  -0.000099  -0.000004
    22  H    0.376096  -0.030563   0.004108   0.000908  -0.000006  -0.000000
    23  H    0.000000  -0.000000  -0.000006   0.000903   0.004149  -0.030545
    24  H    0.000037  -0.000005  -0.000129   0.007087  -0.008096  -0.031778
    25  H    0.000032  -0.000003  -0.000106   0.006897  -0.007988  -0.031829
    26  H   -0.000000   0.000000  -0.000007  -0.000000   0.000001  -0.000000
    27  H   -0.000000  -0.000000  -0.000000  -0.000000   0.000000  -0.000000
    28  H   -0.000000   0.000000  -0.000000   0.000000  -0.000000  -0.000000
    29  H    0.000000  -0.000000  -0.000000  -0.000000   0.000000  -0.000000
    30  H   -0.000000   0.000000  -0.000002   0.000000   0.000000  -0.000000
    31  H   -0.000000  -0.000000   0.000005  -0.000000   0.000000   0.000000
    32  H    0.000000  -0.000000   0.000000  -0.000000   0.000000  -0.000000
              7          8          9         10         11         12
     1  C   -0.000068   0.000078  -0.000089   0.000000  -0.000000  -0.000000
     2  O   -0.000007  -0.000184   0.001202  -0.000010   0.000007   0.000003
     3  C    0.000630  -0.032017  -0.043913   0.001824   0.000109  -0.000001
     4  N   -0.008080  -0.074652  -0.031106  -0.000177   0.000037  -0.000003
     5  C   -0.031827   0.463221  -0.045465   0.001866   0.000049   0.000009
     6  O    0.229147  -0.080642   0.001548  -0.000007  -0.000000  -0.000000
     7  C    4.893744   0.004739  -0.000116   0.000000   0.000000   0.000000
     8  N    0.004739   6.907755   0.438492  -0.074287   0.001140  -0.000210
     9  C   -0.000116   0.438492   4.359615   0.287709  -0.029921  -0.005585
    10  O    0.000000  -0.074287   0.287709   8.297556   0.200895  -0.053824
    11  C    0.000000   0.001140  -0.029921   0.200895   4.685674   0.556204
    12  C    0.000000  -0.000210  -0.005585  -0.053824   0.556204   4.959823
    13  C   -0.000000   0.000003   0.000157   0.004315  -0.014428   0.506927
    14  C    0.000000   0.000000   0.000036  -0.000019  -0.034612  -0.032101
    15  C   -0.000000  -0.000010   0.000079   0.004749  -0.049335  -0.044684
    16  C   -0.000000  -0.000009  -0.005586  -0.052715   0.464394  -0.052862
    17  O   -0.000000  -0.000896   0.010085  -0.003121  -0.062083   0.003466
    18  C    0.000000   0.000025  -0.000175  -0.000032   0.005047  -0.000103
    19  N    0.000080  -0.075306   0.393663  -0.077351   0.003574   0.001445
    20  H    0.000036  -0.000015   0.000056   0.000000   0.000000   0.000000
    21  H    0.000036  -0.000014   0.000040   0.000000   0.000000   0.000000
    22  H    0.000000   0.000001   0.000003  -0.000000  -0.000000   0.000000
    23  H    0.376433  -0.000004   0.000003  -0.000000  -0.000000   0.000000
    24  H    0.372408  -0.000147   0.000047   0.000000   0.000000   0.000000
    25  H    0.372222  -0.000129   0.000051   0.000000   0.000000   0.000000
    26  H    0.000000  -0.000047   0.000182  -0.002267  -0.036101   0.351240
    27  H    0.000000  -0.000000  -0.000005  -0.000063   0.003584  -0.037849
    28  H   -0.000000  -0.000000   0.000000   0.000001   0.000675   0.004662
    29  H    0.000000  -0.000000  -0.000006  -0.000047   0.002708   0.000656
    30  H    0.000000   0.000004  -0.000026   0.000001   0.000079   0.000005
    31  H    0.000000  -0.000002  -0.000054  -0.000001  -0.000223  -0.000004
    32  H   -0.000000  -0.000000   0.000031  -0.000008  -0.000366  -0.000020
             13         14         15         16         17         18
     1  C    0.000000   0.000000   0.000000   0.000000   0.000000   0.000000
     2  O   -0.000000  -0.000000  -0.000000  -0.000001  -0.000000  -0.000000
     3  C    0.000003  -0.000000   0.000017   0.000098   0.000151   0.000002
     4  N   -0.000000   0.000000   0.000000  -0.000003  -0.000003  -0.000000
     5  C   -0.000000  -0.000000  -0.000000   0.000017   0.000011   0.000000
     6  O    0.000000  -0.000000   0.000000   0.000000  -0.000000  -0.000000
     7  C   -0.000000   0.000000  -0.000000  -0.000000  -0.000000   0.000000
     8  N    0.000003   0.000000  -0.000010  -0.000009  -0.000896   0.000025
     9  C    0.000157   0.000036   0.000079  -0.005586   0.010085  -0.000175
    10  O    0.004315  -0.000019   0.004749  -0.052715  -0.003121  -0.000032
    11  C   -0.014428  -0.034612  -0.049335   0.464394  -0.062083   0.005047
    12  C    0.506927  -0.032101  -0.044684  -0.052862   0.003466  -0.000103
    13  C    4.881590   0.551351  -0.028010  -0.038018  -0.000027   0.000006
    14  C    0.551351   4.854493   0.503966  -0.003799   0.003741   0.000201
    15  C   -0.028010   0.503966   5.124988   0.443579  -0.069895  -0.006764
    16  C   -0.038018  -0.003799   0.443579   4.658490   0.285818  -0.042714
    17  O   -0.000027   0.003741  -0.069895   0.285818   8.207701   0.250186
    18  C    0.000006   0.000201  -0.006764  -0.042714   0.250186   4.890332
    19  N   -0.000048  -0.000001  -0.000037   0.003924  -0.001498   0.000036
    20  H    0.000000   0.000000  -0.000000  -0.000000  -0.000000   0.000000
    21  H   -0.000000   0.000000   0.000000   0.000000   0.000000  -0.000000
    22  H    0.000000  -0.000000  -0.000000   0.000000  -0.000000  -0.000000
    23  H    0.000000  -0.000000   0.000000   0.000000  -0.000000  -0.000000
    24  H   -0.000000  -0.000000   0.000000   0.000000  -0.000000   0.000000
    25  H   -0.000000   0.000000  -0.000000  -0.000000   0.000000  -0.000000
    26  H   -0.042864   0.005158   0.000094   0.006020  -0.000045   0.000003
    27  H    0.356633  -0.041932   0.005136   0.000556   0.000002  -0.000000
    28  H   -0.040452   0.358848  -0.039765   0.003389  -0.000042  -0.000009
    29  H    0.004602  -0.038228   0.354488  -0.043514  -0.007401   0.006323
    30  H   -0.000000  -0.000001   0.000055   0.003138  -0.031009   0.384384
    31  H   -0.000007  -0.000080   0.005590  -0.005566  -0.034839   0.364441
    32  H    0.000000  -0.000109   0.005803  -0.005525  -0.036177   0.365702
             19         20         21         22         23         24
     1  C    0.004702   0.372447   0.372718   0.376096   0.000000   0.000037
     2  O   -0.080929  -0.031883  -0.031710  -0.030563  -0.000000  -0.000005
     3  C    0.472835  -0.007925  -0.008093   0.004108  -0.000006  -0.000129
     4  N   -0.076566   0.006952   0.007089   0.000908   0.000903   0.007087
     5  C   -0.031876  -0.000140  -0.000099  -0.000006   0.004149  -0.008096
     6  O   -0.000187  -0.000004  -0.000004  -0.000000  -0.030545  -0.031778
     7  C    0.000080   0.000036   0.000036   0.000000   0.376433   0.372408
     8  N   -0.075306  -0.000015  -0.000014   0.000001  -0.000004  -0.000147
     9  C    0.393663   0.000056   0.000040   0.000003   0.000003   0.000047
    10  O   -0.077351   0.000000   0.000000  -0.000000  -0.000000   0.000000
    11  C    0.003574   0.000000   0.000000  -0.000000  -0.000000   0.000000
    12  C    0.001445   0.000000   0.000000   0.000000   0.000000   0.000000
    13  C   -0.000048   0.000000  -0.000000   0.000000   0.000000  -0.000000
    14  C   -0.000001   0.000000   0.000000  -0.000000  -0.000000  -0.000000
    15  C   -0.000037  -0.000000   0.000000  -0.000000   0.000000   0.000000
    16  C    0.003924  -0.000000   0.000000   0.000000   0.000000   0.000000
    17  O   -0.001498  -0.000000   0.000000  -0.000000  -0.000000  -0.000000
    18  C    0.000036   0.000000  -0.000000  -0.000000  -0.000000   0.000000
    19  N    6.936867  -0.000133  -0.000141  -0.000001   0.000001  -0.000014
    20  H   -0.000133   0.569619  -0.037088  -0.034391   0.000000  -0.000039
    21  H   -0.000141  -0.037088   0.567541  -0.034251  -0.000000   0.000347
    22  H   -0.000001  -0.034391  -0.034251   0.552099   0.000000  -0.000000
    23  H    0.000001   0.000000  -0.000000   0.000000   0.551106  -0.034314
    24  H   -0.000014  -0.000039   0.000347  -0.000000  -0.034314   0.569123
    25  H   -0.000015   0.000314  -0.000038   0.000000  -0.034297  -0.037285
    26  H   -0.000017   0.000000   0.000000  -0.000000  -0.000000  -0.000000
    27  H   -0.000001   0.000000   0.000000   0.000000   0.000000   0.000000
    28  H   -0.000000  -0.000000   0.000000  -0.000000  -0.000000  -0.000000
    29  H    0.000002   0.000000  -0.000000   0.000000   0.000000   0.000000
    30  H    0.000000  -0.000000   0.000000  -0.000000  -0.000000  -0.000000
    31  H    0.000033   0.000000  -0.000000   0.000000   0.000000   0.000000
    32  H   -0.000001   0.000000  -0.000000  -0.000000  -0.000000  -0.000000
             25         26         27         28         29         30
     1  C    0.000032  -0.000000  -0.000000  -0.000000   0.000000  -0.000000
     2  O   -0.000003   0.000000  -0.000000   0.000000  -0.000000   0.000000
     3  C   -0.000106  -0.000007  -0.000000  -0.000000  -0.000000  -0.000002
     4  N    0.006897  -0.000000  -0.000000   0.000000  -0.000000   0.000000
     5  C   -0.007988   0.000001   0.000000  -0.000000   0.000000   0.000000
     6  O   -0.031829  -0.000000  -0.000000  -0.000000  -0.000000  -0.000000
     7  C    0.372222   0.000000   0.000000  -0.000000   0.000000   0.000000
     8  N   -0.000129  -0.000047  -0.000000  -0.000000  -0.000000   0.000004
     9  C    0.000051   0.000182  -0.000005   0.000000  -0.000006  -0.000026
    10  O    0.000000  -0.002267  -0.000063   0.000001  -0.000047   0.000001
    11  C    0.000000  -0.036101   0.003584   0.000675   0.002708   0.000079
    12  C    0.000000   0.351240  -0.037849   0.004662   0.000656   0.000005
    13  C   -0.000000  -0.042864   0.356633  -0.040452   0.004602  -0.000000
    14  C    0.000000   0.005158  -0.041932   0.358848  -0.038228  -0.000001
    15  C   -0.000000   0.000094   0.005136  -0.039765   0.354488   0.000055
    16  C   -0.000000   0.006020   0.000556   0.003389  -0.043514   0.003138
    17  O    0.000000  -0.000045   0.000002  -0.000042  -0.007401  -0.031009
    18  C   -0.000000   0.000003  -0.000000  -0.000009   0.006323   0.384384
    19  N   -0.000015  -0.000017  -0.000001  -0.000000   0.000002   0.000000
    20  H    0.000314   0.000000   0.000000  -0.000000   0.000000  -0.000000
    21  H   -0.000038   0.000000   0.000000   0.000000  -0.000000   0.000000
    22  H    0.000000  -0.000000   0.000000  -0.000000   0.000000  -0.000000
    23  H   -0.034297  -0.000000   0.000000  -0.000000   0.000000  -0.000000
    24  H   -0.037285  -0.000000   0.000000  -0.000000   0.000000  -0.000000
    25  H    0.570554   0.000000  -0.000000   0.000000  -0.000000   0.000000
    26  H    0.000000   0.581617  -0.005925  -0.000184   0.000013  -0.000000
    27  H   -0.000000  -0.005925   0.596274  -0.005333  -0.000198  -0.000000
    28  H    0.000000  -0.000184  -0.005333   0.594052  -0.005759  -0.000000
    29  H   -0.000000   0.000013  -0.000198  -0.005759   0.586687  -0.000077
    30  H    0.000000  -0.000000  -0.000000  -0.000000  -0.000077   0.539149
    31  H   -0.000000   0.000000   0.000000   0.000003   0.001406  -0.033101
    32  H   -0.000000  -0.000000   0.000000   0.000002   0.001655  -0.034103
             31         32
     1  C   -0.000000   0.000000
     2  O   -0.000000  -0.000000
     3  C    0.000005   0.000000
     4  N   -0.000000  -0.000000
     5  C    0.000000   0.000000
     6  O    0.000000  -0.000000
     7  C    0.000000  -0.000000
     8  N   -0.000002  -0.000000
     9  C   -0.000054   0.000031
    10  O   -0.000001  -0.000008
    11  C   -0.000223  -0.000366
    12  C   -0.000004  -0.000020
    13  C   -0.000007   0.000000
    14  C   -0.000080  -0.000109
    15  C    0.005590   0.005803
    16  C   -0.005566  -0.005525
    17  O   -0.034839  -0.036177
    18  C    0.364441   0.365702
    19  N    0.000033  -0.000001
    20  H    0.000000   0.000000
    21  H   -0.000000  -0.000000
    22  H    0.000000  -0.000000
    23  H    0.000000  -0.000000
    24  H    0.000000  -0.000000
    25  H   -0.000000  -0.000000
    26  H    0.000000  -0.000000
    27  H    0.000000   0.000000
    28  H    0.000003   0.000002
    29  H    0.001406   0.001655
    30  H   -0.033101  -0.034103
    31  H    0.591872  -0.045902
    32  H   -0.045902   0.593880
 Mulliken atomic charges:
              1
     1  C   -0.209634
     2  O   -0.463658
     3  C    0.681021
     4  N   -0.523224
     5  C    0.680930
     6  O   -0.461815
     7  C   -0.209377
     8  N   -0.476885
     9  C    0.669049
    10  O   -0.534986
    11  C    0.302896
    12  C   -0.157195
    13  C   -0.141735
    14  C   -0.126912
    15  C   -0.210044
    16  C    0.380888
    17  O   -0.514124
    18  C   -0.216889
    19  N   -0.473040
    20  H    0.162194
    21  H    0.163669
    22  H    0.165998
    23  H    0.166571
    24  H    0.162758
    25  H    0.161620
    26  H    0.143130
    27  H    0.129122
    28  H    0.129911
    29  H    0.136689
    30  H    0.171503
    31  H    0.156432
    32  H    0.155137
 Sum of Mulliken atomic charges =  -0.00000
 Mulliken charges with hydrogens summed into heavy atoms:
              1
     1  C    0.282226
     2  O   -0.463658
     3  C    0.681021
     4  N   -0.523224
     5  C    0.680930
     6  O   -0.461815
     7  C    0.281572
     8  N   -0.476885
     9  C    0.669049
    10  O   -0.534986
    11  C    0.302896
    12  C   -0.014065
    13  C   -0.012613
    14  C    0.002999
    15  C   -0.073355
    16  C    0.380888
    17  O   -0.514124
    18  C    0.266183
    19  N   -0.473040
 Sum of Mulliken charges with hydrogens summed into heavy atoms =  -0.00000
 Electronic spatial extent (au):  <R**2>=           5608.9191
 Charge=              0.0000 electrons
 Dipole moment (field-independent basis, Debye):
    X=              1.3239    Y=              2.0059    Z=              3.0596  Tot=              3.8907
 Quadrupole moment (field-independent basis, Debye-Ang):
   XX=            -84.2888   YY=           -112.8905   ZZ=            -98.2116
   XY=              4.1533   XZ=             -0.5298   YZ=             -5.7652
 Traceless Quadrupole moment (field-independent basis, Debye-Ang):
   XX=             14.1748   YY=            -14.4269   ZZ=              0.2521
   XY=              4.1533   XZ=             -0.5298   YZ=             -5.7652
 Octapole moment (field-independent basis, Debye-Ang**2):
  XXX=             77.1262  YYY=             16.4236  ZZZ=             19.3618  XYY=             18.8284
  XXY=             21.2208  XXZ=             23.2400  XZZ=            -11.5627  YZZ=             -0.4736
  YYZ=             18.8099  XYZ=             10.9988
 Hexadecapole moment (field-independent basis, Debye-Ang**3):
 XXXX=          -4622.4187 YYYY=          -1191.9000 ZZZZ=           -856.6832 XXXY=           -109.3891
 XXXZ=            -29.5388 YYYX=             94.6617 YYYZ=              6.5841 ZZZX=            -24.9640
 ZZZY=            -36.3082 XXYY=           -999.3123 XXZZ=           -953.3608 YYZZ=           -340.5593
 XXYZ=            -31.5568 YYXZ=             25.1254 ZZXY=             21.7030
 N-N= 1.441154951657D+03 E-N=-5.051521602110D+03  KE= 9.217167423931D+02
 No NMR shielding tensors so no spin-rotation constants.
 Leave Link  601 at Fri Sep  3 00:14:54 2021, MaxMem=  268435456 cpu:       0.6
 (Enter /sw/target/amd/app/gaussian/Gaussian09RevA.02_gcc-4.9.2/g09/l701.exe)
 Compute integral first derivatives.
 ... and contract with generalized density number  0.
 Leave Link  701 at Fri Sep  3 00:14:54 2021, MaxMem=  268435456 cpu:       0.5
 (Enter /sw/target/amd/app/gaussian/Gaussian09RevA.02_gcc-4.9.2/g09/l702.exe)
 L702 exits ... SP integral derivatives will be done elsewhere.
 Leave Link  702 at Fri Sep  3 00:14:55 2021, MaxMem=  268435456 cpu:       0.1
 (Enter /sw/target/amd/app/gaussian/Gaussian09RevA.02_gcc-4.9.2/g09/l703.exe)
 Compute integral first derivatives, UseDBF=F ICtDFT=           0.
 Integral derivatives from FoFDir, PRISM(SPDF).
 Calling FoFJK, ICntrl=      2127 FMM=F ISym2X=0 I1Cent= 0 IOpClX= 0 NMat=1 NMatS=1 NMatT=0.
 FoFCou: FMM=F IPFlag=           0 FMFlag=      100000 FMFlg1=         800
         NFxFlg=           0 DoJE=F BraDBF=F KetDBF=F FulRan=T
         Omega=  0.000000  0.000000  1.000000  0.000000  0.000000 ICntrl=    2127 IOpCl=  0
         NMat0=    1 NMatS0=    1 NMatT0=    0 NMatD0=    1 NMtDS0=    0 NMtDT0=    0
         I1Cent=           0 NGrid=           0.
 Symmetry not used in FoFCou.
 Leave Link  703 at Fri Sep  3 00:17:28 2021, MaxMem=  268435456 cpu:     152.4
 (Enter /sw/target/amd/app/gaussian/Gaussian09RevA.02_gcc-4.9.2/g09/l716.exe)
 Dipole        = 5.20877335D-01 7.89177519D-01 1.20375835D+00
 ***** Axes restored to original set *****
 -------------------------------------------------------------------
 Center     Atomic                   Forces (Hartrees/Bohr)
 Number     Number              X              Y              Z
 -------------------------------------------------------------------
      1        6          -0.009660882   -0.009363728    0.009857025
      2        8           0.000696773    0.029901560   -0.016141367
      3        6           0.003406656   -0.023791348    0.010849835
      4        7          -0.008603724   -0.002150931    0.007012558
      5        6          -0.013569129    0.022268627   -0.008271153
      6        8           0.022416518   -0.025722957    0.003605960
      7        6          -0.015026864    0.004878511    0.004877776
      8        7           0.007790309    0.008269701   -0.006383754
      9        6           0.006573354    0.002554269   -0.014121104
     10        8          -0.031959584    0.003751979    0.023651735
     11        6           0.009875064   -0.015208321   -0.013348694
     12        6           0.000808263    0.002420861    0.006669434
     13        6           0.005057440   -0.001824920    0.000219838
     14        6          -0.002867989    0.000712262   -0.001688127
     15        6           0.005314632   -0.004401629   -0.000956735
     16        6          -0.000422928    0.004953256    0.003102974
     17        8          -0.000840966   -0.003415159   -0.000309022
     18        6          -0.002857198    0.003348643    0.001720322
     19        7           0.014855200   -0.000627717   -0.002795609
     20        1          -0.002195680    0.001409656   -0.003606507
     21        1           0.000491781    0.004156486    0.001522289
     22        1           0.005965002   -0.000687300   -0.002843489
     23        1           0.004738937    0.002445919   -0.003955768
     24        1           0.002571672   -0.001244507    0.003381039
     25        1          -0.000077288   -0.004073899   -0.001647693
     26        1          -0.002358655    0.002369098    0.001984210
     27        1          -0.000342375    0.000461428    0.000035169
     28        1          -0.000586301    0.001069437    0.001005415
     29        1          -0.002556422    0.002509190    0.000654944
     30        1          -0.002625282   -0.000417193   -0.004537140
     31        1           0.003311271   -0.001941833   -0.000169809
     32        1           0.002678395   -0.002609444    0.000625445
 -------------------------------------------------------------------
 Cartesian Forces:  Max     0.031959584 RMS     0.008937997
 Leave Link  716 at Fri Sep  3 00:17:28 2021, MaxMem=  268435456 cpu:       0.1
 (Enter /sw/target/amd/app/gaussian/Gaussian09RevA.02_gcc-4.9.2/g09/l103.exe)

 GradGradGradGradGradGradGradGradGradGradGradGradGradGradGradGradGradGrad
 Berny optimization.
 Internal  Forces:  Max     0.028363990 RMS     0.005769863
 Search for a local minimum.
 Step number   1 out of a maximum of  150
 All quantities printed in internal units (Hartrees-Bohrs-Radians)
 RMS Force = .57699D-02 SwitMx=.10000D-02 MixMth= 1
 Mixed Optimization -- RFO/linear search
 Second derivative matrix not updated -- first step.
     Eigenvalues ---    0.01416   0.01416   0.01418   0.01815   0.01965
     Eigenvalues ---    0.01965   0.02002   0.02063   0.02076   0.02085
     Eigenvalues ---    0.02090   0.02104   0.02117   0.02129   0.02154
     Eigenvalues ---    0.02164   0.02179   0.02426   0.02476   0.02486
     Eigenvalues ---    0.02627   0.02658   0.02684   0.09964   0.09965
     Eigenvalues ---    0.09989   0.10535   0.10536   0.10550   0.15999
     Eigenvalues ---    0.16000   0.16000   0.16000   0.16000   0.16000
     Eigenvalues ---    0.16000   0.16000   0.16000   0.16000   0.16000
     Eigenvalues ---    0.16000   0.16000   0.22000   0.22487   0.24471
     Eigenvalues ---    0.24949   0.24963   0.24978   0.24997   0.24998
     Eigenvalues ---    0.25000   0.25000   0.25000   0.25000   0.25000
     Eigenvalues ---    0.25000   0.25000   0.34165   0.34166   0.34169
[...]
 Alpha virt. eigenvalues --    2.56316   2.57636   2.58718   2.63601   2.64833
 Alpha virt. eigenvalues --    2.65690   2.67901   2.68150   2.69385   2.72177
 Alpha virt. eigenvalues --    2.72772   2.74945   2.75391   2.76882   2.78113
 Alpha virt. eigenvalues --    2.83069   2.85386   2.86578   2.90827   2.94621
 Alpha virt. eigenvalues --    2.99825   3.04753   3.21208   3.25781   3.26987
 Alpha virt. eigenvalues --    3.32644   3.44242   3.47604   4.04010   4.05550
 Alpha virt. eigenvalues --    4.07959   4.09149   4.10833   4.13494   4.17391
 Alpha virt. eigenvalues --    4.22243   4.24608   4.26162   4.29206   4.30975
 Alpha virt. eigenvalues --    4.35364   4.41424   4.52248   4.55130   4.70404
 Alpha virt. eigenvalues --    4.74697   5.00858
          Condensed to atoms (all electrons):
              1          2          3          4          5          6
     1  C    4.890628   0.227043  -0.029769  -0.006075   0.000547  -0.000012
     2  O    0.227043   8.173225   0.322434  -0.086811   0.001106  -0.000019
     3  C   -0.029769   0.322434   4.281592   0.397377  -0.038908   0.001003
     4  N   -0.006075  -0.086811   0.397377   7.102786   0.389393  -0.085294
     5  C    0.000547   0.001106  -0.038908   0.389393   4.296150   0.325950
     6  O   -0.000012  -0.000019   0.001003  -0.085294   0.325950   8.164640
     7  C   -0.000047  -0.000011   0.000594  -0.006311  -0.030454   0.227939
     8  N    0.000070  -0.000187  -0.031071  -0.076510   0.458577  -0.084706
     9  C   -0.000105   0.001150  -0.042877  -0.028676  -0.045748   0.001526
    10  O    0.000001  -0.000012   0.002033  -0.000170   0.001843  -0.000007
    11  C   -0.000000   0.000004   0.000078   0.000037   0.000006  -0.000000
    12  C   -0.000000   0.000002  -0.000060  -0.000003   0.000008  -0.000000
    13  C    0.000000  -0.000000   0.000002   0.000000  -0.000000   0.000000
    14  C    0.000000  -0.000000  -0.000000   0.000000  -0.000000  -0.000000
    15  C    0.000000  -0.000000   0.000011   0.000000  -0.000000   0.000000
    16  C    0.000000  -0.000000   0.000144   0.000000   0.000027   0.000000
    17  O    0.000000  -0.000001   0.000349  -0.000002   0.000003  -0.000000
    18  C   -0.000000  -0.000001   0.000010   0.000000  -0.000001   0.000000
    19  N    0.004863  -0.084860   0.464878  -0.078639  -0.030740  -0.000182
    20  H    0.370465  -0.030820  -0.005909   0.007362  -0.000156  -0.000004
    21  H    0.370730  -0.030768  -0.005814   0.007252  -0.000127  -0.000004
    22  H    0.379892  -0.033238   0.003601   0.000838  -0.000004  -0.000000
    23  H    0.000000  -0.000000  -0.000004   0.000837   0.003658  -0.033278
    24  H    0.000028  -0.000004  -0.000153   0.007266  -0.005867  -0.030757
    25  H    0.000023  -0.000003  -0.000131   0.007176  -0.005833  -0.030852
    26  H   -0.000000   0.000000  -0.000005  -0.000000   0.000001  -0.000000
    27  H    0.000000  -0.000000  -0.000000  -0.000000   0.000000  -0.000000
    28  H   -0.000000   0.000000  -0.000000  -0.000000  -0.000000  -0.000000
    29  H    0.000000  -0.000000  -0.000000  -0.000000   0.000000  -0.000000
    30  H   -0.000000  -0.000000  -0.000002   0.000000  -0.000000  -0.000000
    31  H   -0.000000  -0.000000   0.000002  -0.000000   0.000000   0.000000
    32  H    0.000000  -0.000000   0.000000   0.000000   0.000000  -0.000000
              7          8          9         10         11         12
     1  C   -0.000047   0.000070  -0.000105   0.000001  -0.000000  -0.000000
     2  O   -0.000011  -0.000187   0.001150  -0.000012   0.000004   0.000002
     3  C    0.000594  -0.031071  -0.042877   0.002033   0.000078  -0.000060
     4  N   -0.006311  -0.076510  -0.028676  -0.000170   0.000037  -0.000003
     5  C   -0.030454   0.458577  -0.045748   0.001843   0.000006   0.000008
     6  O    0.227939  -0.084706   0.001526  -0.000007  -0.000000  -0.000000
     7  C    4.890285   0.004883  -0.000143   0.000000   0.000000   0.000000
     8  N    0.004883   6.943443   0.433332  -0.081803   0.001109  -0.000208
     9  C   -0.000143   0.433332   4.324535   0.306595  -0.024154  -0.002815
    10  O    0.000000  -0.081803   0.306595   8.285961   0.190827  -0.053055
    11  C    0.000000   0.001109  -0.024154   0.190827   4.683193   0.563470
    12  C    0.000000  -0.000208  -0.002815  -0.053055   0.563470   4.954809
    13  C   -0.000000   0.000003   0.000080   0.003932  -0.014358   0.505211
    14  C    0.000000   0.000000   0.000012  -0.000037  -0.035474  -0.030294
    15  C   -0.000000  -0.000001   0.000303   0.004804  -0.050940  -0.046522
    16  C   -0.000000  -0.000008  -0.007669  -0.047013   0.461566  -0.048578
    17  O   -0.000000  -0.000594   0.007278  -0.003618  -0.062747   0.003725
    18  C    0.000000   0.000009  -0.000168  -0.000048   0.005351  -0.000111
    19  N    0.000072  -0.074397   0.395080  -0.082112   0.006879  -0.000173
    20  H    0.000028  -0.000010   0.000048   0.000000   0.000000   0.000000
    21  H    0.000024  -0.000010   0.000045   0.000000  -0.000000   0.000000
    22  H    0.000000   0.000001   0.000003  -0.000000  -0.000000   0.000000
    23  H    0.380292   0.000003   0.000002  -0.000000  -0.000000   0.000000
    24  H    0.370320  -0.000139   0.000049   0.000000  -0.000000   0.000000
    25  H    0.370305  -0.000143   0.000046   0.000000   0.000000  -0.000000
    26  H    0.000000  -0.000092   0.000241  -0.001851  -0.036822   0.349139
    27  H    0.000000  -0.000000  -0.000003  -0.000056   0.003572  -0.038375
    28  H    0.000000  -0.000000   0.000000   0.000001   0.000713   0.004571
    29  H    0.000000  -0.000000  -0.000009  -0.000050   0.003008   0.000678
    30  H    0.000000   0.000001  -0.000023   0.000000   0.000085   0.000006
    31  H    0.000000  -0.000001  -0.000020  -0.000003  -0.000296  -0.000007
    32  H   -0.000000  -0.000000   0.000024  -0.000009  -0.000333  -0.000018
             13         14         15         16         17         18
     1  C    0.000000   0.000000   0.000000   0.000000   0.000000  -0.000000
     2  O   -0.000000  -0.000000  -0.000000  -0.000000  -0.000001  -0.000001
     3  C    0.000002  -0.000000   0.000011   0.000144   0.000349   0.000010
     4  N    0.000000   0.000000   0.000000   0.000000  -0.000002   0.000000
     5  C   -0.000000  -0.000000  -0.000000   0.000027   0.000003  -0.000001
     6  O    0.000000  -0.000000   0.000000   0.000000  -0.000000   0.000000
     7  C   -0.000000   0.000000  -0.000000  -0.000000  -0.000000   0.000000
     8  N    0.000003   0.000000  -0.000001  -0.000008  -0.000594   0.000009
     9  C    0.000080   0.000012   0.000303  -0.007669   0.007278  -0.000168
    10  O    0.003932  -0.000037   0.004804  -0.047013  -0.003618  -0.000048
    11  C   -0.014358  -0.035474  -0.050940   0.461566  -0.062747   0.005351
    12  C    0.505211  -0.030294  -0.046522  -0.048578   0.003725  -0.000111
    13  C    4.884883   0.552426  -0.027488  -0.039794  -0.000021   0.000007
    14  C    0.552426   4.853853   0.499577  -0.000899   0.003884   0.000189
    15  C   -0.027488   0.499577   5.128309   0.447975  -0.070074  -0.007098
    16  C   -0.039794  -0.000899   0.447975   4.636820   0.288300  -0.042292
    17  O   -0.000021   0.003884  -0.070074   0.288300   8.206595   0.249587
    18  C    0.000007   0.000189  -0.007098  -0.042292   0.249587   4.889623
    19  N   -0.000007  -0.000010  -0.000188   0.003736  -0.001367   0.000184
    20  H   -0.000000  -0.000000  -0.000000  -0.000000  -0.000000   0.000000
    21  H   -0.000000   0.000000   0.000000   0.000000   0.000000  -0.000000
    22  H    0.000000  -0.000000  -0.000000   0.000000   0.000000  -0.000000
    23  H    0.000000  -0.000000   0.000000   0.000000  -0.000000  -0.000000
    24  H    0.000000  -0.000000   0.000000  -0.000000  -0.000000   0.000000
    25  H   -0.000000   0.000000  -0.000000  -0.000000   0.000000  -0.000000
    26  H   -0.042040   0.005007   0.000074   0.006433  -0.000050   0.000003
    27  H    0.358628  -0.041504   0.005023   0.000522   0.000001  -0.000000
    28  H   -0.040577   0.358966  -0.039933   0.003391  -0.000045  -0.000009
    29  H    0.004382  -0.037481   0.352951  -0.043275  -0.007628   0.006677
    30  H   -0.000000  -0.000000   0.000077   0.003135  -0.033284   0.386848
    31  H   -0.000005  -0.000095   0.005585  -0.005087  -0.034739   0.363970
    32  H   -0.000001  -0.000115   0.005597  -0.005327  -0.035235   0.363134
             19         20         21         22         23         24
     1  C    0.004863   0.370465   0.370730   0.379892   0.000000   0.000028
     2  O   -0.084860  -0.030820  -0.030768  -0.033238  -0.000000  -0.000004
     3  C    0.464878  -0.005909  -0.005814   0.003601  -0.000004  -0.000153
     4  N   -0.078639   0.007362   0.007252   0.000838   0.000837   0.007266
     5  C   -0.030740  -0.000156  -0.000127  -0.000004   0.003658  -0.005867
     6  O   -0.000182  -0.000004  -0.000004  -0.000000  -0.033278  -0.030757
     7  C    0.000072   0.000028   0.000024   0.000000   0.380292   0.370320
     8  N   -0.074397  -0.000010  -0.000010   0.000001   0.000003  -0.000139
     9  C    0.395080   0.000048   0.000045   0.000003   0.000002   0.000049
    10  O   -0.082112   0.000000   0.000000  -0.000000  -0.000000   0.000000
    11  C    0.006879   0.000000  -0.000000  -0.000000  -0.000000  -0.000000
    12  C   -0.000173   0.000000   0.000000   0.000000   0.000000   0.000000
    13  C   -0.000007  -0.000000  -0.000000   0.000000   0.000000   0.000000
    14  C   -0.000010  -0.000000   0.000000  -0.000000  -0.000000  -0.000000
    15  C   -0.000188  -0.000000   0.000000  -0.000000   0.000000   0.000000
    16  C    0.003736  -0.000000   0.000000   0.000000   0.000000  -0.000000
    17  O   -0.001367  -0.000000   0.000000   0.000000  -0.000000  -0.000000
    18  C    0.000184   0.000000  -0.000000  -0.000000  -0.000000   0.000000
    19  N    6.972568  -0.000146  -0.000138   0.000007   0.000001  -0.000011
    20  H   -0.000146   0.562465  -0.038618  -0.031186   0.000000  -0.000035
    21  H   -0.000138  -0.038618   0.561129  -0.031020   0.000000   0.000245
    22  H    0.000007  -0.031186  -0.031020   0.541205   0.000000   0.000000
    23  H    0.000001   0.000000   0.000000   0.000000   0.539948  -0.031071
    24  H   -0.000011  -0.000035   0.000245   0.000000  -0.031071   0.562911
    25  H   -0.000011   0.000240  -0.000033   0.000000  -0.031188  -0.038804
    26  H    0.000019   0.000000   0.000000   0.000000  -0.000000  -0.000000
    27  H   -0.000000   0.000000   0.000000   0.000000   0.000000   0.000000
    28  H   -0.000000   0.000000   0.000000  -0.000000  -0.000000  -0.000000
    29  H    0.000002   0.000000  -0.000000   0.000000   0.000000   0.000000
    30  H   -0.000002   0.000000   0.000000  -0.000000  -0.000000  -0.000000
    31  H    0.000032   0.000000  -0.000000  -0.000000   0.000000   0.000000
    32  H    0.000002  -0.000000   0.000000  -0.000000  -0.000000  -0.000000
             25         26         27         28         29         30
     1  C    0.000023  -0.000000   0.000000  -0.000000   0.000000  -0.000000
     2  O   -0.000003   0.000000  -0.000000   0.000000  -0.000000  -0.000000
     3  C   -0.000131  -0.000005  -0.000000  -0.000000  -0.000000  -0.000002
     4  N    0.007176  -0.000000  -0.000000  -0.000000  -0.000000   0.000000
     5  C   -0.005833   0.000001   0.000000  -0.000000   0.000000  -0.000000
     6  O   -0.030852  -0.000000  -0.000000  -0.000000  -0.000000  -0.000000
     7  C    0.370305   0.000000   0.000000   0.000000   0.000000   0.000000
     8  N   -0.000143  -0.000092  -0.000000  -0.000000  -0.000000   0.000001
     9  C    0.000046   0.000241  -0.000003   0.000000  -0.000009  -0.000023
    10  O    0.000000  -0.001851  -0.000056   0.000001  -0.000050   0.000000
    11  C    0.000000  -0.036822   0.003572   0.000713   0.003008   0.000085
    12  C   -0.000000   0.349139  -0.038375   0.004571   0.000678   0.000006
    13  C   -0.000000  -0.042040   0.358628  -0.040577   0.004382  -0.000000
    14  C    0.000000   0.005007  -0.041504   0.358966  -0.037481  -0.000000
    15  C   -0.000000   0.000074   0.005023  -0.039933   0.352951   0.000077
    16  C   -0.000000   0.006433   0.000522   0.003391  -0.043275   0.003135
    17  O    0.000000  -0.000050   0.000001  -0.000045  -0.007628  -0.033284
    18  C   -0.000000   0.000003  -0.000000  -0.000009   0.006677   0.386848
    19  N   -0.000011   0.000019  -0.000000  -0.000000   0.000002  -0.000002
    20  H    0.000240   0.000000   0.000000   0.000000   0.000000   0.000000
    21  H   -0.000033   0.000000   0.000000   0.000000  -0.000000   0.000000
    22  H    0.000000   0.000000   0.000000  -0.000000   0.000000  -0.000000
    23  H   -0.031188  -0.000000   0.000000  -0.000000   0.000000  -0.000000
    24  H   -0.038804  -0.000000   0.000000  -0.000000   0.000000  -0.000000
    25  H    0.563732   0.000000  -0.000000   0.000000  -0.000000   0.000000
    26  H    0.000000   0.581991  -0.005711  -0.000175   0.000014  -0.000000
    27  H   -0.000000  -0.005711   0.592770  -0.005293  -0.000185  -0.000000
    28  H    0.000000  -0.000175  -0.005293   0.594268  -0.005646  -0.000000
    29  H   -0.000000   0.000014  -0.000185  -0.005646   0.588281  -0.000078
    30  H    0.000000  -0.000000  -0.000000  -0.000000  -0.000078   0.533593
    31  H   -0.000000   0.000000   0.000000   0.000003   0.001465  -0.030792
    32  H    0.000000  -0.000000   0.000000   0.000003   0.001551  -0.031828
             31         32
     1  C   -0.000000   0.000000
     2  O   -0.000000  -0.000000
     3  C    0.000002   0.000000
     4  N   -0.000000   0.000000
     5  C    0.000000   0.000000
     6  O    0.000000  -0.000000
     7  C    0.000000  -0.000000
     8  N   -0.000001  -0.000000
     9  C   -0.000020   0.000024
    10  O   -0.000003  -0.000009
    11  C   -0.000296  -0.000333
    12  C   -0.000007  -0.000018
    13  C   -0.000005  -0.000001
    14  C   -0.000095  -0.000115
    15  C    0.005585   0.005597
    16  C   -0.005087  -0.005327
    17  O   -0.034739  -0.035235
    18  C    0.363970   0.363134
    19  N    0.000032   0.000002
    20  H    0.000000  -0.000000
    21  H   -0.000000   0.000000
    22  H   -0.000000  -0.000000
    23  H    0.000000  -0.000000
    24  H    0.000000  -0.000000
    25  H   -0.000000   0.000000
    26  H    0.000000  -0.000000
    27  H    0.000000   0.000000
    28  H    0.000003   0.000003
    29  H    0.001465   0.001551
    30  H   -0.030792  -0.031828
    31  H    0.591902  -0.049096
    32  H   -0.049096   0.598534
 Mulliken atomic charges:
              1
     1  C   -0.208284
     2  O   -0.458228
     3  C    0.680593
     4  N   -0.551836
     5  C    0.680568
     6  O   -0.455945
     7  C   -0.207778
     8  N   -0.491552
     9  C    0.682060
    10  O   -0.526154
    11  C    0.305226
    12  C   -0.161400
    13  C   -0.145264
    14  C   -0.128004
    15  C   -0.208042
    16  C    0.387890
    17  O   -0.510318
    18  C   -0.215867
    19  N   -0.495341
    20  H    0.166275
    21  H    0.167108
    22  H    0.169900
    23  H    0.170796
    24  H    0.166021
    25  H    0.165475
    26  H    0.143824
    27  H    0.130611
    28  H    0.129761
    29  H    0.135341
    30  H    0.172264
    31  H    0.157182
    32  H    0.153117
 Sum of Mulliken atomic charges =  -0.00000
 Mulliken charges with hydrogens summed into heavy atoms:
              1
     1  C    0.295000
     2  O   -0.458228
     3  C    0.680593
     4  N   -0.551836
     5  C    0.680568
     6  O   -0.455945
     7  C    0.294515
     8  N   -0.491552
     9  C    0.682060
    10  O   -0.526154
    11  C    0.305226
    12  C   -0.017576
    13  C   -0.014653
    14  C    0.001757
    15  C   -0.072701
    16  C    0.387890
    17  O   -0.510318
    18  C    0.266696
    19  N   -0.495341
 Sum of Mulliken charges with hydrogens summed into heavy atoms =  -0.00000
 Electronic spatial extent (au):  <R**2>=           5683.1219
 Charge=             -0.0000 electrons
 Dipole moment (field-independent basis, Debye):
    X=              1.3996    Y=              3.5509    Z=              0.7789  Tot=              3.8955
 Quadrupole moment (field-independent basis, Debye-Ang):
   XX=            -81.6888   YY=           -110.7848   ZZ=            -98.8120
   XY=              2.9735   XZ=             -2.8932   YZ=              6.0351
 Traceless Quadrupole moment (field-independent basis, Debye-Ang):
   XX=             15.4064   YY=            -13.6896   ZZ=             -1.7168
   XY=              2.9735   XZ=             -2.8932   YZ=              6.0351
 Octapole moment (field-independent basis, Debye-Ang**2):
  XXX=             85.1381  YYY=             40.2571  ZZZ=             19.6768  XYY=             20.3952
  XXY=             26.6753  XXZ=              3.2694  XZZ=             -8.7314  YZZ=              4.0166
  YYZ=             -2.4130  XYZ=            -16.3951
 Hexadecapole moment (field-independent basis, Debye-Ang**3):
 XXXX=          -4672.6179 YYYY=          -1147.7954 ZZZZ=           -834.5543 XXXY=           -126.9055
 XXXZ=             37.5547 YYYX=             86.7019 YYYZ=            -15.4605 ZZZX=            -35.8571
 ZZZY=             30.2662 XXYY=          -1037.8829 XXZZ=           -955.8455 YYZZ=           -334.5128
 XXYZ=              6.4129 YYXZ=            -33.4710 ZZXY=              2.7097
 N-N= 1.441057485051D+03 E-N=-5.051720488406D+03  KE= 9.218668606244D+02
 No NMR shielding tensors so no spin-rotation constants.
 Leave Link  601 at Fri Sep  3 02:09:43 2021, MaxMem=  268435456 cpu:       0.6
 (Enter /sw/target/amd/app/gaussian/Gaussian09RevA.02_gcc-4.9.2/g09/l9999.exe)
 1\1\GINC-HERMITE\FOpt\RB3LYP\6-31G(d)\C12H13N3O4\JSCHLEINITZ\03-Sep-20
 21\0\\#p b3lyp 6-31G* opt scf(xqc,tight)\\opt calculation\\0,1\C,-2.96
 44595329,-1.9206130626,1.8942299666\O,-1.7328794086,-1.6963678467,1.19
 74118975\C,-1.6601993388,-0.6338772781,0.3920704704\N,-2.7234094166,0.
 1688003729,0.2774117751\C,-2.5264752927,1.1964037189,-0.5610569766\O,-
 3.5206181602,2.0642829441,-0.7614773133\C,-4.7511756677,1.8448746165,-
 0.0621988077\N,-1.4139503288,1.4638753949,-1.2412399562\C,-0.441894550
 7,0.5786637206,-1.0210392873\O,0.6811762575,0.8281583705,-1.7189166152
 \C,1.8176083237,0.0493855224,-1.503077919\C,2.2451176178,-0.800218464,
 -2.5099291551\C,3.4389896616,-1.5130992929,-2.3613806905\C,4.186596438
 7,-1.3584034847,-1.1978532014\C,3.7603453627,-0.4946410879,-0.18313553
 77\C,2.5712569594,0.2258053252,-0.3280483497\O,2.0662428765,1.10510985
 99,0.5778456482\C,2.76392085,1.281113559,1.8006714043\N,-0.4895957652,
 -0.4926828941,-0.2305790432\H,-3.2015876285,-1.0789881055,2.5508672542
 \H,-3.7897526702,-2.068545682,1.1922753687\H,-2.7967277057,-2.82525888
 62,2.4800816644\H,-5.4040160098,2.6597990766,-0.3774576431\H,-5.188733
 7607,0.8797684271,-0.3322032302\H,-4.597757462,1.8766933074,1.02010038
 69\H,1.6361801138,-0.8915889029,-3.40384283\H,3.7734551082,-2.18094697
 83,-3.1492420107\H,5.1151751757,-1.9074028534,-1.0681843848\H,4.359694
 4838,-0.3847846137,0.7134497646\H,2.1832404884,2.0070917834,2.37227075
 89\H,2.8295088819,0.3413638453,2.3640631964\H,3.7747260996,1.676227588
 1,1.6344413954\\Version=AM64L-G09RevA.02\State=1-A\HF=-930.2447009\RMS
 D=6.184e-09\RMSF=3.942e-06\Dipole=-0.4344729,-0.5778046,1.351382\Quadr
 upole=11.6893716,-9.8587242,-1.8306474,0.6308988,-1.7470438,5.0805794\
 PG=C01 [X(C12H13N3O4)]\\@


 SCIENCE IS A VERY HUMAN FORM OF KNOWLEDGE.
 WE ARE ALWAYS AT THE BRINK OF THE KNOWN,
 WE ALWAYS FEEL FORWARD FOR WHAT IS HOPED.
 EVERY JUDGEMENT IN SCIENCE STANDS ON THE EDGE OF ERROR, AND IS PERSONAL.
 SCIENCE IS A TRIBUTE TO WHAT WE CAN KNOW ALTHOUGH WE ARE FALLIBLE.

                     -- J. BRONOWSKI
 Job cpu time:  0 days  2 hours  1 minutes  3.1 seconds.
 File lengths (MBytes):  RWF=     68 Int=      0 D2E=      0 Chk=      7 Scr=      1
 Normal termination of Gaussian 09 at Fri Sep  3 02:09:43 2021.
