 Entering Gaussian System, Link 0=g09
 Input=mol_inp028.com
 Output=mol_inp028.log
 Initial command:
 /sw/target/amd/app/gaussian/Gaussian09RevA.02_gcc-4.9.2/g09/l1.exe /home/jschleinitz/optim_react/028/Gau-2804289.inp -scrdir=/home/jschleinitz/optim_react/028/
 Entering Link 1 = /sw/target/amd/app/gaussian/Gaussian09RevA.02_gcc-4.9.2/g09/l1.exe PID=   2804291.
  
 Copyright (c) 1988,1990,1992,1993,1995,1998,2003,2009, Gaussian, Inc.
                  All Rights Reserved.
  
 This is part of the Gaussian(R) 09 program.  It is based on
 the Gaussian(R) 03 system (copyright 2003, Gaussian, Inc.),
 the Gaussian(R) 98 system (copyright 1998, Gaussian, Inc.),
 the Gaussian(R) 94 system (copyright 1995, Gaussian, Inc.),
 the Gaussian 92(TM) system (copyright 1992, Gaussian, Inc.),
 the Gaussian 90(TM) system (copyright 1990, Gaussian, Inc.),
 the Gaussian 88(TM) system (copyright 1988, Gaussian, Inc.),
 the Gaussian 86(TM) system (copyright 1986, Carnegie Mellon
 University), and the Gaussian 82(TM) system (copyright 1983,
 Carnegie Mellon University). Gaussian is a federally registered
 trademark of Gaussian, Inc.
  
 This software contains proprietary and confidential information,
 including trade secrets, belonging to Gaussian, Inc.
  
 This software is provided under written license and may be
 used, copied, transmitted, or stored only in accord with that
 written license.
  
 The following legend is applicable only to US Government
 contracts under FAR:
  
                    RESTRICTED RIGHTS LEGEND
  
 Use, reproduction and disclosure by the US Government is
 subject to restrictions as set forth in subparagraphs (a)
 and (c) of the Commercial Computer Software - Restricted
 Rights clause in FAR 52.227-19.
  
 Gaussian, Inc.
 340 Quinnipiac St., Bldg. 40, Wallingford CT 06492
  
  
 ---------------------------------------------------------------
 Warning -- This program may not be used in any manner that
 competes with the business of Gaussian, Inc. or will provide
 assistance to any competitor of Gaussian, Inc.  The licensee
 of this program is prohibited from giving any competitor of
 Gaussian, Inc. access to this program.  By using this program,
 the user acknowledges that Gaussian, Inc. is engaged in the
 business of creating and licensing software in the field of
 computational chemistry and represents and warrants to the
 licensee that it is not a competitor of Gaussian, Inc. and that
 it will not use this program in any manner prohibited above.
 ---------------------------------------------------------------
  

 Cite this work as:
 Gaussian 09, Revision A.02,
 M. J. Frisch, G. W. Trucks, H. B. Schlegel, G. E. Scuseria, 
 M. A. Robb, J. R. Cheeseman, G. Scalmani, V. Barone, B. Mennucci, 
 G. A. Petersson, H. Nakatsuji, M. Caricato, X. Li, H. P. Hratchian, 
 A. F. Izmaylov, J. Bloino, G. Zheng, J. L. Sonnenberg, M. Hada, 
 M. Ehara, K. Toyota, R. Fukuda, J. Hasegawa, M. Ishida, T. Nakajima, 
 Y. Honda, O. Kitao, H. Nakai, T. Vreven, J. A. Montgomery, Jr., 
 J. E. Peralta, F. Ogliaro, M. Bearpark, J. J. Heyd, E. Brothers, 
 K. N. Kudin, V. N. Staroverov, R. Kobayashi, J. Normand, 
 K. Raghavachari, A. Rendell, J. C. Burant, S. S. Iyengar, J. Tomasi, 
 M. Cossi, N. Rega, J. M. Millam, M. Klene, J. E. Knox, J. B. Cross, 
 V. Bakken, C. Adamo, J. Jaramillo, R. Gomperts, R. E. Stratmann, 
 O. Yazyev, A. J. Austin, R. Cammi, C. Pomelli, J. W. Ochterski, 
 R. L. Martin, K. Morokuma, V. G. Zakrzewski, G. A. Voth, 
 P. Salvador, J. J. Dannenberg, S. Dapprich, A. D. Daniels, 
 O. Farkas, J. B. Foresman, J. V. Ortiz, J. Cioslowski, 
 and D. J. Fox, Gaussian, Inc., Wallingford CT, 2009.
 
 ******************************************
 Gaussian 09:  AM64L-G09RevA.02 11-Jun-2009
                 3-Sep-2021 
 ******************************************
 %chk=opt.chk
 %mem=2gb
 %nproc=1
 Will use up to    1 processors via shared memory.
 ----------------------------------
 #p b3lyp 6-31G* opt scf(xqc,tight)
 ----------------------------------
 1/14=-1,18=20,19=15,26=3,38=1/1,3;
 2/9=110,12=2,17=6,18=5,40=1/2;
 3/5=1,6=6,7=1,11=2,16=1,25=1,30=1,71=1,74=-5/1,2,3;
 4//1;
 5/5=2,8=3,13=1,32=2,38=5/2,8;
 6/7=2,8=2,9=2,10=2,28=1/1;
 7//1,2,3,16;
 1/14=-1,18=20,19=15/3(2);
 2/9=110/2;
 99//99;
 2/9=110/2;
 3/5=1,6=6,7=1,11=2,16=1,25=1,30=1,71=1,74=-5/1,2,3;
 4/5=5,16=3/1;
 5/5=2,8=3,13=1,32=2,38=5/2,8;
 7//1,2,3,16;
 1/14=-1,18=20,19=15/3(-5);
 2/9=110/2;
 6/7=2,8=2,9=2,10=2,19=2,28=1/1;
 99/9=1/99;
 Leave Link    1 at Fri Sep  3 00:06:31 2021, MaxMem=  268435456 cpu:       0.0
 (Enter /sw/target/amd/app/gaussian/Gaussian09RevA.02_gcc-4.9.2/g09/l101.exe)
 ---------------
 opt calculation
 ---------------
 Symbolic Z-matrix:
 Charge =  0 Multiplicity = 1
 C                     6.10742   0.58576   0.69433 
 O                     5.58067  -0.53034  -0.0115 
 C                     4.21911  -0.61254  -0.11532 
 C                     3.75636  -1.72562  -0.81677 
 C                     2.38781  -1.93437  -0.99856 
 C                     1.45412  -1.02753  -0.47844 
 C                     0.07348  -1.21846  -0.64976 
 C                    -0.84964  -0.30938  -0.12785 
 O                    -2.16407  -0.60396  -0.3602 
 Si                   -3.61652   0.11835   0.02631 
 C                    -3.74669   1.84045  -0.717 
 C                    -5.03923  -0.91169  -0.66179 
 C                    -3.84878   0.24122   1.88804 
 C                    -0.39784   0.8041    0.57343 
 C                     0.97437   1.00776   0.75223 
 C                     1.91385   0.10225   0.23315 
 C                     3.29748   0.29716   0.40703 
 H                     5.84199   1.52634   0.20045 
 H                     5.78166   0.58135   1.73976 
 H                     7.19846   0.50208   0.68571 
 H                     4.46793  -2.43837  -1.22645 
 H                     2.05814  -2.81175  -1.55011 
 H                    -0.2953   -2.08401  -1.19557 
 H                    -4.7285    2.27515  -0.50699 
 H                    -2.98416   2.506    -0.30322 
 H                    -3.61465   1.79983  -1.80222 
 H                    -6.00056  -0.45091  -0.41659 
 H                    -5.02025  -1.92006  -0.23823 
 H                    -4.96101  -0.99204  -1.7499 
 H                    -4.83163   0.65954   2.12471 
 H                    -3.08766   0.88479   2.33763 
 H                    -3.77732  -0.74844   2.34875 
 H                    -1.08453   1.53076   0.99261 
 H                     1.3046    1.88532   1.30391 
 H                     3.63089   1.1713    0.95673 
 
 NAtoms=     35 NQM=     35 NQMF=      0 NMic=      0 NMicF=      0 NTot=     35.
                    Isotopes and Nuclear Properties:
 (Nuclear quadrupole moments (NQMom) in fm**2, nuclear magnetic moments (NMagM)
  in nuclear magnetons)

  Atom         1           2           3           4           5           6           7           8           9          10
 IAtWgt=          12          16          12          12          12          12          12          12          16          28
 AtmWgt=  12.0000000  15.9949146  12.0000000  12.0000000  12.0000000  12.0000000  12.0000000  12.0000000  15.9949146  27.9769284
 NucSpn=           0           0           0           0           0           0           0           0           0           0
 AtZEff=   0.0000000   0.0000000   0.0000000   0.0000000   0.0000000   0.0000000   0.0000000   0.0000000   0.0000000   0.0000000
 NQMom=    0.0000000   0.0000000   0.0000000   0.0000000   0.0000000   0.0000000   0.0000000   0.0000000   0.0000000   0.0000000
 NMagM=    0.0000000   0.0000000   0.0000000   0.0000000   0.0000000   0.0000000   0.0000000   0.0000000   0.0000000   0.0000000

  Atom        11          12          13          14          15          16          17          18          19          20
 IAtWgt=          12          12          12          12          12          12          12           1           1           1
 AtmWgt=  12.0000000  12.0000000  12.0000000  12.0000000  12.0000000  12.0000000  12.0000000   1.0078250   1.0078250   1.0078250
 NucSpn=           0           0           0           0           0           0           0           1           1           1
 AtZEff=   0.0000000   0.0000000   0.0000000   0.0000000   0.0000000   0.0000000   0.0000000   0.0000000   0.0000000   0.0000000
 NQMom=    0.0000000   0.0000000   0.0000000   0.0000000   0.0000000   0.0000000   0.0000000   0.0000000   0.0000000   0.0000000
 NMagM=    0.0000000   0.0000000   0.0000000   0.0000000   0.0000000   0.0000000   0.0000000   2.7928460   2.7928460   2.7928460

  Atom        21          22          23          24          25          26          27          28          29          30
 IAtWgt=           1           1           1           1           1           1           1           1           1           1
 AtmWgt=   1.0078250   1.0078250   1.0078250   1.0078250   1.0078250   1.0078250   1.0078250   1.0078250   1.0078250   1.0078250
 NucSpn=           1           1           1           1           1           1           1           1           1           1
 AtZEff=   0.0000000   0.0000000   0.0000000   0.0000000   0.0000000   0.0000000   0.0000000   0.0000000   0.0000000   0.0000000
 NQMom=    0.0000000   0.0000000   0.0000000   0.0000000   0.0000000   0.0000000   0.0000000   0.0000000   0.0000000   0.0000000
 NMagM=    2.7928460   2.7928460   2.7928460   2.7928460   2.7928460   2.7928460   2.7928460   2.7928460   2.7928460   2.7928460

  Atom        31          32          33          34          35
 IAtWgt=           1           1           1           1           1
 AtmWgt=   1.0078250   1.0078250   1.0078250   1.0078250   1.0078250
 NucSpn=           1           1           1           1           1
 AtZEff=   0.0000000   0.0000000   0.0000000   0.0000000   0.0000000
 NQMom=    0.0000000   0.0000000   0.0000000   0.0000000   0.0000000
 NMagM=    2.7928460   2.7928460   2.7928460   2.7928460   2.7928460
 Leave Link  101 at Fri Sep  3 00:06:31 2021, MaxMem=  268435456 cpu:       0.1
 (Enter /sw/target/amd/app/gaussian/Gaussian09RevA.02_gcc-4.9.2/g09/l103.exe)

 GradGradGradGradGradGradGradGradGradGradGradGradGradGradGradGradGradGrad
 Berny optimization.
 Initialization pass.
                           ----------------------------
                           !    Initial Parameters    !
                           ! (Angstroms and Degrees)  !
 --------------------------                            --------------------------
 ! Name  Definition              Value          Derivative Info.                !
 --------------------------------------------------------------------------------
 ! R1    R(1,2)                  1.4217         estimate D2E/DX2                !
 ! R2    R(1,18)                 1.095          estimate D2E/DX2                !
 ! R3    R(1,19)                 1.095          estimate D2E/DX2                !
 ! R4    R(1,20)                 1.0943         estimate D2E/DX2                !
 ! R5    R(2,3)                  1.368          estimate D2E/DX2                !
 ! R6    R(3,4)                  1.3947         estimate D2E/DX2                !
 ! R7    R(3,17)                 1.3964         estimate D2E/DX2                !
 ! R8    R(4,5)                  1.3963         estimate D2E/DX2                !
 ! R9    R(4,21)                 1.0873         estimate D2E/DX2                !
 ! R10   R(5,6)                  1.4017         estimate D2E/DX2                !
 ! R11   R(5,22)                 1.0875         estimate D2E/DX2                !
 ! R12   R(6,7)                  1.4043         estimate D2E/DX2                !
 ! R13   R(6,16)                 1.4121         estimate D2E/DX2                !
 ! R14   R(7,8)                  1.3968         estimate D2E/DX2                !
 ! R15   R(7,23)                 1.0877         estimate D2E/DX2                !
 ! R16   R(8,9)                  1.3669         estimate D2E/DX2                !
 ! R17   R(8,14)                 1.3913         estimate D2E/DX2                !
 ! R18   R(9,10)                 1.6676         estimate D2E/DX2                !
 ! R19   R(10,11)                1.8802         estimate D2E/DX2                !
 ! R20   R(10,12)                1.8864         estimate D2E/DX2                !
 ! R21   R(10,13)                1.8802         estimate D2E/DX2                !
 ! R22   R(11,24)                1.0941         estimate D2E/DX2                !
 ! R23   R(11,25)                1.0934         estimate D2E/DX2                !
 ! R24   R(11,26)                1.094          estimate D2E/DX2                !
 ! R25   R(12,27)                1.0939         estimate D2E/DX2                !
 ! R26   R(12,28)                1.0939         estimate D2E/DX2                !
 ! R27   R(12,29)                1.0939         estimate D2E/DX2                !
 ! R28   R(13,30)                1.0941         estimate D2E/DX2                !
 ! R29   R(13,31)                1.0934         estimate D2E/DX2                !
 ! R30   R(13,32)                1.094          estimate D2E/DX2                !
 ! R31   R(14,15)                1.3987         estimate D2E/DX2                !
 ! R32   R(14,33)                1.0841         estimate D2E/DX2                !
 ! R33   R(15,16)                1.4043         estimate D2E/DX2                !
 ! R34   R(15,34)                1.0879         estimate D2E/DX2                !
 ! R35   R(16,17)                1.4081         estimate D2E/DX2                !
 ! R36   R(17,35)                1.0851         estimate D2E/DX2                !
 ! A1    A(2,1,18)             111.1358         estimate D2E/DX2                !
 ! A2    A(2,1,19)             111.1359         estimate D2E/DX2                !
 ! A3    A(2,1,20)             107.7856         estimate D2E/DX2                !
 ! A4    A(18,1,19)            111.2202         estimate D2E/DX2                !
 ! A5    A(18,1,20)            107.6876         estimate D2E/DX2                !
 ! A6    A(19,1,20)            107.6877         estimate D2E/DX2                !
 ! A7    A(1,2,3)              116.9753         estimate D2E/DX2                !
 ! A8    A(2,3,4)              114.6055         estimate D2E/DX2                !
 ! A9    A(2,3,17)             126.1139         estimate D2E/DX2                !
 ! A10   A(4,3,17)             119.2807         estimate D2E/DX2                !
 ! A11   A(3,4,5)              120.6649         estimate D2E/DX2                !
 ! A12   A(3,4,21)             119.7051         estimate D2E/DX2                !
 ! A13   A(5,4,21)             119.63           estimate D2E/DX2                !
 ! A14   A(4,5,6)              120.5218         estimate D2E/DX2                !
 ! A15   A(4,5,22)             118.9319         estimate D2E/DX2                !
 ! A16   A(6,5,22)             120.5463         estimate D2E/DX2                !
 ! A17   A(5,6,7)              121.445          estimate D2E/DX2                !
 ! A18   A(5,6,16)             119.1922         estimate D2E/DX2                !
 ! A19   A(7,6,16)             119.3629         estimate D2E/DX2                !
 ! A20   A(6,7,8)              121.0438         estimate D2E/DX2                !
 ! A21   A(6,7,23)             120.1824         estimate D2E/DX2                !
 ! A22   A(8,7,23)             118.7738         estimate D2E/DX2                !
 ! A23   A(7,8,9)              115.5777         estimate D2E/DX2                !
 ! A24   A(7,8,14)             119.6437         estimate D2E/DX2                !
 ! A25   A(9,8,14)             124.7786         estimate D2E/DX2                !
 ! A26   A(8,9,10)             134.8141         estimate D2E/DX2                !
 ! A27   A(9,10,11)            111.4327         estimate D2E/DX2                !
 ! A28   A(9,10,12)            109.6238         estimate D2E/DX2                !
 ! A29   A(9,10,13)            111.4327         estimate D2E/DX2                !
 ! A30   A(11,10,12)           107.68           estimate D2E/DX2                !
 ! A31   A(11,10,13)           108.8475         estimate D2E/DX2                !
 ! A32   A(12,10,13)           107.6801         estimate D2E/DX2                !
 ! A33   A(10,11,24)           110.4968         estimate D2E/DX2                !
 ! A34   A(10,11,25)           111.0765         estimate D2E/DX2                !
 ! A35   A(10,11,26)           110.4757         estimate D2E/DX2                !
 ! A36   A(24,11,25)           108.1396         estimate D2E/DX2                !
 ! A37   A(24,11,26)           108.2687         estimate D2E/DX2                !
 ! A38   A(25,11,26)           108.2893         estimate D2E/DX2                !
 ! A39   A(10,12,27)           110.5501         estimate D2E/DX2                !
 ! A40   A(10,12,28)           110.4271         estimate D2E/DX2                !
 ! A41   A(10,12,29)           110.4272         estimate D2E/DX2                !
 ! A42   A(27,12,28)           108.4673         estimate D2E/DX2                !
 ! A43   A(27,12,29)           108.4674         estimate D2E/DX2                !
 ! A44   A(28,12,29)           108.4337         estimate D2E/DX2                !
 ! A45   A(10,13,30)           110.4967         estimate D2E/DX2                !
 ! A46   A(10,13,31)           111.0766         estimate D2E/DX2                !
 ! A47   A(10,13,32)           110.4758         estimate D2E/DX2                !
 ! A48   A(30,13,31)           108.1395         estimate D2E/DX2                !
 ! A49   A(30,13,32)           108.2686         estimate D2E/DX2                !
 ! A50   A(31,13,32)           108.2894         estimate D2E/DX2                !
 ! A51   A(8,14,15)            119.9693         estimate D2E/DX2                !
 ! A52   A(8,14,33)            121.711          estimate D2E/DX2                !
 ! A53   A(15,14,33)           118.3197         estimate D2E/DX2                !
 ! A54   A(14,15,16)           121.0105         estimate D2E/DX2                !
 ! A55   A(14,15,34)           118.6902         estimate D2E/DX2                !
 ! A56   A(16,15,34)           120.2993         estimate D2E/DX2                !
 ! A57   A(6,16,15)            118.9699         estimate D2E/DX2                !
 ! A58   A(6,16,17)            119.5302         estimate D2E/DX2                !
 ! A59   A(15,16,17)           121.5            estimate D2E/DX2                !
 ! A60   A(3,17,16)            120.8103         estimate D2E/DX2                !
 ! A61   A(3,17,35)            120.7655         estimate D2E/DX2                !
 ! A62   A(16,17,35)           118.4242         estimate D2E/DX2                !
 ! D1    D(18,1,2,3)           -62.2186         estimate D2E/DX2                !
 ! D2    D(19,1,2,3)            62.2182         estimate D2E/DX2                !
 ! D3    D(20,1,2,3)           179.9998         estimate D2E/DX2                !
 ! D4    D(1,2,3,4)           -179.9998         estimate D2E/DX2                !
 ! D5    D(1,2,3,17)             0.0002         estimate D2E/DX2                !
 ! D6    D(2,3,4,5)            180.0            estimate D2E/DX2                !
 ! D7    D(2,3,4,21)             0.0            estimate D2E/DX2                !
 ! D8    D(17,3,4,5)             0.0            estimate D2E/DX2                !
 ! D9    D(17,3,4,21)         -179.9999         estimate D2E/DX2                !
 ! D10   D(2,3,17,16)         -180.0            estimate D2E/DX2                !
 ! D11   D(2,3,17,35)            0.0001         estimate D2E/DX2                !
 ! D12   D(4,3,17,16)            0.0            estimate D2E/DX2                !
 ! D13   D(4,3,17,35)         -179.9999         estimate D2E/DX2                !
 ! D14   D(3,4,5,6)              0.0            estimate D2E/DX2                !
 ! D15   D(3,4,5,22)          -180.0            estimate D2E/DX2                !
 ! D16   D(21,4,5,6)           180.0            estimate D2E/DX2                !
 ! D17   D(21,4,5,22)           -0.0001         estimate D2E/DX2                !
 ! D18   D(4,5,6,7)            180.0            estimate D2E/DX2                !
 ! D19   D(4,5,6,16)            -0.0001         estimate D2E/DX2                !
 ! D20   D(22,5,6,7)             0.0            estimate D2E/DX2                !
 ! D21   D(22,5,6,16)          180.0            estimate D2E/DX2                !
 ! D22   D(5,6,7,8)            179.9999         estimate D2E/DX2                !
 ! D23   D(5,6,7,23)             0.0            estimate D2E/DX2                !
 ! D24   D(16,6,7,8)             0.0            estimate D2E/DX2                !
 ! D25   D(16,6,7,23)         -179.9999         estimate D2E/DX2                !
 ! D26   D(5,6,16,15)         -180.0            estimate D2E/DX2                !
 ! D27   D(5,6,16,17)            0.0001         estimate D2E/DX2                !
 ! D28   D(7,6,16,15)           -0.0001         estimate D2E/DX2                !
 ! D29   D(7,6,16,17)         -180.0            estimate D2E/DX2                !
 ! D30   D(6,7,8,9)           -179.9999         estimate D2E/DX2                !
 ! D31   D(6,7,8,14)             0.0001         estimate D2E/DX2                !
 ! D32   D(23,7,8,9)             0.0            estimate D2E/DX2                !
 ! D33   D(23,7,8,14)          180.0            estimate D2E/DX2                !
 ! D34   D(7,8,9,10)          -179.9999         estimate D2E/DX2                !
 ! D35   D(14,8,9,10)            0.0001         estimate D2E/DX2                !
 ! D36   D(7,8,14,15)           -0.0001         estimate D2E/DX2                !
 ! D37   D(7,8,14,33)         -180.0            estimate D2E/DX2                !
 ! D38   D(9,8,14,15)          179.9999         estimate D2E/DX2                !
 ! D39   D(9,8,14,33)            0.0            estimate D2E/DX2                !
 ! D40   D(8,9,10,11)           60.8991         estimate D2E/DX2                !
 ! D41   D(8,9,10,12)          179.9999         estimate D2E/DX2                !
 ! D42   D(8,9,10,13)          -60.8992         estimate D2E/DX2                !
 ! D43   D(9,10,11,24)         176.4746         estimate D2E/DX2                !
 ! D44   D(9,10,11,25)         -63.5073         estimate D2E/DX2                !
 ! D45   D(9,10,11,26)          56.685          estimate D2E/DX2                !
 ! D46   D(12,10,11,24)         56.2224         estimate D2E/DX2                !
 ! D47   D(12,10,11,25)        176.2405         estimate D2E/DX2                !
 ! D48   D(12,10,11,26)        -63.5672         estimate D2E/DX2                !
 ! D49   D(13,10,11,24)        -60.241          estimate D2E/DX2                !
 ! D50   D(13,10,11,25)         59.7771         estimate D2E/DX2                !
 ! D51   D(13,10,11,26)        179.9694         estimate D2E/DX2                !
 ! D52   D(9,10,12,27)         180.0            estimate D2E/DX2                !
 ! D53   D(9,10,12,28)          59.9596         estimate D2E/DX2                !
 ! D54   D(9,10,12,29)         -59.9595         estimate D2E/DX2                !
 ! D55   D(11,10,12,27)        -58.6124         estimate D2E/DX2                !
 ! D56   D(11,10,12,28)       -178.6528         estimate D2E/DX2                !
 ! D57   D(11,10,12,29)         61.4281         estimate D2E/DX2                !
 ! D58   D(13,10,12,27)         58.6122         estimate D2E/DX2                !
 ! D59   D(13,10,12,28)        -61.4282         estimate D2E/DX2                !
 ! D60   D(13,10,12,29)        178.6528         estimate D2E/DX2                !
 ! D61   D(9,10,13,30)        -176.4743         estimate D2E/DX2                !
 ! D62   D(9,10,13,31)          63.5077         estimate D2E/DX2                !
 ! D63   D(9,10,13,32)         -56.6848         estimate D2E/DX2                !
 ! D64   D(11,10,13,30)         60.2414         estimate D2E/DX2                !
 ! D65   D(11,10,13,31)        -59.7766         estimate D2E/DX2                !
 ! D66   D(11,10,13,32)       -179.9691         estimate D2E/DX2                !
 ! D67   D(12,10,13,30)        -56.222          estimate D2E/DX2                !
 ! D68   D(12,10,13,31)       -176.24           estimate D2E/DX2                !
 ! D69   D(12,10,13,32)         63.5675         estimate D2E/DX2                !
 ! D70   D(8,14,15,16)           0.0            estimate D2E/DX2                !
 ! D71   D(8,14,15,34)        -180.0            estimate D2E/DX2                !
 ! D72   D(33,14,15,16)        179.9999         estimate D2E/DX2                !
 ! D73   D(33,14,15,34)         -0.0001         estimate D2E/DX2                !
 ! D74   D(14,15,16,6)           0.0            estimate D2E/DX2                !
 ! D75   D(14,15,16,17)        180.0            estimate D2E/DX2                !
 ! D76   D(34,15,16,6)        -179.9999         estimate D2E/DX2                !
 ! D77   D(34,15,16,17)          0.0            estimate D2E/DX2                !
 ! D78   D(6,16,17,3)           -0.0001         estimate D2E/DX2                !
 ! D79   D(6,16,17,35)         179.9999         estimate D2E/DX2                !
 ! D80   D(15,16,17,3)        -180.0            estimate D2E/DX2                !
 ! D81   D(15,16,17,35)          0.0            estimate D2E/DX2                !
 --------------------------------------------------------------------------------
 Trust Radius=3.00D-01 FncErr=1.00D-07 GrdErr=1.00D-06
 Number of steps in this run= 189 maximum allowed number of steps= 210.
 GradGradGradGradGradGradGradGradGradGradGradGradGradGradGradGradGradGrad

 Leave Link  103 at Fri Sep  3 00:06:31 2021, MaxMem=  268435456 cpu:       0.0
 (Enter /sw/target/amd/app/gaussian/Gaussian09RevA.02_gcc-4.9.2/g09/l202.exe)
                          Input orientation:                          
 ---------------------------------------------------------------------
 Center     Atomic      Atomic             Coordinates (Angstroms)
 Number     Number       Type             X           Y           Z
 ---------------------------------------------------------------------
      1          6           0        6.107422    0.585763    0.694330
      2          8           0        5.580667   -0.530344   -0.011499
      3          6           0        4.219112   -0.612542   -0.115319
      4          6           0        3.756359   -1.725617   -0.816773
      5          6           0        2.387808   -1.934369   -0.998558
      6          6           0        1.454122   -1.027526   -0.478436
      7          6           0        0.073480   -1.218461   -0.649757
      8          6           0       -0.849636   -0.309379   -0.127845
      9          8           0       -2.164068   -0.603961   -0.360199
     10         14           0       -3.616520    0.118350    0.026308
     11          6           0       -3.746690    1.840451   -0.716999
     12          6           0       -5.039235   -0.911689   -0.661789
     13          6           0       -3.848779    0.241220    1.888037
     14          6           0       -0.397838    0.804099    0.573426
     15          6           0        0.974367    1.007756    0.752227
     16          6           0        1.913852    0.102247    0.233151
     17          6           0        3.297480    0.297157    0.407029
     18          1           0        5.841985    1.526337    0.200445
     19          1           0        5.781655    0.581347    1.739756
     20          1           0        7.198461    0.502075    0.685714
     21          1           0        4.467930   -2.438369   -1.226446
     22          1           0        2.058141   -2.811753   -1.550105
     23          1           0       -0.295295   -2.084012   -1.195571
     24          1           0       -4.728497    2.275146   -0.506993
     25          1           0       -2.984160    2.506000   -0.303223
     26          1           0       -3.614650    1.799833   -1.802224
     27          1           0       -6.000564   -0.450910   -0.416589
     28          1           0       -5.020247   -1.920058   -0.238234
     29          1           0       -4.961006   -0.992044   -1.749902
     30          1           0       -4.831633    0.659540    2.124706
     31          1           0       -3.087658    0.884786    2.337632
     32          1           0       -3.777318   -0.748444    2.348748
     33          1           0       -1.084534    1.530756    0.992612
     34          1           0        1.304596    1.885318    1.303905
     35          1           0        3.630889    1.171298    0.956731
 ---------------------------------------------------------------------
                    Distance matrix (angstroms):
                    1          2          3          4          5
     1  C    0.000000
     2  O    1.421745   0.000000
     3  C    2.378483   1.367979   0.000000
     4  C    3.626763   2.324918   1.394673   0.000000
     5  C    4.801298   3.624903   2.425080   1.396265   0.000000
     6  C    5.062735   4.182534   2.819439   2.429423   1.401664
     7  C    6.439740   5.586590   4.223627   3.721384   2.447509
     8  C    7.062429   6.435150   5.077821   4.867807   3.725557
     9  O    8.422887   7.752931   6.387881   6.043015   4.785088
    10  Si   9.758062   9.220113   7.870921   7.646590   6.427749
    11  C   10.033425   9.649766   8.356626   8.307981   7.208371
    12  C   11.328256  10.646625   9.279284   8.834533   7.504682
    13  C   10.033423   9.649767   8.356627   8.307982   7.208373
    14  C    6.510046   6.153487   4.878265   5.058603   4.210720
    15  C    5.150697   4.915997   3.729125   4.203875   3.703939
    16  C    4.246469   3.729016   2.438561   2.799689   2.426839
    17  C    2.839297   2.464319   1.396354   2.408293   2.789782
    18  H    1.095015   2.084021   2.703373   3.994968   5.034425
    19  H    1.095016   2.084022   2.703371   3.994965   5.034420
    20  H    1.094278   2.041875   3.280327   4.366709   5.649373
    21  H    3.939884   2.520881   2.151780   1.087281   2.152407
    22  H    5.742585   4.469936   3.400726   2.145090   1.087514
    23  H    7.189869   6.192160   4.869501   4.085075   2.694485
    24  H   11.032422  10.695567   9.410200   9.385886   8.282720
    25  H    9.345549   9.091796   7.851607   7.975269   7.004171
    26  H   10.110659   9.653511   8.368574   8.229926   7.114748
    27  H   12.202957  11.588586  10.225393   9.847973   8.538391
    28  H   11.444380  10.694021   9.332227   8.797802   7.446984
    29  H   11.444380  10.694021   9.332226   8.797802   7.446983
    30  H   11.032422  10.695569   9.410201   9.385887   8.282721
    31  H    9.345553   9.091802   7.851614   7.975277   7.004179
    32  H   10.110652   9.653508   8.368571   8.229926   7.114749
    33  H    7.259905   7.048495   5.826654   6.108362   5.294243
    34  H    5.012740   5.084338   4.092420   4.852553   4.589629
    35  H    2.558304   2.763094   2.162726   3.398996   3.874735
                    6          7          8          9         10
     6  C    0.000000
     7  C    1.404272   0.000000
     8  C    2.438432   1.396770   0.000000
     9  O    3.644816   2.338392   1.366930   0.000000
    10  Si   5.222950   3.982490   2.803990   1.667554   0.000000
    11  C    5.943959   4.894401   3.655379   2.933794   1.880181
    12  C    6.496978   5.121924   4.266218   2.907273   1.886419
    13  C    5.943961   4.894403   3.655379   2.933794   1.880180
    14  C    2.809096   2.410200   1.391307   2.444148   3.336091
    15  C    2.426328   2.780863   2.415856   3.699310   4.732256
    16  C    1.412124   2.431207   2.817201   4.180936   5.534262
    17  C    2.436555   3.715921   4.225227   5.588306   6.926783
    18  H    5.122152   6.444564   6.946612   8.303576   9.564312
    19  H    5.122147   6.444559   6.946607   8.303570   9.564307
    20  H    6.057421   7.450442   8.129711   9.485473  10.841858
    21  H    3.410724   4.596949   5.832326   6.935332   8.571146
    22  H    2.167205   2.699645   4.091438   4.910934   6.578173
    23  H    2.165850   1.087698   2.143981   2.526007   4.168204
    24  H    7.009510   5.940089   4.676439   3.858381   2.484486
    25  H    5.675813   4.831238   3.537416   3.216777   2.491855
    26  H    5.953052   4.903120   3.859744   3.156240   2.484133
    27  H    7.477209   6.126786   5.160956   3.839962   2.490759
    28  H    6.540013   5.158260   4.472188   3.147181   2.489084
    29  H    6.540012   5.158259   4.472188   3.147180   2.489084
    30  H    7.009512   5.940090   4.676440   3.858379   2.484484
    31  H    5.675821   4.831246   3.537421   3.216781   2.491854
    32  H    5.953051   4.903121   3.859743   3.156239   2.484133
    33  H    3.892758   3.405373   2.167187   2.748183   3.056074
    34  H    3.418151   3.868577   3.392244   4.582290   5.382547
    35  H    3.410696   4.576779   4.841881   6.202207   7.382366
                   11         12         13         14         15
    11  C    0.000000
    12  C    3.041052   0.000000
    13  C    3.058460   3.041052   0.000000
    14  C    3.735510   5.100221   3.735509   0.000000
    15  C    5.014019   6.468935   5.014018   1.398711   0.000000
    16  C    5.997155   7.083389   5.997156   2.439732   1.404286
    17  C    7.298324   8.491437   7.298324   3.733638   2.453766
    18  H    9.637586  11.184291   9.920202   6.292546   4.926164
    19  H    9.920199  11.184285   9.637579   6.292541   4.926160
    20  H   11.115538  12.392566  11.115536   7.603130   6.244957
    21  H    9.276196   9.645505   9.276198   6.117911   5.291116
    22  H    7.485528   7.400817   7.485531   4.859589   4.589548
    23  H    5.248101   4.915713   5.248104   3.388370   3.868461
    24  H    1.094078   3.205688   3.262963   4.699563   5.976167
    25  H    1.093443   4.004061   3.267784   3.217770   4.362184
    26  H    1.093982   3.268392   4.012744   4.121053   5.311467
    27  H    3.228084   1.093889   3.228084   5.826295   7.221046
    28  H    3.999074   1.093877   3.250306   5.426462   6.744517
    29  H    3.250305   1.093877   3.999074   5.426462   6.744516
    30  H    3.262965   3.205685   1.094078   4.699564   5.976168
    31  H    3.267780   4.004061   1.093443   3.217773   4.362187
    32  H    4.012745   3.268397   1.093982   4.121049   5.311462
    33  H    3.178955   4.933786   3.178953   1.084112   2.137846
    34  H    5.440731   7.206344   5.440730   2.144975   1.087895
    35  H    7.594591   9.062532   7.594591   4.063545   2.669396
                   16         17         18         19         20
    16  C    0.000000
    17  C    1.408066   0.000000
    18  H    4.178436   2.833384   0.000000
    19  H    4.178432   2.833381   1.807242   0.000000
    20  H    5.319001   3.916288   1.767661   1.767662   0.000000
    21  H    3.886961   3.394304   4.432036   4.432033   4.445038
    22  H    3.419388   3.877068   6.016720   6.016716   6.511776
    23  H    3.420717   4.598513   7.256010   7.256005   8.147604
    24  H    7.027809   8.316501  10.620559  10.880263  12.116875
    25  H    5.482358   6.696450   8.894620   9.204215  10.424945
    26  H    6.130977   7.410558   9.670234  10.115378  11.171275
    27  H    7.960284   9.364378  12.022321  12.022315  13.279214
    28  H    7.238346   8.632322  11.404305  11.262795  12.490686
    29  H    7.238345   8.632322  11.262802  11.404299  12.490687
    30  H    7.027811   8.316503  10.880268  10.620555  12.116875
    31  H    5.482364   6.696456   9.204221   8.894619  10.424948
    32  H    6.130974   7.410555  10.115376   9.670221  11.171267
    33  H    3.407013   4.589850   6.971672   6.971668   8.352268
    34  H    2.167268   2.701523   4.683417   4.683414   6.085488
    35  H    2.148175   1.085107   2.363677   2.363676   3.639901
                   21         22         23         24         25
    21  H    0.000000
    22  H    2.459930   0.000000
    23  H    4.776488   2.488767   0.000000
    24  H   10.359011   8.545354   6.255372   0.000000
    25  H    8.990705   7.433573   5.393931   1.771307   0.000000
    26  H    9.144505   7.315111   5.144939   1.773189   1.772905
    27  H   10.686217   8.473557   5.985309   3.009603   4.225501
    28  H    9.553571   7.253944   4.823748   4.213916   4.872357
    29  H    9.553570   7.253943   4.823747   3.503343   4.270493
    30  H   10.359012   8.545355   6.255372   3.089767   3.566148
    31  H    8.990713   7.433582   5.393939   3.566139   3.100510
    32  H    9.144505   7.315113   5.144942   4.266391   4.272406
    33  H    7.176909   5.932891   4.298557   4.010162   2.497773
    34  H    5.924831   5.547583   4.956068   6.311064   4.621854
    35  H    4.300767   4.962102   5.535736   8.558055   6.864968
                   26         27         28         29         30
    26  H    0.000000
    27  H    3.560676   0.000000
    28  H    4.273097   1.775170   0.000000
    29  H    3.099998   1.775171   1.774784   0.000000
    30  H    4.266391   3.009598   3.503339   4.213912   0.000000
    31  H    4.272404   4.225499   4.270496   4.872356   1.771305
    32  H    4.873474   3.560679   3.100004   4.273101   1.773187
    33  H    3.779550   5.484542   5.377075   5.377075   4.010163
    34  H    5.818447   7.860243   7.540737   7.540737   6.311066
    35  H    7.778478   9.863187   9.264263   9.264263   8.558057
                   31         32         33         34         35
    31  H    0.000000
    32  H    1.772906   0.000000
    33  H    2.497771   3.779543   0.000000
    34  H    4.621856   5.818440   2.435274   0.000000
    35  H    6.864973   7.778474   4.729240   2.458047   0.000000
 Stoichiometry    C14H18O2Si
 Framework group  C1[X(C14H18O2Si)]
 Deg. of freedom    99
 Full point group                 C1      NOp   1
 Largest Abelian subgroup         C1      NOp   1
 Largest concise Abelian subgroup C1      NOp   1
                         Standard orientation:                         
 ---------------------------------------------------------------------
 Center     Atomic      Atomic             Coordinates (Angstroms)
 Number     Number       Type             X           Y           Z
 ---------------------------------------------------------------------
      1          6           0        5.834126   -1.305407   -0.000003
      2          8           0        5.378294    0.041284   -0.000000
      3          6           0        4.024558    0.238173   -0.000000
      4          6           0        3.632412    1.576581    0.000000
      5          6           0        2.279618    1.922275    0.000000
      6          6           0        1.290979    0.928668    0.000000
      7          6           0       -0.074998    1.254378    0.000000
      8          6           0       -1.053228    0.257367    0.000000
      9          8           0       -2.346634    0.699631   -0.000002
     10         14           0       -3.841466   -0.039433   -0.000001
     11          6           0       -4.080089   -1.106947    1.529232
     12          6           0       -5.196890    1.272589   -0.000003
     13          6           0       -4.080089   -1.106954   -1.529228
     14          6           0       -0.672040   -1.080704    0.000001
     15          6           0        0.684719   -1.420697    0.000001
     16          6           0        1.679062   -0.429082   -0.000000
     17          6           0        3.047770   -0.759670    0.000002
     18          1           0        5.509797   -1.832036    0.903618
     19          1           0        5.509791   -1.832034   -0.903624
     20          1           0        6.928265   -1.287942   -0.000006
     21          1           0        4.387218    2.359172    0.000000
     22          1           0        2.005538    2.974685   -0.000001
     23          1           0       -0.388850    2.295811   -0.000002
     24          1           0       -5.087198   -1.534139    1.544886
     25          1           0       -3.360743   -1.930183    1.550261
     26          1           0       -3.946283   -0.510853    2.436737
     27          1           0       -6.185186    0.803691   -0.000003
     28          1           0       -5.114290    1.906843   -0.887396
     29          1           0       -5.114290    1.906846    0.887388
     30          1           0       -5.087200   -1.534140   -1.544881
     31          1           0       -3.360749   -1.930195   -1.550249
     32          1           0       -3.946279   -0.510868   -2.436736
     33          1           0       -1.402891   -1.881426    0.000001
     34          1           0        0.959349   -2.473358    0.000002
     35          1           0        3.325788   -1.808556    0.000003
 ---------------------------------------------------------------------
 Rotational constants (GHZ):      1.3576169      0.1616973      0.1515036
 Leave Link  202 at Fri Sep  3 00:06:31 2021, MaxMem=  268435456 cpu:       0.0
 (Enter /sw/target/amd/app/gaussian/Gaussian09RevA.02_gcc-4.9.2/g09/l301.exe)
 Standard basis: 6-31G(d) (6D, 7F)
 Ernie: Thresh=  0.10000D-02 Tol=  0.10000D-05 Strict=F.
 There are   295 symmetry adapted basis functions of A   symmetry.
 Integral buffers will be    131072 words long.
 Raffenetti 2 integral format.
 Two-electron integral symmetry is turned on.
   295 basis functions,   572 primitive gaussians,   295 cartesian basis functions
    66 alpha electrons       66 beta electrons
       nuclear repulsion energy      1250.3155175370 Hartrees.
 IExCor=  402 DFT=T Ex+Corr=B3LYP ExCW=0 ScaHFX=  0.200000
 ScaDFX=  0.800000  0.720000  1.000000  0.810000 ScalE2=  1.000000  1.000000
 IRadAn=      0 IRanWt=     -1 IRanGd=            0 ICorTp=0
 NAtoms=   35 NActive=   35 NUniq=   35 SFac= 7.50D-01 NAtFMM=   80 NAOKFM=F Big=F
 Leave Link  301 at Fri Sep  3 00:06:31 2021, MaxMem=  268435456 cpu:       0.1
 (Enter /sw/target/amd/app/gaussian/Gaussian09RevA.02_gcc-4.9.2/g09/l302.exe)
 NPDir=0 NMtPBC=     1 NCelOv=     1 NCel=       1 NClECP=     1 NCelD=      1
         NCelK=      1 NCelE2=     1 NClLst=     1 CellRange=     0.0.
 One-electron integrals computed using PRISM.
 NBasis=   295 RedAO= T  NBF=   295
 NBsUse=   295 1.00D-06 NBFU=   295
 Precomputing XC quadrature grid using
 IXCGrd= 2 IRadAn=           0 IRanWt=          -1 IRanGd=           0 AccXCQ= 1.00D-10.
 NRdTot=    2243 NPtTot=      286044 NUsed=      302213 NTot=      302245
 NSgBfM=   291   291   291   291   291 NAtAll=    35    35.
 Leave Link  302 at Fri Sep  3 00:06:33 2021, MaxMem=  268435456 cpu:       1.8
 (Enter /sw/target/amd/app/gaussian/Gaussian09RevA.02_gcc-4.9.2/g09/l303.exe)
 DipDrv:  MaxL=1.
 Leave Link  303 at Fri Sep  3 00:06:33 2021, MaxMem=  268435456 cpu:       0.1
 (Enter /sw/target/amd/app/gaussian/Gaussian09RevA.02_gcc-4.9.2/g09/l401.exe)
 Harris functional with IExCor=  402 diagonalized for initial guess.
 ExpMin= 7.78D-02 ExpMax= 1.61D+04 ExpMxC= 2.43D+03 IAcc=2 IRadAn=         0 AccDes= 0.00D+00
 HarFok:  IExCor=  402 AccDes= 0.00D+00 IRadAn=         0 IDoV= 1
 ScaDFX=  1.000000  1.000000  1.000000  1.000000
 FoFCou: FMM=F IPFlag=           0 FMFlag=      100000 FMFlg1=           0
         NFxFlg=           0 DoJE=T BraDBF=F KetDBF=T FulRan=T
         Omega=  0.000000  0.000000  1.000000  0.000000  0.000000 ICntrl=     500 IOpCl=  0
         NMat0=    1 NMatS0=    1 NMatT0=    0 NMatD0=    1 NMtDS0=    0 NMtDT0=    0
         I1Cent=           4 NGrid=           0.
 Petite list used in FoFCou.
 Harris En= -984.551109989973    
 Initial guess orbital symmetries:
       Occupied  (A) (A) (A) (A) (A) (A) (A) (A) (A) (A) (A) (A)
                 (A) (A) (A) (A) (A) (A) (A) (A) (A) (A) (A) (A)
                 (A) (A) (A) (A) (A) (A) (A) (A) (A) (A) (A) (A)
                 (A) (A) (A) (A) (A) (A) (A) (A) (A) (A) (A) (A)
                 (A) (A) (A) (A) (A) (A) (A) (A) (A) (A) (A) (A)
                 (A) (A) (A) (A) (A) (A)
       Virtual   (A) (A) (A) (A) (A) (A) (A) (A) (A) (A) (A) (A)
                 (A) (A) (A) (A) (A) (A) (A) (A) (A) (A) (A) (A)
                 (A) (A) (A) (A) (A) (A) (A) (A) (A) (A) (A) (A)
                 (A) (A) (A) (A) (A) (A) (A) (A) (A) (A) (A) (A)
                 (A) (A) (A) (A) (A) (A) (A) (A) (A) (A) (A) (A)
                 (A) (A) (A) (A) (A) (A) (A) (A) (A) (A) (A) (A)
                 (A) (A) (A) (A) (A) (A) (A) (A) (A) (A) (A) (A)
                 (A) (A) (A) (A) (A) (A) (A) (A) (A) (A) (A) (A)
                 (A) (A) (A) (A) (A) (A) (A) (A) (A) (A) (A) (A)
                 (A) (A) (A) (A) (A) (A) (A) (A) (A) (A) (A) (A)
                 (A) (A) (A) (A) (A) (A) (A) (A) (A) (A) (A) (A)
                 (A) (A) (A) (A) (A) (A) (A) (A) (A) (A) (A) (A)
                 (A) (A) (A) (A) (A) (A) (A) (A) (A) (A) (A) (A)
                 (A) (A) (A) (A) (A) (A) (A) (A) (A) (A) (A) (A)
                 (A) (A) (A) (A) (A) (A) (A) (A) (A) (A) (A) (A)
                 (A) (A) (A) (A) (A) (A) (A) (A) (A) (A) (A) (A)
                 (A) (A) (A) (A) (A) (A) (A) (A) (A) (A) (A) (A)
                 (A) (A) (A) (A) (A) (A) (A) (A) (A) (A) (A) (A)
                 (A) (A) (A) (A) (A) (A) (A) (A) (A) (A) (A) (A)
                 (A)
 The electronic state of the initial guess is 1-A.
 Leave Link  401 at Fri Sep  3 00:06:53 2021, MaxMem=  268435456 cpu:      20.5
 (Enter /sw/target/amd/app/gaussian/Gaussian09RevA.02_gcc-4.9.2/g09/l502.exe)
 Closed shell SCF:
 Requested convergence on RMS density matrix=1.00D-08 within  64 cycles.
 Requested convergence on MAX density matrix=1.00D-06.
 Requested convergence on             energy=1.00D-06.
 No special actions if energy rises.
 Using DIIS extrapolation, IDIIS=  1040.
 Integral symmetry usage will be decided dynamically.
       301885 words used for storage of precomputed grid.
 IEnd=      572508 IEndB=      572508 NGot=   268435456 MDV=   267954493
 LenX=   267954493 LenY=   267867027
 Fock matrices will be formed incrementally for  20 cycles.
 Integral accuracy reduced to 1.0D-05 until final iterations.

 Cycle   1  Pass 0  IDiag  1:
 FoFCou: FMM=F IPFlag=           0 FMFlag=      100000 FMFlg1=           0
         NFxFlg=           0 DoJE=F BraDBF=F KetDBF=F FulRan=T
         Omega=  0.000000  0.000000  1.000000  0.000000  0.000000 ICntrl=       0 IOpCl=  0
         NMat0=    1 NMatS0=    1 NMatT0=    0 NMatD0=    1 NMtDS0=    0 NMtDT0=    0
         I1Cent=           0 NGrid=           0.
 Symmetry not used in FoFCou.
 E= -983.710370954344    
 DIIS: error= 5.42D-02 at cycle   1 NSaved=   1.
 NSaved= 1 IEnMin= 1 EnMin= -983.710370954344     IErMin= 1 ErrMin= 5.42D-02
 ErrMax= 5.42D-02 EMaxC= 1.00D-01 BMatC= 6.23D-01 BMatP= 6.23D-01
 IDIUse=3 WtCom= 4.58D-01 WtEn= 5.42D-01
 Coeff-Com:  0.100D+01
 Coeff-En:   0.100D+01
 Coeff:      0.100D+01
 Gap=     0.172 Goal=   None    Shift=    0.000
 GapD=    0.172 DampG=1.000 DampE=0.500 DampFc=0.5000 IDamp=-1.
 Damping current iteration by 5.00D-01
 RMSDP=5.67D-03 MaxDP=1.81D-01              OVMax= 2.13D-01

 Cycle   2  Pass 0  IDiag  1:
 RMSU=  1.96D-03    CP:  9.73D-01
 E= -984.008722572808     Delta-E=       -0.298351618463 Rises=F Damp=T
 DIIS: error= 1.04D-02 at cycle   2 NSaved=   2.
 NSaved= 2 IEnMin= 2 EnMin= -984.008722572808     IErMin= 2 ErrMin= 1.04D-02
 ErrMax= 1.04D-02 EMaxC= 1.00D-01 BMatC= 2.10D-02 BMatP= 6.23D-01
 IDIUse=3 WtCom= 8.96D-01 WtEn= 1.04D-01
 Coeff-Com:  0.408D-01 0.959D+00
 Coeff-En:   0.661D-01 0.934D+00
 Coeff:      0.434D-01 0.957D+00
 Gap=     0.163 Goal=   None    Shift=    0.000
 RMSDP=1.44D-03 MaxDP=4.75D-02 DE=-2.98D-01 OVMax= 1.19D-01

 Cycle   3  Pass 0  IDiag  1:
 RMSU=  9.98D-04    CP:  9.60D-01  9.83D-01
 E= -984.332296887475     Delta-E=       -0.323574314667 Rises=F Damp=F
 DIIS: error= 5.42D-03 at cycle   3 NSaved=   3.
 NSaved= 3 IEnMin= 3 EnMin= -984.332296887475     IErMin= 3 ErrMin= 5.42D-03
 ErrMax= 5.42D-03 EMaxC= 1.00D-01 BMatC= 1.10D-02 BMatP= 2.10D-02
 IDIUse=3 WtCom= 9.46D-01 WtEn= 5.42D-02
 Coeff-Com: -0.179D-02 0.395D+00 0.607D+00
 Coeff-En:   0.000D+00 0.000D+00 0.100D+01
 Coeff:     -0.169D-02 0.374D+00 0.628D+00
 Gap=     0.156 Goal=   None    Shift=    0.000
 RMSDP=6.65D-04 MaxDP=2.39D-02 DE=-3.24D-01 OVMax= 5.14D-02

 Cycle   4  Pass 0  IDiag  1:
 RMSU=  3.50D-04    CP:  9.63D-01  9.93D-01  6.88D-01
 E= -984.336967049350     Delta-E=       -0.004670161875 Rises=F Damp=F
 DIIS: error= 4.45D-03 at cycle   4 NSaved=   4.
 NSaved= 4 IEnMin= 4 EnMin= -984.336967049350     IErMin= 4 ErrMin= 4.45D-03
 ErrMax= 4.45D-03 EMaxC= 1.00D-01 BMatC= 6.17D-03 BMatP= 1.10D-02
 IDIUse=3 WtCom= 9.55D-01 WtEn= 4.45D-02
 Coeff-Com: -0.567D-02 0.736D-01 0.425D+00 0.507D+00
 Coeff-En:   0.000D+00 0.000D+00 0.391D+00 0.609D+00
 Coeff:     -0.542D-02 0.704D-01 0.423D+00 0.512D+00
 Gap=     0.155 Goal=   None    Shift=    0.000
 RMSDP=3.12D-04 MaxDP=1.01D-02 DE=-4.67D-03 OVMax= 2.60D-02

 Cycle   5  Pass 0  IDiag  1:
 RMSU=  7.86D-05    CP:  9.62D-01  9.90D-01  7.97D-01  5.02D-01
 E= -984.343130428143     Delta-E=       -0.006163378793 Rises=F Damp=F
 DIIS: error= 7.17D-04 at cycle   5 NSaved=   5.
 NSaved= 5 IEnMin= 5 EnMin= -984.343130428143     IErMin= 5 ErrMin= 7.17D-04
 ErrMax= 7.17D-04 EMaxC= 1.00D-01 BMatC= 2.29D-04 BMatP= 6.17D-03
 IDIUse=3 WtCom= 9.93D-01 WtEn= 7.17D-03
 Coeff-Com: -0.177D-02 0.144D-01 0.186D+00 0.270D+00 0.531D+00
 Coeff-En:   0.000D+00 0.000D+00 0.000D+00 0.000D+00 0.100D+01
 Coeff:     -0.176D-02 0.143D-01 0.185D+00 0.268D+00 0.535D+00
 Gap=     0.156 Goal=   None    Shift=    0.000
 RMSDP=6.57D-05 MaxDP=2.41D-03 DE=-6.16D-03 OVMax= 4.37D-03

 Cycle   6  Pass 0  IDiag  1:
 RMSU=  3.02D-05    CP:  9.62D-01  9.92D-01  7.89D-01  5.51D-01  6.24D-01
 E= -984.343332898412     Delta-E=       -0.000202470269 Rises=F Damp=F
 DIIS: error= 2.75D-04 at cycle   6 NSaved=   6.
 NSaved= 6 IEnMin= 6 EnMin= -984.343332898412     IErMin= 6 ErrMin= 2.75D-04
 ErrMax= 2.75D-04 EMaxC= 1.00D-01 BMatC= 2.91D-05 BMatP= 2.29D-04
 IDIUse=3 WtCom= 9.97D-01 WtEn= 2.75D-03
 Coeff-Com: -0.318D-03 0.252D-03 0.616D-01 0.100D+00 0.314D+00 0.524D+00
 Coeff-En:   0.000D+00 0.000D+00 0.000D+00 0.000D+00 0.525D-01 0.947D+00
 Coeff:     -0.317D-03 0.251D-03 0.614D-01 0.998D-01 0.314D+00 0.525D+00
 Gap=     0.156 Goal=   None    Shift=    0.000
 RMSDP=2.09D-05 MaxDP=9.60D-04 DE=-2.02D-04 OVMax= 1.29D-03

 Cycle   7  Pass 0  IDiag  1:
 RMSU=  7.46D-06    CP:  9.62D-01  9.92D-01  7.94D-01  5.46D-01  6.66D-01
                    CP:  6.29D-01
 E= -984.343356274143     Delta-E=       -0.000023375731 Rises=F Damp=F
 DIIS: error= 7.19D-05 at cycle   7 NSaved=   7.
 NSaved= 7 IEnMin= 7 EnMin= -984.343356274143     IErMin= 7 ErrMin= 7.19D-05
 ErrMax= 7.19D-05 EMaxC= 1.00D-01 BMatC= 1.86D-06 BMatP= 2.91D-05
 IDIUse=1 WtCom= 1.00D+00 WtEn= 0.00D+00
 Coeff-Com: -0.175D-04-0.769D-03 0.226D-01 0.382D-01 0.142D+00 0.290D+00
 Coeff-Com:  0.509D+00
 Coeff:     -0.175D-04-0.769D-03 0.226D-01 0.382D-01 0.142D+00 0.290D+00
 Coeff:      0.509D+00
 Gap=     0.156 Goal=   None    Shift=    0.000
 RMSDP=5.30D-06 MaxDP=2.16D-04 DE=-2.34D-05 OVMax= 3.19D-04

 Initial convergence to 1.0D-05 achieved.  Increase integral accuracy.
 Cycle   8  Pass 1  IDiag  1:
 E= -984.343374946236     Delta-E=       -0.000018672093 Rises=F Damp=F
 DIIS: error= 2.80D-05 at cycle   1 NSaved=   1.
 NSaved= 1 IEnMin= 1 EnMin= -984.343374946236     IErMin= 1 ErrMin= 2.80D-05
 ErrMax= 2.80D-05 EMaxC= 1.00D-01 BMatC= 2.82D-07 BMatP= 2.82D-07
 IDIUse=1 WtCom= 1.00D+00 WtEn= 0.00D+00
 Coeff-Com:  0.100D+01
 Coeff:      0.100D+01
 Gap=     0.156 Goal=   None    Shift=    0.000
 RMSDP=5.30D-06 MaxDP=2.16D-04 DE=-1.87D-05 OVMax= 1.83D-04

 Cycle   9  Pass 1  IDiag  1:
 RMSU=  9.62D-06    CP:  1.00D+00
 E= -984.343375148461     Delta-E=       -0.000000202225 Rises=F Damp=F
 DIIS: error= 2.51D-05 at cycle   2 NSaved=   2.
 NSaved= 2 IEnMin= 2 EnMin= -984.343375148461     IErMin= 2 ErrMin= 2.51D-05
 ErrMax= 2.51D-05 EMaxC= 1.00D-01 BMatC= 1.57D-07 BMatP= 2.82D-07
 IDIUse=1 WtCom= 1.00D+00 WtEn= 0.00D+00
 Coeff-Com:  0.397D+00 0.603D+00
 Coeff:      0.397D+00 0.603D+00
 Gap=     0.156 Goal=   None    Shift=    0.000
 RMSDP=2.33D-06 MaxDP=8.19D-05 DE=-2.02D-07 OVMax= 2.18D-04

 Cycle  10  Pass 1  IDiag  1:
 RMSU=  1.64D-06    CP:  1.00D+00  9.89D-01
 E= -984.343375218983     Delta-E=       -0.000000070522 Rises=F Damp=F
 DIIS: error= 2.13D-05 at cycle   3 NSaved=   3.
 NSaved= 3 IEnMin= 3 EnMin= -984.343375218983     IErMin= 3 ErrMin= 2.13D-05
 ErrMax= 2.13D-05 EMaxC= 1.00D-01 BMatC= 8.11D-08 BMatP= 1.57D-07
 IDIUse=1 WtCom= 1.00D+00 WtEn= 0.00D+00
 Coeff-Com:  0.854D-02 0.415D+00 0.576D+00
 Coeff:      0.854D-02 0.415D+00 0.576D+00
 Gap=     0.156 Goal=   None    Shift=    0.000
 RMSDP=1.16D-06 MaxDP=3.64D-05 DE=-7.05D-08 OVMax= 1.22D-04

 Cycle  11  Pass 1  IDiag  1:
 RMSU=  3.51D-07    CP:  1.00D+00  1.01D+00  5.63D-01
 E= -984.343375293988     Delta-E=       -0.000000075005 Rises=F Damp=F
 DIIS: error= 4.03D-06 at cycle   4 NSaved=   4.
 NSaved= 4 IEnMin= 4 EnMin= -984.343375293988     IErMin= 4 ErrMin= 4.03D-06
 ErrMax= 4.03D-06 EMaxC= 1.00D-01 BMatC= 4.59D-09 BMatP= 8.11D-08
 IDIUse=1 WtCom= 1.00D+00 WtEn= 0.00D+00
 Coeff-Com: -0.111D-01 0.225D+00 0.346D+00 0.440D+00
 Coeff:     -0.111D-01 0.225D+00 0.346D+00 0.440D+00
 Gap=     0.156 Goal=   None    Shift=    0.000
 RMSDP=2.78D-07 MaxDP=1.47D-05 DE=-7.50D-08 OVMax= 2.81D-05

 Cycle  12  Pass 1  IDiag  1:
 RMSU=  1.14D-07    CP:  1.00D+00  1.01D+00  6.02D-01  5.84D-01
 E= -984.343375298577     Delta-E=       -0.000000004590 Rises=F Damp=F
 DIIS: error= 9.03D-07 at cycle   5 NSaved=   5.
 NSaved= 5 IEnMin= 5 EnMin= -984.343375298577     IErMin= 5 ErrMin= 9.03D-07
 ErrMax= 9.03D-07 EMaxC= 1.00D-01 BMatC= 2.04D-10 BMatP= 4.59D-09
 IDIUse=1 WtCom= 1.00D+00 WtEn= 0.00D+00
 Coeff-Com: -0.617D-02 0.843D-01 0.135D+00 0.230D+00 0.557D+00
 Coeff:     -0.617D-02 0.843D-01 0.135D+00 0.230D+00 0.557D+00
 Gap=     0.156 Goal=   None    Shift=    0.000
 RMSDP=7.57D-08 MaxDP=2.57D-06 DE=-4.59D-09 OVMax= 8.44D-06

 Cycle  13  Pass 1  IDiag  1:
 RMSU=  3.76D-08    CP:  1.00D+00  1.01D+00  5.97D-01  6.14D-01  6.91D-01
 E= -984.343375298751     Delta-E=       -0.000000000174 Rises=F Damp=F
 DIIS: error= 4.13D-07 at cycle   6 NSaved=   6.
 NSaved= 6 IEnMin= 6 EnMin= -984.343375298751     IErMin= 6 ErrMin= 4.13D-07
 ErrMax= 4.13D-07 EMaxC= 1.00D-01 BMatC= 3.44D-11 BMatP= 2.04D-10
 IDIUse=1 WtCom= 1.00D+00 WtEn= 0.00D+00
 Coeff-Com: -0.249D-02 0.270D-01 0.449D-01 0.899D-01 0.336D+00 0.504D+00
 Coeff:     -0.249D-02 0.270D-01 0.449D-01 0.899D-01 0.336D+00 0.504D+00
 Gap=     0.156 Goal=   None    Shift=    0.000
 RMSDP=2.59D-08 MaxDP=1.09D-06 DE=-1.74D-10 OVMax= 2.83D-06

 Cycle  14  Pass 1  IDiag  1:
 RMSU=  1.21D-08    CP:  1.00D+00  1.01D+00  5.98D-01  6.06D-01  7.51D-01
                    CP:  7.02D-01
 E= -984.343375298794     Delta-E=       -0.000000000043 Rises=F Damp=F
 DIIS: error= 7.37D-08 at cycle   7 NSaved=   7.
 NSaved= 7 IEnMin= 7 EnMin= -984.343375298794     IErMin= 7 ErrMin= 7.37D-08
 ErrMax= 7.37D-08 EMaxC= 1.00D-01 BMatC= 2.13D-12 BMatP= 3.44D-11
 IDIUse=1 WtCom= 1.00D+00 WtEn= 0.00D+00
 Coeff-Com: -0.426D-03 0.233D-02 0.457D-02 0.131D-01 0.901D-01 0.242D+00
 Coeff-Com:  0.648D+00
 Coeff:     -0.426D-03 0.233D-02 0.457D-02 0.131D-01 0.901D-01 0.242D+00
 Coeff:      0.648D+00
 Gap=     0.156 Goal=   None    Shift=    0.000
 RMSDP=7.79D-09 MaxDP=3.65D-07 DE=-4.32D-11 OVMax= 1.02D-06

 SCF Done:  E(RB3LYP) =  -984.343375299     A.U. after   14 cycles
             Convg  =    0.7790D-08             -V/T =  2.0078
 KE= 9.767494307640D+02 PE=-4.804154085085D+03 EE= 1.592745761486D+03
 Leave Link  502 at Fri Sep  3 00:12:50 2021, MaxMem=  268435456 cpu:     354.1
 (Enter /sw/target/amd/app/gaussian/Gaussian09RevA.02_gcc-4.9.2/g09/l508.exe)
 QCSCF skips out because SCF is already converged.
 Leave Link  508 at Fri Sep  3 00:12:50 2021, MaxMem=  268435456 cpu:       0.0
 (Enter /sw/target/amd/app/gaussian/Gaussian09RevA.02_gcc-4.9.2/g09/l601.exe)
 Copying SCF densities to generalized density rwf, IOpCl= 0 IROHF=0.

 **********************************************************************

            Population analysis using the SCF density.

 **********************************************************************

 Orbital symmetries:
       Occupied  (A) (A) (A) (A) (A) (A) (A) (A) (A) (A) (A) (A)
                 (A) (A) (A) (A) (A) (A) (A) (A) (A) (A) (A) (A)
                 (A) (A) (A) (A) (A) (A) (A) (A) (A) (A) (A) (A)
                 (A) (A) (A) (A) (A) (A) (A) (A) (A) (A) (A) (A)
                 (A) (A) (A) (A) (A) (A) (A) (A) (A) (A) (A) (A)
                 (A) (A) (A) (A) (A) (A)
       Virtual   (A) (A) (A) (A) (A) (A) (A) (A) (A) (A) (A) (A)
                 (A) (A) (A) (A) (A) (A) (A) (A) (A) (A) (A) (A)
                 (A) (A) (A) (A) (A) (A) (A) (A) (A) (A) (A) (A)
                 (A) (A) (A) (A) (A) (A) (A) (A) (A) (A) (A) (A)
                 (A) (A) (A) (A) (A) (A) (A) (A) (A) (A) (A) (A)
                 (A) (A) (A) (A) (A) (A) (A) (A) (A) (A) (A) (A)
                 (A) (A) (A) (A) (A) (A) (A) (A) (A) (A) (A) (A)
                 (A) (A) (A) (A) (A) (A) (A) (A) (A) (A) (A) (A)
                 (A) (A) (A) (A) (A) (A) (A) (A) (A) (A) (A) (A)
                 (A) (A) (A) (A) (A) (A) (A) (A) (A) (A) (A) (A)
                 (A) (A) (A) (A) (A) (A) (A) (A) (A) (A) (A) (A)
                 (A) (A) (A) (A) (A) (A) (A) (A) (A) (A) (A) (A)
                 (A) (A) (A) (A) (A) (A) (A) (A) (A) (A) (A) (A)
                 (A) (A) (A) (A) (A) (A) (A) (A) (A) (A) (A) (A)
                 (A) (A) (A) (A) (A) (A) (A) (A) (A) (A) (A) (A)
                 (A) (A) (A) (A) (A) (A) (A) (A) (A) (A) (A) (A)
                 (A) (A) (A) (A) (A) (A) (A) (A) (A) (A) (A) (A)
                 (A) (A) (A) (A) (A) (A) (A) (A) (A) (A) (A) (A)
                 (A) (A) (A) (A) (A) (A) (A) (A) (A) (A) (A) (A)
                 (A)
 The electronic state is 1-A.
 Alpha  occ. eigenvalues --  -66.14411 -19.17579 -19.15499 -10.24479 -10.24179
 Alpha  occ. eigenvalues --  -10.23858 -10.18906 -10.18837 -10.18794 -10.18646
 Alpha  occ. eigenvalues --  -10.18577 -10.18327 -10.18144 -10.17621 -10.16072
 Alpha  occ. eigenvalues --  -10.15926 -10.15926  -5.28570  -3.64660  -3.64369
 Alpha  occ. eigenvalues --   -3.64345  -1.05988  -1.02817  -0.86874  -0.81199
 Alpha  occ. eigenvalues --   -0.76711  -0.74755  -0.71798  -0.70874  -0.69132
 Alpha  occ. eigenvalues --   -0.67769  -0.67686  -0.62545  -0.60404  -0.59713
 Alpha  occ. eigenvalues --   -0.54560  -0.52630  -0.50916  -0.47455  -0.46806
 Alpha  occ. eigenvalues --   -0.46356  -0.44420  -0.44255  -0.42646  -0.41924
 Alpha  occ. eigenvalues --   -0.41754  -0.40873  -0.40520  -0.40111  -0.39490
 Alpha  occ. eigenvalues --   -0.39037  -0.38985  -0.38385  -0.38117  -0.37521
 Alpha  occ. eigenvalues --   -0.36414  -0.34539  -0.33959  -0.32924  -0.31955
 Alpha  occ. eigenvalues --   -0.29771  -0.28646  -0.28529  -0.25901  -0.22424
 Alpha  occ. eigenvalues --   -0.18995
 Alpha virt. eigenvalues --   -0.03418   0.01265   0.03895   0.07296   0.07319
 Alpha virt. eigenvalues --    0.09916   0.09916   0.10398   0.10950   0.11997
 Alpha virt. eigenvalues --    0.12809   0.12969   0.14104   0.14242   0.14661
 Alpha virt. eigenvalues --    0.15080   0.15648   0.16827   0.17115   0.17496
 Alpha virt. eigenvalues --    0.18963   0.19640   0.19866   0.19991   0.20874
 Alpha virt. eigenvalues --    0.21164   0.21969   0.23851   0.25063   0.26594
 Alpha virt. eigenvalues --    0.27983   0.29800   0.33277   0.34066   0.34607
 Alpha virt. eigenvalues --    0.36260   0.36653   0.36808   0.39557   0.40846
 Alpha virt. eigenvalues --    0.41798   0.44683   0.45906   0.50061   0.50572
 Alpha virt. eigenvalues --    0.51168   0.51732   0.52890   0.54505   0.54700
 Alpha virt. eigenvalues --    0.56161   0.56443   0.56523   0.56818   0.58165
 Alpha virt. eigenvalues --    0.59278   0.59280   0.60255   0.61478   0.61961
 Alpha virt. eigenvalues --    0.62619   0.63747   0.63995   0.65437   0.66116
 Alpha virt. eigenvalues --    0.67300   0.68235   0.69773   0.72333   0.73346
 Alpha virt. eigenvalues --    0.73611   0.75156   0.75732   0.76679   0.77297
 Alpha virt. eigenvalues --    0.78506   0.79021   0.81474   0.82895   0.83319
 Alpha virt. eigenvalues --    0.83927   0.84737   0.85172   0.85997   0.86706
 Alpha virt. eigenvalues --    0.87132   0.87772   0.88720   0.88874   0.89479
 Alpha virt. eigenvalues --    0.91111   0.91661   0.92074   0.92757   0.93386
 Alpha virt. eigenvalues --    0.93685   0.94245   0.94824   0.95651   0.96411
 Alpha virt. eigenvalues --    0.97838   0.98357   1.00590   1.02521   1.02845
 Alpha virt. eigenvalues --    1.03733   1.05233   1.05382   1.08051   1.08885
 Alpha virt. eigenvalues --    1.12196   1.13158   1.15526   1.18863   1.20121
 Alpha virt. eigenvalues --    1.22670   1.23967   1.24375   1.25624   1.27162
 Alpha virt. eigenvalues --    1.28472   1.29551   1.34375   1.37538   1.38742
 Alpha virt. eigenvalues --    1.39914   1.41551   1.41623   1.44557   1.46325
 Alpha virt. eigenvalues --    1.46832   1.48261   1.48873   1.49903   1.51427
 Alpha virt. eigenvalues --    1.51770   1.52857   1.61940   1.66245   1.69220
 Alpha virt. eigenvalues --    1.69507   1.71442   1.74074   1.79118   1.80009
 Alpha virt. eigenvalues --    1.80047   1.82194   1.82666   1.85033   1.86393
 Alpha virt. eigenvalues --    1.86812   1.87098   1.89298   1.90685   1.93389
 Alpha virt. eigenvalues --    1.93650   1.94574   1.95698   1.96872   1.98404
 Alpha virt. eigenvalues --    1.99556   1.99602   2.04616   2.05929   2.06988
 Alpha virt. eigenvalues --    2.08095   2.09253   2.11606   2.12290   2.16113
 Alpha virt. eigenvalues --    2.17488   2.18861   2.23475   2.24352   2.24629
 Alpha virt. eigenvalues --    2.24835   2.27506   2.27976   2.28668   2.28771
 Alpha virt. eigenvalues --    2.29219   2.29301   2.30397   2.32062   2.33309
 Alpha virt. eigenvalues --    2.33824   2.35361   2.36667   2.40523   2.43114
 Alpha virt. eigenvalues --    2.50029   2.51543   2.54560   2.58780   2.62088
 Alpha virt. eigenvalues --    2.64629   2.66741   2.67123   2.70279   2.72585
 Alpha virt. eigenvalues --    2.77881   2.81431   2.83466   2.87610   2.89707
 Alpha virt. eigenvalues --    2.98155   3.01331   3.04632   3.10200   3.14931
 Alpha virt. eigenvalues --    3.17063   3.41301   3.51317   4.05750   4.07728
 Alpha virt. eigenvalues --    4.10306   4.11678   4.13931   4.17314   4.19508
 Alpha virt. eigenvalues --    4.22108   4.24838   4.25449   4.28586   4.36076
 Alpha virt. eigenvalues --    4.42346   4.49290   4.67152   4.87445
          Condensed to atoms (all electrons):
              1          2          3          4          5          6
     1  C    4.894124   0.250614  -0.045218   0.004380  -0.000136   0.000006
     2  O    0.250614   8.200176   0.275753  -0.052793   0.002957   0.000351
     3  C   -0.045218   0.275753   4.562496   0.502264  -0.005223  -0.036743
     4  C    0.004380  -0.052793   0.502264   5.012131   0.499895  -0.007570
     5  C   -0.000136   0.002957  -0.005223   0.499895   5.138109   0.437555
     6  C    0.000006   0.000351  -0.036743  -0.007570   0.437555   4.715587
     7  C   -0.000000   0.000001  -0.000644   0.008218  -0.094731   0.389833
     8  C    0.000000  -0.000000   0.000052  -0.000304   0.007706   0.010747
     9  O   -0.000000   0.000000  -0.000000   0.000000  -0.000094   0.003479
    10  Si  -0.000000  -0.000000   0.000000  -0.000000   0.000002   0.000395
    11  C   -0.000000   0.000000   0.000000  -0.000000  -0.000000   0.000003
    12  C   -0.000000  -0.000000  -0.000000   0.000000  -0.000000  -0.000000
    13  C   -0.000000   0.000000   0.000000  -0.000000  -0.000000   0.000003
    14  C   -0.000000   0.000000  -0.000279   0.000068  -0.000819  -0.037528
    15  C   -0.000022  -0.000051   0.007359  -0.000625   0.017774  -0.022906
    16  C    0.000578   0.002946   0.023938  -0.035096  -0.027290   0.489834
    17  C   -0.007568  -0.056657   0.422230  -0.057136  -0.078902  -0.035146
    18  H    0.363711  -0.036109  -0.004432   0.000020  -0.000002   0.000003
    19  H    0.363711  -0.036109  -0.004432   0.000020  -0.000002   0.000003
    20  H    0.383783  -0.031168   0.003070  -0.000114   0.000004  -0.000000
    21  H   -0.000191   0.000089  -0.035483   0.342898  -0.037290   0.003392
    22  H    0.000003  -0.000061   0.003923  -0.042225   0.354902  -0.039111
    23  H    0.000000   0.000000   0.000009   0.000234  -0.008889  -0.043642
    24  H    0.000000  -0.000000  -0.000000   0.000000   0.000000  -0.000000
    25  H   -0.000000  -0.000000   0.000000   0.000000  -0.000000  -0.000000
    26  H   -0.000000  -0.000000   0.000000  -0.000000  -0.000000   0.000000
    27  H    0.000000  -0.000000   0.000000  -0.000000   0.000000  -0.000000
    28  H   -0.000000  -0.000000   0.000000  -0.000000   0.000000  -0.000000
    29  H   -0.000000  -0.000000   0.000000  -0.000000   0.000000  -0.000000
    30  H    0.000000  -0.000000  -0.000000   0.000000   0.000000  -0.000000
    31  H   -0.000000  -0.000000   0.000000   0.000000  -0.000000  -0.000000
    32  H   -0.000000  -0.000000   0.000000  -0.000000  -0.000000   0.000000
    33  H   -0.000000  -0.000000   0.000003  -0.000000   0.000009   0.000910
    34  H   -0.000004  -0.000000   0.000176   0.000015  -0.000218   0.004726
    35  H    0.006211  -0.007220  -0.049147   0.004598   0.000504   0.004892
              7          8          9         10         11         12
     1  C   -0.000000   0.000000  -0.000000  -0.000000  -0.000000  -0.000000
     2  O    0.000001  -0.000000   0.000000  -0.000000   0.000000  -0.000000
     3  C   -0.000644   0.000052  -0.000000   0.000000   0.000000  -0.000000
     4  C    0.008218  -0.000304   0.000000  -0.000000  -0.000000   0.000000
     5  C   -0.094731   0.007706  -0.000094   0.000002  -0.000000  -0.000000
     6  C    0.389833   0.010747   0.003479   0.000395   0.000003  -0.000000
     7  C    5.344226   0.498781  -0.055134  -0.003645  -0.000081   0.000025
     8  C    0.498781   4.499643   0.247882  -0.015245  -0.001634   0.000172
     9  O   -0.055134   0.247882   8.178545   0.356619  -0.018007  -0.019085
    10  Si  -0.003645  -0.015245   0.356619  11.770456   0.384699   0.390756
    11  C   -0.000081  -0.001634  -0.018007   0.384699   5.295402  -0.033800
    12  C    0.000025   0.000172  -0.019085   0.390756  -0.033800   5.271759
    13  C   -0.000081  -0.001634  -0.018007   0.384699  -0.034922  -0.033800
    14  C   -0.070944   0.463673  -0.048278   0.002439  -0.000281  -0.000068
    15  C   -0.074045   0.002835   0.003562   0.000358   0.000019   0.000001
    16  C   -0.032265  -0.034636   0.000413   0.000082  -0.000001   0.000000
    17  C    0.018416  -0.000875   0.000001  -0.000008   0.000000   0.000000
    18  H    0.000000   0.000000  -0.000000  -0.000000   0.000000   0.000000
    19  H    0.000000   0.000000  -0.000000  -0.000000  -0.000000   0.000000
    20  H   -0.000000   0.000000   0.000000   0.000000  -0.000000  -0.000000
    21  H   -0.000166   0.000003  -0.000000   0.000000  -0.000000  -0.000000
    22  H   -0.008280   0.000146  -0.000001   0.000001   0.000000  -0.000000
    23  H    0.346767  -0.036564  -0.001694   0.000821   0.000000  -0.000026
    24  H    0.000001   0.000045   0.000514  -0.009828   0.358322  -0.000654
    25  H   -0.000000   0.000005  -0.000626  -0.024211   0.363855   0.001386
    26  H    0.000004  -0.000010  -0.000691  -0.020861   0.366240  -0.001098
    27  H   -0.000000   0.000008   0.000421  -0.010321  -0.000641   0.360167
    28  H   -0.000001  -0.000049  -0.000390  -0.020639   0.001326   0.364384
    29  H   -0.000001  -0.000049  -0.000390  -0.020639  -0.001287   0.364385
    30  H    0.000001   0.000045   0.000514  -0.009828  -0.000570  -0.000654
    31  H   -0.000000   0.000005  -0.000626  -0.024211  -0.001581   0.001386
    32  H    0.000004  -0.000010  -0.000691  -0.020861   0.001258  -0.001098
    33  H    0.004856  -0.037187  -0.005755   0.007105  -0.000279  -0.000008
    34  H    0.000610   0.003086  -0.000052  -0.000080   0.000001  -0.000000
    35  H   -0.000201   0.000015   0.000000   0.000000   0.000000  -0.000000
             13         14         15         16         17         18
     1  C   -0.000000  -0.000000  -0.000022   0.000578  -0.007568   0.363711
     2  O    0.000000   0.000000  -0.000051   0.002946  -0.056657  -0.036109
     3  C    0.000000  -0.000279   0.007359   0.023938   0.422230  -0.004432
     4  C   -0.000000   0.000068  -0.000625  -0.035096  -0.057136   0.000020
     5  C   -0.000000  -0.000819   0.017774  -0.027290  -0.078902  -0.000002
     6  C    0.000003  -0.037528  -0.022906   0.489834  -0.035146   0.000003
     7  C   -0.000081  -0.070944  -0.074045  -0.032265   0.018416   0.000000
     8  C   -0.001634   0.463673   0.002835  -0.034636  -0.000875   0.000000
     9  O   -0.018007  -0.048278   0.003562   0.000413   0.000001  -0.000000
    10  Si   0.384699   0.002439   0.000358   0.000082  -0.000008  -0.000000
    11  C   -0.034922  -0.000281   0.000019  -0.000001   0.000000   0.000000
    12  C   -0.033800  -0.000068   0.000001   0.000000   0.000000   0.000000
    13  C    5.295402  -0.000281   0.000019  -0.000001   0.000000  -0.000000
    14  C   -0.000281   5.107125   0.466781  -0.007683   0.009147  -0.000000
    15  C    0.000019   0.466781   5.153085   0.452555  -0.095429  -0.000012
    16  C   -0.000001  -0.007683   0.452555   4.671008   0.391415  -0.000197
    17  C    0.000000   0.009147  -0.095429   0.391415   5.424012   0.005414
    18  H   -0.000000  -0.000000  -0.000012  -0.000197   0.005414   0.597704
    19  H    0.000000  -0.000000  -0.000012  -0.000197   0.005415  -0.046754
    20  H   -0.000000   0.000000   0.000000   0.000007   0.000177  -0.034109
    21  H   -0.000000  -0.000000   0.000007   0.000413   0.007404   0.000030
    22  H    0.000000   0.000009  -0.000207   0.004646   0.000407  -0.000000
    23  H    0.000000   0.006804   0.000079   0.004613  -0.000161  -0.000000
    24  H   -0.000570   0.000003  -0.000000   0.000000  -0.000000  -0.000000
    25  H   -0.001581   0.000436   0.000020  -0.000001  -0.000000   0.000000
    26  H    0.001258   0.000068  -0.000002  -0.000000  -0.000000   0.000000
    27  H   -0.000641   0.000001  -0.000000  -0.000000  -0.000000   0.000000
    28  H   -0.001287   0.000001   0.000000  -0.000000  -0.000000   0.000000
    29  H    0.001326   0.000001   0.000000  -0.000000  -0.000000  -0.000000
    30  H    0.358322   0.000003  -0.000000   0.000000  -0.000000   0.000000
    31  H    0.363855   0.000436   0.000020  -0.000001  -0.000000  -0.000000
    32  H    0.366240   0.000068  -0.000002  -0.000000  -0.000000  -0.000000
    33  H   -0.000279   0.343169  -0.033237   0.002325  -0.000180   0.000000
    34  H    0.000001  -0.041786   0.350457  -0.036006  -0.009292  -0.000004
    35  H    0.000000   0.000156  -0.009109  -0.037664   0.346334   0.001996
             19         20         21         22         23         24
     1  C    0.363711   0.383783  -0.000191   0.000003   0.000000   0.000000
     2  O   -0.036109  -0.031168   0.000089  -0.000061   0.000000  -0.000000
     3  C   -0.004432   0.003070  -0.035483   0.003923   0.000009  -0.000000
     4  C    0.000020  -0.000114   0.342898  -0.042225   0.000234   0.000000
     5  C   -0.000002   0.000004  -0.037290   0.354902  -0.008889   0.000000
     6  C    0.000003  -0.000000   0.003392  -0.039111  -0.043642  -0.000000
     7  C    0.000000  -0.000000  -0.000166  -0.008280   0.346767   0.000001
     8  C    0.000000   0.000000   0.000003   0.000146  -0.036564   0.000045
     9  O   -0.000000   0.000000  -0.000000  -0.000001  -0.001694   0.000514
    10  Si  -0.000000   0.000000   0.000000   0.000001   0.000821  -0.009828
    11  C   -0.000000  -0.000000  -0.000000   0.000000   0.000000   0.358322
    12  C    0.000000  -0.000000  -0.000000  -0.000000  -0.000026  -0.000654
    13  C    0.000000  -0.000000  -0.000000   0.000000   0.000000  -0.000570
    14  C   -0.000000   0.000000  -0.000000   0.000009   0.006804   0.000003
    15  C   -0.000012   0.000000   0.000007  -0.000207   0.000079  -0.000000
    16  C   -0.000197   0.000007   0.000413   0.004646   0.004613   0.000000
    17  C    0.005415   0.000177   0.007404   0.000407  -0.000161  -0.000000
    18  H   -0.046754  -0.034109   0.000030  -0.000000  -0.000000  -0.000000
    19  H    0.597703  -0.034109   0.000030  -0.000000  -0.000000   0.000000
    20  H   -0.034109   0.545578  -0.000028  -0.000000   0.000000   0.000000
    21  H    0.000030  -0.000028   0.587347  -0.005891  -0.000013   0.000000
    22  H   -0.000000  -0.000000  -0.005891   0.593299   0.005831   0.000000
    23  H   -0.000000   0.000000  -0.000013   0.005831   0.592062  -0.000000
    24  H    0.000000   0.000000   0.000000   0.000000  -0.000000   0.539629
    25  H   -0.000000  -0.000000   0.000000  -0.000000  -0.000000  -0.024855
    26  H   -0.000000  -0.000000  -0.000000   0.000000  -0.000000  -0.024831
    27  H    0.000000   0.000000   0.000000   0.000000   0.000000   0.000022
    28  H   -0.000000  -0.000000   0.000000  -0.000000  -0.000002   0.000005
    29  H    0.000000  -0.000000   0.000000  -0.000000  -0.000002  -0.000050
    30  H   -0.000000   0.000000   0.000000   0.000000  -0.000000   0.000026
    31  H    0.000000  -0.000000   0.000000  -0.000000  -0.000000  -0.000016
    32  H    0.000000  -0.000000  -0.000000   0.000000  -0.000000   0.000003
    33  H    0.000000  -0.000000   0.000000  -0.000000  -0.000177   0.000014
    34  H   -0.000004   0.000000  -0.000000   0.000003   0.000018  -0.000000
    35  H    0.001996  -0.000154  -0.000172   0.000019   0.000003  -0.000000
             25         26         27         28         29         30
     1  C   -0.000000  -0.000000   0.000000  -0.000000  -0.000000   0.000000
     2  O   -0.000000  -0.000000  -0.000000  -0.000000  -0.000000  -0.000000
     3  C    0.000000   0.000000   0.000000   0.000000   0.000000  -0.000000
     4  C    0.000000  -0.000000  -0.000000  -0.000000  -0.000000   0.000000
     5  C   -0.000000  -0.000000   0.000000   0.000000   0.000000   0.000000
     6  C   -0.000000   0.000000  -0.000000  -0.000000  -0.000000  -0.000000
     7  C   -0.000000   0.000004  -0.000000  -0.000001  -0.000001   0.000001
     8  C    0.000005  -0.000010   0.000008  -0.000049  -0.000049   0.000045
     9  O   -0.000626  -0.000691   0.000421  -0.000390  -0.000390   0.000514
    10  Si  -0.024211  -0.020861  -0.010321  -0.020639  -0.020639  -0.009828
    11  C    0.363855   0.366240  -0.000641   0.001326  -0.001287  -0.000570
    12  C    0.001386  -0.001098   0.360167   0.364384   0.364385  -0.000654
    13  C   -0.001581   0.001258  -0.000641  -0.001287   0.001326   0.358322
    14  C    0.000436   0.000068   0.000001   0.000001   0.000001   0.000003
    15  C    0.000020  -0.000002  -0.000000   0.000000   0.000000  -0.000000
    16  C   -0.000001  -0.000000  -0.000000  -0.000000  -0.000000   0.000000
    17  C   -0.000000  -0.000000  -0.000000  -0.000000  -0.000000  -0.000000
    18  H    0.000000   0.000000   0.000000   0.000000  -0.000000   0.000000
    19  H   -0.000000  -0.000000   0.000000  -0.000000   0.000000  -0.000000
    20  H   -0.000000  -0.000000   0.000000  -0.000000  -0.000000   0.000000
    21  H    0.000000  -0.000000   0.000000   0.000000   0.000000   0.000000
    22  H   -0.000000   0.000000   0.000000  -0.000000  -0.000000   0.000000
    23  H   -0.000000  -0.000000   0.000000  -0.000002  -0.000002  -0.000000
    24  H   -0.024855  -0.024831   0.000022   0.000005  -0.000050   0.000026
    25  H    0.546804  -0.023080  -0.000002  -0.000025  -0.000002  -0.000016
    26  H   -0.023080   0.535232  -0.000031  -0.000000   0.000636   0.000003
    27  H   -0.000002  -0.000031   0.535930  -0.024942  -0.024942   0.000022
    28  H   -0.000025  -0.000000  -0.024942   0.537079  -0.022835  -0.000050
    29  H   -0.000002   0.000636  -0.024942  -0.022835   0.537078   0.000005
    30  H   -0.000016   0.000003   0.000022  -0.000050   0.000005   0.539629
    31  H    0.000399   0.000003  -0.000002  -0.000002  -0.000025  -0.024855
    32  H    0.000003  -0.000023  -0.000031   0.000636  -0.000000  -0.024831
    33  H    0.002222  -0.000057   0.000001   0.000000   0.000000   0.000014
    34  H   -0.000002   0.000000   0.000000  -0.000000  -0.000000  -0.000000
    35  H   -0.000000  -0.000000   0.000000  -0.000000  -0.000000  -0.000000
             31         32         33         34         35
     1  C   -0.000000  -0.000000  -0.000000  -0.000004   0.006211
     2  O   -0.000000  -0.000000  -0.000000  -0.000000  -0.007220
     3  C    0.000000   0.000000   0.000003   0.000176  -0.049147
     4  C    0.000000  -0.000000  -0.000000   0.000015   0.004598
     5  C   -0.000000  -0.000000   0.000009  -0.000218   0.000504
     6  C   -0.000000   0.000000   0.000910   0.004726   0.004892
     7  C   -0.000000   0.000004   0.004856   0.000610  -0.000201
     8  C    0.000005  -0.000010  -0.037187   0.003086   0.000015
     9  O   -0.000626  -0.000691  -0.005755  -0.000052   0.000000
    10  Si  -0.024211  -0.020861   0.007105  -0.000080   0.000000
    11  C   -0.001581   0.001258  -0.000279   0.000001   0.000000
    12  C    0.001386  -0.001098  -0.000008  -0.000000  -0.000000
    13  C    0.363855   0.366240  -0.000279   0.000001   0.000000
    14  C    0.000436   0.000068   0.343169  -0.041786   0.000156
    15  C    0.000020  -0.000002  -0.033237   0.350457  -0.009109
    16  C   -0.000001  -0.000000   0.002325  -0.036006  -0.037664
    17  C   -0.000000  -0.000000  -0.000180  -0.009292   0.346334
    18  H   -0.000000  -0.000000   0.000000  -0.000004   0.001996
    19  H    0.000000   0.000000   0.000000  -0.000004   0.001996
    20  H   -0.000000  -0.000000  -0.000000   0.000000  -0.000154
    21  H    0.000000  -0.000000   0.000000  -0.000000  -0.000172
    22  H   -0.000000   0.000000  -0.000000   0.000003   0.000019
    23  H   -0.000000  -0.000000  -0.000177   0.000018   0.000003
    24  H   -0.000016   0.000003   0.000014  -0.000000  -0.000000
    25  H    0.000399   0.000003   0.002222  -0.000002  -0.000000
    26  H    0.000003  -0.000023  -0.000057   0.000000  -0.000000
    27  H   -0.000002  -0.000031   0.000001   0.000000   0.000000
    28  H   -0.000002   0.000636   0.000000  -0.000000  -0.000000
    29  H   -0.000025  -0.000000   0.000000  -0.000000  -0.000000
    30  H   -0.024855  -0.024831   0.000014  -0.000000  -0.000000
    31  H    0.546804  -0.023080   0.002222  -0.000002  -0.000000
    32  H   -0.023080   0.535232  -0.000057   0.000000  -0.000000
    33  H    0.002222  -0.000057   0.582337  -0.005060  -0.000014
    34  H   -0.000002   0.000000  -0.005060   0.598622   0.006823
    35  H   -0.000000  -0.000000  -0.000014   0.006823   0.604450
 Mulliken atomic charges:
              1
     1  C   -0.213981
     2  O   -0.512718
     3  C    0.380328
     4  C   -0.178877
     5  C   -0.205822
     6  C    0.160928
     7  C   -0.271526
     8  C    0.393351
     9  O   -0.622432
    10  Si   0.881946
    11  C   -0.678041
    12  C   -0.664130
    13  C   -0.678041
    14  C   -0.192439
    15  C   -0.219272
    16  C    0.166265
    17  C   -0.289018
    18  H    0.152740
    19  H    0.152740
    20  H    0.167064
    21  H    0.137620
    22  H    0.132587
    23  H    0.133927
    24  H    0.162222
    25  H    0.159273
    26  H    0.167241
    27  H    0.164982
    28  H    0.166790
    29  H    0.166791
    30  H    0.162223
    31  H    0.159273
    32  H    0.167241
    33  H    0.137104
    34  H    0.127973
    35  H    0.125685
 Sum of Mulliken atomic charges =  -0.00000
 Mulliken charges with hydrogens summed into heavy atoms:
              1
     1  C    0.258565
     2  O   -0.512718
     3  C    0.380328
     4  C   -0.041257
     5  C   -0.073235
     6  C    0.160928
     7  C   -0.137599
     8  C    0.393351
     9  O   -0.622432
    10  Si   0.881946
    11  C   -0.189304
    12  C   -0.165567
    13  C   -0.189304
[...]
    20  H    0.386144  -0.033577   0.003163  -0.000111   0.000004  -0.000000
    21  H   -0.000245   0.000732  -0.035595   0.343472  -0.038352   0.003362
    22  H    0.000003  -0.000061   0.003997  -0.043349   0.353209  -0.039238
    23  H    0.000000   0.000000   0.000011   0.000189  -0.008447  -0.043396
    24  H    0.000000  -0.000000  -0.000000   0.000000   0.000000  -0.000000
    25  H   -0.000000  -0.000000   0.000000   0.000000  -0.000000  -0.000000
    26  H   -0.000000  -0.000000   0.000000  -0.000000  -0.000000   0.000000
    27  H    0.000000  -0.000000   0.000000  -0.000000   0.000000   0.000000
    28  H   -0.000000  -0.000000   0.000000  -0.000000   0.000000  -0.000000
    29  H   -0.000000  -0.000000   0.000000  -0.000000   0.000000  -0.000000
    30  H    0.000000  -0.000000  -0.000000   0.000000   0.000000  -0.000000
    31  H   -0.000000  -0.000000   0.000000   0.000000  -0.000000  -0.000000
    32  H   -0.000000  -0.000000   0.000000  -0.000000  -0.000000   0.000000
    33  H   -0.000000  -0.000000   0.000003  -0.000000   0.000007   0.000877
    34  H   -0.000003   0.000000   0.000175   0.000012  -0.000210   0.004831
    35  H    0.006255  -0.007698  -0.048915   0.004508   0.000387   0.004526
              7          8          9         10         11         12
     1  C   -0.000000   0.000000  -0.000000  -0.000000  -0.000000  -0.000000
     2  O    0.000001  -0.000000   0.000000  -0.000000   0.000000  -0.000000
     3  C   -0.000566   0.000044  -0.000000   0.000000   0.000000  -0.000000
     4  C    0.007880  -0.000269   0.000000  -0.000000  -0.000000   0.000000
     5  C   -0.084391   0.006756  -0.000076   0.000003  -0.000000  -0.000000
     6  C    0.395714   0.011137   0.003157   0.000341   0.000002  -0.000000
     7  C    5.316384   0.507411  -0.054315  -0.003762  -0.000078   0.000026
     8  C    0.507411   4.491547   0.251232  -0.014541  -0.001501   0.000231
     9  O   -0.054315   0.251232   8.197430   0.346227  -0.017672  -0.026369
    10  Si  -0.003762  -0.014541   0.346227  11.760576   0.381480   0.395633
    11  C   -0.000078  -0.001501  -0.017672   0.381480   5.297614  -0.029129
    12  C    0.000026   0.000231  -0.026369   0.395633  -0.029129   5.265197
    13  C   -0.000078  -0.001501  -0.017672   0.381480  -0.031657  -0.029129
    14  C   -0.072854   0.457447  -0.046943   0.003034  -0.000834  -0.000067
    15  C   -0.065978   0.000256   0.003972   0.000217   0.000016   0.000001
    16  C   -0.037030  -0.032733   0.000386   0.000097  -0.000001   0.000000
    17  C    0.015567  -0.000710   0.000001  -0.000007   0.000000   0.000000
    18  H    0.000000   0.000000  -0.000000  -0.000000   0.000000   0.000000
    19  H    0.000000   0.000000  -0.000000  -0.000000  -0.000000   0.000000
    20  H   -0.000000   0.000000   0.000000   0.000000  -0.000000  -0.000000
    21  H   -0.000149   0.000002  -0.000000   0.000000  -0.000000  -0.000000
    22  H   -0.008087   0.000129  -0.000000   0.000001   0.000000  -0.000000
    23  H    0.344655  -0.036053  -0.001620   0.000820   0.000001  -0.000028
    24  H    0.000001   0.000045   0.000495  -0.010264   0.355932  -0.000468
    25  H   -0.000001   0.000024  -0.000659  -0.022303   0.364631   0.001159
    26  H    0.000005  -0.000020  -0.000808  -0.019474   0.366724  -0.001081
    27  H   -0.000000   0.000009   0.000607  -0.011107  -0.000320   0.355127
    28  H   -0.000001  -0.000059  -0.000571  -0.018842   0.001119   0.365363
    29  H   -0.000001  -0.000059  -0.000571  -0.018842  -0.001275   0.365363
    30  H    0.000001   0.000045   0.000495  -0.010264  -0.000393  -0.000468
    31  H   -0.000001   0.000024  -0.000659  -0.022303  -0.001335   0.001159
    32  H    0.000005  -0.000020  -0.000808  -0.019474   0.001090  -0.001081
    33  H    0.005087  -0.038699  -0.006425   0.008690  -0.000178  -0.000014
    34  H    0.000569   0.003160  -0.000053  -0.000085   0.000001  -0.000000
    35  H   -0.000169   0.000013   0.000000   0.000000   0.000000  -0.000000
             13         14         15         16         17         18
     1  C   -0.000000  -0.000000  -0.000019   0.000576  -0.007422   0.362056
     2  O    0.000000   0.000000  -0.000054   0.003007  -0.057681  -0.035903
     3  C    0.000000  -0.000259   0.006515   0.024377   0.437474  -0.004379
     4  C   -0.000000   0.000049  -0.000389  -0.034861  -0.060401  -0.000006
     5  C   -0.000000  -0.000609   0.015223  -0.025739  -0.070104  -0.000002
     6  C    0.000002  -0.036969  -0.023821   0.490526  -0.040392   0.000002
     7  C   -0.000078  -0.072854  -0.065978  -0.037030   0.015567   0.000000
     8  C   -0.001501   0.457447   0.000256  -0.032733  -0.000710   0.000000
     9  O   -0.017672  -0.046943   0.003972   0.000386   0.000001  -0.000000
    10  Si   0.381480   0.003034   0.000217   0.000097  -0.000007  -0.000000
    11  C   -0.031657  -0.000834   0.000016  -0.000001   0.000000   0.000000
    12  C   -0.029129  -0.000067   0.000001   0.000000   0.000000   0.000000
    13  C    5.297614  -0.000834   0.000016  -0.000001   0.000000  -0.000000
    14  C   -0.000834   5.110153   0.477347  -0.011426   0.008698   0.000000
    15  C    0.000016   0.477347   5.121340   0.454450  -0.084720  -0.000009
    16  C   -0.000001  -0.011426   0.454450   4.698709   0.390455  -0.000215
    17  C    0.000000   0.008698  -0.084720   0.390455   5.390370   0.005541
    18  H   -0.000000   0.000000  -0.000009  -0.000215   0.005541   0.602536
    19  H    0.000000   0.000000  -0.000009  -0.000215   0.005541  -0.050444
    20  H   -0.000000  -0.000000  -0.000000   0.000007   0.000205  -0.031985
    21  H   -0.000000  -0.000000   0.000007   0.000335   0.007485   0.000031
    22  H    0.000000   0.000010  -0.000204   0.004759   0.000405  -0.000000
    23  H    0.000001   0.006847   0.000002   0.004401  -0.000138  -0.000000
    24  H   -0.000393   0.000016   0.000000   0.000000  -0.000000  -0.000000
    25  H   -0.001335   0.000374   0.000026  -0.000001  -0.000000   0.000000
    26  H    0.001090   0.000098  -0.000002  -0.000000  -0.000000   0.000000
    27  H   -0.000320   0.000001  -0.000000  -0.000000  -0.000000   0.000000
    28  H   -0.001275   0.000001   0.000000  -0.000000  -0.000000   0.000000
    29  H    0.001119   0.000001   0.000000  -0.000000  -0.000000  -0.000000
    30  H    0.355932   0.000016   0.000000   0.000000  -0.000000   0.000000
    31  H    0.364631   0.000374   0.000026  -0.000001  -0.000000  -0.000000
    32  H    0.366724   0.000098  -0.000002  -0.000000  -0.000000  -0.000000
    33  H   -0.000178   0.342146  -0.033435   0.002426  -0.000168   0.000000
    34  H    0.000001  -0.042172   0.348523  -0.036778  -0.009239  -0.000004
    35  H    0.000000   0.000122  -0.008541  -0.037769   0.346898   0.002052
             19         20         21         22         23         24
     1  C    0.362056   0.386144  -0.000245   0.000003   0.000000   0.000000
     2  O   -0.035903  -0.033577   0.000732  -0.000061   0.000000  -0.000000
     3  C   -0.004379   0.003163  -0.035595   0.003997   0.000011  -0.000000
     4  C   -0.000006  -0.000111   0.343472  -0.043349   0.000189   0.000000
     5  C   -0.000002   0.000004  -0.038352   0.353209  -0.008447   0.000000
     6  C    0.000002  -0.000000   0.003362  -0.039238  -0.043396  -0.000000
     7  C    0.000000  -0.000000  -0.000149  -0.008087   0.344655   0.000001
     8  C    0.000000   0.000000   0.000002   0.000129  -0.036053   0.000045
     9  O   -0.000000   0.000000  -0.000000  -0.000000  -0.001620   0.000495
    10  Si  -0.000000   0.000000   0.000000   0.000001   0.000820  -0.010264
    11  C   -0.000000  -0.000000  -0.000000   0.000000   0.000001   0.355932
    12  C    0.000000  -0.000000  -0.000000  -0.000000  -0.000028  -0.000468
    13  C    0.000000  -0.000000  -0.000000   0.000000   0.000001  -0.000393
    14  C    0.000000  -0.000000  -0.000000   0.000010   0.006847   0.000016
    15  C   -0.000009  -0.000000   0.000007  -0.000204   0.000002   0.000000
    16  C   -0.000215   0.000007   0.000335   0.004759   0.004401   0.000000
    17  C    0.005541   0.000205   0.007485   0.000405  -0.000138  -0.000000
    18  H   -0.050444  -0.031985   0.000031  -0.000000  -0.000000  -0.000000
    19  H    0.602536  -0.031985   0.000031  -0.000000  -0.000000   0.000000
    20  H   -0.031985   0.540522  -0.000031  -0.000000   0.000000   0.000000
    21  H    0.000031  -0.000031   0.587199  -0.006094  -0.000011   0.000000
    22  H   -0.000000  -0.000000  -0.006094   0.597578   0.005772  -0.000000
    23  H   -0.000000   0.000000  -0.000011   0.005772   0.594782  -0.000000
    24  H    0.000000   0.000000   0.000000  -0.000000  -0.000000   0.543447
    25  H   -0.000000  -0.000000   0.000000  -0.000000  -0.000000  -0.025129
    26  H   -0.000000  -0.000000  -0.000000   0.000000  -0.000000  -0.025304
    27  H    0.000000   0.000000   0.000000   0.000000   0.000000   0.000030
    28  H   -0.000000  -0.000000   0.000000  -0.000000  -0.000002   0.000002
    29  H    0.000000  -0.000000   0.000000  -0.000000  -0.000002  -0.000030
    30  H   -0.000000   0.000000   0.000000  -0.000000  -0.000000   0.000036
    31  H    0.000000  -0.000000   0.000000  -0.000000  -0.000000  -0.000019
    32  H    0.000000  -0.000000  -0.000000   0.000000  -0.000000   0.000000
    33  H    0.000000  -0.000000  -0.000000  -0.000000  -0.000181   0.000007
    34  H   -0.000004   0.000000  -0.000000   0.000003   0.000019  -0.000000
    35  H    0.002052  -0.000135  -0.000169   0.000019   0.000002  -0.000000
             25         26         27         28         29         30
     1  C   -0.000000  -0.000000   0.000000  -0.000000  -0.000000   0.000000
     2  O   -0.000000  -0.000000  -0.000000  -0.000000  -0.000000  -0.000000
     3  C    0.000000   0.000000   0.000000   0.000000   0.000000  -0.000000
     4  C    0.000000  -0.000000  -0.000000  -0.000000  -0.000000   0.000000
     5  C   -0.000000  -0.000000   0.000000   0.000000   0.000000   0.000000
     6  C   -0.000000   0.000000   0.000000  -0.000000  -0.000000  -0.000000
     7  C   -0.000001   0.000005  -0.000000  -0.000001  -0.000001   0.000001
     8  C    0.000024  -0.000020   0.000009  -0.000059  -0.000059   0.000045
     9  O   -0.000659  -0.000808   0.000607  -0.000571  -0.000571   0.000495
    10  Si  -0.022303  -0.019474  -0.011107  -0.018842  -0.018842  -0.010264
    11  C    0.364631   0.366724  -0.000320   0.001119  -0.001275  -0.000393
    12  C    0.001159  -0.001081   0.355127   0.365363   0.365363  -0.000468
    13  C   -0.001335   0.001090  -0.000320  -0.001275   0.001119   0.355932
    14  C    0.000374   0.000098   0.000001   0.000001   0.000001   0.000016
    15  C    0.000026  -0.000002  -0.000000   0.000000   0.000000   0.000000
    16  C   -0.000001  -0.000000  -0.000000  -0.000000  -0.000000   0.000000
    17  C   -0.000000  -0.000000  -0.000000  -0.000000  -0.000000  -0.000000
    18  H    0.000000   0.000000   0.000000   0.000000  -0.000000   0.000000
    19  H   -0.000000  -0.000000   0.000000  -0.000000   0.000000  -0.000000
    20  H   -0.000000  -0.000000   0.000000  -0.000000  -0.000000   0.000000
    21  H    0.000000  -0.000000   0.000000   0.000000   0.000000   0.000000
    22  H   -0.000000   0.000000   0.000000  -0.000000  -0.000000  -0.000000
    23  H   -0.000000  -0.000000   0.000000  -0.000002  -0.000002  -0.000000
    24  H   -0.025129  -0.025304   0.000030   0.000002  -0.000030   0.000036
    25  H    0.540007  -0.023624  -0.000005  -0.000019  -0.000002  -0.000019
    26  H   -0.023624   0.530588  -0.000030  -0.000001   0.000509   0.000000
    27  H   -0.000005  -0.000030   0.546595  -0.025389  -0.025389   0.000030
    28  H   -0.000019  -0.000001  -0.025389   0.530995  -0.023202  -0.000030
    29  H   -0.000002   0.000509  -0.025389  -0.023202   0.530995   0.000002
    30  H   -0.000019   0.000000   0.000030  -0.000030   0.000002   0.543447
    31  H    0.000201   0.000002  -0.000005  -0.000002  -0.000019  -0.025129
    32  H    0.000002  -0.000019  -0.000030   0.000509  -0.000001  -0.025304
    33  H    0.002317  -0.000069   0.000002   0.000001   0.000001   0.000007
    34  H   -0.000003   0.000000   0.000000  -0.000000  -0.000000  -0.000000
    35  H   -0.000000  -0.000000   0.000000  -0.000000  -0.000000  -0.000000
             31         32         33         34         35
     1  C   -0.000000  -0.000000  -0.000000  -0.000003   0.006255
     2  O   -0.000000  -0.000000  -0.000000   0.000000  -0.007698
     3  C    0.000000   0.000000   0.000003   0.000175  -0.048915
     4  C    0.000000  -0.000000  -0.000000   0.000012   0.004508
     5  C   -0.000000  -0.000000   0.000007  -0.000210   0.000387
     6  C   -0.000000   0.000000   0.000877   0.004831   0.004526
     7  C   -0.000001   0.000005   0.005087   0.000569  -0.000169
     8  C    0.000024  -0.000020  -0.038699   0.003160   0.000013
     9  O   -0.000659  -0.000808  -0.006425  -0.000053   0.000000
    10  Si  -0.022303  -0.019474   0.008690  -0.000085   0.000000
    11  C   -0.001335   0.001090  -0.000178   0.000001   0.000000
    12  C    0.001159  -0.001081  -0.000014  -0.000000  -0.000000
    13  C    0.364631   0.366724  -0.000178   0.000001   0.000000
    14  C    0.000374   0.000098   0.342146  -0.042172   0.000122
    15  C    0.000026  -0.000002  -0.033435   0.348523  -0.008541
    16  C   -0.000001  -0.000000   0.002426  -0.036778  -0.037769
    17  C   -0.000000  -0.000000  -0.000168  -0.009239   0.346898
    18  H   -0.000000  -0.000000   0.000000  -0.000004   0.002052
    19  H    0.000000   0.000000   0.000000  -0.000004   0.002052
    20  H   -0.000000  -0.000000  -0.000000   0.000000  -0.000135
    21  H    0.000000  -0.000000  -0.000000  -0.000000  -0.000169
    22  H   -0.000000   0.000000  -0.000000   0.000003   0.000019
    23  H   -0.000000  -0.000000  -0.000181   0.000019   0.000002
    24  H   -0.000019   0.000000   0.000007  -0.000000  -0.000000
    25  H    0.000201   0.000002   0.002317  -0.000003  -0.000000
    26  H    0.000002  -0.000019  -0.000069   0.000000  -0.000000
    27  H   -0.000005  -0.000030   0.000002   0.000000   0.000000
    28  H   -0.000002   0.000509   0.000001  -0.000000  -0.000000
    29  H   -0.000019  -0.000001   0.000001  -0.000000  -0.000000
    30  H   -0.025129  -0.025304   0.000007  -0.000000  -0.000000
    31  H    0.540007  -0.023624   0.002317  -0.000003  -0.000000
    32  H   -0.023624   0.530588  -0.000069   0.000000  -0.000000
    33  H    0.002317  -0.000069   0.588141  -0.005275  -0.000013
    34  H   -0.000003   0.000000  -0.005275   0.604391   0.006677
    35  H   -0.000000  -0.000000  -0.000013   0.006677   0.604153
 Mulliken atomic charges:
              1
     1  C   -0.211634
     2  O   -0.510873
     3  C    0.370925
     4  C   -0.169640
     5  C   -0.197211
     6  C    0.141273
     7  C   -0.265843
     8  C    0.396652
     9  O   -0.628781
    10  Si   0.892669
    11  C   -0.684237
    12  C   -0.661423
    13  C   -0.684238
    14  C   -0.193867
    15  C   -0.210757
    16  C    0.142258
    17  C   -0.277660
    18  H    0.150730
    19  H    0.150731
    20  H    0.167781
    21  H    0.137990
    22  H    0.131150
    23  H    0.132378
    24  H    0.161595
    25  H    0.164360
    26  H    0.171414
    27  H    0.160194
    28  H    0.171405
    29  H    0.171405
    30  H    0.161595
    31  H    0.164360
    32  H    0.171415
    33  H    0.132674
    34  H    0.125467
    35  H    0.125744
 Sum of Mulliken atomic charges =  -0.00000
 Mulliken charges with hydrogens summed into heavy atoms:
              1
     1  C    0.257608
     2  O   -0.510873
     3  C    0.370925
     4  C   -0.031650
     5  C   -0.066061
     6  C    0.141273
     7  C   -0.133465
     8  C    0.396652
     9  O   -0.628781
    10  Si   0.892669
    11  C   -0.186868
    12  C   -0.158419
    13  C   -0.186868
    14  C   -0.061193
    15  C   -0.085290
    16  C    0.142258
    17  C   -0.151917
 Sum of Mulliken charges with hydrogens summed into heavy atoms =  -0.00000
 Electronic spatial extent (au):  <R**2>=           7053.4823
 Charge=             -0.0000 electrons
 Dipole moment (field-independent basis, Debye):
    X=             -0.7656    Y=             -2.0444    Z=              0.0000  Tot=              2.1831
 Quadrupole moment (field-independent basis, Debye-Ang):
   XX=            -93.0546   YY=            -99.8952   ZZ=           -110.9096
   XY=             -4.6633   XZ=             -0.0000   YZ=              0.0000
 Traceless Quadrupole moment (field-independent basis, Debye-Ang):
   XX=              8.2319   YY=              1.3913   ZZ=             -9.6231
   XY=             -4.6633   XZ=             -0.0000   YZ=              0.0000
 Octapole moment (field-independent basis, Debye-Ang**2):
  XXX=             11.2931  YYY=              4.4999  ZZZ=             -0.0000  XYY=             24.5588
  XXY=            -52.0711  XXZ=              0.0000  XZZ=             -5.4760  YZZ=              1.7344
  YYZ=              0.0000  XYZ=             -0.0000
 Hexadecapole moment (field-independent basis, Debye-Ang**3):
 XXXX=          -7503.2373 YYYY=           -934.2125 ZZZZ=           -380.3752 XXXY=           -235.7633
 XXXZ=              0.0000 YYYX=             -6.0345 YYYZ=             -0.0000 ZZZX=              0.0001
 ZZZY=              0.0000 XXYY=          -1420.3659 XXZZ=          -1429.6255 YYZZ=           -238.5392
 XXYZ=             -0.0000 YYXZ=             -0.0000 ZZXY=            -24.6377
 N-N= 1.248755189553D+03 E-N=-4.800963658323D+03  KE= 9.765466828950D+02
 No NMR shielding tensors so no spin-rotation constants.
 Leave Link  601 at Fri Sep  3 01:05:07 2021, MaxMem=  268435456 cpu:       0.5
 (Enter /sw/target/amd/app/gaussian/Gaussian09RevA.02_gcc-4.9.2/g09/l9999.exe)
 1\1\GINC-HERMITE\FOpt\RB3LYP\6-31G(d)\C14H18O2Si1\JSCHLEINITZ\03-Sep-2
 021\0\\#p b3lyp 6-31G* opt scf(xqc,tight)\\opt calculation\\0,1\C,6.08
 14469045,0.6068850142,0.7062747922\O,5.5519939134,-0.5040293292,0.0035
 325025\C,4.1930409791,-0.5998583775,-0.1085527512\C,3.7392258743,-1.74
 12180039,-0.8270210741\C,2.3986620259,-1.9586912203,-1.0130634497\C,1.
 4254769472,-1.0551812763,-0.4965339675\C,0.0361201935,-1.2575459869,-0
 .6752133732\C,-0.8859725005,-0.3643796601,-0.1630316364\O,-2.209939717
 9,-0.6223579621,-0.3732897164\Si,-3.6386136257,0.1703742744,0.05737835
 58\C,-3.7014884226,1.8918820511,-0.7136179341\C,-4.9805003384,-0.92603
 05815,-0.6682926646\C,-3.8052842616,0.2659627445,1.9348930382\C,-0.431
 380756,0.7736853958,0.5534447272\C,0.916833493,0.9891094507,0.73852892
 54\C,1.8870696522,0.0912432455,0.2253485364\C,3.2834971904,0.299503620
 5,0.4079243074\H,5.8033800915,1.5558245275,0.2280057593\H,5.7436802309
 ,0.6206120329,1.7513938566\H,7.1667565843,0.4923579013,0.6784983083\H,
 4.4854685995,-2.4259454071,-1.2181328971\H,2.0619930687,-2.8338178464,
 -1.5634997863\H,-0.3214876433,-2.1254004829,-1.222005945\H,-4.67126330
 45,2.365151856,-0.5138222988\H,-2.9233457065,2.5581542456,-0.325265740
 5\H,-3.5775130365,1.8373255322,-1.8014503734\H,-5.9790349828,-0.522868
 4674,-0.459924187\H,-4.9324331926,-1.936909588,-0.2480954148\H,-4.8733
 58969,-1.0115304058,-1.7554739029\H,-4.7780603503,0.6922510579,2.21120
 96701\H,-3.0300545297,0.8866626508,2.3974864028\H,-3.7415327016,-0.732
 06043,2.3839044006\H,-1.1500601849,1.4788955616,0.9582114399\H,1.25040
 48878,1.8655077902,1.2896246858\H,3.6062715335,1.1764362156,0.95892480
 04\\Version=AM64L-G09RevA.02\State=1-A\HF=-984.3496739\RMSD=5.543e-09\
 RMSF=2.200e-05\Dipole=-0.2556516,0.703218,0.4216874\Quadrupole=6.47593
 26,-1.5664544,-4.9094782,2.4547616,2.0411582,3.526752\PG=C01 [X(C14H18
 O2Si1)]\\@


 Just remember, when you're over the hill, you begin to pick up speed.
 -- Charles Schulz
 Job cpu time:  0 days  0 hours 58 minutes 16.1 seconds.
 File lengths (MBytes):  RWF=     62 Int=      0 D2E=      0 Chk=      7 Scr=      1
 Normal termination of Gaussian 09 at Fri Sep  3 01:05:07 2021.
