 Entering Gaussian System, Link 0=g09
 Input=mol_inp038.com
 Output=mol_inp038.log
 Initial command:
 /sw/target/amd/app/gaussian/Gaussian09RevA.02_gcc-4.9.2/g09/l1.exe /home/jschleinitz/optim_react/038/Gau-2804624.inp -scrdir=/home/jschleinitz/optim_react/038/
 Entering Link 1 = /sw/target/amd/app/gaussian/Gaussian09RevA.02_gcc-4.9.2/g09/l1.exe PID=   2804626.
  
 Copyright (c) 1988,1990,1992,1993,1995,1998,2003,2009, Gaussian, Inc.
                  All Rights Reserved.
  
 This is part of the Gaussian(R) 09 program.  It is based on
 the Gaussian(R) 03 system (copyright 2003, Gaussian, Inc.),
 the Gaussian(R) 98 system (copyright 1998, Gaussian, Inc.),
 the Gaussian(R) 94 system (copyright 1995, Gaussian, Inc.),
 the Gaussian 92(TM) system (copyright 1992, Gaussian, Inc.),
 the Gaussian 90(TM) system (copyright 1990, Gaussian, Inc.),
 the Gaussian 88(TM) system (copyright 1988, Gaussian, Inc.),
 the Gaussian 86(TM) system (copyright 1986, Carnegie Mellon
 University), and the Gaussian 82(TM) system (copyright 1983,
 Carnegie Mellon University). Gaussian is a federally registered
 trademark of Gaussian, Inc.
  
 This software contains proprietary and confidential information,
 including trade secrets, belonging to Gaussian, Inc.
  
 This software is provided under written license and may be
 used, copied, transmitted, or stored only in accord with that
 written license.
  
 The following legend is applicable only to US Government
 contracts under FAR:
  
                    RESTRICTED RIGHTS LEGEND
  
 Use, reproduction and disclosure by the US Government is
 subject to restrictions as set forth in subparagraphs (a)
 and (c) of the Commercial Computer Software - Restricted
 Rights clause in FAR 52.227-19.
  
 Gaussian, Inc.
 340 Quinnipiac St., Bldg. 40, Wallingford CT 06492
  
  
 ---------------------------------------------------------------
 Warning -- This program may not be used in any manner that
 competes with the business of Gaussian, Inc. or will provide
 assistance to any competitor of Gaussian, Inc.  The licensee
 of this program is prohibited from giving any competitor of
 Gaussian, Inc. access to this program.  By using this program,
 the user acknowledges that Gaussian, Inc. is engaged in the
 business of creating and licensing software in the field of
 computational chemistry and represents and warrants to the
 licensee that it is not a competitor of Gaussian, Inc. and that
 it will not use this program in any manner prohibited above.
 ---------------------------------------------------------------
  

 Cite this work as:
 Gaussian 09, Revision A.02,
 M. J. Frisch, G. W. Trucks, H. B. Schlegel, G. E. Scuseria, 
 M. A. Robb, J. R. Cheeseman, G. Scalmani, V. Barone, B. Mennucci, 
 G. A. Petersson, H. Nakatsuji, M. Caricato, X. Li, H. P. Hratchian, 
 A. F. Izmaylov, J. Bloino, G. Zheng, J. L. Sonnenberg, M. Hada, 
 M. Ehara, K. Toyota, R. Fukuda, J. Hasegawa, M. Ishida, T. Nakajima, 
 Y. Honda, O. Kitao, H. Nakai, T. Vreven, J. A. Montgomery, Jr., 
 J. E. Peralta, F. Ogliaro, M. Bearpark, J. J. Heyd, E. Brothers, 
 K. N. Kudin, V. N. Staroverov, R. Kobayashi, J. Normand, 
 K. Raghavachari, A. Rendell, J. C. Burant, S. S. Iyengar, J. Tomasi, 
 M. Cossi, N. Rega, J. M. Millam, M. Klene, J. E. Knox, J. B. Cross, 
 V. Bakken, C. Adamo, J. Jaramillo, R. Gomperts, R. E. Stratmann, 
 O. Yazyev, A. J. Austin, R. Cammi, C. Pomelli, J. W. Ochterski, 
 R. L. Martin, K. Morokuma, V. G. Zakrzewski, G. A. Voth, 
 P. Salvador, J. J. Dannenberg, S. Dapprich, A. D. Daniels, 
 O. Farkas, J. B. Foresman, J. V. Ortiz, J. Cioslowski, 
 and D. J. Fox, Gaussian, Inc., Wallingford CT, 2009.
 
 ******************************************
 Gaussian 09:  AM64L-G09RevA.02 11-Jun-2009
                 3-Sep-2021 
 ******************************************
 %chk=opt.chk
 %mem=2gb
 %nproc=1
 Will use up to    1 processors via shared memory.
 ----------------------------------
 #p b3lyp 6-31G* opt scf(xqc,tight)
 ----------------------------------
 1/14=-1,18=20,19=15,26=3,38=1/1,3;
 2/9=110,12=2,17=6,18=5,40=1/2;
 3/5=1,6=6,7=1,11=2,16=1,25=1,30=1,71=1,74=-5/1,2,3;
 4//1;
 5/5=2,8=3,13=1,32=2,38=5/2,8;
 6/7=2,8=2,9=2,10=2,28=1/1;
 7//1,2,3,16;
 1/14=-1,18=20,19=15/3(2);
 2/9=110/2;
 99//99;
 2/9=110/2;
 3/5=1,6=6,7=1,11=2,16=1,25=1,30=1,71=1,74=-5/1,2,3;
 4/5=5,16=3/1;
 5/5=2,8=3,13=1,32=2,38=5/2,8;
 7//1,2,3,16;
 1/14=-1,18=20,19=15/3(-5);
 2/9=110/2;
 6/7=2,8=2,9=2,10=2,19=2,28=1/1;
 99/9=1/99;
 Leave Link    1 at Fri Sep  3 00:08:04 2021, MaxMem=  268435456 cpu:       0.1
 (Enter /sw/target/amd/app/gaussian/Gaussian09RevA.02_gcc-4.9.2/g09/l101.exe)
 ---------------
 opt calculation
 ---------------
 Symbolic Z-matrix:
 Charge =  0 Multiplicity = 1
 C                    -2.82303   1.9058   -1.42062 
 O                    -1.47077   1.49435  -1.27485 
 C                    -1.26981   0.62952  -0.21997 
 N                    -2.29962   0.25371   0.53011 
 C                    -1.97537  -0.57773   1.51422 
 O                    -2.95358  -1.0407    2.36876 
 C                    -4.24783  -0.53105   2.07787 
 N                    -0.76125  -1.03494   1.77848 
 C                     0.17845  -0.59498   0.95033 
 O                     1.46052  -1.04736   1.24379 
 C                     2.41014  -0.89271   0.26486 
 C                     2.37094  -1.65578  -0.90398 
 C                     3.38246  -1.51348  -1.85412 
 C                     4.43486  -0.62523  -1.62591 
 C                     4.48191   0.11768  -0.44506 
 C                     3.47218  -0.02175   0.50723 
 N                    -0.01304   0.24642  -0.0615 
 H                    -2.87455   2.5879   -2.27484 
 H                    -3.17005   2.45329  -0.53728 
 H                    -3.4771    1.05371  -1.6364 
 H                    -4.27851   0.5594    2.18001 
 H                    -4.94487  -0.95224   2.80886 
 H                    -4.58324  -0.84174   1.08217 
 H                     1.55978  -2.35651  -1.07777 
 H                     3.35231  -2.09653  -2.77075 
 H                     5.22208  -0.51521  -2.36751 
 H                     5.30609   0.8031   -0.26628 
 H                     3.51087   0.54944   1.43015 
 
 NAtoms=     28 NQM=     28 NQMF=      0 NMic=      0 NMicF=      0 NTot=     28.
                    Isotopes and Nuclear Properties:
 (Nuclear quadrupole moments (NQMom) in fm**2, nuclear magnetic moments (NMagM)
  in nuclear magnetons)

  Atom         1           2           3           4           5           6           7           8           9          10
 IAtWgt=          12          16          12          14          12          16          12          14          12          16
 AtmWgt=  12.0000000  15.9949146  12.0000000  14.0030740  12.0000000  15.9949146  12.0000000  14.0030740  12.0000000  15.9949146
 NucSpn=           0           0           0           2           0           0           0           2           0           0
 AtZEff=   0.0000000   0.0000000   0.0000000   0.0000000   0.0000000   0.0000000   0.0000000   0.0000000   0.0000000   0.0000000
 NQMom=    0.0000000   0.0000000   0.0000000   2.0440000   0.0000000   0.0000000   0.0000000   2.0440000   0.0000000   0.0000000
 NMagM=    0.0000000   0.0000000   0.0000000   0.4037610   0.0000000   0.0000000   0.0000000   0.4037610   0.0000000   0.0000000

  Atom        11          12          13          14          15          16          17          18          19          20
 IAtWgt=          12          12          12          12          12          12          14           1           1           1
 AtmWgt=  12.0000000  12.0000000  12.0000000  12.0000000  12.0000000  12.0000000  14.0030740   1.0078250   1.0078250   1.0078250
 NucSpn=           0           0           0           0           0           0           2           1           1           1
 AtZEff=   0.0000000   0.0000000   0.0000000   0.0000000   0.0000000   0.0000000   0.0000000   0.0000000   0.0000000   0.0000000
 NQMom=    0.0000000   0.0000000   0.0000000   0.0000000   0.0000000   0.0000000   2.0440000   0.0000000   0.0000000   0.0000000
 NMagM=    0.0000000   0.0000000   0.0000000   0.0000000   0.0000000   0.0000000   0.4037610   2.7928460   2.7928460   2.7928460

  Atom        21          22          23          24          25          26          27          28
 IAtWgt=           1           1           1           1           1           1           1           1
 AtmWgt=   1.0078250   1.0078250   1.0078250   1.0078250   1.0078250   1.0078250   1.0078250   1.0078250
 NucSpn=           1           1           1           1           1           1           1           1
 AtZEff=   0.0000000   0.0000000   0.0000000   0.0000000   0.0000000   0.0000000   0.0000000   0.0000000
 NQMom=    0.0000000   0.0000000   0.0000000   0.0000000   0.0000000   0.0000000   0.0000000   0.0000000
 NMagM=    2.7928460   2.7928460   2.7928460   2.7928460   2.7928460   2.7928460   2.7928460   2.7928460
 Leave Link  101 at Fri Sep  3 00:08:04 2021, MaxMem=  268435456 cpu:       0.2
 (Enter /sw/target/amd/app/gaussian/Gaussian09RevA.02_gcc-4.9.2/g09/l103.exe)

 GradGradGradGradGradGradGradGradGradGradGradGradGradGradGradGradGradGrad
 Berny optimization.
 Initialization pass.
                           ----------------------------
                           !    Initial Parameters    !
                           ! (Angstroms and Degrees)  !
 --------------------------                            --------------------------
 ! Name  Definition              Value          Derivative Info.                !
 --------------------------------------------------------------------------------
 ! R1    R(1,2)                  1.421          estimate D2E/DX2                !
 ! R2    R(1,18)                 1.0944         estimate D2E/DX2                !
 ! R3    R(1,19)                 1.0957         estimate D2E/DX2                !
 ! R4    R(1,20)                 1.0956         estimate D2E/DX2                !
 ! R5    R(2,3)                  1.3788         estimate D2E/DX2                !
 ! R6    R(3,4)                  1.3283         estimate D2E/DX2                !
 ! R7    R(3,17)                 1.3234         estimate D2E/DX2                !
 ! R8    R(4,5)                  1.3285         estimate D2E/DX2                !
 ! R9    R(5,6)                  1.3789         estimate D2E/DX2                !
 ! R10   R(5,8)                  1.324          estimate D2E/DX2                !
 ! R11   R(6,7)                  1.4211         estimate D2E/DX2                !
 ! R12   R(7,21)                 1.0957         estimate D2E/DX2                !
 ! R13   R(7,22)                 1.0944         estimate D2E/DX2                !
 ! R14   R(7,23)                 1.0956         estimate D2E/DX2                !
 ! R15   R(8,9)                  1.3276         estimate D2E/DX2                !
 ! R16   R(9,10)                 1.3909         estimate D2E/DX2                !
 ! R17   R(9,17)                 1.3298         estimate D2E/DX2                !
 ! R18   R(10,11)                1.3726         estimate D2E/DX2                !
 ! R19   R(11,12)                1.3964         estimate D2E/DX2                !
 ! R20   R(11,16)                1.3947         estimate D2E/DX2                !
 ! R21   R(12,13)                1.3951         estimate D2E/DX2                !
 ! R22   R(12,24)                1.0859         estimate D2E/DX2                !
 ! R23   R(13,14)                1.3959         estimate D2E/DX2                !
 ! R24   R(13,25)                1.0868         estimate D2E/DX2                !
 ! R25   R(14,15)                1.3959         estimate D2E/DX2                !
 ! R26   R(14,26)                1.0871         estimate D2E/DX2                !
 ! R27   R(15,16)                1.3949         estimate D2E/DX2                !
 ! R28   R(15,27)                1.0868         estimate D2E/DX2                !
 ! R29   R(16,28)                1.0861         estimate D2E/DX2                !
 ! A1    A(2,1,18)             107.7796         estimate D2E/DX2                !
 ! A2    A(2,1,19)             111.3088         estimate D2E/DX2                !
 ! A3    A(2,1,20)             111.2923         estimate D2E/DX2                !
 ! A4    A(18,1,19)            107.6343         estimate D2E/DX2                !
 ! A5    A(18,1,20)            107.6319         estimate D2E/DX2                !
 ! A6    A(19,1,20)            110.9974         estimate D2E/DX2                !
 ! A7    A(1,2,3)              113.5036         estimate D2E/DX2                !
 ! A8    A(2,3,4)              119.7683         estimate D2E/DX2                !
 ! A9    A(2,3,17)             114.3054         estimate D2E/DX2                !
 ! A10   A(4,3,17)             125.9262         estimate D2E/DX2                !
 ! A11   A(3,4,5)              113.9632         estimate D2E/DX2                !
 ! A12   A(4,5,6)              119.7383         estimate D2E/DX2                !
 ! A13   A(4,5,8)              126.0009         estimate D2E/DX2                !
 ! A14   A(6,5,8)              114.2607         estimate D2E/DX2                !
 ! A15   A(5,6,7)              113.5045         estimate D2E/DX2                !
 ! A16   A(6,7,21)             111.306          estimate D2E/DX2                !
 ! A17   A(6,7,22)             107.778          estimate D2E/DX2                !
 ! A18   A(6,7,23)             111.2932         estimate D2E/DX2                !
 ! A19   A(21,7,22)            107.6344         estimate D2E/DX2                !
 ! A20   A(21,7,23)            111.0            estimate D2E/DX2                !
 ! A21   A(22,7,23)            107.6327         estimate D2E/DX2                !
 ! A22   A(5,8,9)              114.2135         estimate D2E/DX2                !
 ! A23   A(8,9,10)             114.3976         estimate D2E/DX2                !
 ! A24   A(8,9,17)             125.6197         estimate D2E/DX2                !
 ! A25   A(10,9,17)            119.9382         estimate D2E/DX2                !
 ! A26   A(9,10,11)            116.7831         estimate D2E/DX2                !
 ! A27   A(10,11,12)           121.0626         estimate D2E/DX2                !
 ! A28   A(10,11,16)           118.2448         estimate D2E/DX2                !
 ! A29   A(12,11,16)           120.5357         estimate D2E/DX2                !
 ! A30   A(11,12,13)           119.6027         estimate D2E/DX2                !
 ! A31   A(11,12,24)           120.5006         estimate D2E/DX2                !
 ! A32   A(13,12,24)           119.8967         estimate D2E/DX2                !
 ! A33   A(12,13,14)           120.0128         estimate D2E/DX2                !
 ! A34   A(12,13,25)           119.9742         estimate D2E/DX2                !
 ! A35   A(14,13,25)           120.0127         estimate D2E/DX2                !
 ! A36   A(13,14,15)           120.1563         estimate D2E/DX2                !
 ! A37   A(13,14,26)           119.921          estimate D2E/DX2                !
 ! A38   A(15,14,26)           119.9221         estimate D2E/DX2                !
 ! A39   A(14,15,16)           119.9944         estimate D2E/DX2                !
 ! A40   A(14,15,27)           120.0256         estimate D2E/DX2                !
 ! A41   A(16,15,27)           119.9799         estimate D2E/DX2                !
 ! A42   A(11,16,15)           119.6681         estimate D2E/DX2                !
 ! A43   A(11,16,28)           120.2139         estimate D2E/DX2                !
 ! A44   A(15,16,28)           120.1172         estimate D2E/DX2                !
 ! A45   A(3,17,9)             114.2691         estimate D2E/DX2                !
 ! D1    D(18,1,2,3)           179.7308         estimate D2E/DX2                !
 ! D2    D(19,1,2,3)            61.9194         estimate D2E/DX2                !
 ! D3    D(20,1,2,3)           -62.4701         estimate D2E/DX2                !
 ! D4    D(1,2,3,4)              0.7478         estimate D2E/DX2                !
 ! D5    D(1,2,3,17)          -179.3648         estimate D2E/DX2                !
 ! D6    D(2,3,4,5)           -179.8806         estimate D2E/DX2                !
 ! D7    D(17,3,4,5)             0.2461         estimate D2E/DX2                !
 ! D8    D(2,3,17,9)          -179.5539         estimate D2E/DX2                !
 ! D9    D(4,3,17,9)             0.3254         estimate D2E/DX2                !
 ! D10   D(3,4,5,6)            179.8297         estimate D2E/DX2                !
 ! D11   D(3,4,5,8)             -0.2624         estimate D2E/DX2                !
 ! D12   D(4,5,6,7)             -0.5989         estimate D2E/DX2                !
 ! D13   D(8,5,6,7)            179.4828         estimate D2E/DX2                !
 ! D14   D(4,5,8,9)             -0.2964         estimate D2E/DX2                !
 ! D15   D(6,5,8,9)            179.6159         estimate D2E/DX2                !
 ! D16   D(5,6,7,21)           -61.9751         estimate D2E/DX2                !
 ! D17   D(5,6,7,22)          -179.7841         estimate D2E/DX2                !
 ! D18   D(5,6,7,23)            62.4164         estimate D2E/DX2                !
 ! D19   D(5,8,9,10)           178.5318         estimate D2E/DX2                !
 ! D20   D(5,8,9,17)             0.9757         estimate D2E/DX2                !
 ! D21   D(8,9,10,11)          165.1431         estimate D2E/DX2                !
 ! D22   D(17,9,10,11)         -17.1494         estimate D2E/DX2                !
 ! D23   D(8,9,17,3)            -0.9897         estimate D2E/DX2                !
 ! D24   D(10,9,17,3)         -178.4213         estimate D2E/DX2                !
 ! D25   D(9,10,11,12)         -70.3412         estimate D2E/DX2                !
 ! D26   D(9,10,11,16)         114.1879         estimate D2E/DX2                !
 ! D27   D(10,11,12,13)       -177.3438         estimate D2E/DX2                !
 ! D28   D(10,11,12,24)          2.7142         estimate D2E/DX2                !
 ! D29   D(16,11,12,13)         -1.9763         estimate D2E/DX2                !
 ! D30   D(16,11,12,24)        178.0817         estimate D2E/DX2                !
 ! D31   D(10,11,16,15)        177.4629         estimate D2E/DX2                !
 ! D32   D(10,11,16,28)         -2.8651         estimate D2E/DX2                !
 ! D33   D(12,11,16,15)          1.9672         estimate D2E/DX2                !
 ! D34   D(12,11,16,28)       -178.3608         estimate D2E/DX2                !
 ! D35   D(11,12,13,14)          0.8299         estimate D2E/DX2                !
 ! D36   D(11,12,13,25)       -179.3461         estimate D2E/DX2                !
 ! D37   D(24,12,13,14)       -179.2278         estimate D2E/DX2                !
 ! D38   D(24,12,13,25)          0.5962         estimate D2E/DX2                !
 ! D39   D(12,13,14,15)          0.3101         estimate D2E/DX2                !
 ! D40   D(12,13,14,26)       -179.9742         estimate D2E/DX2                !
 ! D41   D(25,13,14,15)       -179.5138         estimate D2E/DX2                !
 ! D42   D(25,13,14,26)          0.2019         estimate D2E/DX2                !
 ! D43   D(13,14,15,16)         -0.3205         estimate D2E/DX2                !
 ! D44   D(13,14,15,27)        179.5442         estimate D2E/DX2                !
 ! D45   D(26,14,15,16)        179.9638         estimate D2E/DX2                !
 ! D46   D(26,14,15,27)         -0.1715         estimate D2E/DX2                !
 ! D47   D(14,15,16,11)         -0.811          estimate D2E/DX2                !
 ! D48   D(14,15,16,28)        179.5167         estimate D2E/DX2                !
 ! D49   D(27,15,16,11)        179.3243         estimate D2E/DX2                !
 ! D50   D(27,15,16,28)         -0.348          estimate D2E/DX2                !
 --------------------------------------------------------------------------------
 Trust Radius=3.00D-01 FncErr=1.00D-07 GrdErr=1.00D-06
 Number of steps in this run= 134 maximum allowed number of steps= 168.
 GradGradGradGradGradGradGradGradGradGradGradGradGradGradGradGradGradGrad

 Leave Link  103 at Fri Sep  3 00:08:04 2021, MaxMem=  268435456 cpu:       0.0
 (Enter /sw/target/amd/app/gaussian/Gaussian09RevA.02_gcc-4.9.2/g09/l202.exe)
                          Input orientation:                          
 ---------------------------------------------------------------------
 Center     Atomic      Atomic             Coordinates (Angstroms)
 Number     Number       Type             X           Y           Z
 ---------------------------------------------------------------------
      1          6           0       -2.823026    1.905798   -1.420617
      2          8           0       -1.470770    1.494346   -1.274849
      3          6           0       -1.269811    0.629517   -0.219971
      4          7           0       -2.299618    0.253713    0.530108
      5          6           0       -1.975367   -0.577734    1.514215
      6          8           0       -2.953583   -1.040700    2.368761
      7          6           0       -4.247830   -0.531054    2.077865
      8          7           0       -0.761248   -1.034944    1.778483
      9          6           0        0.178452   -0.594981    0.950330
     10          8           0        1.460524   -1.047355    1.243787
     11          6           0        2.410145   -0.892709    0.264859
     12          6           0        2.370937   -1.655775   -0.903982
     13          6           0        3.382457   -1.513478   -1.854124
     14          6           0        4.434861   -0.625225   -1.625905
     15          6           0        4.481905    0.117679   -0.445058
     16          6           0        3.472179   -0.021748    0.507230
     17          7           0       -0.013040    0.246424   -0.061499
     18          1           0       -2.874547    2.587903   -2.274837
     19          1           0       -3.170045    2.453293   -0.537279
     20          1           0       -3.477099    1.053715   -1.636403
     21          1           0       -4.278507    0.559396    2.180007
     22          1           0       -4.944866   -0.952244    2.808862
     23          1           0       -4.583236   -0.841739    1.082174
     24          1           0        1.559781   -2.356507   -1.077771
     25          1           0        3.352307   -2.096528   -2.770748
     26          1           0        5.222083   -0.515208   -2.367509
     27          1           0        5.306092    0.803104   -0.266279
     28          1           0        3.510872    0.549442    1.430149
 ---------------------------------------------------------------------
                    Distance matrix (angstroms):
                    1          2          3          4          5
     1  C    0.000000
     2  O    1.420964   0.000000
     3  C    2.341564   1.378797   0.000000
     4  N    2.609343   2.341800   1.328288   0.000000
     5  C    3.936965   3.510984   2.227704   1.328499   0.000000
     6  O    4.801904   4.679860   3.510875   2.341756   1.378946
     7  C    4.495296   4.801562   3.936442   2.609011   2.341787
     8  N    4.809692   4.027849   2.650073   2.363400   1.323995
     9  C    4.569919   3.469386   2.228557   2.652866   2.226477
    10  O    5.845422   4.625609   3.522672   4.042374   3.478365
    11  C    6.169161   4.809390   4.011771   4.854535   4.570866
    12  C    6.318937   4.981919   4.352640   5.245650   5.089225
    13  C    7.098408   5.739022   5.376475   6.410421   6.397468
    14  C    7.689288   6.284290   6.007854   7.125597   7.138181
    15  C    7.583607   6.165882   5.778830   6.852628   6.783709
    16  C    6.860148   5.468738   4.841429   5.778412   5.567665
    17  N    3.535074   2.270353   1.323385   2.361883   2.648176
    18  H    1.094355   2.041184   3.260817   3.694144   5.018635
    19  H    1.095655   2.085935   2.652873   2.595209   3.850066
    20  H    1.095637   2.085721   2.656754   2.592342   3.852690
    21  H    4.110440   4.549016   3.849294   2.594535   2.653450
    22  H    5.528029   5.893373   5.018150   3.693831   3.261026
    23  H    4.112330   4.549758   3.852137   2.592239   2.656565
    24  H    6.123217   4.904299   4.202232   4.928842   4.730718
    25  H    7.481725   6.196302   5.941528   6.954390   7.003696
    26  H    8.454682   7.072941   6.933037   8.097124   8.177712
    27  H    8.284382   6.886283   6.578357   7.667000   7.622107
    28  H    7.077064   5.746879   5.058086   5.887217   5.601465
                    6          7          8          9         10
     6  O    0.000000
     7  C    1.421068   0.000000
     8  N    2.270417   3.535504   0.000000
     9  C    3.467024   4.568084   1.327570   0.000000
    10  O    4.555211   5.792025   2.285241   1.390851   0.000000
    11  C    5.763496   6.909878   3.516962   2.353501   1.372587
    12  C    6.280102   7.346052   4.170328   3.061168   2.410796
    13  C    7.629003   8.639848   5.531286   4.355944   3.675343
    14  C    8.409464   9.440122   6.225534   4.975432   4.154516
    15  C    8.034046   9.110119   5.810622   4.579814   3.652156
    16  C    6.767125   7.894607   4.534816   3.372473   2.375109
    17  N    4.026120   4.807785   2.363737   1.329823   2.355637
    18  H    5.893726   5.528093   5.832706   5.463813   6.662481
    19  H    4.549716   4.111803   4.830409   4.766276   6.071977
    20  H    4.549943   4.111120   4.837333   4.772048   6.090165
    21  H    2.085991   1.095653   3.882557   4.765414   6.032796
    22  H    2.041255   1.094357   4.309429   5.461700   6.594507
    23  H    2.085824   1.095638   3.889700   4.769900   6.049416
    24  H    5.829270   6.857016   3.910485   3.020635   2.667089
    25  H    8.203266   9.149964   6.224452   5.116094   4.560274
    26  H    9.463081  10.461398   7.297919   6.037602   5.241561
    27  H    8.863706   9.927357   6.661238   5.452290   4.526907
    28  H    6.723000   7.860309   4.569751   3.555974   2.605459
                   11         12         13         14         15
    11  C    0.000000
    12  C    1.396423   0.000000
    13  C    2.412640   1.395059   0.000000
    14  C    2.783166   2.417227   1.395934   0.000000
    15  C    2.411857   2.794984   2.419695   1.395894   0.000000
    16  C    1.394716   2.423695   2.794513   2.416859   1.394933
    17  N    2.697399   3.164093   4.223761   4.794889   4.513117
    18  H    6.818554   6.884994   7.493225   8.010790   7.972922
    19  H    6.555736   6.908067   7.772042   8.276290   8.000996
    20  H    6.485600   6.486702   7.327441   8.088143   8.101926
    21  H    7.107353   7.657224   8.902887   9.581810   9.155922
    22  H    7.782781   8.234145   9.560478  10.380432  10.029793
    23  H    7.041163   7.277911   8.516181   9.418420   9.242819
    24  H    2.160666   1.085911   2.153037   3.400570   3.880816
    25  H    3.398788   2.154569   1.086764   2.155765   3.404047
    26  H    3.870254   3.401740   2.155071   1.087106   2.155047
    27  H    3.397705   3.881737   3.404141   2.155864   1.086763
    28  H    2.156224   3.407433   3.880538   3.401921   2.155395
                   16         17         18         19         20
    16  C    0.000000
    17  N    3.541486   0.000000
    18  H    7.404803   4.309247   0.000000
    19  H    7.164912   3.881149   1.767639   0.000000
    20  H    7.351479   3.889955   1.767597   1.805872   0.000000
    21  H    7.950412   4.828717   5.092306   3.492732   3.930851
    22  H    8.775533   5.830839   6.531681   5.093558   5.092994
    23  H    8.117429   4.835161   5.094270   3.934078   3.493844
    24  H    3.408899   3.206528   6.748587   6.767390   6.108342
    25  H    3.881265   4.914775   7.807915   8.260165   7.606021
    26  H    3.401440   5.770986   8.671407   9.087879   8.869713
    27  H    2.154515   5.352102   8.610614   8.639529   8.892946
    28  H    1.086064   3.838592   7.658709   7.220116   7.647861
                   21         22         23         24         25
    21  H    0.000000
    22  H    1.767639   0.000000
    23  H    1.805900   1.767608   0.000000
    24  H    7.293916   7.706381   6.685547   0.000000
    25  H    9.475929  10.064021   8.910238   2.479296   0.000000
    26  H   10.587534  11.417209  10.399578   4.297239   2.481781
    27  H    9.894860  10.845270  10.115465   4.967545   4.300873
    28  H    7.825395   8.698012   8.220162   4.305921   4.967276
                   26         27         28
    26  H    0.000000
    27  H    2.481969   0.000000
    28  H    4.299294   2.482947   0.000000
 Stoichiometry    C11H11N3O3
 Framework group  C1[X(C11H11N3O3)]
 Deg. of freedom    78
 Full point group                 C1      NOp   1
 Largest Abelian subgroup         C1      NOp   1
 Largest concise Abelian subgroup C1      NOp   1
                         Standard orientation:                         
 ---------------------------------------------------------------------
 Center     Atomic      Atomic             Coordinates (Angstroms)
 Number     Number       Type             X           Y           Z
 ---------------------------------------------------------------------
      1          6           0        2.645690    2.966817   -0.126035
      2          8           0        1.337041    2.418129   -0.200310
      3          6           0        1.313995    1.040857   -0.139712
      4          7           0        2.451298    0.367405   -0.007987
      5          6           0        2.295605   -0.951219    0.035609
      6          8           0        3.400005   -1.766409    0.166989
      7          6           0        4.627184   -1.052542    0.229106
      8          7           0        1.144560   -1.601703   -0.034588
      9          6           0        0.081274   -0.815669   -0.152976
     10          8           0       -1.127143   -1.496020   -0.259359
     11          6           0       -2.270071   -0.760191   -0.068920
     12          6           0       -2.613624   -0.277007    1.195398
     13          6           0       -3.810133    0.419971    1.365047
     14          6           0       -4.664205    0.615856    0.278392
     15          6           0       -4.327402    0.110121   -0.978316
     16          6           0       -3.131753   -0.587117   -1.151871
     17          7           0        0.103493    0.512233   -0.220885
     18          1           0        2.555443    4.055735   -0.187076
     19          1           0        3.264000    2.637266   -0.968381
     20          1           0        3.124183    2.726531    0.829856
     21          1           0        4.804642   -0.485033   -0.691165
     22          1           0        5.434800   -1.784349    0.328260
     23          1           0        4.662744   -0.398039    1.107049
     24          1           0       -1.956603   -0.439181    2.044648
     25          1           0       -4.078407    0.807883    2.344133
     26          1           0       -5.596021    1.159562    0.412190
     27          1           0       -4.997397    0.257457   -1.821199
     28          1           0       -2.871424   -0.988237   -2.126994
 ---------------------------------------------------------------------
 Rotational constants (GHZ):      0.9692822      0.2573162      0.2198657
 Leave Link  202 at Fri Sep  3 00:08:04 2021, MaxMem=  268435456 cpu:       0.0
 (Enter /sw/target/amd/app/gaussian/Gaussian09RevA.02_gcc-4.9.2/g09/l301.exe)
 Standard basis: 6-31G(d) (6D, 7F)
 Ernie: Thresh=  0.10000D-02 Tol=  0.10000D-05 Strict=F.
 There are   277 symmetry adapted basis functions of A   symmetry.
 Integral buffers will be    131072 words long.
 Raffenetti 2 integral format.
 Two-electron integral symmetry is turned on.
   277 basis functions,   520 primitive gaussians,   277 cartesian basis functions
    61 alpha electrons       61 beta electrons
       nuclear repulsion energy      1162.8598422367 Hartrees.
 IExCor=  402 DFT=T Ex+Corr=B3LYP ExCW=0 ScaHFX=  0.200000
 ScaDFX=  0.800000  0.720000  1.000000  0.810000 ScalE2=  1.000000  1.000000
 IRadAn=      0 IRanWt=     -1 IRanGd=            0 ICorTp=0
 NAtoms=   28 NActive=   28 NUniq=   28 SFac= 7.50D-01 NAtFMM=   80 NAOKFM=F Big=F
 Leave Link  301 at Fri Sep  3 00:08:05 2021, MaxMem=  268435456 cpu:       0.1
 (Enter /sw/target/amd/app/gaussian/Gaussian09RevA.02_gcc-4.9.2/g09/l302.exe)
 NPDir=0 NMtPBC=     1 NCelOv=     1 NCel=       1 NClECP=     1 NCelD=      1
         NCelK=      1 NCelE2=     1 NClLst=     1 CellRange=     0.0.
 One-electron integrals computed using PRISM.
 NBasis=   277 RedAO= T  NBF=   277
 NBsUse=   277 1.00D-06 NBFU=   277
 Precomputing XC quadrature grid using
 IXCGrd= 2 IRadAn=           0 IRanWt=          -1 IRanGd=           0 AccXCQ= 1.00D-10.
 NRdTot=    1781 NPtTot=      227214 NUsed=      240058 NTot=      240090
 NSgBfM=   274   274   274   274   274 NAtAll=    28    28.
 Leave Link  302 at Fri Sep  3 00:08:06 2021, MaxMem=  268435456 cpu:       1.3
 (Enter /sw/target/amd/app/gaussian/Gaussian09RevA.02_gcc-4.9.2/g09/l303.exe)
 DipDrv:  MaxL=1.
 Leave Link  303 at Fri Sep  3 00:08:06 2021, MaxMem=  268435456 cpu:       0.1
 (Enter /sw/target/amd/app/gaussian/Gaussian09RevA.02_gcc-4.9.2/g09/l401.exe)
 Harris functional with IExCor=  402 diagonalized for initial guess.
 ExpMin= 1.61D-01 ExpMax= 5.48D+03 ExpMxC= 8.25D+02 IAcc=1 IRadAn=         1 AccDes= 0.00D+00
 HarFok:  IExCor=  402 AccDes= 0.00D+00 IRadAn=         1 IDoV= 1
 ScaDFX=  1.000000  1.000000  1.000000  1.000000
 FoFCou: FMM=F IPFlag=           0 FMFlag=      100000 FMFlg1=           0
         NFxFlg=           0 DoJE=T BraDBF=F KetDBF=T FulRan=T
         Omega=  0.000000  0.000000  1.000000  0.000000  0.000000 ICntrl=     500 IOpCl=  0
         NMat0=    1 NMatS0=    1 NMatT0=    0 NMatD0=    1 NMtDS0=    0 NMtDT0=    0
         I1Cent=           4 NGrid=           0.
 Petite list used in FoFCou.
 Harris En= -815.784326382475    
 Initial guess orbital symmetries:
       Occupied  (A) (A) (A) (A) (A) (A) (A) (A) (A) (A) (A) (A)
                 (A) (A) (A) (A) (A) (A) (A) (A) (A) (A) (A) (A)
                 (A) (A) (A) (A) (A) (A) (A) (A) (A) (A) (A) (A)
                 (A) (A) (A) (A) (A) (A) (A) (A) (A) (A) (A) (A)
                 (A) (A) (A) (A) (A) (A) (A) (A) (A) (A) (A) (A)
                 (A)
       Virtual   (A) (A) (A) (A) (A) (A) (A) (A) (A) (A) (A) (A)
                 (A) (A) (A) (A) (A) (A) (A) (A) (A) (A) (A) (A)
                 (A) (A) (A) (A) (A) (A) (A) (A) (A) (A) (A) (A)
                 (A) (A) (A) (A) (A) (A) (A) (A) (A) (A) (A) (A)
                 (A) (A) (A) (A) (A) (A) (A) (A) (A) (A) (A) (A)
                 (A) (A) (A) (A) (A) (A) (A) (A) (A) (A) (A) (A)
                 (A) (A) (A) (A) (A) (A) (A) (A) (A) (A) (A) (A)
                 (A) (A) (A) (A) (A) (A) (A) (A) (A) (A) (A) (A)
                 (A) (A) (A) (A) (A) (A) (A) (A) (A) (A) (A) (A)
                 (A) (A) (A) (A) (A) (A) (A) (A) (A) (A) (A) (A)
                 (A) (A) (A) (A) (A) (A) (A) (A) (A) (A) (A) (A)
                 (A) (A) (A) (A) (A) (A) (A) (A) (A) (A) (A) (A)
                 (A) (A) (A) (A) (A) (A) (A) (A) (A) (A) (A) (A)
                 (A) (A) (A) (A) (A) (A) (A) (A) (A) (A) (A) (A)
                 (A) (A) (A) (A) (A) (A) (A) (A) (A) (A) (A) (A)
                 (A) (A) (A) (A) (A) (A) (A) (A) (A) (A) (A) (A)
                 (A) (A) (A) (A) (A) (A) (A) (A) (A) (A) (A) (A)
                 (A) (A) (A) (A) (A) (A) (A) (A) (A) (A) (A) (A)
 The electronic state of the initial guess is 1-A.
 Leave Link  401 at Fri Sep  3 00:08:14 2021, MaxMem=  268435456 cpu:       8.1
 (Enter /sw/target/amd/app/gaussian/Gaussian09RevA.02_gcc-4.9.2/g09/l502.exe)
 Closed shell SCF:
 Requested convergence on RMS density matrix=1.00D-08 within  64 cycles.
 Requested convergence on MAX density matrix=1.00D-06.
 Requested convergence on             energy=1.00D-06.
 No special actions if energy rises.
 Using DIIS extrapolation, IDIIS=  1040.
 Integral symmetry usage will be decided dynamically.
       239793 words used for storage of precomputed grid.
 IEnd=      479265 IEndB=      479265 NGot=   268435456 MDV=   268037422
 LenX=   268037422 LenY=   267960252
 Fock matrices will be formed incrementally for  20 cycles.
 Integral accuracy reduced to 1.0D-05 until final iterations.

 Cycle   1  Pass 0  IDiag  1:
 FoFCou: FMM=F IPFlag=           0 FMFlag=      100000 FMFlg1=           0
         NFxFlg=           0 DoJE=F BraDBF=F KetDBF=F FulRan=T
         Omega=  0.000000  0.000000  1.000000  0.000000  0.000000 ICntrl=       0 IOpCl=  0
         NMat0=    1 NMatS0=    1 NMatT0=    0 NMatD0=    1 NMtDS0=    0 NMtDT0=    0
         I1Cent=           0 NGrid=           0.
 Symmetry not used in FoFCou.
 E= -815.336131027555    
 DIIS: error= 2.80D-02 at cycle   1 NSaved=   1.
 NSaved= 1 IEnMin= 1 EnMin= -815.336131027555     IErMin= 1 ErrMin= 2.80D-02
 ErrMax= 2.80D-02 EMaxC= 1.00D-01 BMatC= 4.12D-01 BMatP= 4.12D-01
 IDIUse=3 WtCom= 7.20D-01 WtEn= 2.80D-01
 Coeff-Com:  0.100D+01
 Coeff-En:   0.100D+01
 Coeff:      0.100D+01
 Gap=     0.266 Goal=   None    Shift=    0.000
 GapD=    0.266 DampG=1.000 DampE=0.500 DampFc=0.5000 IDamp=-1.
 Damping current iteration by 5.00D-01
 RMSDP=4.65D-03 MaxDP=1.65D-01              OVMax= 2.06D-01

 Cycle   2  Pass 0  IDiag  1:
 RMSU=  1.62D-03    CP:  9.81D-01
 E= -815.489725573797     Delta-E=       -0.153594546242 Rises=F Damp=T
 DIIS: error= 6.34D-03 at cycle   2 NSaved=   2.
 NSaved= 2 IEnMin= 2 EnMin= -815.489725573797     IErMin= 2 ErrMin= 6.34D-03
 ErrMax= 6.34D-03 EMaxC= 1.00D-01 BMatC= 3.06D-02 BMatP= 4.12D-01
 IDIUse=3 WtCom= 9.37D-01 WtEn= 6.34D-02
 Coeff-Com:  0.118D+00 0.882D+00
 Coeff-En:   0.193D+00 0.807D+00
 Coeff:      0.123D+00 0.877D+00
 Gap=     0.226 Goal=   None    Shift=    0.000
 RMSDP=1.10D-03 MaxDP=4.42D-02 DE=-1.54D-01 OVMax= 1.69D-01

 Cycle   3  Pass 0  IDiag  1:
 RMSU=  7.55D-04    CP:  9.77D-01  8.83D-01
 E= -815.700578798939     Delta-E=       -0.210853225141 Rises=F Damp=F
 DIIS: error= 5.50D-03 at cycle   3 NSaved=   3.
 NSaved= 3 IEnMin= 3 EnMin= -815.700578798939     IErMin= 3 ErrMin= 5.50D-03
 ErrMax= 5.50D-03 EMaxC= 1.00D-01 BMatC= 1.54D-02 BMatP= 3.06D-02
 IDIUse=3 WtCom= 9.45D-01 WtEn= 5.50D-02
 Coeff-Com:  0.134D-01 0.402D+00 0.585D+00
 Coeff-En:   0.000D+00 0.000D+00 0.100D+01
 Coeff:      0.127D-01 0.379D+00 0.608D+00
 Gap=     0.220 Goal=   None    Shift=    0.000
 RMSDP=7.15D-04 MaxDP=2.60D-02 DE=-2.11D-01 OVMax= 6.54D-02

 Cycle   4  Pass 0  IDiag  1:
 RMSU=  3.45D-04    CP:  9.79D-01  9.21D-01  5.20D-01
 E= -815.710486443960     Delta-E=       -0.009907645021 Rises=F Damp=F
 DIIS: error= 4.23D-03 at cycle   4 NSaved=   4.
 NSaved= 4 IEnMin= 4 EnMin= -815.710486443960     IErMin= 4 ErrMin= 4.23D-03
 ErrMax= 4.23D-03 EMaxC= 1.00D-01 BMatC= 5.28D-03 BMatP= 1.54D-02
 IDIUse=3 WtCom= 9.58D-01 WtEn= 4.23D-02
 Coeff-Com: -0.353D-02 0.119D+00 0.380D+00 0.504D+00
 Coeff-En:   0.000D+00 0.000D+00 0.283D+00 0.717D+00
 Coeff:     -0.338D-02 0.114D+00 0.376D+00 0.513D+00
 Gap=     0.211 Goal=   None    Shift=    0.000
 RMSDP=3.42D-04 MaxDP=1.32D-02 DE=-9.91D-03 OVMax= 3.22D-02

 Cycle   5  Pass 0  IDiag  1:
 RMSU=  1.02D-04    CP:  9.79D-01  9.03D-01  6.85D-01  4.84D-01
 E= -815.715405710672     Delta-E=       -0.004919266712 Rises=F Damp=F
 DIIS: error= 1.18D-03 at cycle   5 NSaved=   5.
 NSaved= 5 IEnMin= 5 EnMin= -815.715405710672     IErMin= 5 ErrMin= 1.18D-03
 ErrMax= 1.18D-03 EMaxC= 1.00D-01 BMatC= 5.22D-04 BMatP= 5.28D-03
 IDIUse=3 WtCom= 9.88D-01 WtEn= 1.18D-02
 Coeff-Com: -0.217D-02 0.214D-01 0.149D+00 0.302D+00 0.530D+00
 Coeff-En:   0.000D+00 0.000D+00 0.000D+00 0.558D-01 0.944D+00
 Coeff:     -0.214D-02 0.211D-01 0.147D+00 0.299D+00 0.535D+00
 Gap=     0.211 Goal=   None    Shift=    0.000
 RMSDP=9.12D-05 MaxDP=2.71D-03 DE=-4.92D-03 OVMax= 7.83D-03

 Cycle   6  Pass 0  IDiag  1:
 RMSU=  3.15D-05    CP:  9.79D-01  9.10D-01  6.69D-01  5.69D-01  5.64D-01
 E= -815.715897238461     Delta-E=       -0.000491527789 Rises=F Damp=F
 DIIS: error= 2.24D-04 at cycle   6 NSaved=   6.
 NSaved= 6 IEnMin= 6 EnMin= -815.715897238461     IErMin= 6 ErrMin= 2.24D-04
 ErrMax= 2.24D-04 EMaxC= 1.00D-01 BMatC= 2.90D-05 BMatP= 5.22D-04
 IDIUse=3 WtCom= 9.98D-01 WtEn= 2.24D-03
 Coeff-Com: -0.881D-03 0.259D-02 0.491D-01 0.117D+00 0.280D+00 0.552D+00
 Coeff-En:   0.000D+00 0.000D+00 0.000D+00 0.000D+00 0.000D+00 0.100D+01
 Coeff:     -0.879D-03 0.259D-02 0.490D-01 0.117D+00 0.279D+00 0.553D+00
 Gap=     0.211 Goal=   None    Shift=    0.000
 RMSDP=2.20D-05 MaxDP=8.86D-04 DE=-4.92D-04 OVMax= 1.37D-03

 Cycle   7  Pass 0  IDiag  1:
 RMSU=  9.64D-06    CP:  9.79D-01  9.09D-01  6.74D-01  5.66D-01  6.06D-01
                    CP:  6.65D-01
 E= -815.715920940896     Delta-E=       -0.000023702435 Rises=F Damp=F
 DIIS: error= 6.83D-05 at cycle   7 NSaved=   7.
 NSaved= 7 IEnMin= 7 EnMin= -815.715920940896     IErMin= 7 ErrMin= 6.83D-05
 ErrMax= 6.83D-05 EMaxC= 1.00D-01 BMatC= 3.30D-06 BMatP= 2.90D-05
 IDIUse=1 WtCom= 1.00D+00 WtEn= 0.00D+00
 Coeff-Com: -0.354D-03-0.333D-04 0.183D-01 0.477D-01 0.130D+00 0.333D+00
 Coeff-Com:  0.471D+00
 Coeff:     -0.354D-03-0.333D-04 0.183D-01 0.477D-01 0.130D+00 0.333D+00
 Coeff:      0.471D+00
 Gap=     0.211 Goal=   None    Shift=    0.000
 RMSDP=7.15D-06 MaxDP=3.76D-04 DE=-2.37D-05 OVMax= 5.06D-04

 Initial convergence to 1.0D-05 achieved.  Increase integral accuracy.
 Cycle   8  Pass 1  IDiag  1:
 E= -815.715975463224     Delta-E=       -0.000054522328 Rises=F Damp=F
 DIIS: error= 4.13D-05 at cycle   1 NSaved=   1.
 NSaved= 1 IEnMin= 1 EnMin= -815.715975463224     IErMin= 1 ErrMin= 4.13D-05
 ErrMax= 4.13D-05 EMaxC= 1.00D-01 BMatC= 3.90D-07 BMatP= 3.90D-07
 IDIUse=1 WtCom= 1.00D+00 WtEn= 0.00D+00
 Coeff-Com:  0.100D+01
 Coeff:      0.100D+01
 Gap=     0.211 Goal=   None    Shift=    0.000
 RMSDP=7.15D-06 MaxDP=3.76D-04 DE=-5.45D-05 OVMax= 3.56D-04

 Cycle   9  Pass 1  IDiag  1:
 RMSU=  1.00D-05    CP:  1.00D+00
 E= -815.715975363341     Delta-E=        0.000000099883 Rises=F Damp=F
 DIIS: error= 3.78D-05 at cycle   2 NSaved=   2.
 NSaved= 2 IEnMin= 1 EnMin= -815.715975463224     IErMin= 2 ErrMin= 3.78D-05
 ErrMax= 3.78D-05 EMaxC= 1.00D-01 BMatC= 5.87D-07 BMatP= 3.90D-07
 IDIUse=1 WtCom= 1.00D+00 WtEn= 0.00D+00
 Coeff-Com:  0.562D+00 0.438D+00
 Coeff:      0.562D+00 0.438D+00
 Gap=     0.211 Goal=   None    Shift=    0.000
 RMSDP=3.24D-06 MaxDP=2.21D-04 DE= 9.99D-08 OVMax= 3.03D-04

 Cycle  10  Pass 1  IDiag  1:
 RMSU=  2.21D-06    CP:  1.00D+00  9.38D-01
 E= -815.715975844436     Delta-E=       -0.000000481095 Rises=F Damp=F
 DIIS: error= 1.25D-05 at cycle   3 NSaved=   3.
 NSaved= 3 IEnMin= 3 EnMin= -815.715975844436     IErMin= 3 ErrMin= 1.25D-05
 ErrMax= 1.25D-05 EMaxC= 1.00D-01 BMatC= 5.51D-08 BMatP= 3.90D-07
 IDIUse=1 WtCom= 1.00D+00 WtEn= 0.00D+00
 Coeff-Com:  0.460D-01 0.233D+00 0.721D+00
 Coeff:      0.460D-01 0.233D+00 0.721D+00
 Gap=     0.211 Goal=   None    Shift=    0.000
 RMSDP=1.07D-06 MaxDP=4.61D-05 DE=-4.81D-07 OVMax= 7.59D-05

 Cycle  11  Pass 1  IDiag  1:
 RMSU=  5.13D-07    CP:  1.00D+00  9.66D-01  7.82D-01
 E= -815.715975886712     Delta-E=       -0.000000042276 Rises=F Damp=F
 DIIS: error= 3.56D-06 at cycle   4 NSaved=   4.
 NSaved= 4 IEnMin= 4 EnMin= -815.715975886712     IErMin= 4 ErrMin= 3.56D-06
 ErrMax= 3.56D-06 EMaxC= 1.00D-01 BMatC= 9.26D-09 BMatP= 5.51D-08
 IDIUse=1 WtCom= 1.00D+00 WtEn= 0.00D+00
 Coeff-Com: -0.114D-01 0.108D+00 0.433D+00 0.471D+00
 Coeff:     -0.114D-01 0.108D+00 0.433D+00 0.471D+00
 Gap=     0.211 Goal=   None    Shift=    0.000
 RMSDP=3.78D-07 MaxDP=1.23D-05 DE=-4.23D-08 OVMax= 3.12D-05

 Cycle  12  Pass 1  IDiag  1:
 RMSU=  1.09D-07    CP:  1.00D+00  9.67D-01  8.05D-01  5.36D-01
 E= -815.715975895097     Delta-E=       -0.000000008385 Rises=F Damp=F
 DIIS: error= 8.60D-07 at cycle   5 NSaved=   5.
 NSaved= 5 IEnMin= 5 EnMin= -815.715975895097     IErMin= 5 ErrMin= 8.60D-07
 ErrMax= 8.60D-07 EMaxC= 1.00D-01 BMatC= 3.25D-10 BMatP= 9.26D-09
 IDIUse=1 WtCom= 1.00D+00 WtEn= 0.00D+00
 Coeff-Com: -0.825D-02 0.561D-01 0.232D+00 0.276D+00 0.444D+00
 Coeff:     -0.825D-02 0.561D-01 0.232D+00 0.276D+00 0.444D+00
 Gap=     0.211 Goal=   None    Shift=    0.000
 RMSDP=7.91D-08 MaxDP=3.07D-06 DE=-8.38D-09 OVMax= 7.05D-06

 Cycle  13  Pass 1  IDiag  1:
 RMSU=  4.41D-08    CP:  1.00D+00  9.68D-01  8.02D-01  5.47D-01  6.98D-01
 E= -815.715975895412     Delta-E=       -0.000000000315 Rises=F Damp=F
 DIIS: error= 2.66D-07 at cycle   6 NSaved=   6.
 NSaved= 6 IEnMin= 6 EnMin= -815.715975895412     IErMin= 6 ErrMin= 2.66D-07
 ErrMax= 2.66D-07 EMaxC= 1.00D-01 BMatC= 2.06D-11 BMatP= 3.25D-10
 IDIUse=1 WtCom= 1.00D+00 WtEn= 0.00D+00
 Coeff-Com: -0.266D-02 0.146D-01 0.630D-01 0.793D-01 0.228D+00 0.618D+00
 Coeff:     -0.266D-02 0.146D-01 0.630D-01 0.793D-01 0.228D+00 0.618D+00
 Gap=     0.211 Goal=   None    Shift=    0.000
 RMSDP=2.20D-08 MaxDP=7.58D-07 DE=-3.15D-10 OVMax= 2.25D-06

 Cycle  14  Pass 1  IDiag  1:
 RMSU=  9.78D-09    CP:  1.00D+00  9.68D-01  8.03D-01  5.42D-01  7.67D-01
                    CP:  8.04D-01
 E= -815.715975895447     Delta-E=       -0.000000000035 Rises=F Damp=F
 DIIS: error= 7.47D-08 at cycle   7 NSaved=   7.
 NSaved= 7 IEnMin= 7 EnMin= -815.715975895447     IErMin= 7 ErrMin= 7.47D-08
 ErrMax= 7.47D-08 EMaxC= 1.00D-01 BMatC= 2.94D-12 BMatP= 2.06D-11
 IDIUse=1 WtCom= 1.00D+00 WtEn= 0.00D+00
 Coeff-Com: -0.595D-03 0.217D-02 0.993D-02 0.141D-01 0.711D-01 0.337D+00
 Coeff-Com:  0.566D+00
 Coeff:     -0.595D-03 0.217D-02 0.993D-02 0.141D-01 0.711D-01 0.337D+00
 Coeff:      0.566D+00
 Gap=     0.211 Goal=   None    Shift=    0.000
 RMSDP=6.83D-09 MaxDP=2.64D-07 DE=-3.50D-11 OVMax= 6.03D-07

 SCF Done:  E(RB3LYP) =  -815.715975895     A.U. after   14 cycles
             Convg  =    0.6827D-08             -V/T =  2.0093
 KE= 8.082165551390D+02 PE=-4.226323143410D+03 EE= 1.439530770139D+03
 Leave Link  502 at Fri Sep  3 00:13:07 2021, MaxMem=  268435456 cpu:     291.3
 (Enter /sw/target/amd/app/gaussian/Gaussian09RevA.02_gcc-4.9.2/g09/l508.exe)
 QCSCF skips out because SCF is already converged.
 Leave Link  508 at Fri Sep  3 00:13:07 2021, MaxMem=  268435456 cpu:       0.0
 (Enter /sw/target/amd/app/gaussian/Gaussian09RevA.02_gcc-4.9.2/g09/l601.exe)
 Copying SCF densities to generalized density rwf, IOpCl= 0 IROHF=0.

 **********************************************************************

            Population analysis using the SCF density.

 **********************************************************************

 Orbital symmetries:
       Occupied  (A) (A) (A) (A) (A) (A) (A) (A) (A) (A) (A) (A)
                 (A) (A) (A) (A) (A) (A) (A) (A) (A) (A) (A) (A)
                 (A) (A) (A) (A) (A) (A) (A) (A) (A) (A) (A) (A)
                 (A) (A) (A) (A) (A) (A) (A) (A) (A) (A) (A) (A)
                 (A) (A) (A) (A) (A) (A) (A) (A) (A) (A) (A) (A)
                 (A)
       Virtual   (A) (A) (A) (A) (A) (A) (A) (A) (A) (A) (A) (A)
                 (A) (A) (A) (A) (A) (A) (A) (A) (A) (A) (A) (A)
                 (A) (A) (A) (A) (A) (A) (A) (A) (A) (A) (A) (A)
                 (A) (A) (A) (A) (A) (A) (A) (A) (A) (A) (A) (A)
                 (A) (A) (A) (A) (A) (A) (A) (A) (A) (A) (A) (A)
                 (A) (A) (A) (A) (A) (A) (A) (A) (A) (A) (A) (A)
                 (A) (A) (A) (A) (A) (A) (A) (A) (A) (A) (A) (A)
                 (A) (A) (A) (A) (A) (A) (A) (A) (A) (A) (A) (A)
                 (A) (A) (A) (A) (A) (A) (A) (A) (A) (A) (A) (A)
                 (A) (A) (A) (A) (A) (A) (A) (A) (A) (A) (A) (A)
                 (A) (A) (A) (A) (A) (A) (A) (A) (A) (A) (A) (A)
                 (A) (A) (A) (A) (A) (A) (A) (A) (A) (A) (A) (A)
                 (A) (A) (A) (A) (A) (A) (A) (A) (A) (A) (A) (A)
                 (A) (A) (A) (A) (A) (A) (A) (A) (A) (A) (A) (A)
                 (A) (A) (A) (A) (A) (A) (A) (A) (A) (A) (A) (A)
                 (A) (A) (A) (A) (A) (A) (A) (A) (A) (A) (A) (A)
                 (A) (A) (A) (A) (A) (A) (A) (A) (A) (A) (A) (A)
                 (A) (A) (A) (A) (A) (A) (A) (A) (A) (A) (A) (A)
 The electronic state is 1-A.
 Alpha  occ. eigenvalues --  -19.20363 -19.20259 -19.20137 -14.34994 -14.34349
 Alpha  occ. eigenvalues --  -14.34030 -10.33523 -10.33496 -10.33341 -10.24833
 Alpha  occ. eigenvalues --  -10.24445 -10.24357 -10.19268 -10.19203 -10.19179
 Alpha  occ. eigenvalues --  -10.18985 -10.18843  -1.11045  -1.09426  -1.08828
 Alpha  occ. eigenvalues --   -1.01067  -0.91225  -0.90935  -0.85053  -0.75630
 Alpha  occ. eigenvalues --   -0.74810  -0.73359  -0.72820  -0.66722  -0.65659
 Alpha  occ. eigenvalues --   -0.61290  -0.60578  -0.58435  -0.56259  -0.52884
 Alpha  occ. eigenvalues --   -0.50994  -0.50740  -0.49543  -0.47872  -0.47500
 Alpha  occ. eigenvalues --   -0.45207  -0.44531  -0.44135  -0.43953  -0.42384
 Alpha  occ. eigenvalues --   -0.41720  -0.39431  -0.38875  -0.37639  -0.37067
 Alpha  occ. eigenvalues --   -0.36343  -0.35418  -0.35314  -0.34978  -0.30781
 Alpha  occ. eigenvalues --   -0.29268  -0.28748  -0.27981  -0.27656  -0.25097
 Alpha  occ. eigenvalues --   -0.23817
 Alpha virt. eigenvalues --   -0.02702  -0.02562  -0.00037   0.00428   0.09022
 Alpha virt. eigenvalues --    0.09367   0.11769   0.12062   0.13289   0.13424
 Alpha virt. eigenvalues --    0.14270   0.14775   0.15160   0.15210   0.15369
 Alpha virt. eigenvalues --    0.15560   0.17437   0.18650   0.19044   0.19194
 Alpha virt. eigenvalues --    0.20841   0.24723   0.26783   0.28036   0.29357
 Alpha virt. eigenvalues --    0.29625   0.29969   0.30408   0.34641   0.34908
 Alpha virt. eigenvalues --    0.39652   0.42323   0.45602   0.48789   0.49380
 Alpha virt. eigenvalues --    0.50099   0.51143   0.52379   0.53427   0.53759
 Alpha virt. eigenvalues --    0.54056   0.54404   0.55812   0.56591   0.56883
 Alpha virt. eigenvalues --    0.58350   0.58818   0.59168   0.59215   0.60344
 Alpha virt. eigenvalues --    0.60672   0.61281   0.61530   0.61767   0.62635
 Alpha virt. eigenvalues --    0.64776   0.66020   0.66224   0.67079   0.68287
 Alpha virt. eigenvalues --    0.68399   0.71564   0.75479   0.76307   0.77522
 Alpha virt. eigenvalues --    0.80421   0.82197   0.83412   0.83745   0.84030
 Alpha virt. eigenvalues --    0.84079   0.84437   0.85088   0.86240   0.86612
 Alpha virt. eigenvalues --    0.88020   0.89184   0.90487   0.91812   0.92326
 Alpha virt. eigenvalues --    0.93441   0.93902   0.94962   0.95797   0.96240
 Alpha virt. eigenvalues --    0.99042   1.00025   1.02596   1.03329   1.03778
 Alpha virt. eigenvalues --    1.04990   1.05376   1.05679   1.08452   1.12736
 Alpha virt. eigenvalues --    1.13765   1.16254   1.16958   1.17842   1.19891
 Alpha virt. eigenvalues --    1.24462   1.26528   1.28327   1.29759   1.33104
 Alpha virt. eigenvalues --    1.36858   1.37916   1.39400   1.41078   1.43166
 Alpha virt. eigenvalues --    1.43411   1.44199   1.45768   1.46785   1.48537
 Alpha virt. eigenvalues --    1.49293   1.49763   1.49990   1.50325   1.51017
 Alpha virt. eigenvalues --    1.51246   1.55027   1.56809   1.58400   1.63625
 Alpha virt. eigenvalues --    1.66788   1.74016   1.74586   1.76638   1.77976
 Alpha virt. eigenvalues --    1.80826   1.82235   1.83303   1.84699   1.85906
 Alpha virt. eigenvalues --    1.88291   1.91244   1.93266   1.95774   1.96890
 Alpha virt. eigenvalues --    1.97425   1.97571   1.99453   1.99812   2.00599
 Alpha virt. eigenvalues --    2.04431   2.04946   2.07620   2.10459   2.11354
 Alpha virt. eigenvalues --    2.11759   2.11959   2.14849   2.15855   2.17102
 Alpha virt. eigenvalues --    2.20134   2.22065   2.22640   2.24173   2.26980
 Alpha virt. eigenvalues --    2.27572   2.28598   2.29044   2.30432   2.32250
 Alpha virt. eigenvalues --    2.38089   2.39789   2.43040   2.45201   2.45855
 Alpha virt. eigenvalues --    2.47341   2.48406   2.51382   2.52677   2.55288
 Alpha virt. eigenvalues --    2.57308   2.60773   2.63833   2.65169   2.66311
 Alpha virt. eigenvalues --    2.67265   2.70021   2.72002   2.72638   2.73584
 Alpha virt. eigenvalues --    2.74335   2.76868   2.78512   2.82272   2.84552
 Alpha virt. eigenvalues --    2.87405   2.93518   3.01602   3.10380   3.20443
 Alpha virt. eigenvalues --    3.22235   3.29654   3.41807   3.47862   4.03643
 Alpha virt. eigenvalues --    4.04838   4.08671   4.09022   4.10697   4.12870
 Alpha virt. eigenvalues --    4.18966   4.23974   4.24650   4.28537   4.30518
 Alpha virt. eigenvalues --    4.34113   4.40443   4.53739   4.64332   4.69131
 Alpha virt. eigenvalues --    4.81048
          Condensed to atoms (all electrons):
              1          2          3          4          5          6
     1  C    4.894906   0.227962  -0.031248  -0.007862   0.000610  -0.000008
     2  O    0.227962   8.180648   0.308528  -0.082422   0.000961  -0.000014
     3  C   -0.031248   0.308528   4.298879   0.392603  -0.037894   0.000874
     4  N   -0.007862  -0.082422   0.392603   7.071868   0.388414  -0.080983
     5  C    0.000610   0.000961  -0.037894   0.388414   4.312194   0.310941
     6  O   -0.000008  -0.000014   0.000874  -0.080983   0.310941   8.174779
     7  C   -0.000067  -0.000007   0.000637  -0.008097  -0.031799   0.228450
     8  N    0.000076  -0.000190  -0.032151  -0.074644   0.463059  -0.080895
     9  C   -0.000086   0.001265  -0.044610  -0.031242  -0.045538   0.001568
    10  O    0.000000  -0.000009   0.001848  -0.000193   0.001761  -0.000007
    11  C   -0.000000   0.000000   0.000554   0.000049   0.000079  -0.000000
    12  C   -0.000000   0.000003   0.000083  -0.000011   0.000036   0.000000
    13  C   -0.000000   0.000000   0.000003  -0.000000  -0.000000   0.000000
    14  C    0.000000  -0.000000   0.000001   0.000000  -0.000000  -0.000000
    15  C    0.000000   0.000000  -0.000000  -0.000000  -0.000000   0.000000
    16  C   -0.000000   0.000002  -0.000008  -0.000002   0.000008  -0.000000
    17  N    0.004687  -0.081380   0.472809  -0.076642  -0.031708  -0.000190
    18  H    0.376473  -0.030368   0.004087   0.000890  -0.000007  -0.000000
    19  H    0.372645  -0.031596  -0.008028   0.006908  -0.000092  -0.000004
    20  H    0.372670  -0.031714  -0.008072   0.007015  -0.000139  -0.000004
    21  H    0.000035  -0.000004  -0.000116   0.006903  -0.007991  -0.031681
    22  H    0.000000  -0.000000  -0.000006   0.000891   0.004142  -0.030385
    23  H    0.000035  -0.000004  -0.000110   0.006963  -0.008136  -0.031680
    24  H   -0.000000   0.000000  -0.000033  -0.000002   0.000020  -0.000000
    25  H   -0.000000   0.000000  -0.000000  -0.000000   0.000000  -0.000000
    26  H   -0.000000   0.000000  -0.000000   0.000000  -0.000000  -0.000000
    27  H   -0.000000  -0.000000  -0.000000  -0.000000   0.000000  -0.000000
    28  H   -0.000000   0.000000  -0.000004   0.000000   0.000001  -0.000000
              7          8          9         10         11         12
     1  C   -0.000067   0.000076  -0.000086   0.000000  -0.000000  -0.000000
     2  O   -0.000007  -0.000190   0.001265  -0.000009   0.000000   0.000003
     3  C    0.000637  -0.032151  -0.044610   0.001848   0.000554   0.000083
     4  N   -0.008097  -0.074644  -0.031242  -0.000193   0.000049  -0.000011
     5  C   -0.031799   0.463059  -0.045538   0.001761   0.000079   0.000036
     6  O    0.228450  -0.080895   0.001568  -0.000007  -0.000000   0.000000
     7  C    4.895167   0.004718  -0.000117   0.000000   0.000000  -0.000000
     8  N    0.004718   6.907897   0.440238  -0.077608   0.001149  -0.000218
     9  C   -0.000117   0.440238   4.361172   0.292267  -0.016742  -0.004287
    10  O    0.000000  -0.077608   0.292267   8.295616   0.194974  -0.049516
    11  C    0.000000   0.001149  -0.016742   0.194974   4.514604   0.525660
    12  C   -0.000000  -0.000218  -0.004287  -0.049516   0.525660   4.974051
    13  C   -0.000000  -0.000003  -0.000073   0.004289  -0.007167   0.510573
    14  C   -0.000000   0.000000   0.000055   0.000140  -0.038607  -0.037531
    15  C   -0.000000   0.000003   0.000037   0.004051  -0.010333  -0.038661
    16  C    0.000000  -0.000218  -0.003952  -0.050166   0.548285  -0.069179
    17  N    0.000078  -0.075642   0.399045  -0.077832   0.000815   0.003145
    18  H    0.000000   0.000001   0.000003  -0.000000  -0.000000   0.000000
    19  H    0.000035  -0.000015   0.000043   0.000000   0.000000   0.000000
    20  H    0.000037  -0.000014   0.000052   0.000000  -0.000000   0.000000
    21  H    0.372481  -0.000132   0.000048   0.000000   0.000000   0.000000
    22  H    0.376676  -0.000005   0.000003  -0.000000  -0.000000   0.000000
    23  H    0.372482  -0.000142   0.000049   0.000000   0.000000  -0.000000
    24  H    0.000000  -0.000266   0.002484  -0.004462  -0.038855   0.350033
    25  H    0.000000  -0.000000  -0.000010  -0.000058   0.003342  -0.037130
    26  H   -0.000000   0.000000   0.000000   0.000002   0.000750   0.004871
    27  H    0.000000  -0.000000  -0.000004  -0.000062   0.003427   0.000589
    28  H    0.000000  -0.000045   0.000241  -0.002055  -0.038051   0.006247
             13         14         15         16         17         18
     1  C   -0.000000   0.000000   0.000000  -0.000000   0.004687   0.376473
     2  O    0.000000  -0.000000   0.000000   0.000002  -0.081380  -0.030368
     3  C    0.000003   0.000001  -0.000000  -0.000008   0.472809   0.004087
     4  N   -0.000000   0.000000  -0.000000  -0.000002  -0.076642   0.000890
     5  C   -0.000000  -0.000000  -0.000000   0.000008  -0.031708  -0.000007
     6  O    0.000000  -0.000000   0.000000  -0.000000  -0.000190  -0.000000
     7  C   -0.000000  -0.000000  -0.000000   0.000000   0.000078   0.000000
     8  N   -0.000003   0.000000   0.000003  -0.000218  -0.075642   0.000001
     9  C   -0.000073   0.000055   0.000037  -0.003952   0.399045   0.000003
    10  O    0.004289   0.000140   0.004051  -0.050166  -0.077832  -0.000000
    11  C   -0.007167  -0.038607  -0.010333   0.548285   0.000815  -0.000000
    12  C    0.510573  -0.037531  -0.038661  -0.069179   0.003145   0.000000
    13  C    4.868139   0.549206  -0.026636  -0.038969  -0.000529   0.000000
    14  C    0.549206   4.853502   0.550156  -0.037552   0.000061  -0.000000
    15  C   -0.026636   0.550156   4.871653   0.509512  -0.000115   0.000000
    16  C   -0.038969  -0.037552   0.509512   4.972033   0.001606   0.000000
    17  N   -0.000529   0.000061  -0.000115   0.001606   6.933033  -0.000002
    18  H    0.000000  -0.000000   0.000000   0.000000  -0.000002   0.549056
    19  H    0.000000  -0.000000  -0.000000   0.000000  -0.000129  -0.033985
    20  H   -0.000000  -0.000000   0.000000   0.000000  -0.000146  -0.034164
    21  H    0.000000  -0.000000  -0.000000   0.000000  -0.000015   0.000000
    22  H    0.000000  -0.000000   0.000000   0.000000   0.000001   0.000000
    23  H   -0.000000   0.000000  -0.000000  -0.000000  -0.000015  -0.000000
    24  H   -0.041362   0.004844   0.000240   0.005985   0.000259  -0.000000
    25  H    0.356867  -0.041887   0.004566   0.000695  -0.000003   0.000000
    26  H   -0.042924   0.359174  -0.042696   0.004675   0.000000  -0.000000
    27  H    0.004684  -0.042279   0.357248  -0.037207  -0.000001   0.000000
    28  H    0.000164   0.004954  -0.042682   0.350737   0.000015  -0.000000
             19         20         21         22         23         24
     1  C    0.372645   0.372670   0.000035   0.000000   0.000035  -0.000000
     2  O   -0.031596  -0.031714  -0.000004  -0.000000  -0.000004   0.000000
     3  C   -0.008028  -0.008072  -0.000116  -0.000006  -0.000110  -0.000033
     4  N    0.006908   0.007015   0.006903   0.000891   0.006963  -0.000002
     5  C   -0.000092  -0.000139  -0.007991   0.004142  -0.008136   0.000020
     6  O   -0.000004  -0.000004  -0.031681  -0.030385  -0.031680  -0.000000
     7  C    0.000035   0.000037   0.372481   0.376676   0.372482   0.000000
     8  N   -0.000015  -0.000014  -0.000132  -0.000005  -0.000142  -0.000266
     9  C    0.000043   0.000052   0.000048   0.000003   0.000049   0.002484
    10  O    0.000000   0.000000   0.000000  -0.000000   0.000000  -0.004462
    11  C    0.000000  -0.000000   0.000000  -0.000000   0.000000  -0.038855
    12  C    0.000000   0.000000   0.000000   0.000000  -0.000000   0.350033
    13  C    0.000000  -0.000000   0.000000   0.000000  -0.000000  -0.041362
    14  C   -0.000000  -0.000000  -0.000000  -0.000000   0.000000   0.004844
    15  C   -0.000000   0.000000  -0.000000   0.000000  -0.000000   0.000240
    16  C    0.000000   0.000000   0.000000   0.000000  -0.000000   0.005985
    17  N   -0.000129  -0.000146  -0.000015   0.000001  -0.000015   0.000259
    18  H   -0.033985  -0.034164   0.000000   0.000000  -0.000000  -0.000000
    19  H    0.566831  -0.036927   0.000327  -0.000000  -0.000038   0.000000
    20  H   -0.036927   0.567317  -0.000038  -0.000000   0.000326  -0.000000
    21  H    0.000327  -0.000038   0.567825  -0.034022  -0.037063   0.000000
    22  H   -0.000000  -0.000000  -0.034022   0.548638  -0.034138  -0.000000
    23  H   -0.000038   0.000326  -0.037063  -0.034138   0.568216   0.000000
    24  H    0.000000  -0.000000   0.000000  -0.000000   0.000000   0.590070
    25  H   -0.000000   0.000000  -0.000000   0.000000   0.000000  -0.005833
    26  H   -0.000000   0.000000  -0.000000  -0.000000   0.000000  -0.000171
    27  H    0.000000   0.000000   0.000000   0.000000  -0.000000   0.000015
    28  H    0.000000   0.000000  -0.000000  -0.000000   0.000000  -0.000152
             25         26         27         28
     1  C   -0.000000  -0.000000  -0.000000  -0.000000
     2  O    0.000000   0.000000  -0.000000   0.000000
     3  C   -0.000000  -0.000000  -0.000000  -0.000004
     4  N   -0.000000   0.000000  -0.000000   0.000000
     5  C    0.000000  -0.000000   0.000000   0.000001
     6  O   -0.000000  -0.000000  -0.000000  -0.000000
     7  C    0.000000  -0.000000   0.000000   0.000000
     8  N   -0.000000   0.000000  -0.000000  -0.000045
     9  C   -0.000010   0.000000  -0.000004   0.000241
    10  O   -0.000058   0.000002  -0.000062  -0.002055
    11  C    0.003342   0.000750   0.003427  -0.038051
    12  C   -0.037130   0.004871   0.000589   0.006247
    13  C    0.356867  -0.042924   0.004684   0.000164
    14  C   -0.041887   0.359174  -0.042279   0.004954
    15  C    0.004566  -0.042696   0.357248  -0.042682
    16  C    0.000695   0.004675  -0.037207   0.350737
    17  N   -0.000003   0.000000  -0.000001   0.000015
    18  H    0.000000  -0.000000   0.000000  -0.000000
    19  H   -0.000000  -0.000000   0.000000   0.000000
    20  H    0.000000   0.000000   0.000000   0.000000
    21  H   -0.000000  -0.000000   0.000000  -0.000000
    22  H    0.000000  -0.000000   0.000000  -0.000000
    23  H    0.000000   0.000000  -0.000000   0.000000
    24  H   -0.005833  -0.000171   0.000015  -0.000152
    25  H    0.589899  -0.005480  -0.000193   0.000015
    26  H   -0.005480   0.597901  -0.005496  -0.000168
    27  H   -0.000193  -0.005496   0.590092  -0.005970
    28  H    0.000015  -0.000168  -0.005970   0.585881
 Mulliken atomic charges:
              1
     1  C   -0.210830
     2  O   -0.461661
     3  C    0.681375
     4  N   -0.520402
     5  C    0.681078
     6  O   -0.460761
     7  C   -0.210674
     8  N   -0.474954
     9  C    0.648093
    10  O   -0.532981
    11  C    0.356066
    12  C   -0.138758
    13  C   -0.136262
    14  C   -0.124237
    15  C   -0.136342
    16  C   -0.156285
    17  N   -0.471204
    18  H    0.168015
    19  H    0.164026
    20  H    0.163802
    21  H    0.163444
    22  H    0.168205
    23  H    0.163256
    24  H    0.137187
    25  H    0.135211
    26  H    0.129564
    27  H    0.135159
    28  H    0.140871
 Sum of Mulliken atomic charges =  -0.00000
 Mulliken charges with hydrogens summed into heavy atoms:
              1
     1  C    0.285013
     2  O   -0.461661
     3  C    0.681375
     4  N   -0.520402
     5  C    0.681078
     6  O   -0.460761
     7  C    0.284230
     8  N   -0.474954
     9  C    0.648093
    10  O   -0.532981
    11  C    0.356066
    12  C   -0.001571
    13  C   -0.001052
    14  C    0.005326
    15  C   -0.001183
    16  C   -0.015413
    17  N   -0.471204
 Sum of Mulliken charges with hydrogens summed into heavy atoms =  -0.00000
 Electronic spatial extent (au):  <R**2>=           4904.4288
 Charge=             -0.0000 electrons
 Dipole moment (field-independent basis, Debye):
    X=              2.0856    Y=              2.6424    Z=              0.3853  Tot=              3.3883
 Quadrupole moment (field-independent basis, Debye-Ang):
   XX=            -74.2239   YY=           -102.5196   ZZ=            -90.1523
   XY=              3.9443   XZ=              0.6763   YZ=              1.4203
 Traceless Quadrupole moment (field-independent basis, Debye-Ang):
   XX=             14.7413   YY=            -13.5543   ZZ=             -1.1870
   XY=              3.9443   XZ=              0.6763   YZ=              1.4203
 Octapole moment (field-independent basis, Debye-Ang**2):
  XXX=             68.9843  YYY=             37.1919  ZZZ=             -0.1915  XYY=             25.5598
  XXY=             26.4721  XXZ=             -3.9212  XZZ=             -1.6659  YZZ=             -0.4386
  YYZ=             -0.2727  XYZ=             -6.1198
 Hexadecapole moment (field-independent basis, Debye-Ang**3):
 XXXX=          -4384.6677 YYYY=          -1106.9882 ZZZZ=           -332.9799 XXXY=           -140.9949
 XXXZ=             51.6737 YYYX=             92.9966 YYYZ=             -2.8347 ZZZX=              4.0990
 ZZZY=              7.0812 XXYY=           -989.4193 XXZZ=           -828.0740 YYZZ=           -248.7249
 XXYZ=             13.6953 YYXZ=             -3.2281 ZZXY=             -1.3983
 N-N= 1.162859842237D+03 E-N=-4.226323133111D+03  KE= 8.082165551390D+02
 No NMR shielding tensors so no spin-rotation constants.
 Leave Link  601 at Fri Sep  3 00:13:08 2021, MaxMem=  268435456 cpu:       0.5
 (Enter /sw/target/amd/app/gaussian/Gaussian09RevA.02_gcc-4.9.2/g09/l701.exe)
 Compute integral first derivatives.
 ... and contract with generalized density number  0.
 Leave Link  701 at Fri Sep  3 00:13:08 2021, MaxMem=  268435456 cpu:       0.4
 (Enter /sw/target/amd/app/gaussian/Gaussian09RevA.02_gcc-4.9.2/g09/l702.exe)
 L702 exits ... SP integral derivatives will be done elsewhere.
 Leave Link  702 at Fri Sep  3 00:13:08 2021, MaxMem=  268435456 cpu:       0.0
 (Enter /sw/target/amd/app/gaussian/Gaussian09RevA.02_gcc-4.9.2/g09/l703.exe)
 Compute integral first derivatives, UseDBF=F ICtDFT=           0.
 Integral derivatives from FoFDir, PRISM(SPDF).
 Calling FoFJK, ICntrl=      2127 FMM=F ISym2X=0 I1Cent= 0 IOpClX= 0 NMat=1 NMatS=1 NMatT=0.
 FoFCou: FMM=F IPFlag=           0 FMFlag=      100000 FMFlg1=         800
         NFxFlg=           0 DoJE=F BraDBF=F KetDBF=F FulRan=T
         Omega=  0.000000  0.000000  1.000000  0.000000  0.000000 ICntrl=    2127 IOpCl=  0
         NMat0=    1 NMatS0=    1 NMatT0=    0 NMatD0=    1 NMtDS0=    0 NMtDT0=    0
         I1Cent=           0 NGrid=           0.
 Symmetry not used in FoFCou.
 Leave Link  703 at Fri Sep  3 00:14:58 2021, MaxMem=  268435456 cpu:     108.9
 (Enter /sw/target/amd/app/gaussian/Gaussian09RevA.02_gcc-4.9.2/g09/l716.exe)
 Dipole        = 8.20546577D-01 1.03958538D+00 1.51589083D-01
 ***** Axes restored to original set *****
 -------------------------------------------------------------------
 Center     Atomic                   Forces (Hartrees/Bohr)
 Number     Number              X              Y              Z
 -------------------------------------------------------------------
      1        6          -0.011505204    0.009110529   -0.008524556
      2        8           0.003117094   -0.021449848    0.027291027
      3        6           0.001911701    0.015612980   -0.022071113
      4        7          -0.010394262    0.004295551   -0.002690253
      5        6          -0.012282556   -0.013233650    0.021320305
      6        8           0.023043770    0.013186902   -0.022778412
      7        6          -0.016377476    0.000332850    0.003845594
      8        7           0.007502907   -0.008373046    0.007744518
      9        6           0.012278894   -0.003103237    0.008226609
     10        8          -0.041862176    0.007108209   -0.000445547
     11        6           0.018944708    0.002605159   -0.011703780
     12        6          -0.000896938   -0.001062482   -0.001802425
     13        6           0.000667142    0.001438428    0.002494032
     14        6           0.002382833    0.000848784   -0.001833082
     15        6          -0.000398627   -0.002743680   -0.001550013
     16        6           0.000885342    0.002255850    0.000407448
     17        7           0.014816483   -0.001981424   -0.003404857
     18        1           0.006579686   -0.001161613   -0.000324786
     19        1          -0.001220555   -0.004191843    0.000453073
     20        1          -0.000157001    0.000744404    0.004340048
     21        1           0.000689054   -0.000914389   -0.004218397
     22        1           0.005483811   -0.003000472    0.002312599
     23        1           0.001714711    0.004010243   -0.000387794
     24        1          -0.001156538    0.000894616    0.001671531
     25        1          -0.000554170   -0.000258508    0.000611532
     26        1          -0.000258596   -0.000001297    0.000155191
     27        1          -0.000447875   -0.000150562    0.000586616
     28        1          -0.002506163   -0.000818457    0.000274892
 -------------------------------------------------------------------
 Cartesian Forces:  Max     0.041862176 RMS     0.009656607
 Leave Link  716 at Fri Sep  3 00:14:58 2021, MaxMem=  268435456 cpu:       0.1
 (Enter /sw/target/amd/app/gaussian/Gaussian09RevA.02_gcc-4.9.2/g09/l103.exe)

 GradGradGradGradGradGradGradGradGradGradGradGradGradGradGradGradGradGrad
 Berny optimization.
 Internal  Forces:  Max     0.028875380 RMS     0.006082833
 Search for a local minimum.
 Step number   1 out of a maximum of  134
 All quantities printed in internal units (Hartrees-Bohrs-Radians)
 RMS Force = .60828D-02 SwitMx=.10000D-02 MixMth= 1
 Mixed Optimization -- RFO/linear search
 Second derivative matrix not updated -- first step.
     Eigenvalues ---    0.01413   0.01414   0.01813   0.01970   0.01972
     Eigenvalues ---    0.02054   0.02142   0.02143   0.02144   0.02146
     Eigenvalues ---    0.02147   0.02149   0.02150   0.02155   0.02157
     Eigenvalues ---    0.02420   0.02475   0.02488   0.02636   0.02660
     Eigenvalues ---    0.02680   0.09965   0.09966   0.10535   0.10535
     Eigenvalues ---    0.16000   0.16000   0.16000   0.16000   0.16000
     Eigenvalues ---    0.16000   0.16000   0.16000   0.16000   0.16000
     Eigenvalues ---    0.16000   0.21996   0.22000   0.23473   0.24921
     Eigenvalues ---    0.24990   0.24995   0.25000   0.25000   0.25000
     Eigenvalues ---    0.25000   0.25000   0.25000   0.25000   0.34167
     Eigenvalues ---    0.34167   0.34169   0.34169   0.34314   0.34314
     Eigenvalues ---    0.35149   0.35189   0.35189   0.35272   0.35290
     Eigenvalues ---    0.42096   0.42190   0.42300   0.42316   0.46256
     Eigenvalues ---    0.46335   0.46451   0.46462   0.47171   0.49295
     Eigenvalues ---    0.49323   0.50483   0.54302   0.54922   0.59690
     Eigenvalues ---    0.59998   0.60308   0.610241000.000001000.00000
     Eigenvalues --- 1000.000001000.000001000.000001000.000001000.00000
     Eigenvalues --- 1000.000001000.000001000.000001000.000001000.00000
     Eigenvalues --- 1000.000001000.000001000.000001000.000001000.00000
     Eigenvalues --- 1000.000001000.000001000.000001000.000001000.00000
     Eigenvalues --- 1000.000001000.000001000.000001000.000001000.00000
     Eigenvalues --- 1000.000001000.000001000.000001000.000001000.00000
     Eigenvalues --- 1000.000001000.000001000.000001000.000001000.00000
     Eigenvalues --- 1000.000001000.000001000.000001000.000001000.00000
     Eigenvalues --- 1000.000001000.000001000.000001000.00000
 RFO step:  Lambda=-1.29226318D-02 EMin= 1.41308843D-02
 Linear search not attempted -- first point.
 Iteration  1 RMS(Cart)=  0.09000815 RMS(Int)=  0.00261854
 Iteration  2 RMS(Cart)=  0.00472799 RMS(Int)=  0.00004993
 Iteration  3 RMS(Cart)=  0.00001355 RMS(Int)=  0.00004951
 Iteration  4 RMS(Cart)=  0.00000000 RMS(Int)=  0.00004951
 Variable       Old X    -DE/DX   Delta X   Delta X   Delta X     New X
                                 (Linear)    (Quad)   (Total)
    R1        2.68523   0.00772   0.00000   0.01771   0.01771   2.70294
    R2        2.06803  -0.00078   0.00000  -0.00219  -0.00219   2.06584
    R3        2.07049  -0.00135   0.00000  -0.00379  -0.00379   2.06669
    R4        2.07045  -0.00134   0.00000  -0.00377  -0.00377   2.06669
    R5        2.60555  -0.02795   0.00000  -0.05521  -0.05521   2.55033
    R6        2.51010   0.00483   0.00000   0.00840   0.00837   2.51847
    R7        2.50083   0.00609   0.00000   0.00978   0.00978   2.51062
    R8        2.51050   0.00628   0.00000   0.01079   0.01076   2.52126
    R9        2.60583  -0.02805   0.00000  -0.05544  -0.05544   2.55039
   R10        2.50199   0.00441   0.00000   0.00713   0.00712   2.50911
   R11        2.68543   0.00756   0.00000   0.01735   0.01735   2.70278
   R12        2.07048  -0.00132   0.00000  -0.00373  -0.00373   2.06676
   R13        2.06803  -0.00079   0.00000  -0.00223  -0.00223   2.06581
   R14        2.07046  -0.00131   0.00000  -0.00370  -0.00370   2.06675
   R15        2.50874   0.00040   0.00000   0.00010   0.00013   2.50887
   R16        2.62833  -0.02888   0.00000  -0.05958  -0.05958   2.56875
   R17        2.51300  -0.00199   0.00000  -0.00383  -0.00380   2.50920
   R18        2.59381   0.01950   0.00000   0.03766   0.03766   2.63147
   R19        2.63886  -0.00198   0.00000  -0.00434  -0.00435   2.63451
   R20        2.63563  -0.00164   0.00000  -0.00356  -0.00356   2.63207
   R21        2.63628  -0.00023   0.00000  -0.00053  -0.00053   2.63575
   R22        2.05207   0.00002   0.00000   0.00005   0.00005   2.05213
   R23        2.63793   0.00067   0.00000   0.00152   0.00153   2.63946
   R24        2.05369  -0.00036   0.00000  -0.00099  -0.00099   2.05270
   R25        2.63786  -0.00012   0.00000  -0.00007  -0.00006   2.63779
   R26        2.05433  -0.00029   0.00000  -0.00080  -0.00080   2.05353
   R27        2.63604   0.00084   0.00000   0.00182   0.00182   2.63786
   R28        2.05368  -0.00034   0.00000  -0.00093  -0.00093   2.05276
   R29        2.05236  -0.00029   0.00000  -0.00078  -0.00078   2.05158
    A1        1.88111  -0.00878   0.00000  -0.04807  -0.04802   1.83308
    A2        1.94271   0.00122   0.00000   0.00560   0.00563   1.94833
    A3        1.94242   0.00125   0.00000   0.00585   0.00588   1.94830
    A4        1.87857   0.00492   0.00000   0.03113   0.03117   1.90975
    A5        1.87853   0.00494   0.00000   0.03131   0.03136   1.90990
    A6        1.93727  -0.00345   0.00000  -0.02467  -0.02466   1.91261
    A7        1.98101   0.02003   0.00000   0.07618   0.07618   2.05720
    A8        2.09035  -0.00121   0.00000  -0.00514  -0.00515   2.08521
    A9        1.99501  -0.00167   0.00000  -0.00690  -0.00690   1.98811
   A10        2.19783   0.00287   0.00000   0.01206   0.01201   2.20984
   A11        1.98903  -0.00389   0.00000  -0.01107  -0.01116   1.97787
   A12        2.08983  -0.00153   0.00000  -0.00640  -0.00639   2.08344
   A13        2.19913   0.00296   0.00000   0.01245   0.01241   2.21154
   A14        1.99423  -0.00144   0.00000  -0.00606  -0.00605   1.98818
   A15        1.98103   0.02023   0.00000   0.07694   0.07694   2.05797
   A16        1.94266   0.00120   0.00000   0.00553   0.00556   1.94822
   A17        1.88108  -0.00877   0.00000  -0.04800  -0.04795   1.83313
   A18        1.94243   0.00130   0.00000   0.00611   0.00615   1.94858
   A19        1.87857   0.00491   0.00000   0.03100   0.03105   1.90962
   A20        1.93732  -0.00344   0.00000  -0.02460  -0.02458   1.91273
   A21        1.87855   0.00490   0.00000   0.03107   0.03113   1.90967
   A22        1.99340  -0.00578   0.00000  -0.02378  -0.02374   1.96966
   A23        1.99662  -0.00429   0.00000  -0.01496  -0.01504   1.98157
   A24        2.19248   0.00943   0.00000   0.03374   0.03374   2.22622
   A25        2.09332  -0.00511   0.00000  -0.01807  -0.01815   2.07517
   A26        2.03825   0.01263   0.00000   0.04805   0.04805   2.08630
   A27        2.11294  -0.00160   0.00000  -0.00615  -0.00615   2.10679
   A28        2.06376   0.00020   0.00000   0.00073   0.00072   2.06448
   A29        2.10375   0.00137   0.00000   0.00467   0.00463   2.10838
   A30        2.08746  -0.00091   0.00000  -0.00419  -0.00421   2.08325
   A31        2.10313  -0.00177   0.00000  -0.01076  -0.01076   2.09238
   A32        2.09259   0.00268   0.00000   0.01495   0.01495   2.10755
   A33        2.09462   0.00138   0.00000   0.00622   0.00621   2.10083
   A34        2.09395  -0.00148   0.00000  -0.00767  -0.00767   2.08627
   A35        2.09462   0.00010   0.00000   0.00145   0.00145   2.09607
   A36        2.09712  -0.00192   0.00000  -0.00745  -0.00746   2.08967
   A37        2.09302   0.00093   0.00000   0.00355   0.00355   2.09656
   A38        2.09304   0.00099   0.00000   0.00391   0.00391   2.09695
   A39        2.09430   0.00081   0.00000   0.00419   0.00417   2.09847
   A40        2.09484   0.00027   0.00000   0.00180   0.00181   2.09665
   A41        2.09404  -0.00108   0.00000  -0.00598  -0.00598   2.08807
   A42        2.08860  -0.00071   0.00000  -0.00296  -0.00300   2.08560
   A43        2.09813  -0.00228   0.00000  -0.01377  -0.01378   2.08435
   A44        2.09644   0.00300   0.00000   0.01678   0.01678   2.11322
   A45        1.99437  -0.00560   0.00000  -0.02322  -0.02318   1.97120
    D1        3.13689  -0.00002   0.00000  -0.00013  -0.00012   3.13677
    D2        1.08070  -0.00133   0.00000  -0.01178  -0.01175   1.06894
    D3       -1.09031   0.00134   0.00000   0.01191   0.01189  -1.07842
    D4        0.01305  -0.00021   0.00000  -0.00571  -0.00569   0.00736
    D5       -3.13051   0.00016   0.00000   0.00418   0.00416  -3.12635
    D6       -3.13951   0.00018   0.00000   0.00524   0.00529  -3.13422
    D7        0.00430  -0.00023   0.00000  -0.00586  -0.00590  -0.00161
    D8       -3.13381  -0.00034   0.00000  -0.00844  -0.00841   3.14097
    D9        0.00568   0.00005   0.00000   0.00213   0.00225   0.00793
   D10        3.13862   0.00018   0.00000   0.00449   0.00440  -3.14016
   D11       -0.00458  -0.00004   0.00000  -0.00137  -0.00147  -0.00605
   D12       -0.01045   0.00001   0.00000   0.00062   0.00065  -0.00981
   D13        3.13257   0.00020   0.00000   0.00581   0.00578   3.13835
   D14       -0.00517   0.00046   0.00000   0.01116   0.01108   0.00591
   D15        3.13489   0.00024   0.00000   0.00558   0.00548   3.14037
   D16       -1.08167   0.00131   0.00000   0.01169   0.01167  -1.07000
   D17       -3.13782   0.00002   0.00000   0.00018   0.00018  -3.13764
   D18        1.08937  -0.00133   0.00000  -0.01176  -0.01173   1.07764
   D19        3.11597   0.00007   0.00000   0.00389   0.00402   3.11999
   D20        0.01703  -0.00050   0.00000  -0.01497  -0.01510   0.00193
   D21        2.88229   0.00125   0.00000   0.04547   0.04565   2.92794
   D22       -0.29931   0.00217   0.00000   0.06453   0.06435  -0.23496
   D23       -0.01727   0.00027   0.00000   0.00892   0.00910  -0.00817
   D24       -3.11404  -0.00037   0.00000  -0.01106  -0.01108  -3.12512
   D25       -1.22769  -0.00007   0.00000  -0.00301  -0.00297  -1.23066
   D26        1.99295   0.00023   0.00000   0.00752   0.00749   2.00044
   D27       -3.09523   0.00084   0.00000   0.02503   0.02498  -3.07026
   D28        0.04737   0.00063   0.00000   0.01900   0.01902   0.06639
   D29       -0.03449   0.00048   0.00000   0.01407   0.01406  -0.02043
   D30        3.10811   0.00027   0.00000   0.00804   0.00810   3.11621
[...]
                 (A) (A) (A) (A) (A) (A) (A) (A) (A) (A) (A) (A)
 The electronic state is 1-A.
 Alpha  occ. eigenvalues --  -19.20004 -19.19992 -19.19820 -14.33947 -14.33306
 Alpha  occ. eigenvalues --  -14.32970 -10.32714 -10.32569 -10.32529 -10.24968
 Alpha  occ. eigenvalues --  -10.24763 -10.24636 -10.19318 -10.19308 -10.19192
 Alpha  occ. eigenvalues --  -10.19123 -10.18963  -1.11338  -1.09875  -1.09634
 Alpha  occ. eigenvalues --   -0.99698  -0.89996  -0.89792  -0.85245  -0.75963
 Alpha  occ. eigenvalues --   -0.74898  -0.74025  -0.73450  -0.66480  -0.64531
 Alpha  occ. eigenvalues --   -0.61356  -0.60144  -0.57939  -0.56248  -0.52810
 Alpha  occ. eigenvalues --   -0.51116  -0.50464  -0.49600  -0.47900  -0.47315
 Alpha  occ. eigenvalues --   -0.45191  -0.44364  -0.44135  -0.43835  -0.42466
 Alpha  occ. eigenvalues --   -0.41114  -0.39100  -0.38799  -0.37797  -0.37209
 Alpha  occ. eigenvalues --   -0.36409  -0.35469  -0.35117  -0.34864  -0.30558
 Alpha  occ. eigenvalues --   -0.28342  -0.28113  -0.27414  -0.26885  -0.25127
 Alpha  occ. eigenvalues --   -0.23945
 Alpha virt. eigenvalues --   -0.01560  -0.01402  -0.00017   0.00577   0.08884
 Alpha virt. eigenvalues --    0.09565   0.11554   0.12149   0.13144   0.13734
 Alpha virt. eigenvalues --    0.14327   0.15029   0.15072   0.15168   0.15446
 Alpha virt. eigenvalues --    0.16111   0.17534   0.18565   0.18659   0.19050
 Alpha virt. eigenvalues --    0.23236   0.25324   0.27428   0.28926   0.29475
 Alpha virt. eigenvalues --    0.30209   0.30651   0.32291   0.34557   0.35134
 Alpha virt. eigenvalues --    0.40577   0.42939   0.45734   0.48518   0.49329
 Alpha virt. eigenvalues --    0.49995   0.51251   0.52249   0.53258   0.53417
 Alpha virt. eigenvalues --    0.53633   0.54496   0.55469   0.56633   0.56773
 Alpha virt. eigenvalues --    0.58301   0.58849   0.59089   0.59286   0.60202
 Alpha virt. eigenvalues --    0.60468   0.61257   0.61568   0.61751   0.63160
 Alpha virt. eigenvalues --    0.64994   0.65677   0.66160   0.67148   0.68481
 Alpha virt. eigenvalues --    0.68601   0.69662   0.74930   0.76482   0.77947
 Alpha virt. eigenvalues --    0.80679   0.82884   0.83127   0.83659   0.83771
 Alpha virt. eigenvalues --    0.84233   0.84379   0.85015   0.86388   0.86799
 Alpha virt. eigenvalues --    0.87476   0.89652   0.90751   0.91761   0.92479
 Alpha virt. eigenvalues --    0.93886   0.94376   0.95247   0.95460   0.97953
 Alpha virt. eigenvalues --    0.98572   0.98692   1.01428   1.02257   1.04336
 Alpha virt. eigenvalues --    1.04629   1.05729   1.06701   1.09199   1.12404
 Alpha virt. eigenvalues --    1.14208   1.15671   1.17420   1.18987   1.19898
 Alpha virt. eigenvalues --    1.24511   1.26606   1.28595   1.30093   1.33888
 Alpha virt. eigenvalues --    1.35726   1.37932   1.40910   1.42832   1.42922
 Alpha virt. eigenvalues --    1.43610   1.44646   1.45848   1.46873   1.48801
 Alpha virt. eigenvalues --    1.49149   1.50148   1.50448   1.50849   1.51160
 Alpha virt. eigenvalues --    1.52086   1.56039   1.58298   1.59613   1.64823
 Alpha virt. eigenvalues --    1.68516   1.74516   1.76250   1.77397   1.79590
 Alpha virt. eigenvalues --    1.80951   1.83573   1.83960   1.84508   1.86249
 Alpha virt. eigenvalues --    1.86733   1.91182   1.93871   1.95412   1.96676
 Alpha virt. eigenvalues --    1.96945   1.99146   1.99406   2.00875   2.01428
 Alpha virt. eigenvalues --    2.02982   2.03413   2.07564   2.10625   2.11063
 Alpha virt. eigenvalues --    2.11649   2.11838   2.14860   2.15693   2.17410
 Alpha virt. eigenvalues --    2.20868   2.21680   2.22597   2.23513   2.25458
 Alpha virt. eigenvalues --    2.26247   2.28339   2.29397   2.30704   2.32109
 Alpha virt. eigenvalues --    2.38407   2.40866   2.43126   2.46899   2.48591
 Alpha virt. eigenvalues --    2.50019   2.50209   2.51838   2.55656   2.57262
 Alpha virt. eigenvalues --    2.58601   2.62774   2.63005   2.66020   2.66636
 Alpha virt. eigenvalues --    2.67278   2.70948   2.71785   2.72708   2.73220
 Alpha virt. eigenvalues --    2.74491   2.76452   2.77628   2.83170   2.84625
 Alpha virt. eigenvalues --    2.87882   2.94408   3.00583   3.10422   3.24565
 Alpha virt. eigenvalues --    3.26228   3.31380   3.42319   3.46592   4.03789
 Alpha virt. eigenvalues --    4.05336   4.08611   4.09352   4.12139   4.13301
 Alpha virt. eigenvalues --    4.19163   4.23588   4.24078   4.29302   4.31632
 Alpha virt. eigenvalues --    4.34936   4.40539   4.54409   4.67909   4.71712
 Alpha virt. eigenvalues --    4.82367
          Condensed to atoms (all electrons):
              1          2          3          4          5          6
     1  C    4.892022   0.226138  -0.029630  -0.006082   0.000534  -0.000012
     2  O    0.226138   8.169529   0.324777  -0.086742   0.001106  -0.000019
     3  C   -0.029630   0.324777   4.281660   0.396862  -0.038732   0.000955
     4  N   -0.006082  -0.086742   0.396862   7.101751   0.388966  -0.085011
     5  C    0.000534   0.001106  -0.038732   0.388966   4.294482   0.327979
     6  O   -0.000012  -0.000019   0.000955  -0.085011   0.327979   8.161829
     7  C   -0.000046  -0.000011   0.000599  -0.006306  -0.030355   0.227050
     8  N    0.000068  -0.000195  -0.031244  -0.076187   0.456671  -0.085062
     9  C   -0.000103   0.001187  -0.044302  -0.028799  -0.045408   0.001610
    10  O    0.000001  -0.000012   0.002082  -0.000187   0.001853  -0.000006
    11  C   -0.000000  -0.000002   0.000556   0.000048   0.000033  -0.000000
    12  C   -0.000000   0.000003   0.000140  -0.000006   0.000031   0.000000
    13  C    0.000000   0.000000   0.000005  -0.000000  -0.000000   0.000000
    14  C    0.000000  -0.000000   0.000000   0.000000  -0.000000  -0.000000
    15  C    0.000000   0.000000  -0.000000  -0.000000  -0.000000   0.000000
    16  C   -0.000000   0.000001  -0.000050  -0.000002   0.000007  -0.000000
    17  N    0.004844  -0.085647   0.462868  -0.078809  -0.030291  -0.000185
    18  H    0.380231  -0.033018   0.003577   0.000823  -0.000004  -0.000000
    19  H    0.370800  -0.030585  -0.005886   0.007237  -0.000134  -0.000004
    20  H    0.370655  -0.030678  -0.005853   0.007221  -0.000143  -0.000003
    21  H    0.000026  -0.000004  -0.000149   0.007184  -0.005853  -0.030653
    22  H    0.000000  -0.000000  -0.000004   0.000827   0.003643  -0.033111
    23  H    0.000025  -0.000003  -0.000128   0.007100  -0.005844  -0.030682
    24  H   -0.000000  -0.000002  -0.000065   0.000001   0.000011   0.000000
    25  H   -0.000000   0.000000  -0.000000  -0.000000   0.000000  -0.000000
    26  H   -0.000000   0.000000  -0.000000   0.000000  -0.000000  -0.000000
    27  H    0.000000  -0.000000  -0.000000  -0.000000   0.000000  -0.000000
    28  H   -0.000000   0.000000  -0.000003   0.000000   0.000002  -0.000000
              7          8          9         10         11         12
     1  C   -0.000046   0.000068  -0.000103   0.000001  -0.000000  -0.000000
     2  O   -0.000011  -0.000195   0.001187  -0.000012  -0.000002   0.000003
     3  C    0.000599  -0.031244  -0.044302   0.002082   0.000556   0.000140
     4  N   -0.006306  -0.076187  -0.028799  -0.000187   0.000048  -0.000006
     5  C   -0.030355   0.456671  -0.045408   0.001853   0.000033   0.000031
     6  O    0.227050  -0.085062   0.001610  -0.000006  -0.000000   0.000000
     7  C    4.891614   0.004865  -0.000146   0.000000  -0.000000  -0.000000
     8  N    0.004865   6.941448   0.435148  -0.084222   0.001620  -0.000127
     9  C   -0.000146   0.435148   4.333543   0.308702  -0.014710  -0.005575
    10  O    0.000000  -0.084222   0.308702   8.283744   0.188922  -0.043260
    11  C   -0.000000   0.001620  -0.014710   0.188922   4.513918   0.530023
    12  C   -0.000000  -0.000127  -0.005575  -0.043260   0.530023   4.954102
    13  C   -0.000000   0.000001   0.000011   0.004091  -0.005559   0.510550
    14  C   -0.000000   0.000000   0.000044   0.000157  -0.038296  -0.037880
    15  C   -0.000000   0.000002  -0.000015   0.003800  -0.011184  -0.039008
    16  C    0.000000  -0.000238  -0.001245  -0.049831   0.550730  -0.070380
    17  N    0.000070  -0.073910   0.398141  -0.082829   0.001773   0.003412
    18  H    0.000000   0.000001   0.000002  -0.000000  -0.000000   0.000000
    19  H    0.000025  -0.000010   0.000046   0.000000   0.000000   0.000000
    20  H    0.000027  -0.000010   0.000047   0.000000  -0.000000   0.000000
    21  H    0.370524  -0.000141   0.000048   0.000000  -0.000000   0.000000
    22  H    0.380480   0.000002   0.000002  -0.000000  -0.000000   0.000000
    23  H    0.370491  -0.000142   0.000046   0.000000   0.000000  -0.000000
    24  H    0.000000  -0.000185   0.002465  -0.005151  -0.036032   0.350735
    25  H    0.000000  -0.000000  -0.000011  -0.000056   0.003373  -0.037466
    26  H   -0.000000   0.000000   0.000000   0.000002   0.000685   0.004734
    27  H    0.000000  -0.000000  -0.000003  -0.000062   0.003533   0.000624
    28  H    0.000000  -0.000081   0.000300  -0.001626  -0.037742   0.006335
             13         14         15         16         17         18
     1  C    0.000000   0.000000   0.000000  -0.000000   0.004844   0.380231
     2  O    0.000000  -0.000000   0.000000   0.000001  -0.085647  -0.033018
     3  C    0.000005   0.000000  -0.000000  -0.000050   0.462868   0.003577
     4  N   -0.000000   0.000000  -0.000000  -0.000002  -0.078809   0.000823
     5  C   -0.000000  -0.000000  -0.000000   0.000007  -0.030291  -0.000004
     6  O    0.000000  -0.000000   0.000000  -0.000000  -0.000185  -0.000000
     7  C   -0.000000  -0.000000  -0.000000   0.000000   0.000070   0.000000
     8  N    0.000001   0.000000   0.000002  -0.000238  -0.073910   0.000001
     9  C    0.000011   0.000044  -0.000015  -0.001245   0.398141   0.000002
    10  O    0.004091   0.000157   0.003800  -0.049831  -0.082829  -0.000000
    11  C   -0.005559  -0.038296  -0.011184   0.550730   0.001773  -0.000000
    12  C    0.510550  -0.037880  -0.039008  -0.070380   0.003412   0.000000
    13  C    4.876216   0.546176  -0.025023  -0.040157  -0.000478   0.000000
    14  C    0.546176   4.853108   0.549930  -0.038288   0.000042  -0.000000
    15  C   -0.025023   0.549930   4.873732   0.511414  -0.000076   0.000000
    16  C   -0.040157  -0.038288   0.511414   4.966540   0.000276   0.000000
    17  N   -0.000478   0.000042  -0.000076   0.000276   6.975670   0.000005
    18  H    0.000000  -0.000000   0.000000   0.000000   0.000005   0.537978
    19  H    0.000000  -0.000000  -0.000000  -0.000000  -0.000141  -0.030785
    20  H    0.000000  -0.000000  -0.000000   0.000000  -0.000142  -0.030934
    21  H    0.000000  -0.000000  -0.000000   0.000000  -0.000011   0.000000
    22  H    0.000000  -0.000000   0.000000   0.000000   0.000001   0.000000
    23  H   -0.000000   0.000000  -0.000000  -0.000000  -0.000011   0.000000
    24  H   -0.041809   0.004637   0.000206   0.006038   0.001224  -0.000000
    25  H    0.356887  -0.041811   0.004532   0.000761  -0.000006   0.000000
    26  H   -0.042537   0.360464  -0.042619   0.004579   0.000000  -0.000000
    27  H    0.004648  -0.041967   0.357497  -0.037987  -0.000000   0.000000
    28  H    0.000127   0.004729  -0.041746   0.350353   0.000056   0.000000
             19         20         21         22         23         24
     1  C    0.370800   0.370655   0.000026   0.000000   0.000025  -0.000000
     2  O   -0.030585  -0.030678  -0.000004  -0.000000  -0.000003  -0.000002
     3  C   -0.005886  -0.005853  -0.000149  -0.000004  -0.000128  -0.000065
     4  N    0.007237   0.007221   0.007184   0.000827   0.007100   0.000001
     5  C   -0.000134  -0.000143  -0.005853   0.003643  -0.005844   0.000011
     6  O   -0.000004  -0.000003  -0.030653  -0.033111  -0.030682   0.000000
     7  C    0.000025   0.000027   0.370524   0.380480   0.370491   0.000000
     8  N   -0.000010  -0.000010  -0.000141   0.000002  -0.000142  -0.000185
     9  C    0.000046   0.000047   0.000048   0.000002   0.000046   0.002465
    10  O    0.000000   0.000000   0.000000  -0.000000   0.000000  -0.005151
    11  C    0.000000  -0.000000  -0.000000  -0.000000   0.000000  -0.036032
    12  C    0.000000   0.000000   0.000000   0.000000  -0.000000   0.350735
    13  C    0.000000   0.000000   0.000000   0.000000  -0.000000  -0.041809
    14  C   -0.000000  -0.000000  -0.000000  -0.000000   0.000000   0.004637
    15  C   -0.000000  -0.000000  -0.000000   0.000000  -0.000000   0.000206
    16  C   -0.000000   0.000000   0.000000   0.000000  -0.000000   0.006038
    17  N   -0.000141  -0.000142  -0.000011   0.000001  -0.000011   0.001224
    18  H   -0.030785  -0.030934   0.000000   0.000000   0.000000  -0.000000
    19  H    0.559327  -0.038308   0.000240   0.000000  -0.000034  -0.000000
    20  H   -0.038308   0.560350  -0.000034   0.000000   0.000235   0.000000
    21  H    0.000240  -0.000034   0.561030  -0.030877  -0.038501   0.000000
    22  H    0.000000   0.000000  -0.030877   0.537658  -0.030976  -0.000000
    23  H   -0.000034   0.000235  -0.038501  -0.030976   0.561636  -0.000000
    24  H   -0.000000   0.000000   0.000000  -0.000000  -0.000000   0.581691
    25  H    0.000000   0.000000  -0.000000   0.000000   0.000000  -0.005678
    26  H   -0.000000   0.000000   0.000000  -0.000000  -0.000000  -0.000158
    27  H    0.000000   0.000000   0.000000   0.000000  -0.000000   0.000014
    28  H    0.000000   0.000000   0.000000  -0.000000   0.000000  -0.000158
             25         26         27         28
     1  C   -0.000000  -0.000000   0.000000  -0.000000
     2  O    0.000000   0.000000  -0.000000   0.000000
     3  C   -0.000000  -0.000000  -0.000000  -0.000003
     4  N   -0.000000   0.000000  -0.000000   0.000000
     5  C    0.000000  -0.000000   0.000000   0.000002
     6  O   -0.000000  -0.000000  -0.000000  -0.000000
     7  C    0.000000  -0.000000   0.000000   0.000000
     8  N   -0.000000   0.000000  -0.000000  -0.000081
     9  C   -0.000011   0.000000  -0.000003   0.000300
    10  O   -0.000056   0.000002  -0.000062  -0.001626
    11  C    0.003373   0.000685   0.003533  -0.037742
    12  C   -0.037466   0.004734   0.000624   0.006335
    13  C    0.356887  -0.042537   0.004648   0.000127
    14  C   -0.041811   0.360464  -0.041967   0.004729
    15  C    0.004532  -0.042619   0.357497  -0.041746
    16  C    0.000761   0.004579  -0.037987   0.350353
    17  N   -0.000006   0.000000  -0.000000   0.000056
    18  H    0.000000  -0.000000   0.000000   0.000000
    19  H    0.000000  -0.000000   0.000000   0.000000
    20  H    0.000000   0.000000   0.000000   0.000000
    21  H   -0.000000   0.000000   0.000000   0.000000
    22  H    0.000000  -0.000000   0.000000  -0.000000
    23  H    0.000000  -0.000000  -0.000000   0.000000
    24  H   -0.005678  -0.000158   0.000014  -0.000158
    25  H    0.589586  -0.005409  -0.000193   0.000015
    26  H   -0.005409   0.594665  -0.005441  -0.000156
    27  H   -0.000193  -0.005441   0.589591  -0.005798
    28  H    0.000015  -0.000156  -0.005798   0.580805
 Mulliken atomic charges:
              1
     1  C   -0.209471
     2  O   -0.455823
     3  C    0.681964
     4  N   -0.549891
     5  C    0.681447
     6  O   -0.454675
     7  C   -0.208882
     8  N   -0.488073
     9  C    0.658975
    10  O   -0.526112
    11  C    0.348311
    12  C   -0.126987
    13  C   -0.143148
    14  C   -0.121047
    15  C   -0.141443
    16  C   -0.152522
    17  N   -0.495848
    18  H    0.172123
    19  H    0.168211
    20  H    0.167572
    21  H    0.167168
    22  H    0.172353
    23  H    0.166786
    24  H    0.142215
    25  H    0.135477
    26  H    0.131191
    27  H    0.135542
    28  H    0.144588
 Sum of Mulliken atomic charges =  -0.00000
 Mulliken charges with hydrogens summed into heavy atoms:
              1
     1  C    0.298435
     2  O   -0.455823
     3  C    0.681964
     4  N   -0.549891
     5  C    0.681447
     6  O   -0.454675
     7  C    0.297425
     8  N   -0.488073
     9  C    0.658975
    10  O   -0.526112
    11  C    0.348311
    12  C    0.015228
    13  C   -0.007671
    14  C    0.010143
    15  C   -0.005901
    16  C   -0.007935
    17  N   -0.495848
 Sum of Mulliken charges with hydrogens summed into heavy atoms =  -0.00000
 Electronic spatial extent (au):  <R**2>=           4990.6937
 Charge=              0.0000 electrons
 Dipole moment (field-independent basis, Debye):
    X=              2.1792    Y=              2.6842    Z=             -0.1483  Tot=              3.4607
 Quadrupole moment (field-independent basis, Debye-Ang):
   XX=            -71.2222   YY=           -100.2425   ZZ=            -90.9953
   XY=              3.9607   XZ=              0.5415   YZ=              3.0725
 Traceless Quadrupole moment (field-independent basis, Debye-Ang):
   XX=             16.2645   YY=            -12.7558   ZZ=             -3.5086
   XY=              3.9607   XZ=              0.5415   YZ=              3.0725
 Octapole moment (field-independent basis, Debye-Ang**2):
  XXX=             73.4303  YYY=             38.9677  ZZZ=              0.1296  XYY=             28.1124
  XXY=             19.5181  XXZ=             -9.7444  XZZ=              1.5727  YZZ=             -0.1216
  YYZ=             -3.7775  XYZ=            -10.9316
 Hexadecapole moment (field-independent basis, Debye-Ang**3):
 XXXX=          -4429.4786 YYYY=          -1113.7818 ZZZZ=           -303.7954 XXXY=           -144.4005
 XXXZ=             56.3004 YYYX=             91.0687 YYYZ=             -5.0835 ZZZX=              3.5776
 ZZZY=              9.1146 XXYY=           -987.9461 XXZZ=           -855.8816 YYZZ=           -241.3964
 XXYZ=             30.7280 YYXZ=             -9.7563 ZZXY=              2.8272
 N-N= 1.160621142484D+03 E-N=-4.222202796750D+03  KE= 8.083236813064D+02
 No NMR shielding tensors so no spin-rotation constants.
 Leave Link  601 at Fri Sep  3 00:58:22 2021, MaxMem=  268435456 cpu:       0.5
 (Enter /sw/target/amd/app/gaussian/Gaussian09RevA.02_gcc-4.9.2/g09/l9999.exe)
 1\1\GINC-HERMITE\FOpt\RB3LYP\6-31G(d)\C11H11N3O3\JSCHLEINITZ\03-Sep-20
 21\0\\#p b3lyp 6-31G* opt scf(xqc,tight)\\opt calculation\\0,1\C,-2.93
 46828903,1.8048327543,-1.5464237847\O,-1.6034398588,1.2999228341,-1.38
 08459114\C,-1.3604768695,0.5232693518,-0.3242487675\N,-2.3554190681,0.
 2481920492,0.5249966951\C,-1.9844637579,-0.5421192984,1.542894082\O,-2
 .8927937879,-0.8842296973,2.4575671174\C,-4.2254764676,-0.3819157993,2
 .2995799971\N,-0.7697442697,-1.0446647757,1.7557068234\C,0.1159838862,
 -0.6819486892,0.8270247895\O,1.3489684967,-1.1756033422,1.0418183733\C
 ,2.3874671866,-0.9266035155,0.1377520994\C,2.3953087088,-1.5217117844,
 -1.1214520761\C,3.5005863968,-1.330678023,-1.9497466921\C,4.5842121705
 ,-0.5614915466,-1.5180234941\C,4.5616431417,0.0195454957,-0.2493297753
 \C,3.4587523689,-0.1615531466,0.5873456418\N,-0.0997590021,0.093277912
 9,-0.234531584\H,-2.8975490236,2.4040724285,-2.4569496075\H,-3.2264317
 429,2.4235841401,-0.6935503231\H,-3.651673596,0.9866950821,-1.65656196
 25\H,-4.2360532834,0.7112898721,2.3175837512\H,-4.779796692,-0.7819318
 034,3.1494565675\H,-4.6652471361,-0.728346375,1.3603248706\H,1.5485657
 176,-2.1187822481,-1.4424496523\H,3.514807565,-1.7878725458,-2.9352536
 829\H,5.4432608744,-0.4189881688,-2.1675079198\H,5.4026471126,0.615269
 0938,0.0945260082\H,3.4208058201,0.2748907447,1.5802974166\\Version=AM
 64L-G09RevA.02\State=1-A\HF=-815.724794\RMSD=3.835e-09\RMSF=2.349e-05\
 Dipole=-0.9809223,0.6869145,-0.6478367\Quadrupole=12.0251237,-5.903652
 8,-6.1214708,-2.2009205,-1.4832347,4.4750067\PG=C01 [X(C11H11N3O3)]\\@


 THERE IS MUCH PLEASURE TO BE GAINED FROM USELESS KNOWLEDGE

                                       -- BERTRAND RUSSELL
 Job cpu time:  0 days  0 hours 50 minutes  2.4 seconds.
 File lengths (MBytes):  RWF=     55 Int=      0 D2E=      0 Chk=      6 Scr=      1
 Normal termination of Gaussian 09 at Fri Sep  3 00:58:22 2021.
