 Entering Gaussian System, Link 0=g09
 Input=mol_inp002.com
 Output=mol_inp002.log
 Initial command:
 /sw/target/amd/app/gaussian/Gaussian09RevA.02_gcc-4.9.2/g09/l1.exe /home/jschleinitz/optim_react/002/Gau-2803531.inp -scrdir=/home/jschleinitz/optim_react/002/
 Entering Link 1 = /sw/target/amd/app/gaussian/Gaussian09RevA.02_gcc-4.9.2/g09/l1.exe PID=   2803533.
  
 Copyright (c) 1988,1990,1992,1993,1995,1998,2003,2009, Gaussian, Inc.
                  All Rights Reserved.
  
 This is part of the Gaussian(R) 09 program.  It is based on
 the Gaussian(R) 03 system (copyright 2003, Gaussian, Inc.),
 the Gaussian(R) 98 system (copyright 1998, Gaussian, Inc.),
 the Gaussian(R) 94 system (copyright 1995, Gaussian, Inc.),
 the Gaussian 92(TM) system (copyright 1992, Gaussian, Inc.),
 the Gaussian 90(TM) system (copyright 1990, Gaussian, Inc.),
 the Gaussian 88(TM) system (copyright 1988, Gaussian, Inc.),
 the Gaussian 86(TM) system (copyright 1986, Carnegie Mellon
 University), and the Gaussian 82(TM) system (copyright 1983,
 Carnegie Mellon University). Gaussian is a federally registered
 trademark of Gaussian, Inc.
  
 This software contains proprietary and confidential information,
 including trade secrets, belonging to Gaussian, Inc.
  
 This software is provided under written license and may be
 used, copied, transmitted, or stored only in accord with that
 written license.
  
 The following legend is applicable only to US Government
 contracts under FAR:
  
                    RESTRICTED RIGHTS LEGEND
  
 Use, reproduction and disclosure by the US Government is
 subject to restrictions as set forth in subparagraphs (a)
 and (c) of the Commercial Computer Software - Restricted
 Rights clause in FAR 52.227-19.
  
 Gaussian, Inc.
 340 Quinnipiac St., Bldg. 40, Wallingford CT 06492
  
  
 ---------------------------------------------------------------
 Warning -- This program may not be used in any manner that
 competes with the business of Gaussian, Inc. or will provide
 assistance to any competitor of Gaussian, Inc.  The licensee
 of this program is prohibited from giving any competitor of
 Gaussian, Inc. access to this program.  By using this program,
 the user acknowledges that Gaussian, Inc. is engaged in the
 business of creating and licensing software in the field of
 computational chemistry and represents and warrants to the
 licensee that it is not a competitor of Gaussian, Inc. and that
 it will not use this program in any manner prohibited above.
 ---------------------------------------------------------------
  

 Cite this work as:
 Gaussian 09, Revision A.02,
 M. J. Frisch, G. W. Trucks, H. B. Schlegel, G. E. Scuseria, 
 M. A. Robb, J. R. Cheeseman, G. Scalmani, V. Barone, B. Mennucci, 
 G. A. Petersson, H. Nakatsuji, M. Caricato, X. Li, H. P. Hratchian, 
 A. F. Izmaylov, J. Bloino, G. Zheng, J. L. Sonnenberg, M. Hada, 
 M. Ehara, K. Toyota, R. Fukuda, J. Hasegawa, M. Ishida, T. Nakajima, 
 Y. Honda, O. Kitao, H. Nakai, T. Vreven, J. A. Montgomery, Jr., 
 J. E. Peralta, F. Ogliaro, M. Bearpark, J. J. Heyd, E. Brothers, 
 K. N. Kudin, V. N. Staroverov, R. Kobayashi, J. Normand, 
 K. Raghavachari, A. Rendell, J. C. Burant, S. S. Iyengar, J. Tomasi, 
 M. Cossi, N. Rega, J. M. Millam, M. Klene, J. E. Knox, J. B. Cross, 
 V. Bakken, C. Adamo, J. Jaramillo, R. Gomperts, R. E. Stratmann, 
 O. Yazyev, A. J. Austin, R. Cammi, C. Pomelli, J. W. Ochterski, 
 R. L. Martin, K. Morokuma, V. G. Zakrzewski, G. A. Voth, 
 P. Salvador, J. J. Dannenberg, S. Dapprich, A. D. Daniels, 
 O. Farkas, J. B. Foresman, J. V. Ortiz, J. Cioslowski, 
 and D. J. Fox, Gaussian, Inc., Wallingford CT, 2009.
 
 ******************************************
 Gaussian 09:  AM64L-G09RevA.02 11-Jun-2009
                 3-Sep-2021 
 ******************************************
 %chk=opt.chk
 %mem=2gb
 %nproc=1
 Will use up to    1 processors via shared memory.
 ----------------------------------
 #p b3lyp 6-31G* opt scf(xqc,tight)
 ----------------------------------
 1/14=-1,18=20,19=15,26=3,38=1/1,3;
 2/9=110,12=2,17=6,18=5,40=1/2;
 3/5=1,6=6,7=1,11=2,16=1,25=1,30=1,71=1,74=-5/1,2,3;
 4//1;
 5/5=2,8=3,13=1,32=2,38=5/2,8;
 6/7=2,8=2,9=2,10=2,28=1/1;
 7//1,2,3,16;
 1/14=-1,18=20,19=15/3(2);
 2/9=110/2;
 99//99;
 2/9=110/2;
 3/5=1,6=6,7=1,11=2,16=1,25=1,30=1,71=1,74=-5/1,2,3;
 4/5=5,16=3/1;
 5/5=2,8=3,13=1,32=2,38=5/2,8;
 7//1,2,3,16;
 1/14=-1,18=20,19=15/3(-5);
 2/9=110/2;
 6/7=2,8=2,9=2,10=2,19=2,28=1/1;
 99/9=1/99;
 Leave Link    1 at Fri Sep  3 00:02:29 2021, MaxMem=  268435456 cpu:       0.0
 (Enter /sw/target/amd/app/gaussian/Gaussian09RevA.02_gcc-4.9.2/g09/l101.exe)
 ---------------
 opt calculation
 ---------------
 Symbolic Z-matrix:
 Charge =  0 Multiplicity = 1
 C                     6.34496  -0.19913  -0.57364 
 O                     5.56848  -1.19004   0.08723 
 C                     4.21225  -1.01164   0.09423 
 C                     3.49725  -2.01594   0.74554 
 C                     2.1042   -1.95963   0.82691 
 C                     1.39708  -0.89152   0.25577 
 C                    -0.00886  -0.81714   0.32794 
 C                    -0.72779   0.25036  -0.23039 
 N                    -2.13026   0.35885  -0.18254 
 C                    -2.89569  -0.87253   0.06364 
 C                    -4.37214  -0.63234  -0.25097 
 C                    -4.92002   0.54793   0.54587 
 C                    -4.06407   1.79075   0.32049 
 C                    -2.58835   1.51559   0.6114 
 C                     0.01048   1.24583  -0.88677 
 C                     1.40551   1.1917   -0.97278 
 C                     2.11504   0.12792  -0.40296 
 C                     3.51953   0.0567   -0.47789 
 H                     7.39677  -0.4901   -0.49309 
 H                     6.23209   0.77739  -0.09124 
 H                     6.09496  -0.14652  -1.63845 
 H                     4.02888  -2.8517    1.19373 
 H                     1.57633  -2.75945   1.34074 
 H                    -0.53532  -1.61005   0.85072 
 H                    -2.79176  -1.1913    1.10872 
 H                    -2.5385   -1.68438  -0.58194 
 H                    -4.95153  -1.53436  -0.02497 
 H                    -4.49069  -0.43131  -1.32317 
 H                    -4.93138   0.29774   1.6137 
 H                    -5.95549   0.74941   0.25015 
 H                    -4.17446   2.12018  -0.72042 
 H                    -4.42146   2.60784   0.957 
 H                    -2.02562   2.42627   0.37541 
 H                    -2.44805   1.31238   1.68124 
 H                    -0.50966   2.07202  -1.36608 
 H                     1.92742   1.98796  -1.49771 
 H                     4.04985   0.85225  -0.991 
 
 NAtoms=     37 NQM=     37 NQMF=      0 NMic=      0 NMicF=      0 NTot=     37.
                    Isotopes and Nuclear Properties:
 (Nuclear quadrupole moments (NQMom) in fm**2, nuclear magnetic moments (NMagM)
  in nuclear magnetons)

  Atom         1           2           3           4           5           6           7           8           9          10
 IAtWgt=          12          16          12          12          12          12          12          12          14          12
 AtmWgt=  12.0000000  15.9949146  12.0000000  12.0000000  12.0000000  12.0000000  12.0000000  12.0000000  14.0030740  12.0000000
 NucSpn=           0           0           0           0           0           0           0           0           2           0
 AtZEff=   0.0000000   0.0000000   0.0000000   0.0000000   0.0000000   0.0000000   0.0000000   0.0000000   0.0000000   0.0000000
 NQMom=    0.0000000   0.0000000   0.0000000   0.0000000   0.0000000   0.0000000   0.0000000   0.0000000   2.0440000   0.0000000
 NMagM=    0.0000000   0.0000000   0.0000000   0.0000000   0.0000000   0.0000000   0.0000000   0.0000000   0.4037610   0.0000000

  Atom        11          12          13          14          15          16          17          18          19          20
 IAtWgt=          12          12          12          12          12          12          12          12           1           1
 AtmWgt=  12.0000000  12.0000000  12.0000000  12.0000000  12.0000000  12.0000000  12.0000000  12.0000000   1.0078250   1.0078250
 NucSpn=           0           0           0           0           0           0           0           0           1           1
 AtZEff=   0.0000000   0.0000000   0.0000000   0.0000000   0.0000000   0.0000000   0.0000000   0.0000000   0.0000000   0.0000000
 NQMom=    0.0000000   0.0000000   0.0000000   0.0000000   0.0000000   0.0000000   0.0000000   0.0000000   0.0000000   0.0000000
 NMagM=    0.0000000   0.0000000   0.0000000   0.0000000   0.0000000   0.0000000   0.0000000   0.0000000   2.7928460   2.7928460

  Atom        21          22          23          24          25          26          27          28          29          30
 IAtWgt=           1           1           1           1           1           1           1           1           1           1
 AtmWgt=   1.0078250   1.0078250   1.0078250   1.0078250   1.0078250   1.0078250   1.0078250   1.0078250   1.0078250   1.0078250
 NucSpn=           1           1           1           1           1           1           1           1           1           1
 AtZEff=   0.0000000   0.0000000   0.0000000   0.0000000   0.0000000   0.0000000   0.0000000   0.0000000   0.0000000   0.0000000
 NQMom=    0.0000000   0.0000000   0.0000000   0.0000000   0.0000000   0.0000000   0.0000000   0.0000000   0.0000000   0.0000000
 NMagM=    2.7928460   2.7928460   2.7928460   2.7928460   2.7928460   2.7928460   2.7928460   2.7928460   2.7928460   2.7928460

  Atom        31          32          33          34          35          36          37
 IAtWgt=           1           1           1           1           1           1           1
 AtmWgt=   1.0078250   1.0078250   1.0078250   1.0078250   1.0078250   1.0078250   1.0078250
 NucSpn=           1           1           1           1           1           1           1
 AtZEff=   0.0000000   0.0000000   0.0000000   0.0000000   0.0000000   0.0000000   0.0000000
 NQMom=    0.0000000   0.0000000   0.0000000   0.0000000   0.0000000   0.0000000   0.0000000
 NMagM=    2.7928460   2.7928460   2.7928460   2.7928460   2.7928460   2.7928460   2.7928460
 Leave Link  101 at Fri Sep  3 00:02:30 2021, MaxMem=  268435456 cpu:       0.1
 (Enter /sw/target/amd/app/gaussian/Gaussian09RevA.02_gcc-4.9.2/g09/l103.exe)

 GradGradGradGradGradGradGradGradGradGradGradGradGradGradGradGradGradGrad
 Berny optimization.
 Initialization pass.
                           ----------------------------
                           !    Initial Parameters    !
                           ! (Angstroms and Degrees)  !
 --------------------------                            --------------------------
 ! Name  Definition              Value          Derivative Info.                !
 --------------------------------------------------------------------------------
 ! R1    R(1,2)                  1.4218         estimate D2E/DX2                !
 ! R2    R(1,19)                 1.0943         estimate D2E/DX2                !
 ! R3    R(1,20)                 1.095          estimate D2E/DX2                !
 ! R4    R(1,21)                 1.095          estimate D2E/DX2                !
 ! R5    R(2,3)                  1.3679         estimate D2E/DX2                !
 ! R6    R(3,4)                  1.3943         estimate D2E/DX2                !
 ! R7    R(3,18)                 1.3959         estimate D2E/DX2                !
 ! R8    R(4,5)                  1.3966         estimate D2E/DX2                !
 ! R9    R(4,22)                 1.0872         estimate D2E/DX2                !
 ! R10   R(5,6)                  1.4025         estimate D2E/DX2                !
 ! R11   R(5,23)                 1.0874         estimate D2E/DX2                !
 ! R12   R(6,7)                  1.4097         estimate D2E/DX2                !
 ! R13   R(6,17)                 1.4102         estimate D2E/DX2                !
 ! R14   R(7,8)                  1.4029         estimate D2E/DX2                !
 ! R15   R(7,24)                 1.0859         estimate D2E/DX2                !
 ! R16   R(8,9)                  1.4075         estimate D2E/DX2                !
 ! R17   R(8,15)                 1.4024         estimate D2E/DX2                !
 ! R18   R(9,10)                 1.4706         estimate D2E/DX2                !
 ! R19   R(9,14)                 1.4759         estimate D2E/DX2                !
 ! R20   R(10,11)                1.5286         estimate D2E/DX2                !
 ! R21   R(10,25)                1.0975         estimate D2E/DX2                !
 ! R22   R(10,26)                1.097          estimate D2E/DX2                !
 ! R23   R(11,12)                1.5258         estimate D2E/DX2                !
 ! R24   R(11,27)                1.0956         estimate D2E/DX2                !
 ! R25   R(11,28)                1.0973         estimate D2E/DX2                !
 ! R26   R(12,13)                1.5258         estimate D2E/DX2                !
 ! R27   R(12,29)                1.0968         estimate D2E/DX2                !
 ! R28   R(12,30)                1.0956         estimate D2E/DX2                !
 ! R29   R(13,14)                1.5291         estimate D2E/DX2                !
 ! R30   R(13,31)                1.0974         estimate D2E/DX2                !
 ! R31   R(13,32)                1.0957         estimate D2E/DX2                !
 ! R32   R(14,33)                1.0962         estimate D2E/DX2                !
 ! R33   R(14,34)                1.098          estimate D2E/DX2                !
 ! R34   R(15,16)                1.3987         estimate D2E/DX2                !
 ! R35   R(15,35)                1.0876         estimate D2E/DX2                !
 ! R36   R(16,17)                1.3999         estimate D2E/DX2                !
 ! R37   R(16,36)                1.0872         estimate D2E/DX2                !
 ! R38   R(17,18)                1.4083         estimate D2E/DX2                !
 ! R39   R(18,37)                1.0851         estimate D2E/DX2                !
 ! A1    A(2,1,19)             107.7819         estimate D2E/DX2                !
 ! A2    A(2,1,20)             111.1281         estimate D2E/DX2                !
 ! A3    A(2,1,21)             111.1483         estimate D2E/DX2                !
 ! A4    A(19,1,20)            107.6841         estimate D2E/DX2                !
 ! A5    A(19,1,21)            107.6858         estimate D2E/DX2                !
 ! A6    A(20,1,21)            111.224          estimate D2E/DX2                !
 ! A7    A(1,2,3)              116.9319         estimate D2E/DX2                !
 ! A8    A(2,3,4)              114.6372         estimate D2E/DX2                !
 ! A9    A(2,3,18)             126.1378         estimate D2E/DX2                !
 ! A10   A(4,3,18)             119.225          estimate D2E/DX2                !
 ! A11   A(3,4,5)              120.643          estimate D2E/DX2                !
 ! A12   A(3,4,22)             119.7043         estimate D2E/DX2                !
 ! A13   A(5,4,22)             119.6526         estimate D2E/DX2                !
 ! A14   A(4,5,6)              120.657          estimate D2E/DX2                !
 ! A15   A(4,5,23)             118.823          estimate D2E/DX2                !
 ! A16   A(6,5,23)             120.52           estimate D2E/DX2                !
 ! A17   A(5,6,7)              121.4767         estimate D2E/DX2                !
 ! A18   A(5,6,17)             118.9516         estimate D2E/DX2                !
 ! A19   A(7,6,17)             119.5717         estimate D2E/DX2                !
 ! A20   A(6,7,8)              122.0628         estimate D2E/DX2                !
 ! A21   A(6,7,24)             118.01           estimate D2E/DX2                !
 ! A22   A(8,7,24)             119.9181         estimate D2E/DX2                !
 ! A23   A(7,8,9)              123.7633         estimate D2E/DX2                !
 ! A24   A(7,8,15)             117.1684         estimate D2E/DX2                !
 ! A25   A(9,8,15)             119.0611         estimate D2E/DX2                !
 ! A26   A(8,9,10)             117.372          estimate D2E/DX2                !
 ! A27   A(8,9,14)             112.8291         estimate D2E/DX2                !
 ! A28   A(10,9,14)            113.8697         estimate D2E/DX2                !
 ! A29   A(9,10,11)            109.6755         estimate D2E/DX2                !
 ! A30   A(9,10,25)            110.689          estimate D2E/DX2                !
 ! A31   A(9,10,26)            110.59           estimate D2E/DX2                !
 ! A32   A(11,10,25)           109.4557         estimate D2E/DX2                !
 ! A33   A(11,10,26)           108.0387         estimate D2E/DX2                !
 ! A34   A(25,10,26)           108.3359         estimate D2E/DX2                !
 ! A35   A(10,11,12)           111.1547         estimate D2E/DX2                !
 ! A36   A(10,11,27)           109.8132         estimate D2E/DX2                !
 ! A37   A(10,11,28)           109.5267         estimate D2E/DX2                !
 ! A38   A(12,11,27)           109.83           estimate D2E/DX2                !
 ! A39   A(12,11,28)           109.2559         estimate D2E/DX2                !
 ! A40   A(27,11,28)           107.1724         estimate D2E/DX2                !
 ! A41   A(11,12,13)           110.5789         estimate D2E/DX2                !
 ! A42   A(11,12,29)           109.616          estimate D2E/DX2                !
 ! A43   A(11,12,30)           109.918          estimate D2E/DX2                !
 ! A44   A(13,12,29)           109.5981         estimate D2E/DX2                !
 ! A45   A(13,12,30)           109.91           estimate D2E/DX2                !
 ! A46   A(29,12,30)           107.1545         estimate D2E/DX2                !
 ! A47   A(12,13,14)           111.5139         estimate D2E/DX2                !
 ! A48   A(12,13,31)           109.1597         estimate D2E/DX2                !
 ! A49   A(12,13,32)           109.7939         estimate D2E/DX2                !
 ! A50   A(14,13,31)           109.3643         estimate D2E/DX2                !
 ! A51   A(14,13,32)           109.784          estimate D2E/DX2                !
 ! A52   A(31,13,32)           107.1195         estimate D2E/DX2                !
 ! A53   A(9,14,13)            109.7699         estimate D2E/DX2                !
 ! A54   A(9,14,33)            112.0841         estimate D2E/DX2                !
 ! A55   A(9,14,34)            109.8425         estimate D2E/DX2                !
 ! A56   A(13,14,33)           107.7567         estimate D2E/DX2                !
 ! A57   A(13,14,34)           109.9994         estimate D2E/DX2                !
 ! A58   A(33,14,34)           107.3327         estimate D2E/DX2                !
 ! A59   A(8,15,16)            121.7581         estimate D2E/DX2                !
 ! A60   A(8,15,35)            119.585          estimate D2E/DX2                !
 ! A61   A(16,15,35)           118.6383         estimate D2E/DX2                !
 ! A62   A(15,16,17)           120.6556         estimate D2E/DX2                !
 ! A63   A(15,16,36)           118.6942         estimate D2E/DX2                !
 ! A64   A(17,16,36)           120.6485         estimate D2E/DX2                !
 ! A65   A(6,17,16)            118.7787         estimate D2E/DX2                !
 ! A66   A(6,17,18)            119.7384         estimate D2E/DX2                !
 ! A67   A(16,17,18)           121.4827         estimate D2E/DX2                !
 ! A68   A(3,18,17)            120.7849         estimate D2E/DX2                !
 ! A69   A(3,18,37)            120.8232         estimate D2E/DX2                !
 ! A70   A(17,18,37)           118.3919         estimate D2E/DX2                !
 ! D1    D(19,1,2,3)          -179.7305         estimate D2E/DX2                !
 ! D2    D(20,1,2,3)            62.4989         estimate D2E/DX2                !
 ! D3    D(21,1,2,3)           -61.9462         estimate D2E/DX2                !
 ! D4    D(1,2,3,4)            179.5192         estimate D2E/DX2                !
 ! D5    D(1,2,3,18)            -0.5028         estimate D2E/DX2                !
 ! D6    D(2,3,4,5)           -179.9731         estimate D2E/DX2                !
 ! D7    D(2,3,4,22)            -0.0319         estimate D2E/DX2                !
 ! D8    D(18,3,4,5)             0.0472         estimate D2E/DX2                !
 ! D9    D(18,3,4,22)          179.9884         estimate D2E/DX2                !
 ! D10   D(2,3,18,17)         -179.9672         estimate D2E/DX2                !
 ! D11   D(2,3,18,37)            0.0327         estimate D2E/DX2                !
 ! D12   D(4,3,18,17)            0.01           estimate D2E/DX2                !
 ! D13   D(4,3,18,37)         -179.9901         estimate D2E/DX2                !
 ! D14   D(3,4,5,6)             -0.0337         estimate D2E/DX2                !
 ! D15   D(3,4,5,23)           179.9252         estimate D2E/DX2                !
 ! D16   D(22,4,5,6)          -179.975          estimate D2E/DX2                !
 ! D17   D(22,4,5,23)           -0.0161         estimate D2E/DX2                !
 ! D18   D(4,5,6,7)           -179.9845         estimate D2E/DX2                !
 ! D19   D(4,5,6,17)            -0.0367         estimate D2E/DX2                !
 ! D20   D(23,5,6,7)             0.0573         estimate D2E/DX2                !
 ! D21   D(23,5,6,17)         -179.9949         estimate D2E/DX2                !
 ! D22   D(5,6,7,8)            179.5249         estimate D2E/DX2                !
 ! D23   D(5,6,7,24)             0.6191         estimate D2E/DX2                !
 ! D24   D(17,6,7,8)            -0.4226         estimate D2E/DX2                !
 ! D25   D(17,6,7,24)         -179.3284         estimate D2E/DX2                !
 ! D26   D(5,6,17,16)          179.9426         estimate D2E/DX2                !
 ! D27   D(5,6,17,18)            0.0926         estimate D2E/DX2                !
 ! D28   D(7,6,17,16)           -0.1086         estimate D2E/DX2                !
 ! D29   D(7,6,17,18)         -179.9586         estimate D2E/DX2                !
 ! D30   D(6,7,8,9)            179.818          estimate D2E/DX2                !
 ! D31   D(6,7,8,15)             0.8057         estimate D2E/DX2                !
 ! D32   D(24,7,8,9)            -1.2966         estimate D2E/DX2                !
 ! D33   D(24,7,8,15)          179.6912         estimate D2E/DX2                !
 ! D34   D(7,8,9,10)           -20.2693         estimate D2E/DX2                !
 ! D35   D(7,8,9,14)           115.157          estimate D2E/DX2                !
 ! D36   D(15,8,9,10)          158.7253         estimate D2E/DX2                !
 ! D37   D(15,8,9,14)          -65.8484         estimate D2E/DX2                !
 ! D38   D(7,8,15,16)           -0.6857         estimate D2E/DX2                !
 ! D39   D(7,8,15,35)          177.7252         estimate D2E/DX2                !
 ! D40   D(9,8,15,16)         -179.7462         estimate D2E/DX2                !
 ! D41   D(9,8,15,35)           -1.3354         estimate D2E/DX2                !
 ! D42   D(8,9,10,11)         -166.4082         estimate D2E/DX2                !
 ! D43   D(8,9,10,25)           72.718          estimate D2E/DX2                !
 ! D44   D(8,9,10,26)          -47.3544         estimate D2E/DX2                !
 ! D45   D(14,9,10,11)          58.6115         estimate D2E/DX2                !
 ! D46   D(14,9,10,25)         -62.2623         estimate D2E/DX2                !
 ! D47   D(14,9,10,26)         177.6654         estimate D2E/DX2                !
 ! D48   D(8,9,14,13)          165.0134         estimate D2E/DX2                !
 ! D49   D(8,9,14,33)           45.3061         estimate D2E/DX2                !
 ! D50   D(8,9,14,34)          -73.9173         estimate D2E/DX2                !
 ! D51   D(10,9,14,13)         -57.951          estimate D2E/DX2                !
 ! D52   D(10,9,14,33)        -177.6583         estimate D2E/DX2                !
 ! D53   D(10,9,14,34)          63.1183         estimate D2E/DX2                !
 ! D54   D(9,10,11,12)         -55.6984         estimate D2E/DX2                !
 ! D55   D(9,10,11,27)        -177.4371         estimate D2E/DX2                !
 ! D56   D(9,10,11,28)          65.1275         estimate D2E/DX2                !
 ! D57   D(25,10,11,12)         65.9182         estimate D2E/DX2                !
 ! D58   D(25,10,11,27)        -55.8205         estimate D2E/DX2                !
 ! D59   D(25,10,11,28)       -173.2559         estimate D2E/DX2                !
 ! D60   D(26,10,11,12)       -176.3116         estimate D2E/DX2                !
 ! D61   D(26,10,11,27)         61.9497         estimate D2E/DX2                !
 ! D62   D(26,10,11,28)        -55.4857         estimate D2E/DX2                !
 ! D63   D(10,11,12,13)         54.2341         estimate D2E/DX2                !
 ! D64   D(10,11,12,29)        -66.7079         estimate D2E/DX2                !
 ! D65   D(10,11,12,30)        175.764          estimate D2E/DX2                !
 ! D66   D(27,11,12,13)        175.963          estimate D2E/DX2                !
 ! D67   D(27,11,12,29)         55.021          estimate D2E/DX2                !
 ! D68   D(27,11,12,30)        -62.5071         estimate D2E/DX2                !
 ! D69   D(28,11,12,13)        -66.7511         estimate D2E/DX2                !
 ! D70   D(28,11,12,29)        172.307          estimate D2E/DX2                !
 ! D71   D(28,11,12,30)         54.7788         estimate D2E/DX2                !
 ! D72   D(11,12,13,14)        -53.7278         estimate D2E/DX2                !
 ! D73   D(11,12,13,31)         67.2205         estimate D2E/DX2                !
 ! D74   D(11,12,13,32)       -175.6346         estimate D2E/DX2                !
 ! D75   D(29,12,13,14)         67.2247         estimate D2E/DX2                !
 ! D76   D(29,12,13,31)       -171.827          estimate D2E/DX2                !
 ! D77   D(29,12,13,32)        -54.6821         estimate D2E/DX2                !
 ! D78   D(30,12,13,14)       -175.2625         estimate D2E/DX2                !
 ! D79   D(30,12,13,31)        -54.3142         estimate D2E/DX2                !
 ! D80   D(30,12,13,32)         62.8307         estimate D2E/DX2                !
 ! D81   D(12,13,14,9)          54.4625         estimate D2E/DX2                !
 ! D82   D(12,13,14,33)        176.7793         estimate D2E/DX2                !
 ! D83   D(12,13,14,34)        -66.5123         estimate D2E/DX2                !
 ! D84   D(31,13,14,9)         -66.3663         estimate D2E/DX2                !
 ! D85   D(31,13,14,33)         55.9505         estimate D2E/DX2                !
 ! D86   D(31,13,14,34)        172.6589         estimate D2E/DX2                !
 ! D87   D(32,13,14,9)         176.375          estimate D2E/DX2                !
 ! D88   D(32,13,14,33)        -61.3082         estimate D2E/DX2                !
 ! D89   D(32,13,14,34)         55.4002         estimate D2E/DX2                !
 ! D90   D(8,15,16,17)           0.1844         estimate D2E/DX2                !
 ! D91   D(8,15,16,36)         179.7053         estimate D2E/DX2                !
 ! D92   D(35,15,16,17)       -178.241          estimate D2E/DX2                !
 ! D93   D(35,15,16,36)          1.2799         estimate D2E/DX2                !
 ! D94   D(15,16,17,6)           0.2247         estimate D2E/DX2                !
 ! D95   D(15,16,17,18)       -179.928          estimate D2E/DX2                !
 ! D96   D(36,16,17,6)        -179.2868         estimate D2E/DX2                !
 ! D97   D(36,16,17,18)          0.5605         estimate D2E/DX2                !
 ! D98   D(6,17,18,3)           -0.0803         estimate D2E/DX2                !
 ! D99   D(6,17,18,37)         179.9198         estimate D2E/DX2                !
 ! D100  D(16,17,18,3)        -179.9261         estimate D2E/DX2                !
 ! D101  D(16,17,18,37)          0.074          estimate D2E/DX2                !
 --------------------------------------------------------------------------------
 Trust Radius=3.00D-01 FncErr=1.00D-07 GrdErr=1.00D-06
 Number of steps in this run= 220 maximum allowed number of steps= 222.
 GradGradGradGradGradGradGradGradGradGradGradGradGradGradGradGradGradGrad

 Leave Link  103 at Fri Sep  3 00:02:30 2021, MaxMem=  268435456 cpu:       0.0
 (Enter /sw/target/amd/app/gaussian/Gaussian09RevA.02_gcc-4.9.2/g09/l202.exe)
                          Input orientation:                          
 ---------------------------------------------------------------------
 Center     Atomic      Atomic             Coordinates (Angstroms)
 Number     Number       Type             X           Y           Z
 ---------------------------------------------------------------------
      1          6           0        6.344958   -0.199133   -0.573642
      2          8           0        5.568483   -1.190037    0.087230
      3          6           0        4.212255   -1.011637    0.094227
      4          6           0        3.497251   -2.015942    0.745535
      5          6           0        2.104202   -1.959625    0.826905
      6          6           0        1.397078   -0.891521    0.255772
      7          6           0       -0.008855   -0.817141    0.327938
      8          6           0       -0.727792    0.250358   -0.230391
      9          7           0       -2.130263    0.358853   -0.182539
     10          6           0       -2.895688   -0.872533    0.063640
     11          6           0       -4.372141   -0.632335   -0.250969
     12          6           0       -4.920016    0.547927    0.545867
     13          6           0       -4.064066    1.790753    0.320489
     14          6           0       -2.588351    1.515593    0.611402
     15          6           0        0.010478    1.245834   -0.886767
     16          6           0        1.405509    1.191702   -0.972776
     17          6           0        2.115035    0.127922   -0.402955
     18          6           0        3.519530    0.056701   -0.477888
     19          1           0        7.396768   -0.490098   -0.493092
     20          1           0        6.232091    0.777389   -0.091236
     21          1           0        6.094957   -0.146524   -1.638453
     22          1           0        4.028880   -2.851701    1.193731
     23          1           0        1.576330   -2.759449    1.340737
     24          1           0       -0.535315   -1.610045    0.850719
     25          1           0       -2.791761   -1.191297    1.108715
     26          1           0       -2.538503   -1.684382   -0.581941
     27          1           0       -4.951529   -1.534359   -0.024966
     28          1           0       -4.490690   -0.431314   -1.323171
     29          1           0       -4.931380    0.297743    1.613695
     30          1           0       -5.955491    0.749414    0.250152
     31          1           0       -4.174456    2.120177   -0.720422
     32          1           0       -4.421460    2.607837    0.956998
     33          1           0       -2.025619    2.426268    0.375414
     34          1           0       -2.448048    1.312377    1.681237
     35          1           0       -0.509656    2.072018   -1.366076
     36          1           0        1.927422    1.987964   -1.497706
     37          1           0        4.049851    0.852245   -0.991003
 ---------------------------------------------------------------------
                    Distance matrix (angstroms):
                    1          2          3          4          5
     1  C    0.000000
     2  O    1.421814   0.000000
     3  C    2.377947   1.367929   0.000000
     4  C    3.626356   2.324970   1.394296   0.000000
     5  C    4.800508   3.625000   2.424744   1.396559   0.000000
     6  C    5.064469   4.185467   2.822365   2.432060   1.402520
     7  C    6.447148   5.594970   4.232047   3.728846   2.453416
     8  C    7.095326   6.466738   5.109019   4.892804   3.744608
     9  N    8.502569   7.857641   6.494796   6.178178   4.932039
    10  C    9.287041   8.470157   7.109370   6.530087   5.173320
    11  C   10.730703   9.961999   8.599703   8.052001   6.698248
    12  C   11.345089  10.641404   9.275483   8.801345   7.463675
    13  C   10.635173  10.085907   8.740828   8.476149   7.236665
    14  C    9.173256   8.609828   7.273418   7.037349   5.843256
    15  C    6.504738   6.146020   4.869646   5.045907   4.194677
    16  C    5.147027   4.911888   3.724382   4.197256   3.695658
    17  C    4.245980   3.728753   2.438056   2.797446   2.422917
    18  C    2.838602   2.464127   1.395897   2.406888   2.787689
    19  H    1.094282   2.041890   3.279950   4.366764   5.649173
    20  H    1.095011   2.083984   2.704579   3.997779   5.037231
    21  H    1.095030   2.084245   2.700957   3.990764   5.029061
    22  H    3.940043   2.521081   2.151365   1.087199   2.152846
    23  H    5.741069   4.468962   3.399520   2.144063   1.087378
    24  H    7.166424   6.165685   4.844563   4.054307   2.662672
    25  H    9.343144   8.422417   7.079386   6.353236   4.963889
    26  H    9.006770   8.149564   6.817809   6.188897   4.859559
    27  H   11.388349  10.526243   9.179454   8.497498   7.119682
    28  H   10.864022  10.185865   8.836687   8.402249   7.102898
    29  H   11.497266  10.714043   9.361053   8.783431   7.430623
    30  H   12.364442  11.687172  10.320304   9.861386   8.522335
    31  H   10.773060  10.321564   8.989373   8.838077   7.645950
    32  H   11.231104  10.722840   9.401383   9.172243   7.966360
    33  H    8.823831   8.416121   7.128066   7.097345   6.041136
    34  H    9.202505   8.547965   7.230441   6.877487   5.670878
    35  H    7.264421   7.049601   5.825621   6.101280   5.281625
    36  H    5.015168   5.086161   4.092960   4.850542   4.584597
    37  H    2.558731   2.764009   2.162904   3.398151   3.872590
                    6          7          8          9         10
     6  C    0.000000
     7  C    1.409747   0.000000
     8  C    2.460755   1.402910   0.000000
     9  N    3.767982   2.478693   1.407475   0.000000
    10  C    4.297105   2.899436   2.459088   1.470643   0.000000
    11  C    5.797228   4.405400   3.749780   2.452173   1.528590
    12  C    6.485510   5.102000   4.273858   2.889472   2.519554
    13  C    6.084643   4.821401   3.715778   2.458245   2.919618
    14  C    4.669509   3.489384   2.402314   1.475884   2.469341
    15  C    2.792193   2.394107   1.402442   2.421868   3.719752
    16  C    2.418516   2.779880   2.447087   3.717499   4.882163
    17  C    1.410194   2.436854   2.850690   4.257284   5.130884
    18  C    2.437660   3.723232   4.258932   5.665570   6.504748
    19  H    6.059556   7.458170   8.162461   9.569821  10.314594
    20  H    5.126697   6.455048   6.981196   8.373319   9.276992
    21  H    5.119880   6.447708   6.977826   8.368353   9.179102
    22  H    3.412983   4.603513   5.854641   7.080736   7.289983
    23  H    2.167587   2.703911   4.103213   5.077697   5.019001
    24  H    2.145782   1.085890   2.160311   2.736428   2.595145
    25  H    4.285295   2.914476   2.851586   2.123177   1.097540
    26  H    4.101121   2.824731   2.673103   2.121554   1.097021
    27  H    6.387242   5.006892   4.589920   3.401268   2.161561
    28  H    6.113155   4.791854   3.977216   2.738069   2.159155
    29  H    6.580857   5.208396   4.590539   3.328130   2.813585
    30  H    7.533457   6.150010   5.273406   3.869383   3.468125
    31  H    6.408219   5.203761   3.951689   2.751419   3.347583
    32  H    6.825878   5.621145   4.539910   3.406766   3.903722
    33  H    4.768322   3.819593   2.604983   2.143937   3.425830
    34  H    4.655546   3.509406   2.782353   2.117512   2.755147
    35  H    3.879251   3.386403   2.157732   2.638572   4.050632
    36  H    3.412826   3.866621   3.416946   4.566013   5.820879
    37  H    3.410626   4.582527   4.875107   6.252268   7.233785
                   11         12         13         14         15
    11  C    0.000000
    12  C    1.525822   0.000000
    13  C    2.508551   1.525799   0.000000
    14  C    2.922188   2.525338   1.529078   0.000000
    15  C    4.810313   5.181630   4.284427   3.011842   0.000000
    16  C    6.101586   6.537047   5.652225   4.308764   1.398728
    17  C    6.533341   7.111161   6.439695   5.007633   2.431658
    18  C    7.924944   8.515592   7.820184   6.373471   3.727555
    19  H   11.772259  12.404036  11.713877  10.244282   7.597744
    20  H   10.698718  11.172647  10.354095   8.879124   6.289736
    21  H   10.569828  11.250918  10.525979   9.122736   6.286858
    22  H    8.808513   9.594787   9.370737   7.949850   6.104574
    23  H    6.514787   7.333012   7.318423   6.012693   4.843135
    24  H    4.109850   4.896466   4.929367   3.747245   3.387151
    25  H    2.158421   2.805560   3.336567   2.759701   4.215934
    26  H    2.139760   3.453514   3.901062   3.415610   3.895688
    27  H    1.095635   2.159342   3.458800   3.910471   5.752711
    28  H    1.097306   2.153262   2.796642   3.339448   4.823255
    29  H    2.157490   1.096803   2.157242   2.824453   5.618999
    30  H    2.160405   1.095561   2.160283   3.472055   6.093587
    31  H    2.799248   2.152050   1.097361   2.157546   4.278530
    32  H    3.458371   2.158892   1.095674   2.161648   4.989649
    33  H    3.905582   3.454671   2.135922   1.096215   2.670621
    34  H    3.349247   2.825610   2.166101   1.097966   3.555759
    35  H    4.845181   5.042782   3.944292   2.922499   1.087592
    36  H    6.935763   7.289534   6.264396   5.006364   2.144453
    37  H    8.583797   9.105663   8.272633   6.861010   4.059841
                   16         17         18         19         20
    16  C    0.000000
    17  C    1.399911   0.000000
    18  C    2.449944   1.408295   0.000000
    19  H    6.241293   5.318531   3.915635   0.000000
    20  H    4.923887   4.179608   2.833175   1.767621   0.000000
    21  H    4.921879   4.176309   2.832143   1.767656   1.807291
    22  H    5.284405   3.884632   3.393015   4.445808   4.435716
    23  H    4.581825   3.415783   3.874806   6.510790   6.019625
    24  H    3.865452   3.408311   4.580940   8.122687   7.237742
    25  H    5.256269   5.301144   6.626251  10.337485   9.313727
    26  H    4.896922   4.997189   6.304123  10.007188   9.122742
    27  H    6.981525   7.269276   8.631075  12.401212  11.420242
    28  H    6.125530   6.692918   8.069466  11.916549  10.860785
    29  H    6.902547   7.331281   8.709231  12.531659  11.303094
    30  H    7.474991   8.120726   9.528164  13.430250  12.192394
    31  H    5.662310   6.605116   7.969578  11.864166  10.511669
    32  H    6.299447   7.122164   8.463245  12.303271  10.860363
    33  H    3.887725   4.799299   6.090291   9.901559   8.433643
    34  H    4.680625   5.154466   6.469199  10.241925   8.875398
    35  H    2.144178   3.405307   4.591810   8.356918   6.982294
    36  H    1.087188   2.166434   2.702705   6.088003   4.687625
    37  H    2.666104   2.148012   1.085089   3.640282   2.361643
                   21         22         23         24         25
    21  H    0.000000
    22  H    4.428083   0.000000
    23  H    6.010070   2.458683   0.000000
    24  H    7.231762   4.742493   2.453628   0.000000
    25  H    9.360141   7.020350   4.646843   2.309429   0.000000
    26  H    8.832772   6.902620   4.667367   2.463900   1.779211
    27  H   11.249635   9.157967   6.780777   4.502832   2.463234
    28  H   10.594170   9.207396   7.023201   4.664783   3.062353
    29  H   11.504519   9.506925   7.195222   4.852543   2.655224
    30  H   12.230406  10.655798   8.380324   5.941888   3.809551
    31  H   10.556588   9.781527   7.818610   5.443013   4.027834
    32  H   11.176668  10.063342   8.057822   5.736196   4.136708
    33  H    8.753209   8.073633   6.387296   4.328827   3.769812
    34  H    9.280715   7.715426   5.735096   3.590106   2.591197
    35  H    6.972591   7.168956   5.917875   4.297956   4.688477
    36  H    4.684463   5.923033   5.542378   4.952357   6.258739
    37  H    2.366261   4.300316   4.959804   5.520739   7.442616
                   26         27         28         29         30
    26  H    0.000000
    27  H    2.481012   0.000000
    28  H    2.435290   1.764771   0.000000
    29  H    3.804668   2.458091   3.057926   0.000000
    30  H    4.276862   2.509830   2.452571   1.764103   0.000000
    31  H    4.143693   3.800412   2.640723   3.056518   2.448079
    32  H    4.933255   4.289873   3.800053   2.455159   2.511298
    33  H    4.251708   4.940427   4.138543   3.808859   4.274509
    34  H    3.756424   4.157217   4.029803   2.683465   3.829763
    35  H    4.340695   5.876629   4.702887   5.619496   5.832546
    36  H    5.853993   7.867381   6.861161   7.718862   8.168802
    37  H    7.071649   9.362369   8.642841   9.367734  10.082555
                   31         32         33         34         35
    31  H    0.000000
    32  H    1.764245   0.000000
    33  H    2.431470   2.472097   0.000000
    34  H    3.066104   2.469229   1.767590   0.000000
    35  H    3.721552   4.581046   2.335899   3.690601   0.000000
    36  H    6.152606   6.835065   4.396274   5.450398   2.442077
    37  H    8.325869   8.867915   6.423082   7.040971   4.734726
                   36         37
    36  H    0.000000
    37  H    2.459941   0.000000
 Stoichiometry    C16H19NO
 Framework group  C1[X(C16H19NO)]
 Deg. of freedom   105
 Full point group                 C1      NOp   1
 Largest Abelian subgroup         C1      NOp   1
 Largest concise Abelian subgroup C1      NOp   1
                         Standard orientation:                         
 ---------------------------------------------------------------------
 Center     Atomic      Atomic             Coordinates (Angstroms)
 Number     Number       Type             X           Y           Z
 ---------------------------------------------------------------------
      1          6           0       -5.910885   -0.892146   -0.071052
      2          8           0       -5.271112    0.358286    0.149552
      3          6           0       -3.904035    0.371522    0.103107
      4          6           0       -3.327338    1.623095    0.315353
      5          6           0       -1.939812    1.780289    0.294388
      6          6           0       -1.099165    0.682332    0.060154
      7          6           0        0.303507    0.821237    0.035577
      8          6           0        1.156165   -0.270191   -0.187842
      9          7           0        2.559749   -0.171847   -0.223420
     10          6           0        3.138358    1.157167   -0.471866
     11          6           0        4.622727    1.017396   -0.809060
     12          6           0        5.368972    0.267645    0.290542
     13          6           0        4.703353   -1.076591    0.569906
     14          6           0        3.213639   -0.912434    0.873025
     15          6           0        0.554978   -1.518342   -0.405877
     16          6           0       -0.834332   -1.679429   -0.388360
     17          6           0       -1.676744   -0.586257   -0.153696
     18          6           0       -3.077611   -0.728867   -0.130768
     19          1           0       -6.991254   -0.730870   -0.005895
     20          1           0       -5.635743   -1.617978    0.701291
     21          1           0       -5.691756   -1.276780   -1.072616
     22          1           0       -3.963662    2.485485    0.498046
     23          1           0       -1.521751    2.769942    0.462325
     24          1           0        0.721519    1.807371    0.214357
     25          1           0        3.022704    1.801304    0.409216
     26          1           0        2.641209    1.641734   -1.321272
     27          1           0        5.066579    2.009166   -0.949789
     28          1           0        4.734141    0.475187   -1.756517
     29          1           0        5.378340    0.870939    1.206471
     30          1           0        6.412461    0.112963   -0.005191
     31          1           0        4.827142   -1.728352   -0.304214
     32          1           0        5.201194   -1.569133    1.412555
     33          1           0        2.787213   -1.913526    1.005920
     34          1           0        3.080322   -0.371835    1.819339
     35          1           0        1.177454   -2.384093   -0.620015
     36          1           0       -1.247417   -2.668835   -0.568402
     37          1           0       -3.498714   -1.714613   -0.299272
 ---------------------------------------------------------------------
 Rotational constants (GHZ):      1.5270828      0.1674888      0.1555470
 Leave Link  202 at Fri Sep  3 00:02:30 2021, MaxMem=  268435456 cpu:       0.0
 (Enter /sw/target/amd/app/gaussian/Gaussian09RevA.02_gcc-4.9.2/g09/l301.exe)
 Standard basis: 6-31G(d) (6D, 7F)
 Ernie: Thresh=  0.10000D-02 Tol=  0.10000D-05 Strict=F.
 There are   308 symmetry adapted basis functions of A   symmetry.
 Integral buffers will be    131072 words long.
 Raffenetti 2 integral format.
 Two-electron integral symmetry is turned on.
   308 basis functions,   580 primitive gaussians,   308 cartesian basis functions
    65 alpha electrons       65 beta electrons
       nuclear repulsion energy      1248.3622678501 Hartrees.
 IExCor=  402 DFT=T Ex+Corr=B3LYP ExCW=0 ScaHFX=  0.200000
 ScaDFX=  0.800000  0.720000  1.000000  0.810000 ScalE2=  1.000000  1.000000
 IRadAn=      0 IRanWt=     -1 IRanGd=            0 ICorTp=0
 NAtoms=   37 NActive=   37 NUniq=   37 SFac= 7.50D-01 NAtFMM=   80 NAOKFM=F Big=F
 Leave Link  301 at Fri Sep  3 00:02:30 2021, MaxMem=  268435456 cpu:       0.1
 (Enter /sw/target/amd/app/gaussian/Gaussian09RevA.02_gcc-4.9.2/g09/l302.exe)
 NPDir=0 NMtPBC=     1 NCelOv=     1 NCel=       1 NClECP=     1 NCelD=      1
         NCelK=      1 NCelE2=     1 NClLst=     1 CellRange=     0.0.
 One-electron integrals computed using PRISM.
 NBasis=   308 RedAO= T  NBF=   308
 NBsUse=   308 1.00D-06 NBFU=   308
 Precomputing XC quadrature grid using
 IXCGrd= 2 IRadAn=           0 IRanWt=          -1 IRanGd=           0 AccXCQ= 1.00D-10.
 NRdTot=    2366 NPtTot=      301772 NUsed=      318828 NTot=      318860
 NSgBfM=   304   304   304   304   304 NAtAll=    37    37.
 Leave Link  302 at Fri Sep  3 00:02:32 2021, MaxMem=  268435456 cpu:       1.9
 (Enter /sw/target/amd/app/gaussian/Gaussian09RevA.02_gcc-4.9.2/g09/l303.exe)
 DipDrv:  MaxL=1.
 Leave Link  303 at Fri Sep  3 00:02:32 2021, MaxMem=  268435456 cpu:       0.1
 (Enter /sw/target/amd/app/gaussian/Gaussian09RevA.02_gcc-4.9.2/g09/l401.exe)
 Harris functional with IExCor=  402 diagonalized for initial guess.
 ExpMin= 1.61D-01 ExpMax= 5.48D+03 ExpMxC= 8.25D+02 IAcc=1 IRadAn=         1 AccDes= 0.00D+00
 HarFok:  IExCor=  402 AccDes= 0.00D+00 IRadAn=         1 IDoV= 1
 ScaDFX=  1.000000  1.000000  1.000000  1.000000
 FoFCou: FMM=F IPFlag=           0 FMFlag=      100000 FMFlg1=           0
         NFxFlg=           0 DoJE=T BraDBF=F KetDBF=T FulRan=T
         Omega=  0.000000  0.000000  1.000000  0.000000  0.000000 ICntrl=     500 IOpCl=  0
         NMat0=    1 NMatS0=    1 NMatT0=    0 NMatD0=    1 NMtDS0=    0 NMtDT0=    0
         I1Cent=           4 NGrid=           0.
 Petite list used in FoFCou.
 Harris En= -751.200979179641    
 Initial guess orbital symmetries:
       Occupied  (A) (A) (A) (A) (A) (A) (A) (A) (A) (A) (A) (A)
                 (A) (A) (A) (A) (A) (A) (A) (A) (A) (A) (A) (A)
                 (A) (A) (A) (A) (A) (A) (A) (A) (A) (A) (A) (A)
                 (A) (A) (A) (A) (A) (A) (A) (A) (A) (A) (A) (A)
                 (A) (A) (A) (A) (A) (A) (A) (A) (A) (A) (A) (A)
                 (A) (A) (A) (A) (A)
       Virtual   (A) (A) (A) (A) (A) (A) (A) (A) (A) (A) (A) (A)
                 (A) (A) (A) (A) (A) (A) (A) (A) (A) (A) (A) (A)
                 (A) (A) (A) (A) (A) (A) (A) (A) (A) (A) (A) (A)
                 (A) (A) (A) (A) (A) (A) (A) (A) (A) (A) (A) (A)
                 (A) (A) (A) (A) (A) (A) (A) (A) (A) (A) (A) (A)
                 (A) (A) (A) (A) (A) (A) (A) (A) (A) (A) (A) (A)
                 (A) (A) (A) (A) (A) (A) (A) (A) (A) (A) (A) (A)
                 (A) (A) (A) (A) (A) (A) (A) (A) (A) (A) (A) (A)
                 (A) (A) (A) (A) (A) (A) (A) (A) (A) (A) (A) (A)
                 (A) (A) (A) (A) (A) (A) (A) (A) (A) (A) (A) (A)
                 (A) (A) (A) (A) (A) (A) (A) (A) (A) (A) (A) (A)
                 (A) (A) (A) (A) (A) (A) (A) (A) (A) (A) (A) (A)
                 (A) (A) (A) (A) (A) (A) (A) (A) (A) (A) (A) (A)
                 (A) (A) (A) (A) (A) (A) (A) (A) (A) (A) (A) (A)
                 (A) (A) (A) (A) (A) (A) (A) (A) (A) (A) (A) (A)
                 (A) (A) (A) (A) (A) (A) (A) (A) (A) (A) (A) (A)
                 (A) (A) (A) (A) (A) (A) (A) (A) (A) (A) (A) (A)
                 (A) (A) (A) (A) (A) (A) (A) (A) (A) (A) (A) (A)
                 (A) (A) (A) (A) (A) (A) (A) (A) (A) (A) (A) (A)
                 (A) (A) (A) (A) (A) (A) (A) (A) (A) (A) (A) (A)
                 (A) (A) (A)
 The electronic state of the initial guess is 1-A.
 Leave Link  401 at Fri Sep  3 00:02:41 2021, MaxMem=  268435456 cpu:       9.5
 (Enter /sw/target/amd/app/gaussian/Gaussian09RevA.02_gcc-4.9.2/g09/l502.exe)
 Closed shell SCF:
 Requested convergence on RMS density matrix=1.00D-08 within  64 cycles.
 Requested convergence on MAX density matrix=1.00D-06.
 Requested convergence on             energy=1.00D-06.
 No special actions if energy rises.
 Using DIIS extrapolation, IDIIS=  1040.
 Integral symmetry usage will be decided dynamically.
       318482 words used for storage of precomputed grid.
 IEnd=      612800 IEndB=      612800 NGot=   268435456 MDV=   267922053
 LenX=   267922053 LenY=   267826748
 Fock matrices will be formed incrementally for  20 cycles.
 Integral accuracy reduced to 1.0D-05 until final iterations.

 Cycle   1  Pass 0  IDiag  1:
 FoFCou: FMM=F IPFlag=           0 FMFlag=      100000 FMFlg1=           0
         NFxFlg=           0 DoJE=F BraDBF=F KetDBF=F FulRan=T
         Omega=  0.000000  0.000000  1.000000  0.000000  0.000000 ICntrl=       0 IOpCl=  0
         NMat0=    1 NMatS0=    1 NMatT0=    0 NMatD0=    1 NMtDS0=    0 NMtDT0=    0
         I1Cent=           0 NGrid=           0.
 Symmetry not used in FoFCou.
 E= -750.683081240370    
 DIIS: error= 2.91D-02 at cycle   1 NSaved=   1.
 NSaved= 1 IEnMin= 1 EnMin= -750.683081240370     IErMin= 1 ErrMin= 2.91D-02
 ErrMax= 2.91D-02 EMaxC= 1.00D-01 BMatC= 3.91D-01 BMatP= 3.91D-01
 IDIUse=3 WtCom= 7.09D-01 WtEn= 2.91D-01
 Coeff-Com:  0.100D+01
 Coeff-En:   0.100D+01
 Coeff:      0.100D+01
 Gap=     0.170 Goal=   None    Shift=    0.000
 GapD=    0.170 DampG=1.000 DampE=0.500 DampFc=0.5000 IDamp=-1.
 Damping current iteration by 5.00D-01
 RMSDP=5.17D-03 MaxDP=1.47D-01              OVMax= 1.64D-01

 Cycle   2  Pass 0  IDiag  1:
 RMSU=  1.79D-03    CP:  9.71D-01
 E= -750.884809023716     Delta-E=       -0.201727783346 Rises=F Damp=T
 DIIS: error= 8.59D-03 at cycle   2 NSaved=   2.
 NSaved= 2 IEnMin= 2 EnMin= -750.884809023716     IErMin= 2 ErrMin= 8.59D-03
 ErrMax= 8.59D-03 EMaxC= 1.00D-01 BMatC= 2.23D-02 BMatP= 3.91D-01
 IDIUse=3 WtCom= 9.14D-01 WtEn= 8.59D-02
 Coeff-Com:  0.252D-01 0.975D+00
 Coeff-En:   0.382D-01 0.962D+00
 Coeff:      0.263D-01 0.974D+00
 Gap=     0.162 Goal=   None    Shift=    0.000
 RMSDP=1.49D-03 MaxDP=3.90D-02 DE=-2.02D-01 OVMax= 1.16D-01

 Cycle   3  Pass 0  IDiag  1:
 RMSU=  1.03D-03    CP:  9.57D-01  9.48D-01
 E= -751.103262789464     Delta-E=       -0.218453765748 Rises=F Damp=F
 DIIS: error= 4.69D-03 at cycle   3 NSaved=   3.
 NSaved= 3 IEnMin= 3 EnMin= -751.103262789464     IErMin= 3 ErrMin= 4.69D-03
 ErrMax= 4.69D-03 EMaxC= 1.00D-01 BMatC= 1.33D-02 BMatP= 2.23D-02
 IDIUse=3 WtCom= 9.53D-01 WtEn= 4.69D-02
 Coeff-Com: -0.300D-01 0.430D+00 0.600D+00
 Coeff-En:   0.000D+00 0.000D+00 0.100D+01
 Coeff:     -0.286D-01 0.410D+00 0.619D+00
 Gap=     0.155 Goal=   None    Shift=    0.000
 RMSDP=6.79D-04 MaxDP=2.89D-02 DE=-2.18D-01 OVMax= 4.94D-02

 Cycle   4  Pass 0  IDiag  1:
 RMSU=  3.37D-04    CP:  9.59D-01  9.87D-01  6.78D-01
 E= -751.111792771281     Delta-E=       -0.008529981817 Rises=F Damp=F
 DIIS: error= 3.30D-03 at cycle   4 NSaved=   4.
 NSaved= 4 IEnMin= 4 EnMin= -751.111792771281     IErMin= 4 ErrMin= 3.30D-03
 ErrMax= 3.30D-03 EMaxC= 1.00D-01 BMatC= 4.93D-03 BMatP= 1.33D-02
 IDIUse=3 WtCom= 9.67D-01 WtEn= 3.30D-02
 Coeff-Com: -0.192D-01 0.127D+00 0.391D+00 0.502D+00
 Coeff-En:   0.000D+00 0.000D+00 0.299D+00 0.701D+00
 Coeff:     -0.186D-01 0.122D+00 0.388D+00 0.508D+00
 Gap=     0.154 Goal=   None    Shift=    0.000
 RMSDP=3.02D-04 MaxDP=1.29D-02 DE=-8.53D-03 OVMax= 2.45D-02

 Cycle   5  Pass 0  IDiag  1:
 RMSU=  1.05D-04    CP:  9.58D-01  9.88D-01  7.63D-01  5.15D-01
 E= -751.116658705948     Delta-E=       -0.004865934667 Rises=F Damp=F
 DIIS: error= 8.84D-04 at cycle   5 NSaved=   5.
 NSaved= 5 IEnMin= 5 EnMin= -751.116658705948     IErMin= 5 ErrMin= 8.84D-04
 ErrMax= 8.84D-04 EMaxC= 1.00D-01 BMatC= 3.99D-04 BMatP= 4.93D-03
 IDIUse=3 WtCom= 9.91D-01 WtEn= 8.84D-03
 Coeff-Com: -0.700D-02 0.271D-01 0.159D+00 0.293D+00 0.528D+00
 Coeff-En:   0.000D+00 0.000D+00 0.000D+00 0.201D-01 0.980D+00
 Coeff:     -0.694D-02 0.269D-01 0.158D+00 0.290D+00 0.532D+00
 Gap=     0.154 Goal=   None    Shift=    0.000
 RMSDP=8.74D-05 MaxDP=2.98D-03 DE=-4.87D-03 OVMax= 7.16D-03

 Cycle   6  Pass 0  IDiag  1:
 RMSU=  3.44D-05    CP:  9.58D-01  9.89D-01  7.59D-01  5.77D-01  5.54D-01
 E= -751.117047008385     Delta-E=       -0.000388302437 Rises=F Damp=F
 DIIS: error= 1.55D-04 at cycle   6 NSaved=   6.
 NSaved= 6 IEnMin= 6 EnMin= -751.117047008385     IErMin= 6 ErrMin= 1.55D-04
 ErrMax= 1.55D-04 EMaxC= 1.00D-01 BMatC= 2.71D-05 BMatP= 3.99D-04
 IDIUse=3 WtCom= 9.98D-01 WtEn= 1.55D-03
 Coeff-Com: -0.193D-02 0.343D-02 0.493D-01 0.108D+00 0.286D+00 0.555D+00
 Coeff-En:   0.000D+00 0.000D+00 0.000D+00 0.000D+00 0.000D+00 0.100D+01
 Coeff:     -0.193D-02 0.342D-02 0.492D-01 0.108D+00 0.285D+00 0.556D+00
 Gap=     0.154 Goal=   None    Shift=    0.000
 RMSDP=2.18D-05 MaxDP=6.84D-04 DE=-3.88D-04 OVMax= 1.47D-03

 Cycle   7  Pass 0  IDiag  1:
 RMSU=  7.19D-06    CP:  9.58D-01  9.89D-01  7.62D-01  5.78D-01  6.11D-01
                    CP:  6.56D-01
 E= -751.117072140390     Delta-E=       -0.000025132005 Rises=F Damp=F
 DIIS: error= 3.80D-05 at cycle   7 NSaved=   7.
 NSaved= 7 IEnMin= 7 EnMin= -751.117072140390     IErMin= 7 ErrMin= 3.80D-05
 ErrMax= 3.80D-05 EMaxC= 1.00D-01 BMatC= 1.45D-06 BMatP= 2.71D-05
 IDIUse=1 WtCom= 1.00D+00 WtEn= 0.00D+00
 Coeff-Com: -0.646D-03 0.578D-03 0.188D-01 0.436D-01 0.129D+00 0.293D+00
 Coeff-Com:  0.516D+00
 Coeff:     -0.646D-03 0.578D-03 0.188D-01 0.436D-01 0.129D+00 0.293D+00
 Coeff:      0.516D+00
 Gap=     0.154 Goal=   None    Shift=    0.000
 RMSDP=5.47D-06 MaxDP=2.73D-04 DE=-2.51D-05 OVMax= 3.33D-04

 Initial convergence to 1.0D-05 achieved.  Increase integral accuracy.
 Cycle   8  Pass 1  IDiag  1:
 E= -751.117187869869     Delta-E=       -0.000115729479 Rises=F Damp=F
 DIIS: error= 2.67D-05 at cycle   1 NSaved=   1.
 NSaved= 1 IEnMin= 1 EnMin= -751.117187869869     IErMin= 1 ErrMin= 2.67D-05
 ErrMax= 2.67D-05 EMaxC= 1.00D-01 BMatC= 3.61D-07 BMatP= 3.61D-07
 IDIUse=1 WtCom= 1.00D+00 WtEn= 0.00D+00
 Coeff-Com:  0.100D+01
 Coeff:      0.100D+01
 Gap=     0.154 Goal=   None    Shift=    0.000
 RMSDP=5.47D-06 MaxDP=2.73D-04 DE=-1.16D-04 OVMax= 2.73D-04

 Cycle   9  Pass 1  IDiag  1:
 RMSU=  1.35D-05    CP:  1.00D+00
 E= -751.117187927429     Delta-E=       -0.000000057560 Rises=F Damp=F
 DIIS: error= 1.74D-05 at cycle   2 NSaved=   2.
 NSaved= 2 IEnMin= 2 EnMin= -751.117187927429     IErMin= 2 ErrMin= 1.74D-05
 ErrMax= 1.74D-05 EMaxC= 1.00D-01 BMatC= 3.59D-07 BMatP= 3.61D-07
 IDIUse=1 WtCom= 1.00D+00 WtEn= 0.00D+00
 Coeff-Com:  0.499D+00 0.501D+00
 Coeff:      0.499D+00 0.501D+00
 Gap=     0.154 Goal=   None    Shift=    0.000
 RMSDP=3.10D-06 MaxDP=1.23D-04 DE=-5.76D-08 OVMax= 2.76D-04

 Cycle  10  Pass 1  IDiag  1:
 RMSU=  2.19D-06    CP:  1.00D+00  9.87D-01
 E= -751.117188193832     Delta-E=       -0.000000266403 Rises=F Damp=F
 DIIS: error= 1.19D-05 at cycle   3 NSaved=   3.
 NSaved= 3 IEnMin= 3 EnMin= -751.117188193832     IErMin= 3 ErrMin= 1.19D-05
 ErrMax= 1.19D-05 EMaxC= 1.00D-01 BMatC= 7.61D-08 BMatP= 3.59D-07
 IDIUse=1 WtCom= 1.00D+00 WtEn= 0.00D+00
 Coeff-Com:  0.270D-01 0.312D+00 0.661D+00
 Coeff:      0.270D-01 0.312D+00 0.661D+00
 Gap=     0.154 Goal=   None    Shift=    0.000
 RMSDP=1.28D-06 MaxDP=5.30D-05 DE=-2.66D-07 OVMax= 1.33D-04

 Cycle  11  Pass 1  IDiag  1:
 RMSU=  4.34D-07    CP:  1.00D+00  1.00D+00  6.51D-01
 E= -751.117188260610     Delta-E=       -0.000000066778 Rises=F Damp=F
 DIIS: error= 5.19D-06 at cycle   4 NSaved=   4.
 NSaved= 4 IEnMin= 4 EnMin= -751.117188260610     IErMin= 4 ErrMin= 5.19D-06
 ErrMax= 5.19D-06 EMaxC= 1.00D-01 BMatC= 1.04D-08 BMatP= 7.61D-08
 IDIUse=1 WtCom= 1.00D+00 WtEn= 0.00D+00
 Coeff-Com: -0.919D-02 0.174D+00 0.428D+00 0.407D+00
 Coeff:     -0.919D-02 0.174D+00 0.428D+00 0.407D+00
 Gap=     0.154 Goal=   None    Shift=    0.000
 RMSDP=3.99D-07 MaxDP=1.90D-05 DE=-6.68D-08 OVMax= 4.52D-05

 Cycle  12  Pass 1  IDiag  1:
 RMSU=  1.28D-07    CP:  1.00D+00  1.00D+00  6.99D-01  4.75D-01
 E= -751.117188271957     Delta-E=       -0.000000011347 Rises=F Damp=F
 DIIS: error= 4.68D-07 at cycle   5 NSaved=   5.
 NSaved= 5 IEnMin= 5 EnMin= -751.117188271957     IErMin= 5 ErrMin= 4.68D-07
 ErrMax= 4.68D-07 EMaxC= 1.00D-01 BMatC= 2.01D-10 BMatP= 1.04D-08
 IDIUse=1 WtCom= 1.00D+00 WtEn= 0.00D+00
 Coeff-Com: -0.582D-02 0.718D-01 0.181D+00 0.203D+00 0.550D+00
 Coeff:     -0.582D-02 0.718D-01 0.181D+00 0.203D+00 0.550D+00
 Gap=     0.154 Goal=   None    Shift=    0.000
 RMSDP=6.88D-08 MaxDP=3.25D-06 DE=-1.13D-08 OVMax= 5.61D-06

 Cycle  13  Pass 1  IDiag  1:
 RMSU=  4.04D-08    CP:  1.00D+00  1.00D+00  6.97D-01  4.95D-01  8.03D-01
 E= -751.117188272132     Delta-E=       -0.000000000176 Rises=F Damp=F
 DIIS: error= 1.85D-07 at cycle   6 NSaved=   6.
 NSaved= 6 IEnMin= 6 EnMin= -751.117188272132     IErMin= 6 ErrMin= 1.85D-07
 ErrMax= 1.85D-07 EMaxC= 1.00D-01 BMatC= 2.20D-11 BMatP= 2.01D-10
 IDIUse=1 WtCom= 1.00D+00 WtEn= 0.00D+00
 Coeff-Com: -0.207D-02 0.182D-01 0.459D-01 0.600D-01 0.288D+00 0.590D+00
 Coeff:     -0.207D-02 0.182D-01 0.459D-01 0.600D-01 0.288D+00 0.590D+00
 Gap=     0.154 Goal=   None    Shift=    0.000
 RMSDP=2.28D-08 MaxDP=9.49D-07 DE=-1.76D-10 OVMax= 1.94D-06

 Cycle  14  Pass 1  IDiag  1:
 RMSU=  1.19D-08    CP:  1.00D+00  1.00D+00  6.96D-01  4.97D-01  8.42D-01
                    CP:  7.61D-01
 E= -751.117188272154     Delta-E=       -0.000000000022 Rises=F Damp=F
 DIIS: error= 5.82D-08 at cycle   7 NSaved=   7.
 NSaved= 7 IEnMin= 7 EnMin= -751.117188272154     IErMin= 7 ErrMin= 5.82D-08
 ErrMax= 5.82D-08 EMaxC= 1.00D-01 BMatC= 2.17D-12 BMatP= 2.20D-11
 IDIUse=1 WtCom= 1.00D+00 WtEn= 0.00D+00
 Coeff-Com: -0.472D-03 0.251D-02 0.603D-02 0.112D-01 0.979D-01 0.303D+00
 Coeff-Com:  0.580D+00
 Coeff:     -0.472D-03 0.251D-02 0.603D-02 0.112D-01 0.979D-01 0.303D+00
 Coeff:      0.580D+00
 Gap=     0.154 Goal=   None    Shift=    0.000
 RMSDP=8.13D-09 MaxDP=2.95D-07 DE=-2.16D-11 OVMax= 9.30D-07

 SCF Done:  E(RB3LYP) =  -751.117188272     A.U. after   14 cycles
             Convg  =    0.8129D-08             -V/T =  2.0094
 KE= 7.441088200421D+02 PE=-4.239208810153D+03 EE= 1.495620533989D+03
 Leave Link  502 at Fri Sep  3 00:08:05 2021, MaxMem=  268435456 cpu:     323.7
 (Enter /sw/target/amd/app/gaussian/Gaussian09RevA.02_gcc-4.9.2/g09/l508.exe)
 QCSCF skips out because SCF is already converged.
 Leave Link  508 at Fri Sep  3 00:08:05 2021, MaxMem=  268435456 cpu:       0.0
 (Enter /sw/target/amd/app/gaussian/Gaussian09RevA.02_gcc-4.9.2/g09/l601.exe)
 Copying SCF densities to generalized density rwf, IOpCl= 0 IROHF=0.

 **********************************************************************

            Population analysis using the SCF density.

 **********************************************************************

 Orbital symmetries:
       Occupied  (A) (A) (A) (A) (A) (A) (A) (A) (A) (A) (A) (A)
                 (A) (A) (A) (A) (A) (A) (A) (A) (A) (A) (A) (A)
                 (A) (A) (A) (A) (A) (A) (A) (A) (A) (A) (A) (A)
                 (A) (A) (A) (A) (A) (A) (A) (A) (A) (A) (A) (A)
                 (A) (A) (A) (A) (A) (A) (A) (A) (A) (A) (A) (A)
                 (A) (A) (A) (A) (A)
       Virtual   (A) (A) (A) (A) (A) (A) (A) (A) (A) (A) (A) (A)
                 (A) (A) (A) (A) (A) (A) (A) (A) (A) (A) (A) (A)
                 (A) (A) (A) (A) (A) (A) (A) (A) (A) (A) (A) (A)
                 (A) (A) (A) (A) (A) (A) (A) (A) (A) (A) (A) (A)
                 (A) (A) (A) (A) (A) (A) (A) (A) (A) (A) (A) (A)
                 (A) (A) (A) (A) (A) (A) (A) (A) (A) (A) (A) (A)
                 (A) (A) (A) (A) (A) (A) (A) (A) (A) (A) (A) (A)
                 (A) (A) (A) (A) (A) (A) (A) (A) (A) (A) (A) (A)
                 (A) (A) (A) (A) (A) (A) (A) (A) (A) (A) (A) (A)
                 (A) (A) (A) (A) (A) (A) (A) (A) (A) (A) (A) (A)
                 (A) (A) (A) (A) (A) (A) (A) (A) (A) (A) (A) (A)
                 (A) (A) (A) (A) (A) (A) (A) (A) (A) (A) (A) (A)
                 (A) (A) (A) (A) (A) (A) (A) (A) (A) (A) (A) (A)
                 (A) (A) (A) (A) (A) (A) (A) (A) (A) (A) (A) (A)
                 (A) (A) (A) (A) (A) (A) (A) (A) (A) (A) (A) (A)
                 (A) (A) (A) (A) (A) (A) (A) (A) (A) (A) (A) (A)
                 (A) (A) (A) (A) (A) (A) (A) (A) (A) (A) (A) (A)
                 (A) (A) (A) (A) (A) (A) (A) (A) (A) (A) (A) (A)
                 (A) (A) (A) (A) (A) (A) (A) (A) (A) (A) (A) (A)
                 (A) (A) (A) (A) (A) (A) (A) (A) (A) (A) (A) (A)
                 (A) (A) (A)
 The electronic state is 1-A.
 Alpha  occ. eigenvalues --  -19.17314 -14.33147 -10.23848 -10.23647 -10.21036
 Alpha  occ. eigenvalues --  -10.20926 -10.20873 -10.18362 -10.18343 -10.18157
 Alpha  occ. eigenvalues --  -10.18101 -10.17961 -10.17925 -10.17913 -10.17855
 Alpha  occ. eigenvalues --  -10.17833 -10.17776 -10.17469  -1.05728  -0.93385
 Alpha  occ. eigenvalues --   -0.86337  -0.81410  -0.78867  -0.76225  -0.75433
 Alpha  occ. eigenvalues --   -0.73954  -0.70563  -0.69265  -0.64362  -0.63043
 Alpha  occ. eigenvalues --   -0.61111  -0.59072  -0.58404  -0.55253  -0.52292
 Alpha  occ. eigenvalues --   -0.51777  -0.50279  -0.47471  -0.46578  -0.46010
 Alpha  occ. eigenvalues --   -0.45457  -0.45194  -0.43886  -0.43562  -0.42434
 Alpha  occ. eigenvalues --   -0.41384  -0.40895  -0.40379  -0.39368  -0.38751
 Alpha  occ. eigenvalues --   -0.37829  -0.37111  -0.35453  -0.35048  -0.34546
 Alpha  occ. eigenvalues --   -0.33628  -0.32950  -0.32073  -0.31544  -0.31376
 Alpha  occ. eigenvalues --   -0.29234  -0.27420  -0.23332  -0.21142  -0.18233
 Alpha virt. eigenvalues --   -0.02835   0.01296   0.04328   0.08865   0.10009
 Alpha virt. eigenvalues --    0.10739   0.10896   0.11648   0.12043   0.12714
 Alpha virt. eigenvalues --    0.13363   0.14705   0.15289   0.15428   0.15746
 Alpha virt. eigenvalues --    0.16817   0.17037   0.17312   0.17845   0.18026
 Alpha virt. eigenvalues --    0.18489   0.19253   0.19811   0.20842   0.21895
 Alpha virt. eigenvalues --    0.22256   0.23606   0.24808   0.25128   0.25747
 Alpha virt. eigenvalues --    0.26632   0.27723   0.28622   0.28748   0.32310
 Alpha virt. eigenvalues --    0.33960   0.34792   0.36671   0.38793   0.40496
 Alpha virt. eigenvalues --    0.48770   0.49423   0.50608   0.51254   0.52137
 Alpha virt. eigenvalues --    0.52376   0.53107   0.54002   0.54447   0.54935
 Alpha virt. eigenvalues --    0.55434   0.56019   0.56444   0.56932   0.57253
 Alpha virt. eigenvalues --    0.57749   0.58724   0.59239   0.60134   0.61390
 Alpha virt. eigenvalues --    0.61991   0.62254   0.62868   0.63807   0.64505
 Alpha virt. eigenvalues --    0.64803   0.66050   0.67272   0.68118   0.68777
 Alpha virt. eigenvalues --    0.69489   0.70842   0.73201   0.74950   0.75533
 Alpha virt. eigenvalues --    0.78453   0.78982   0.80239   0.81067   0.82558
 Alpha virt. eigenvalues --    0.82618   0.83550   0.84188   0.84430   0.85787
 Alpha virt. eigenvalues --    0.86202   0.86522   0.86761   0.87374   0.88069
 Alpha virt. eigenvalues --    0.88486   0.88894   0.89535   0.91898   0.92410
 Alpha virt. eigenvalues --    0.93434   0.93910   0.94608   0.95207   0.95661
 Alpha virt. eigenvalues --    0.96531   0.96861   0.98121   0.98704   1.00745
 Alpha virt. eigenvalues --    1.03295   1.05202   1.05534   1.07012   1.08531
 Alpha virt. eigenvalues --    1.10056   1.11839   1.15474   1.17535   1.19212
 Alpha virt. eigenvalues --    1.19627   1.21474   1.23292   1.25096   1.25260
 Alpha virt. eigenvalues --    1.26785   1.28184   1.30181   1.32459   1.36407
 Alpha virt. eigenvalues --    1.37904   1.38182   1.40597   1.43143   1.44750
 Alpha virt. eigenvalues --    1.45440   1.47038   1.48475   1.48768   1.50019
 Alpha virt. eigenvalues --    1.50533   1.52410   1.52804   1.53834   1.55211
 Alpha virt. eigenvalues --    1.55832   1.61224   1.69722   1.70664   1.71530
 Alpha virt. eigenvalues --    1.75218   1.77691   1.79645   1.80077   1.81187
 Alpha virt. eigenvalues --    1.84506   1.85314   1.86931   1.88093   1.88686
 Alpha virt. eigenvalues --    1.91046   1.91231   1.92221   1.93550   1.94875
 Alpha virt. eigenvalues --    1.95314   1.95882   1.97154   1.98022   1.98561
 Alpha virt. eigenvalues --    2.00159   2.02174   2.02827   2.04517   2.04732
 Alpha virt. eigenvalues --    2.07369   2.08985   2.09481   2.11205   2.11782
 Alpha virt. eigenvalues --    2.12597   2.13299   2.16262   2.17965   2.19020
 Alpha virt. eigenvalues --    2.20025   2.23330   2.24212   2.28301   2.28588
 Alpha virt. eigenvalues --    2.29737   2.30464   2.33068   2.33862   2.35015
 Alpha virt. eigenvalues --    2.35327   2.37058   2.37304   2.39483   2.40460
 Alpha virt. eigenvalues --    2.42187   2.43824   2.44982   2.51069   2.54558
 Alpha virt. eigenvalues --    2.56248   2.57797   2.60443   2.63758   2.64573
 Alpha virt. eigenvalues --    2.65255   2.66436   2.69912   2.71729   2.72965
 Alpha virt. eigenvalues --    2.73738   2.75994   2.79075   2.81047   2.82851
 Alpha virt. eigenvalues --    2.86181   2.89471   2.91289   2.99899   3.01660
 Alpha virt. eigenvalues --    3.08304   3.15288   3.15952   3.41581   3.51609
 Alpha virt. eigenvalues --    4.06067   4.10645   4.11642   4.12316   4.14622
 Alpha virt. eigenvalues --    4.16913   4.19282   4.23152   4.25072   4.28767
 Alpha virt. eigenvalues --    4.36041   4.42682   4.44703   4.49049   4.54725
 Alpha virt. eigenvalues --    4.55742   4.65726   4.87124
          Condensed to atoms (all electrons):
              1          2          3          4          5          6
     1  C    4.893556   0.250989  -0.045327   0.004365  -0.000133   0.000005
     2  O    0.250989   8.201403   0.275134  -0.052857   0.002943   0.000359
     3  C   -0.045327   0.275134   4.562826   0.505083  -0.005002  -0.037034
     4  C    0.004365  -0.052857   0.505083   5.012272   0.500066  -0.008176
     5  C   -0.000133   0.002943  -0.005002   0.500066   5.140424   0.437980
     6  C    0.000005   0.000359  -0.037034  -0.008176   0.437980   4.713368
     7  C   -0.000000   0.000001  -0.000622   0.007930  -0.092680   0.390255
     8  C    0.000000  -0.000000   0.000031  -0.000245   0.007435   0.013204
     9  N   -0.000000   0.000000  -0.000000   0.000001  -0.000128   0.004826
    10  C   -0.000000  -0.000000   0.000000  -0.000000  -0.000023   0.000333
    11  C   -0.000000  -0.000000   0.000000   0.000000   0.000000  -0.000001
    12  C   -0.000000   0.000000  -0.000000   0.000000  -0.000000   0.000000
    13  C   -0.000000  -0.000000   0.000000   0.000000  -0.000000   0.000004
    14  C    0.000000   0.000000  -0.000000   0.000000   0.000002  -0.000049
    15  C   -0.000000   0.000000  -0.000263   0.000048  -0.000421  -0.041180
    16  C   -0.000023  -0.000053   0.007458  -0.000506   0.017490  -0.021604
    17  C    0.000589   0.002920   0.024296  -0.035646  -0.027451   0.492036
    18  C   -0.007607  -0.056654   0.420358  -0.057914  -0.078654  -0.033237
    19  H    0.383611  -0.031247   0.003064  -0.000115   0.000004  -0.000000
    20  H    0.363754  -0.036197  -0.004455   0.000022  -0.000001   0.000003
    21  H    0.363621  -0.036138  -0.004342   0.000032  -0.000003   0.000003
    22  H   -0.000194   0.000087  -0.035650   0.342710  -0.037677   0.003414
    23  H    0.000003  -0.000062   0.003989  -0.042839   0.352683  -0.038892
    24  H    0.000000   0.000000   0.000014   0.000184  -0.008580  -0.044492
    25  H    0.000000   0.000000   0.000000  -0.000000  -0.000006  -0.000155
    26  H   -0.000000  -0.000000   0.000000  -0.000000  -0.000015  -0.000007
    27  H    0.000000   0.000000  -0.000000  -0.000000   0.000000  -0.000000
    28  H    0.000000   0.000000  -0.000000  -0.000000  -0.000000  -0.000000
    29  H   -0.000000  -0.000000   0.000000  -0.000000   0.000000  -0.000000
    30  H   -0.000000   0.000000   0.000000   0.000000   0.000000   0.000000
    31  H   -0.000000  -0.000000  -0.000000   0.000000   0.000000  -0.000000
    32  H    0.000000  -0.000000  -0.000000  -0.000000   0.000000  -0.000000
    33  H    0.000000  -0.000000   0.000000  -0.000000   0.000000   0.000028
    34  H   -0.000000  -0.000000   0.000000  -0.000000  -0.000001  -0.000160
    35  H   -0.000000  -0.000000   0.000003  -0.000000   0.000008   0.000627
    36  H   -0.000004  -0.000000   0.000167   0.000016  -0.000222   0.004709
    37  H    0.006147  -0.007189  -0.049595   0.004584   0.000532   0.004830
              7          8          9         10         11         12
     1  C   -0.000000   0.000000  -0.000000  -0.000000  -0.000000  -0.000000
     2  O    0.000001  -0.000000   0.000000  -0.000000  -0.000000   0.000000
     3  C   -0.000622   0.000031  -0.000000   0.000000   0.000000  -0.000000
     4  C    0.007930  -0.000245   0.000001  -0.000000   0.000000   0.000000
     5  C   -0.092680   0.007435  -0.000128  -0.000023   0.000000  -0.000000
     6  C    0.390255   0.013204   0.004826   0.000333  -0.000001   0.000000
     7  C    5.369851   0.471734  -0.066986  -0.009640   0.000509  -0.000040
     8  C    0.471734   4.595782   0.296997  -0.040123   0.003445   0.000239
     9  N   -0.066986   0.296997   7.004491   0.306563  -0.046843  -0.014222
    10  C   -0.009640  -0.040123   0.306563   4.918495   0.375894  -0.037447
    11  C    0.000509   0.003445  -0.046843   0.375894   5.026812   0.384632
    12  C   -0.000040   0.000239  -0.014222  -0.037447   0.384632   5.005781
    13  C   -0.000075   0.003701  -0.047996  -0.013344  -0.048000   0.385396
    14  C    0.000631  -0.037857   0.306223  -0.040885  -0.013639  -0.037372
    15  C   -0.048957   0.498230  -0.067052   0.005145  -0.000200  -0.000018
    16  C   -0.082305  -0.005879   0.004962  -0.000147   0.000002  -0.000000
    17  C   -0.032988  -0.032086   0.000590   0.000010  -0.000000   0.000000
    18  C    0.018749  -0.000605   0.000001   0.000000  -0.000000   0.000000
    19  H   -0.000000   0.000000   0.000000  -0.000000   0.000000  -0.000000
    20  H    0.000000  -0.000000  -0.000000  -0.000000  -0.000000  -0.000000
    21  H    0.000000   0.000000   0.000000   0.000000   0.000000   0.000000
    22  H   -0.000160   0.000002  -0.000000  -0.000000  -0.000000  -0.000000
    23  H   -0.009167   0.000119  -0.000001  -0.000004   0.000000  -0.000000
    24  H    0.348075  -0.045651  -0.011181   0.006703  -0.000121  -0.000000
    25  H    0.002603  -0.003623  -0.051999   0.347149  -0.049258  -0.009977
    26  H    0.003411  -0.001561  -0.036542   0.375440  -0.027347   0.005007
    27  H   -0.000004  -0.000100   0.004151  -0.032469   0.362463  -0.035014
    28  H    0.000010  -0.000089   0.002146  -0.035783   0.368224  -0.041942
    29  H    0.000000  -0.000086  -0.001157  -0.004301  -0.041431   0.369300
    30  H    0.000000   0.000004  -0.000097   0.005143  -0.034097   0.373564
    31  H   -0.000002  -0.000190   0.002353  -0.000758  -0.004342  -0.042360
    32  H    0.000005  -0.000049   0.004183  -0.000143   0.005576  -0.035373
    33  H   -0.000448  -0.005063  -0.035476   0.004741   0.000018   0.004918
    34  H    0.003224   0.001114  -0.056889  -0.008527  -0.000209  -0.009791
    35  H    0.006967  -0.040240  -0.003071  -0.000115  -0.000013  -0.000011
    36  H    0.000699   0.003348  -0.000125   0.000002  -0.000000   0.000000
    37  H   -0.000206   0.000016   0.000000   0.000000   0.000000  -0.000000
             13         14         15         16         17         18
     1  C   -0.000000   0.000000  -0.000000  -0.000023   0.000589  -0.007607
     2  O   -0.000000   0.000000   0.000000  -0.000053   0.002920  -0.056654
     3  C    0.000000  -0.000000  -0.000263   0.007458   0.024296   0.420358
     4  C    0.000000   0.000000   0.000048  -0.000506  -0.035646  -0.057914
     5  C   -0.000000   0.000002  -0.000421   0.017490  -0.027451  -0.078654
     6  C    0.000004  -0.000049  -0.041180  -0.021604   0.492036  -0.033237
     7  C   -0.000075   0.000631  -0.048957  -0.082305  -0.032988   0.018749
     8  C    0.003701  -0.037857   0.498230  -0.005879  -0.032086  -0.000605
     9  N   -0.047996   0.306223  -0.067052   0.004962   0.000590   0.000001
    10  C   -0.013344  -0.040885   0.005145  -0.000147   0.000010   0.000000
    11  C   -0.048000  -0.013639  -0.000200   0.000002  -0.000000  -0.000000
    12  C    0.385396  -0.037372  -0.000018  -0.000000   0.000000   0.000000
    13  C    5.033143   0.366355   0.000214  -0.000002  -0.000000  -0.000000
    14  C    0.366355   4.943987  -0.010696  -0.000076   0.000011   0.000000
    15  C    0.000214  -0.010696   5.027864   0.489183  -0.010323   0.008438
    16  C   -0.000002  -0.000076   0.489183   5.158277   0.444704  -0.096618
    17  C   -0.000000   0.000011  -0.010323   0.444704   4.680294   0.390058
    18  C   -0.000000   0.000000   0.008438  -0.096618   0.390058   5.429080
    19  H    0.000000   0.000000   0.000000   0.000000   0.000007   0.000180
    20  H    0.000000  -0.000000  -0.000000  -0.000012  -0.000194   0.005374
    21  H   -0.000000   0.000000  -0.000000  -0.000009  -0.000203   0.005436
    22  H   -0.000000   0.000000  -0.000000   0.000007   0.000390   0.007459
    23  H    0.000000   0.000000   0.000016  -0.000216   0.004916   0.000405
    24  H   -0.000010   0.000092   0.005620   0.000449   0.004840  -0.000203
    25  H   -0.000165  -0.007813  -0.000076   0.000013   0.000003   0.000000
    26  H   -0.000113   0.005096   0.000086  -0.000032  -0.000000   0.000000
    27  H    0.005584  -0.000057   0.000003   0.000000  -0.000000  -0.000000
    28  H   -0.004388  -0.000682  -0.000008   0.000000   0.000000   0.000000
    29  H   -0.041497  -0.003982   0.000002   0.000000  -0.000000   0.000000
    30  H   -0.033894   0.005028  -0.000000   0.000000  -0.000000  -0.000000
    31  H    0.368951  -0.037814   0.000054   0.000001   0.000000  -0.000000
    32  H    0.361197  -0.031896  -0.000015   0.000000  -0.000000  -0.000000
    33  H   -0.028848   0.375995   0.005672  -0.000129  -0.000019  -0.000000
    34  H   -0.046617   0.350989   0.000892   0.000040  -0.000007   0.000000
    35  H   -0.000396   0.000243   0.342550  -0.037240   0.003305  -0.000183
    36  H   -0.000000  -0.000001  -0.040017   0.349125  -0.039155  -0.009213
    37  H   -0.000000   0.000000   0.000156  -0.009029  -0.037134   0.345941
             19         20         21         22         23         24
     1  C    0.383611   0.363754   0.363621  -0.000194   0.000003   0.000000
     2  O   -0.031247  -0.036197  -0.036138   0.000087  -0.000062   0.000000
     3  C    0.003064  -0.004455  -0.004342  -0.035650   0.003989   0.000014
     4  C   -0.000115   0.000022   0.000032   0.342710  -0.042839   0.000184
     5  C    0.000004  -0.000001  -0.000003  -0.037677   0.352683  -0.008580
     6  C   -0.000000   0.000003   0.000003   0.003414  -0.038892  -0.044492
     7  C   -0.000000   0.000000   0.000000  -0.000160  -0.009167   0.348075
     8  C    0.000000  -0.000000   0.000000   0.000002   0.000119  -0.045651
     9  N    0.000000  -0.000000   0.000000  -0.000000  -0.000001  -0.011181
    10  C   -0.000000  -0.000000   0.000000  -0.000000  -0.000004   0.006703
    11  C    0.000000  -0.000000   0.000000  -0.000000   0.000000  -0.000121
    12  C   -0.000000  -0.000000   0.000000  -0.000000  -0.000000  -0.000000
    13  C    0.000000   0.000000  -0.000000  -0.000000   0.000000  -0.000010
    14  C    0.000000  -0.000000   0.000000   0.000000   0.000000   0.000092
    15  C    0.000000  -0.000000  -0.000000  -0.000000   0.000016   0.005620
    16  C    0.000000  -0.000012  -0.000009   0.000007  -0.000216   0.000449
    17  C    0.000007  -0.000194  -0.000203   0.000390   0.004916   0.004840
    18  C    0.000180   0.005374   0.005436   0.007459   0.000405  -0.000203
    19  H    0.547215  -0.034331  -0.034153  -0.000028  -0.000000   0.000000
    20  H   -0.034331   0.598615  -0.046813   0.000031  -0.000000   0.000000
    21  H   -0.034153  -0.046813   0.598028   0.000030  -0.000000  -0.000000
    22  H   -0.000028   0.000031   0.000030   0.590844  -0.005989  -0.000012
    23  H   -0.000000  -0.000000  -0.000000  -0.005989   0.600608   0.006891
    24  H    0.000000   0.000000  -0.000000  -0.000012   0.006891   0.612308
    25  H   -0.000000   0.000000  -0.000000   0.000000  -0.000005   0.003272
    26  H    0.000000  -0.000000   0.000000   0.000000  -0.000001   0.000551
    27  H    0.000000   0.000000  -0.000000   0.000000   0.000000   0.000014
    28  H   -0.000000   0.000000  -0.000000   0.000000  -0.000000   0.000006
    29  H   -0.000000   0.000000  -0.000000   0.000000  -0.000000  -0.000002
    30  H    0.000000  -0.000000   0.000000  -0.000000   0.000000  -0.000000
    31  H   -0.000000   0.000000  -0.000000   0.000000  -0.000000  -0.000000
    32  H    0.000000  -0.000000  -0.000000   0.000000   0.000000   0.000000
    33  H   -0.000000  -0.000000   0.000000  -0.000000   0.000000  -0.000009
    34  H    0.000000   0.000000  -0.000000   0.000000  -0.000000   0.000139
    35  H   -0.000000   0.000000   0.000000   0.000000  -0.000000  -0.000187
    36  H    0.000000  -0.000005  -0.000003  -0.000000   0.000003   0.000021
    37  H   -0.000151   0.001986   0.001990  -0.000174   0.000019   0.000003
             25         26         27         28         29         30
     1  C    0.000000  -0.000000   0.000000   0.000000  -0.000000  -0.000000
     2  O    0.000000  -0.000000   0.000000   0.000000  -0.000000   0.000000
     3  C    0.000000   0.000000  -0.000000  -0.000000   0.000000   0.000000
     4  C   -0.000000  -0.000000  -0.000000  -0.000000  -0.000000   0.000000
     5  C   -0.000006  -0.000015   0.000000  -0.000000   0.000000   0.000000
     6  C   -0.000155  -0.000007  -0.000000  -0.000000  -0.000000   0.000000
     7  C    0.002603   0.003411  -0.000004   0.000010   0.000000   0.000000
     8  C   -0.003623  -0.001561  -0.000100  -0.000089  -0.000086   0.000004
     9  N   -0.051999  -0.036542   0.004151   0.002146  -0.001157  -0.000097
    10  C    0.347149   0.375440  -0.032469  -0.035783  -0.004301   0.005143
    11  C   -0.049258  -0.027347   0.362463   0.368224  -0.041431  -0.034097
    12  C   -0.009977   0.005007  -0.035014  -0.041942   0.369300   0.373564
    13  C   -0.000165  -0.000113   0.005584  -0.004388  -0.041497  -0.033894
    14  C   -0.007813   0.005096  -0.000057  -0.000682  -0.003982   0.005028
    15  C   -0.000076   0.000086   0.000003  -0.000008   0.000002  -0.000000
    16  C    0.000013  -0.000032   0.000000   0.000000   0.000000   0.000000
[...]
    12  C   -0.000021   0.000097  -0.013542  -0.036263   0.382428   5.003813
    13  C   -0.000113   0.003128  -0.047243  -0.013364  -0.046063   0.383249
    14  C    0.002116  -0.035170   0.306968  -0.045930  -0.013900  -0.037394
    15  C   -0.052723   0.485109  -0.062216   0.005150  -0.000178  -0.000011
    16  C   -0.073859  -0.006657   0.004586  -0.000128   0.000002  -0.000000
    17  C   -0.038677  -0.030652   0.000649   0.000002  -0.000000   0.000000
    18  C    0.016095  -0.000529   0.000001   0.000000  -0.000000   0.000000
    19  H   -0.000000   0.000000   0.000000  -0.000000   0.000000  -0.000000
    20  H    0.000000  -0.000000  -0.000000   0.000000  -0.000000  -0.000000
    21  H    0.000000   0.000000   0.000000  -0.000000   0.000000   0.000000
    22  H   -0.000144   0.000002  -0.000000   0.000000  -0.000000  -0.000000
    23  H   -0.009096   0.000122  -0.000001  -0.000005   0.000000  -0.000000
    24  H    0.347536  -0.044571  -0.011630   0.006931  -0.000113  -0.000002
    25  H    0.002410  -0.002669  -0.051119   0.348469  -0.050868  -0.009024
    26  H    0.006040  -0.004757  -0.038747   0.372758  -0.024760   0.004657
    27  H   -0.000005  -0.000104   0.004077  -0.032400   0.362370  -0.033795
    28  H   -0.000010   0.000015   0.002229  -0.037060   0.367669  -0.040975
    29  H   -0.000000  -0.000064  -0.000996  -0.004126  -0.041187   0.368803
    30  H   -0.000000   0.000006  -0.000079   0.004748  -0.032760   0.373459
    31  H   -0.000004  -0.000075   0.002670  -0.000766  -0.004253  -0.041002
    32  H    0.000004  -0.000047   0.004015  -0.000111   0.005208  -0.034051
    33  H   -0.000422  -0.006551  -0.039120   0.005515   0.000064   0.004644
    34  H    0.001921   0.001245  -0.055146  -0.008911  -0.000465  -0.009738
    35  H    0.006425  -0.039864  -0.003976  -0.000113  -0.000011  -0.000010
    36  H    0.000693   0.003449  -0.000121   0.000002  -0.000000   0.000000
    37  H   -0.000180   0.000017   0.000000   0.000000   0.000000  -0.000000
             13         14         15         16         17         18
     1  C   -0.000000   0.000000  -0.000000  -0.000019   0.000591  -0.007424
     2  O   -0.000000   0.000000   0.000000  -0.000053   0.003023  -0.057523
     3  C    0.000000  -0.000000  -0.000245   0.006445   0.024340   0.434831
     4  C    0.000000  -0.000000   0.000033  -0.000307  -0.035525  -0.060395
     5  C   -0.000000   0.000002  -0.000224   0.014809  -0.026217  -0.070369
     6  C    0.000003  -0.000019  -0.039920  -0.021162   0.494383  -0.039061
     7  C   -0.000113   0.002116  -0.052723  -0.073859  -0.038677   0.016095
     8  C    0.003128  -0.035170   0.485109  -0.006657  -0.030652  -0.000529
     9  N   -0.047243   0.306968  -0.062216   0.004586   0.000649   0.000001
    10  C   -0.013364  -0.045930   0.005150  -0.000128   0.000002   0.000000
    11  C   -0.046063  -0.013900  -0.000178   0.000002  -0.000000  -0.000000
    12  C    0.383249  -0.037394  -0.000011  -0.000000   0.000000   0.000000
    13  C    5.031136   0.368577   0.000192  -0.000004   0.000000  -0.000000
    14  C    0.368577   4.948515  -0.011185   0.000120  -0.000006   0.000000
    15  C    0.000192  -0.011185   5.019930   0.511317  -0.014913   0.008223
    16  C   -0.000004   0.000120   0.511317   5.108292   0.446526  -0.085320
    17  C    0.000000  -0.000006  -0.014913   0.446526   4.709080   0.389457
    18  C   -0.000000   0.000000   0.008223  -0.085320   0.389457   5.396307
    19  H   -0.000000   0.000000   0.000000  -0.000000   0.000007   0.000208
    20  H    0.000000  -0.000000   0.000000  -0.000008  -0.000218   0.005517
    21  H   -0.000000   0.000000  -0.000000  -0.000008  -0.000219   0.005456
    22  H   -0.000000   0.000000  -0.000000   0.000007   0.000317   0.007509
    23  H    0.000000   0.000000   0.000012  -0.000205   0.005021   0.000387
    24  H   -0.000008   0.000016   0.005295   0.000392   0.004505  -0.000179
    25  H   -0.000456  -0.008304  -0.000064   0.000009   0.000003   0.000000
    26  H   -0.000094   0.006049  -0.000034  -0.000028  -0.000005   0.000000
    27  H    0.005246  -0.000040   0.000003   0.000000  -0.000000  -0.000000
    28  H   -0.004275  -0.000800  -0.000009  -0.000000   0.000000   0.000000
    29  H   -0.041250  -0.004274   0.000001   0.000000  -0.000000   0.000000
    30  H   -0.032734   0.004784  -0.000000   0.000000  -0.000000  -0.000000
    31  H    0.367316  -0.038675   0.000019   0.000000   0.000000  -0.000000
    32  H    0.361611  -0.031928  -0.000012   0.000000  -0.000000  -0.000000
    33  H   -0.026386   0.373627   0.006917   0.000048  -0.000025  -0.000000
    34  H   -0.049863   0.351108   0.000853   0.000021  -0.000003   0.000000
    35  H   -0.000406  -0.000436   0.343794  -0.036641   0.003226  -0.000169
    36  H   -0.000000   0.000000  -0.041696   0.347975  -0.039312  -0.009101
    37  H   -0.000000   0.000000   0.000112  -0.008337  -0.037116   0.346271
             19         20         21         22         23         24
     1  C    0.386046   0.361990   0.362077  -0.000244   0.000003   0.000000
     2  O   -0.033653  -0.035958  -0.035947   0.000704  -0.000061   0.000000
     3  C    0.003155  -0.004347  -0.004350  -0.035666   0.004058   0.000016
     4  C   -0.000111   0.000002  -0.000001   0.343294  -0.043898   0.000141
     5  C    0.000004  -0.000001  -0.000003  -0.038613   0.351406  -0.008192
     6  C   -0.000000   0.000000   0.000004   0.003372  -0.039298  -0.043310
     7  C   -0.000000   0.000000   0.000000  -0.000144  -0.009096   0.347536
     8  C    0.000000  -0.000000   0.000000   0.000002   0.000122  -0.044571
     9  N    0.000000  -0.000000   0.000000  -0.000000  -0.000001  -0.011630
    10  C   -0.000000   0.000000  -0.000000   0.000000  -0.000005   0.006931
    11  C    0.000000  -0.000000   0.000000  -0.000000   0.000000  -0.000113
    12  C   -0.000000  -0.000000   0.000000  -0.000000  -0.000000  -0.000002
    13  C   -0.000000   0.000000  -0.000000  -0.000000   0.000000  -0.000008
    14  C    0.000000  -0.000000   0.000000   0.000000   0.000000   0.000016
    15  C    0.000000   0.000000  -0.000000  -0.000000   0.000012   0.005295
    16  C   -0.000000  -0.000008  -0.000008   0.000007  -0.000205   0.000392
    17  C    0.000007  -0.000218  -0.000219   0.000317   0.005021   0.004505
    18  C    0.000208   0.005517   0.005456   0.007509   0.000387  -0.000179
    19  H    0.541652  -0.032075  -0.032086  -0.000031  -0.000000   0.000000
    20  H   -0.032075   0.603257  -0.050533   0.000031  -0.000000   0.000000
    21  H   -0.032086  -0.050533   0.602943   0.000031  -0.000000  -0.000000
    22  H   -0.000031   0.000031   0.000031   0.589720  -0.006147  -0.000011
    23  H   -0.000000  -0.000000  -0.000000  -0.006147   0.604538   0.006814
    24  H    0.000000   0.000000  -0.000000  -0.000011   0.006814   0.608191
    25  H    0.000000   0.000000  -0.000000   0.000000  -0.000005   0.003168
    26  H   -0.000000  -0.000000   0.000000   0.000000   0.000001   0.000468
    27  H    0.000000   0.000000  -0.000000   0.000000   0.000000   0.000017
    28  H   -0.000000   0.000000  -0.000000   0.000000  -0.000000   0.000011
    29  H   -0.000000   0.000000  -0.000000   0.000000  -0.000000  -0.000001
    30  H    0.000000  -0.000000   0.000000  -0.000000   0.000000  -0.000000
    31  H   -0.000000   0.000000  -0.000000   0.000000  -0.000000   0.000000
    32  H    0.000000   0.000000  -0.000000   0.000000   0.000000   0.000000
    33  H   -0.000000  -0.000000   0.000000  -0.000000   0.000000  -0.000008
    34  H    0.000000   0.000000  -0.000000   0.000000  -0.000000   0.000079
    35  H   -0.000000   0.000000   0.000000   0.000000  -0.000000  -0.000180
    36  H    0.000000  -0.000005  -0.000003  -0.000000   0.000003   0.000021
    37  H   -0.000134   0.002004   0.002103  -0.000169   0.000019   0.000003
             25         26         27         28         29         30
     1  C    0.000000  -0.000000   0.000000   0.000000  -0.000000  -0.000000
     2  O   -0.000000  -0.000000   0.000000   0.000000  -0.000000   0.000000
     3  C    0.000000   0.000000   0.000000  -0.000000  -0.000000   0.000000
     4  C   -0.000000  -0.000000  -0.000000  -0.000000  -0.000000   0.000000
     5  C   -0.000007  -0.000023   0.000000  -0.000000  -0.000000   0.000000
     6  C   -0.000169   0.000248  -0.000000  -0.000000  -0.000000   0.000000
     7  C    0.002410   0.006040  -0.000005  -0.000010  -0.000000  -0.000000
     8  C   -0.002669  -0.004757  -0.000104   0.000015  -0.000064   0.000006
     9  N   -0.051119  -0.038747   0.004077   0.002229  -0.000996  -0.000079
    10  C    0.348469   0.372758  -0.032400  -0.037060  -0.004126   0.004748
    11  C   -0.050868  -0.024760   0.362370   0.367669  -0.041187  -0.032760
    12  C   -0.009024   0.004657  -0.033795  -0.040975   0.368803   0.373459
    13  C   -0.000456  -0.000094   0.005246  -0.004275  -0.041250  -0.032734
    14  C   -0.008304   0.006049  -0.000040  -0.000800  -0.004274   0.004784
    15  C   -0.000064  -0.000034   0.000003  -0.000009   0.000001  -0.000000
    16  C    0.000009  -0.000028   0.000000  -0.000000   0.000000   0.000000
    17  C    0.000003  -0.000005  -0.000000   0.000000  -0.000000  -0.000000
    18  C    0.000000   0.000000  -0.000000   0.000000   0.000000  -0.000000
    19  H    0.000000  -0.000000   0.000000  -0.000000  -0.000000   0.000000
    20  H    0.000000  -0.000000   0.000000   0.000000   0.000000  -0.000000
    21  H   -0.000000   0.000000  -0.000000  -0.000000  -0.000000   0.000000
    22  H    0.000000   0.000000   0.000000   0.000000   0.000000  -0.000000
    23  H   -0.000005   0.000001   0.000000  -0.000000  -0.000000   0.000000
    24  H    0.003168   0.000468   0.000017   0.000011  -0.000001  -0.000000
    25  H    0.673631  -0.048505  -0.000184   0.006672   0.005808  -0.000128
    26  H   -0.048505   0.584324  -0.002461  -0.005940  -0.000077  -0.000139
    27  H   -0.000184  -0.002461   0.604095  -0.033155  -0.004060  -0.002387
    28  H    0.006672  -0.005940  -0.033155   0.596424   0.006025  -0.004762
    29  H    0.005808  -0.000077  -0.004060   0.006025   0.614718  -0.037203
    30  H   -0.000128  -0.000139  -0.002387  -0.004762  -0.037203   0.598439
    31  H    0.000296  -0.000050   0.000013   0.005159   0.006042  -0.004746
    32  H    0.000085   0.000008  -0.000150   0.000023  -0.004042  -0.002304
    33  H   -0.000295  -0.000194   0.000009  -0.000048  -0.000069  -0.000145
    34  H    0.013700  -0.000372   0.000082   0.000308   0.006117  -0.000125
    35  H    0.000025  -0.000009   0.000000   0.000009   0.000000  -0.000000
    36  H   -0.000000   0.000000   0.000000  -0.000000  -0.000000  -0.000000
    37  H   -0.000000  -0.000000   0.000000  -0.000000  -0.000000   0.000000
             31         32         33         34         35         36
     1  C    0.000000   0.000000  -0.000000  -0.000000  -0.000000  -0.000003
     2  O   -0.000000  -0.000000  -0.000000  -0.000000  -0.000000   0.000000
     3  C   -0.000000   0.000000   0.000000   0.000000   0.000002   0.000160
     4  C    0.000000  -0.000000  -0.000000   0.000000  -0.000000   0.000012
     5  C    0.000000   0.000000   0.000000  -0.000001   0.000008  -0.000210
     6  C   -0.000000  -0.000000   0.000025  -0.000081   0.000605   0.004854
     7  C   -0.000004   0.000004  -0.000422   0.001921   0.006425   0.000693
     8  C   -0.000075  -0.000047  -0.006551   0.001245  -0.039864   0.003449
     9  N    0.002670   0.004015  -0.039120  -0.055146  -0.003976  -0.000121
    10  C   -0.000766  -0.000111   0.005515  -0.008911  -0.000113   0.000002
    11  C   -0.004253   0.005208   0.000064  -0.000465  -0.000011  -0.000000
    12  C   -0.041002  -0.034051   0.004644  -0.009738  -0.000010   0.000000
    13  C    0.367316   0.361611  -0.026386  -0.049863  -0.000406  -0.000000
    14  C   -0.038675  -0.031928   0.373627   0.351108  -0.000436   0.000000
    15  C    0.000019  -0.000012   0.006917   0.000853   0.343794  -0.041696
    16  C    0.000000   0.000000   0.000048   0.000021  -0.036641   0.347975
    17  C    0.000000  -0.000000  -0.000025  -0.000003   0.003226  -0.039312
    18  C   -0.000000  -0.000000  -0.000000   0.000000  -0.000169  -0.009101
    19  H   -0.000000   0.000000  -0.000000   0.000000  -0.000000   0.000000
    20  H    0.000000   0.000000  -0.000000   0.000000   0.000000  -0.000005
    21  H   -0.000000  -0.000000   0.000000  -0.000000   0.000000  -0.000003
    22  H    0.000000   0.000000  -0.000000   0.000000   0.000000  -0.000000
    23  H   -0.000000   0.000000   0.000000  -0.000000  -0.000000   0.000003
    24  H    0.000000   0.000000  -0.000008   0.000079  -0.000180   0.000021
    25  H    0.000296   0.000085  -0.000295   0.013700   0.000025  -0.000000
    26  H   -0.000050   0.000008  -0.000194  -0.000372  -0.000009   0.000000
    27  H    0.000013  -0.000150   0.000009   0.000082   0.000000   0.000000
    28  H    0.005159   0.000023  -0.000048   0.000308   0.000009  -0.000000
    29  H    0.006042  -0.004042  -0.000069   0.006117   0.000000  -0.000000
    30  H   -0.004746  -0.002304  -0.000145  -0.000125  -0.000000  -0.000000
    31  H    0.599060  -0.032694  -0.005282   0.006691   0.000202  -0.000000
    32  H   -0.032694   0.603591  -0.002390   0.000062   0.000020  -0.000000
    33  H   -0.005282  -0.002390   0.581687  -0.042664   0.002564   0.000020
    34  H    0.006691   0.000062  -0.042664   0.662180   0.000420  -0.000001
    35  H    0.000202   0.000020   0.002564   0.000420   0.602519  -0.006084
    36  H   -0.000000  -0.000000   0.000020  -0.000001  -0.006084   0.610267
    37  H    0.000000  -0.000000  -0.000000   0.000000  -0.000013   0.006716
             37
     1  C    0.006208
     2  O   -0.007671
     3  C   -0.049063
     4  C    0.004478
     5  C    0.000431
     6  C    0.004478
     7  C   -0.000180
     8  C    0.000017
     9  N    0.000000
    10  C    0.000000
    11  C    0.000000
    12  C   -0.000000
    13  C   -0.000000
    14  C    0.000000
    15  C    0.000112
    16  C   -0.008337
    17  C   -0.037116
    18  C    0.346271
    19  H   -0.000134
    20  H    0.002004
    21  H    0.002103
    22  H   -0.000169
    23  H    0.000019
    24  H    0.000003
    25  H   -0.000000
    26  H   -0.000000
    27  H    0.000000
    28  H   -0.000000
    29  H   -0.000000
    30  H    0.000000
    31  H    0.000000
    32  H   -0.000000
    33  H   -0.000000
    34  H    0.000000
    35  H   -0.000013
    36  H    0.006716
    37  H    0.604663
 Mulliken atomic charges:
              1
     1  C   -0.211127
     2  O   -0.511533
     3  C    0.371106
     4  C   -0.170129
     5  C   -0.199745
     6  C    0.138477
     7  C   -0.279150
     8  C    0.323521
     9  N   -0.493917
    10  C   -0.123291
    11  C   -0.262234
    12  C   -0.265323
    13  C   -0.258199
    14  C   -0.133820
    15  C   -0.163533
    16  C   -0.207812
    17  C    0.141756
    18  C   -0.280190
    19  H    0.167018
    20  H    0.150343
    21  H    0.150539
    22  H    0.136040
    23  H    0.126334
    24  H    0.124601
    25  H    0.117520
    26  H    0.151640
    27  H    0.132829
    28  H    0.142491
    29  H    0.129835
    30  H    0.136077
    31  H    0.140077
    32  H    0.133100
    33  H    0.148481
    34  H    0.122583
    35  H    0.128089
    36  H    0.122363
    37  H    0.125183
 Sum of Mulliken atomic charges =  -0.00000
 Mulliken charges with hydrogens summed into heavy atoms:
              1
     1  C    0.256773
     2  O   -0.511533
     3  C    0.371106
     4  C   -0.034089
     5  C   -0.073411
     6  C    0.138477
     7  C   -0.154548
     8  C    0.323521
     9  N   -0.493917
    10  C    0.145868
    11  C    0.013086
    12  C    0.000589
    13  C    0.014978
    14  C    0.137243
    15  C   -0.035443
    16  C   -0.085448
    17  C    0.141756
    18  C   -0.155008
 Sum of Mulliken charges with hydrogens summed into heavy atoms =  -0.00000
 Electronic spatial extent (au):  <R**2>=           6931.1248
 Charge=              0.0000 electrons
 Dipole moment (field-independent basis, Debye):
    X=              0.8244    Y=             -0.9772    Z=              0.2029  Tot=              1.2945
 Quadrupole moment (field-independent basis, Debye-Ang):
   XX=            -92.8220   YY=            -99.0451   ZZ=           -110.5901
   XY=              7.5750   XZ=              2.0865   YZ=              0.6229
 Traceless Quadrupole moment (field-independent basis, Debye-Ang):
   XX=              7.9970   YY=              1.7740   ZZ=             -9.7710
   XY=              7.5750   XZ=              2.0865   YZ=              0.6229
 Octapole moment (field-independent basis, Debye-Ang**2):
  XXX=            -49.8472  YYY=              1.1898  ZZZ=             -0.1217  XYY=            -11.7796
  XXY=            -43.2129  XXZ=             -3.5743  XZZ=              1.5084  YZZ=             -0.4361
  YYZ=              0.0442  XYZ=             -5.2503
 Hexadecapole moment (field-independent basis, Debye-Ang**3):
 XXXX=          -7512.6203 YYYY=           -914.4658 ZZZZ=           -236.5526 XXXY=            247.5466
 XXXZ=             31.1755 YYYX=            -12.7513 YYYZ=             10.6596 ZZZX=              0.2625
 ZZZY=             -3.4776 XXYY=          -1445.8456 XXZZ=          -1405.8932 YYZZ=           -206.2043
 XXYZ=              1.1205 YYXZ=             -4.2002 ZZXY=              3.3443
 N-N= 1.244485084109D+03 E-N=-4.231251746017D+03  KE= 7.439154070476D+02
 No NMR shielding tensors so no spin-rotation constants.
 Leave Link  601 at Fri Sep  3 01:15:34 2021, MaxMem=  268435456 cpu:       0.6
 (Enter /sw/target/amd/app/gaussian/Gaussian09RevA.02_gcc-4.9.2/g09/l9999.exe)
 1\1\GINC-HERMITE\FOpt\RB3LYP\6-31G(d)\C16H19N1O1\JSCHLEINITZ\03-Sep-20
 21\0\\#p b3lyp 6-31G* opt scf(xqc,tight)\\opt calculation\\0,1\C,6.368
 1080807,-0.21131048,-0.6028982904\O,5.5766605757,-1.2285518791,-0.0142
 478861\C,4.2226589269,-1.041638053,0.0260207193\C,3.4962681699,-2.1031
 456578,0.6300671472\C,2.1291389393,-2.0404986341,0.7314227517\C,1.4025
 138137,-0.9192904314,0.2409873977\C,-0.0102066353,-0.8286935859,0.3502
 66899\C,-0.7083838833,0.2667258228,-0.1353335589\N,-2.1196770945,0.371
 3217434,-0.1022344066\C,-2.8747689225,-0.8373443867,0.2219008515\C,-4.
 347476848,-0.6823133183,-0.1772801793\C,-4.9766147038,0.5566687425,0.4
 711773042\C,-4.1274410157,1.7978073716,0.1686489933\C,-2.666339451,1.5
 650385249,0.5622438677\C,0.0381629593,1.3179173672,-0.7497783824\C,1.4
 059859667,1.2615873827,-0.8501763175\C,2.1388759431,0.1461016317,-0.36
 10213081\C,3.5543198447,0.0641943331,-0.4617142835\H,7.4021673221,-0.5
 543392895,-0.5322425842\H,6.2637230328,0.7417508031,-0.0667797722\H,6.
 107313184,-0.0578208858,-1.6588526677\H,4.0551191528,-2.9562267681,1.0
 024808966\H,1.5829013297,-2.8590714872,1.1944735611\H,-0.532215933,-1.
 6448232269,0.8390699724\H,-2.8102084056,-1.0790892104,1.3016539005\H,-
 2.4309018096,-1.6750603194,-0.3245491257\H,-4.8935665565,-1.5904252187
 ,0.1075616134\H,-4.4060223083,-0.5958913874,-1.2700609005\H,-5.0306026
 832,0.4107693799,1.5602167886\H,-6.0065150698,0.695636167,0.1202436224
 \H,-4.1737102103,2.0261483207,-0.9042959603\H,-4.5114409565,2.67351431
 39,0.7070304348\H,-2.0594028198,2.4318841054,0.292127087\H,-2.59479580
 59,1.455374341,1.6621580047\H,-0.4963396002,2.1615613794,-1.1762041811
 \H,1.9455443786,2.0746843996,-1.33098436\H,4.0871670927,0.8868500903,-
 0.9266876487\\Version=AM64L-G09RevA.02\State=1-A\HF=-751.1235787\RMSD=
 8.319e-09\RMSF=1.402e-05\Dipole=-0.2609333,0.4362519,-0.031327\Quadrup
 ole=7.0053213,-1.1214893,-5.883832,3.675525,-4.1330616,-2.4903917\PG=C
 01 [X(C16H19N1O1)]\\@


 LIFE IS SO UNCERTAIN - EAT DESSERT FIRST.
 Job cpu time:  0 days  1 hours 12 minutes 42.6 seconds.
 File lengths (MBytes):  RWF=     67 Int=      0 D2E=      0 Chk=      7 Scr=      1
 Normal termination of Gaussian 09 at Fri Sep  3 01:15:35 2021.
