 Entering Gaussian System, Link 0=g09
 Input=mol_inp020.com
 Output=mol_inp020.log
 Initial command:
 /sw/target/amd/app/gaussian/Gaussian09RevA.02_gcc-4.9.2/g09/l1.exe /home/jschleinitz/optim_react/020/Gau-2804055.inp -scrdir=/home/jschleinitz/optim_react/020/
 Entering Link 1 = /sw/target/amd/app/gaussian/Gaussian09RevA.02_gcc-4.9.2/g09/l1.exe PID=   2804057.
  
 Copyright (c) 1988,1990,1992,1993,1995,1998,2003,2009, Gaussian, Inc.
                  All Rights Reserved.
  
 This is part of the Gaussian(R) 09 program.  It is based on
 the Gaussian(R) 03 system (copyright 2003, Gaussian, Inc.),
 the Gaussian(R) 98 system (copyright 1998, Gaussian, Inc.),
 the Gaussian(R) 94 system (copyright 1995, Gaussian, Inc.),
 the Gaussian 92(TM) system (copyright 1992, Gaussian, Inc.),
 the Gaussian 90(TM) system (copyright 1990, Gaussian, Inc.),
 the Gaussian 88(TM) system (copyright 1988, Gaussian, Inc.),
 the Gaussian 86(TM) system (copyright 1986, Carnegie Mellon
 University), and the Gaussian 82(TM) system (copyright 1983,
 Carnegie Mellon University). Gaussian is a federally registered
 trademark of Gaussian, Inc.
  
 This software contains proprietary and confidential information,
 including trade secrets, belonging to Gaussian, Inc.
  
 This software is provided under written license and may be
 used, copied, transmitted, or stored only in accord with that
 written license.
  
 The following legend is applicable only to US Government
 contracts under FAR:
  
                    RESTRICTED RIGHTS LEGEND
  
 Use, reproduction and disclosure by the US Government is
 subject to restrictions as set forth in subparagraphs (a)
 and (c) of the Commercial Computer Software - Restricted
 Rights clause in FAR 52.227-19.
  
 Gaussian, Inc.
 340 Quinnipiac St., Bldg. 40, Wallingford CT 06492
  
  
 ---------------------------------------------------------------
 Warning -- This program may not be used in any manner that
 competes with the business of Gaussian, Inc. or will provide
 assistance to any competitor of Gaussian, Inc.  The licensee
 of this program is prohibited from giving any competitor of
 Gaussian, Inc. access to this program.  By using this program,
 the user acknowledges that Gaussian, Inc. is engaged in the
 business of creating and licensing software in the field of
 computational chemistry and represents and warrants to the
 licensee that it is not a competitor of Gaussian, Inc. and that
 it will not use this program in any manner prohibited above.
 ---------------------------------------------------------------
  

 Cite this work as:
 Gaussian 09, Revision A.02,
 M. J. Frisch, G. W. Trucks, H. B. Schlegel, G. E. Scuseria, 
 M. A. Robb, J. R. Cheeseman, G. Scalmani, V. Barone, B. Mennucci, 
 G. A. Petersson, H. Nakatsuji, M. Caricato, X. Li, H. P. Hratchian, 
 A. F. Izmaylov, J. Bloino, G. Zheng, J. L. Sonnenberg, M. Hada, 
 M. Ehara, K. Toyota, R. Fukuda, J. Hasegawa, M. Ishida, T. Nakajima, 
 Y. Honda, O. Kitao, H. Nakai, T. Vreven, J. A. Montgomery, Jr., 
 J. E. Peralta, F. Ogliaro, M. Bearpark, J. J. Heyd, E. Brothers, 
 K. N. Kudin, V. N. Staroverov, R. Kobayashi, J. Normand, 
 K. Raghavachari, A. Rendell, J. C. Burant, S. S. Iyengar, J. Tomasi, 
 M. Cossi, N. Rega, J. M. Millam, M. Klene, J. E. Knox, J. B. Cross, 
 V. Bakken, C. Adamo, J. Jaramillo, R. Gomperts, R. E. Stratmann, 
 O. Yazyev, A. J. Austin, R. Cammi, C. Pomelli, J. W. Ochterski, 
 R. L. Martin, K. Morokuma, V. G. Zakrzewski, G. A. Voth, 
 P. Salvador, J. J. Dannenberg, S. Dapprich, A. D. Daniels, 
 O. Farkas, J. B. Foresman, J. V. Ortiz, J. Cioslowski, 
 and D. J. Fox, Gaussian, Inc., Wallingford CT, 2009.
 
 ******************************************
 Gaussian 09:  AM64L-G09RevA.02 11-Jun-2009
                 3-Sep-2021 
 ******************************************
 %chk=opt.chk
 %mem=2gb
 %nproc=1
 Will use up to    1 processors via shared memory.
 ----------------------------------
 #p b3lyp 6-31G* opt scf(xqc,tight)
 ----------------------------------
 1/14=-1,18=20,19=15,26=3,38=1/1,3;
 2/9=110,12=2,17=6,18=5,40=1/2;
 3/5=1,6=6,7=1,11=2,16=1,25=1,30=1,71=1,74=-5/1,2,3;
 4//1;
 5/5=2,8=3,13=1,32=2,38=5/2,8;
 6/7=2,8=2,9=2,10=2,28=1/1;
 7//1,2,3,16;
 1/14=-1,18=20,19=15/3(2);
 2/9=110/2;
 99//99;
 2/9=110/2;
 3/5=1,6=6,7=1,11=2,16=1,25=1,30=1,71=1,74=-5/1,2,3;
 4/5=5,16=3/1;
 5/5=2,8=3,13=1,32=2,38=5/2,8;
 7//1,2,3,16;
 1/14=-1,18=20,19=15/3(-5);
 2/9=110/2;
 6/7=2,8=2,9=2,10=2,19=2,28=1/1;
 99/9=1/99;
 Leave Link    1 at Fri Sep  3 00:05:30 2021, MaxMem=  268435456 cpu:       0.0
 (Enter /sw/target/amd/app/gaussian/Gaussian09RevA.02_gcc-4.9.2/g09/l101.exe)
 ---------------
 opt calculation
 ---------------
 Symbolic Z-matrix:
 Charge =  0 Multiplicity = 1
 C                    -1.23009   2.13403  -0.52909 
 Si                   -1.46036   0.28393  -0.71929 
 C                    -1.41254  -0.17742  -2.53526 
 O                    -0.32885  -0.57993   0.16884 
 C                     1.02984  -0.57909   0.01266 
 C                     1.62616  -1.56569  -0.76537 
 C                     3.01353  -1.58078  -0.91389 
 C                     3.81355  -0.61885  -0.27458 
 C                     5.21051  -0.61961  -0.41507 
 C                     5.99321   0.33843   0.23154 
 C                     5.39043   1.30808   1.02758 
 C                     4.00298   1.32341   1.17867 
 C                     3.20063   0.36862   0.53347 
 C                     1.80439   0.3721    0.67499 
 C                    -3.16594  -0.1976   -0.00718 
 C                    -3.27491  -1.09631   1.06846 
 C                    -4.52685  -1.44194   1.58258 
 C                    -5.68449  -0.89707   1.03223 
 C                    -5.59352  -0.00507  -0.03365 
 C                    -4.34423   0.34437  -0.55206 
 H                    -2.0078    2.68172  -1.06964 
 H                    -0.25907   2.44536  -0.92557 
 H                    -1.27692   2.42401   0.52483 
 H                    -2.18533   0.35793  -3.09485 
 H                    -1.5764   -1.25117  -2.66656 
 H                    -0.44164   0.07504  -2.97191 
 H                     1.01854  -2.32165  -1.25405 
 H                     3.46822  -2.35363  -1.52935 
 H                     5.70093  -1.37057  -1.0304 
 H                     7.07369   0.32535   0.11437 
 H                     5.99955   2.05313   1.53278 
 H                     3.55081   2.08847   1.80592 
 H                     1.31756   1.11281   1.3036 
 H                    -2.38793  -1.53883   1.52002 
 H                    -4.59612  -2.13806   2.4144 
 H                    -6.65695  -1.16775   1.4342 
 H                    -6.49698   0.42008  -0.46294 
 H                    -4.3076    1.04415  -1.38508 
 
 NAtoms=     38 NQM=     38 NQMF=      0 NMic=      0 NMicF=      0 NTot=     38.
                    Isotopes and Nuclear Properties:
 (Nuclear quadrupole moments (NQMom) in fm**2, nuclear magnetic moments (NMagM)
  in nuclear magnetons)

  Atom         1           2           3           4           5           6           7           8           9          10
 IAtWgt=          12          28          12          16          12          12          12          12          12          12
 AtmWgt=  12.0000000  27.9769284  12.0000000  15.9949146  12.0000000  12.0000000  12.0000000  12.0000000  12.0000000  12.0000000
 NucSpn=           0           0           0           0           0           0           0           0           0           0
 AtZEff=   0.0000000   0.0000000   0.0000000   0.0000000   0.0000000   0.0000000   0.0000000   0.0000000   0.0000000   0.0000000
 NQMom=    0.0000000   0.0000000   0.0000000   0.0000000   0.0000000   0.0000000   0.0000000   0.0000000   0.0000000   0.0000000
 NMagM=    0.0000000   0.0000000   0.0000000   0.0000000   0.0000000   0.0000000   0.0000000   0.0000000   0.0000000   0.0000000

  Atom        11          12          13          14          15          16          17          18          19          20
 IAtWgt=          12          12          12          12          12          12          12          12          12          12
 AtmWgt=  12.0000000  12.0000000  12.0000000  12.0000000  12.0000000  12.0000000  12.0000000  12.0000000  12.0000000  12.0000000
 NucSpn=           0           0           0           0           0           0           0           0           0           0
 AtZEff=   0.0000000   0.0000000   0.0000000   0.0000000   0.0000000   0.0000000   0.0000000   0.0000000   0.0000000   0.0000000
 NQMom=    0.0000000   0.0000000   0.0000000   0.0000000   0.0000000   0.0000000   0.0000000   0.0000000   0.0000000   0.0000000
 NMagM=    0.0000000   0.0000000   0.0000000   0.0000000   0.0000000   0.0000000   0.0000000   0.0000000   0.0000000   0.0000000

  Atom        21          22          23          24          25          26          27          28          29          30
 IAtWgt=           1           1           1           1           1           1           1           1           1           1
 AtmWgt=   1.0078250   1.0078250   1.0078250   1.0078250   1.0078250   1.0078250   1.0078250   1.0078250   1.0078250   1.0078250
 NucSpn=           1           1           1           1           1           1           1           1           1           1
 AtZEff=   0.0000000   0.0000000   0.0000000   0.0000000   0.0000000   0.0000000   0.0000000   0.0000000   0.0000000   0.0000000
 NQMom=    0.0000000   0.0000000   0.0000000   0.0000000   0.0000000   0.0000000   0.0000000   0.0000000   0.0000000   0.0000000
 NMagM=    2.7928460   2.7928460   2.7928460   2.7928460   2.7928460   2.7928460   2.7928460   2.7928460   2.7928460   2.7928460

  Atom        31          32          33          34          35          36          37          38
 IAtWgt=           1           1           1           1           1           1           1           1
 AtmWgt=   1.0078250   1.0078250   1.0078250   1.0078250   1.0078250   1.0078250   1.0078250   1.0078250
 NucSpn=           1           1           1           1           1           1           1           1
 AtZEff=   0.0000000   0.0000000   0.0000000   0.0000000   0.0000000   0.0000000   0.0000000   0.0000000
 NQMom=    0.0000000   0.0000000   0.0000000   0.0000000   0.0000000   0.0000000   0.0000000   0.0000000
 NMagM=    2.7928460   2.7928460   2.7928460   2.7928460   2.7928460   2.7928460   2.7928460   2.7928460
 Leave Link  101 at Fri Sep  3 00:05:30 2021, MaxMem=  268435456 cpu:       0.1
 (Enter /sw/target/amd/app/gaussian/Gaussian09RevA.02_gcc-4.9.2/g09/l103.exe)

 GradGradGradGradGradGradGradGradGradGradGradGradGradGradGradGradGradGrad
 Berny optimization.
 Initialization pass.
                           ----------------------------
                           !    Initial Parameters    !
                           ! (Angstroms and Degrees)  !
 --------------------------                            --------------------------
 ! Name  Definition              Value          Derivative Info.                !
 --------------------------------------------------------------------------------
 ! R1    R(1,2)                  1.874          estimate D2E/DX2                !
 ! R2    R(1,21)                 1.0941         estimate D2E/DX2                !
 ! R3    R(1,22)                 1.0941         estimate D2E/DX2                !
 ! R4    R(1,23)                 1.0941         estimate D2E/DX2                !
 ! R5    R(2,3)                  1.8743         estimate D2E/DX2                !
 ! R6    R(2,4)                  1.6779         estimate D2E/DX2                !
 ! R7    R(2,15)                 1.91           estimate D2E/DX2                !
 ! R8    R(3,24)                 1.0941         estimate D2E/DX2                !
 ! R9    R(3,25)                 1.0941         estimate D2E/DX2                !
 ! R10   R(3,26)                 1.0941         estimate D2E/DX2                !
 ! R11   R(4,5)                  1.3676         estimate D2E/DX2                !
 ! R12   R(5,6)                  1.3908         estimate D2E/DX2                !
 ! R13   R(5,14)                 1.3941         estimate D2E/DX2                !
 ! R14   R(6,7)                  1.3954         estimate D2E/DX2                !
 ! R15   R(6,27)                 1.086          estimate D2E/DX2                !
 ! R16   R(7,8)                  1.405          estimate D2E/DX2                !
 ! R17   R(7,28)                 1.0876         estimate D2E/DX2                !
 ! R18   R(8,9)                  1.404          estimate D2E/DX2                !
 ! R19   R(8,13)                 1.4155         estimate D2E/DX2                !
 ! R20   R(9,10)                 1.3959         estimate D2E/DX2                !
 ! R21   R(9,29)                 1.0877         estimate D2E/DX2                !
 ! R22   R(10,11)                1.3918         estimate D2E/DX2                !
 ! R23   R(10,30)                1.0869         estimate D2E/DX2                !
 ! R24   R(11,12)                1.3957         estimate D2E/DX2                !
 ! R25   R(11,31)                1.0869         estimate D2E/DX2                !
 ! R26   R(12,13)                1.4042         estimate D2E/DX2                !
 ! R27   R(12,32)                1.0878         estimate D2E/DX2                !
 ! R28   R(13,14)                1.4034         estimate D2E/DX2                !
 ! R29   R(14,33)                1.0866         estimate D2E/DX2                !
 ! R30   R(15,16)                1.4059         estimate D2E/DX2                !
 ! R31   R(15,20)                1.4068         estimate D2E/DX2                !
 ! R32   R(16,17)                1.3968         estimate D2E/DX2                !
 ! R33   R(16,34)                1.0893         estimate D2E/DX2                !
 ! R34   R(17,18)                1.3928         estimate D2E/DX2                !
 ! R35   R(17,35)                1.0869         estimate D2E/DX2                !
 ! R36   R(18,19)                1.3929         estimate D2E/DX2                !
 ! R37   R(18,36)                1.0865         estimate D2E/DX2                !
 ! R38   R(19,20)                1.397          estimate D2E/DX2                !
 ! R39   R(19,37)                1.0869         estimate D2E/DX2                !
 ! R40   R(20,38)                1.0886         estimate D2E/DX2                !
 ! A1    A(2,1,21)             110.8982         estimate D2E/DX2                !
 ! A2    A(2,1,22)             110.6838         estimate D2E/DX2                !
 ! A3    A(2,1,23)             110.742          estimate D2E/DX2                !
 ! A4    A(21,1,22)            108.0227         estimate D2E/DX2                !
 ! A5    A(21,1,23)            108.2289         estimate D2E/DX2                !
 ! A6    A(22,1,23)            108.1589         estimate D2E/DX2                !
 ! A7    A(1,2,3)              109.7672         estimate D2E/DX2                !
 ! A8    A(1,2,4)              111.8194         estimate D2E/DX2                !
 ! A9    A(1,2,15)             108.7105         estimate D2E/DX2                !
 ! A10   A(3,2,4)              111.6484         estimate D2E/DX2                !
 ! A11   A(3,2,15)             108.7818         estimate D2E/DX2                !
 ! A12   A(4,2,15)             105.9652         estimate D2E/DX2                !
 ! A13   A(2,3,24)             110.9225         estimate D2E/DX2                !
 ! A14   A(2,3,25)             110.7338         estimate D2E/DX2                !
 ! A15   A(2,3,26)             110.6417         estimate D2E/DX2                !
 ! A16   A(24,3,25)            108.2439         estimate D2E/DX2                !
 ! A17   A(24,3,26)            108.046          estimate D2E/DX2                !
 ! A18   A(25,3,26)            108.1477         estimate D2E/DX2                !
 ! A19   A(2,4,5)              127.531          estimate D2E/DX2                !
 ! A20   A(4,5,6)              119.3018         estimate D2E/DX2                !
 ! A21   A(4,5,14)             119.8768         estimate D2E/DX2                !
 ! A22   A(6,5,14)             120.7692         estimate D2E/DX2                !
 ! A23   A(5,6,7)              119.572          estimate D2E/DX2                !
 ! A24   A(5,6,27)             120.3722         estimate D2E/DX2                !
 ! A25   A(7,6,27)             120.0557         estimate D2E/DX2                !
 ! A26   A(6,7,8)              120.684          estimate D2E/DX2                !
 ! A27   A(6,7,28)             118.9206         estimate D2E/DX2                !
 ! A28   A(8,7,28)             120.3946         estimate D2E/DX2                !
 ! A29   A(7,8,9)              121.3756         estimate D2E/DX2                !
 ! A30   A(7,8,13)             119.3933         estimate D2E/DX2                !
 ! A31   A(9,8,13)             119.2305         estimate D2E/DX2                !
 ! A32   A(8,9,10)             120.7417         estimate D2E/DX2                !
 ! A33   A(8,9,29)             120.3711         estimate D2E/DX2                !
 ! A34   A(10,9,29)            118.8871         estimate D2E/DX2                !
 ! A35   A(9,10,11)            120.0157         estimate D2E/DX2                !
 ! A36   A(9,10,30)            119.9474         estimate D2E/DX2                !
 ! A37   A(11,10,30)           120.0367         estimate D2E/DX2                !
 ! A38   A(10,11,12)           120.0042         estimate D2E/DX2                !
 ! A39   A(10,11,31)           120.0456         estimate D2E/DX2                !
 ! A40   A(12,11,31)           119.9502         estimate D2E/DX2                !
 ! A41   A(11,12,13)           120.7175         estimate D2E/DX2                !
 ! A42   A(11,12,32)           118.9053         estimate D2E/DX2                !
 ! A43   A(13,12,32)           120.3773         estimate D2E/DX2                !
 ! A44   A(8,13,12)            119.2902         estimate D2E/DX2                !
 ! A45   A(8,13,14)            119.3463         estimate D2E/DX2                !
 ! A46   A(12,13,14)           121.3633         estimate D2E/DX2                !
 ! A47   A(5,14,13)            120.2101         estimate D2E/DX2                !
 ! A48   A(5,14,33)            119.4081         estimate D2E/DX2                !
 ! A49   A(13,14,33)           120.3815         estimate D2E/DX2                !
 ! A50   A(2,15,16)            121.0398         estimate D2E/DX2                !
 ! A51   A(2,15,20)            120.4255         estimate D2E/DX2                !
 ! A52   A(16,15,20)           118.5347         estimate D2E/DX2                !
 ! A53   A(15,16,17)           120.6136         estimate D2E/DX2                !
 ! A54   A(15,16,34)           120.9145         estimate D2E/DX2                !
 ! A55   A(17,16,34)           118.472          estimate D2E/DX2                !
 ! A56   A(16,17,18)           120.1792         estimate D2E/DX2                !
 ! A57   A(16,17,35)           119.8206         estimate D2E/DX2                !
 ! A58   A(18,17,35)           120.0002         estimate D2E/DX2                !
 ! A59   A(17,18,19)           119.9093         estimate D2E/DX2                !
 ! A60   A(17,18,36)           120.0171         estimate D2E/DX2                !
 ! A61   A(19,18,36)           120.0736         estimate D2E/DX2                !
 ! A62   A(18,19,20)           120.1705         estimate D2E/DX2                !
 ! A63   A(18,19,37)           119.8988         estimate D2E/DX2                !
 ! A64   A(20,19,37)           119.9306         estimate D2E/DX2                !
 ! A65   A(15,20,19)           120.5927         estimate D2E/DX2                !
 ! A66   A(15,20,38)           121.056          estimate D2E/DX2                !
 ! A67   A(19,20,38)           118.3513         estimate D2E/DX2                !
 ! D1    D(21,1,2,3)            58.6056         estimate D2E/DX2                !
 ! D2    D(21,1,2,4)          -176.9128         estimate D2E/DX2                !
 ! D3    D(21,1,2,15)          -60.2713         estimate D2E/DX2                !
 ! D4    D(22,1,2,3)           -61.2723         estimate D2E/DX2                !
 ! D5    D(22,1,2,4)            63.2092         estimate D2E/DX2                !
 ! D6    D(22,1,2,15)          179.8507         estimate D2E/DX2                !
 ! D7    D(23,1,2,3)           178.7811         estimate D2E/DX2                !
 ! D8    D(23,1,2,4)           -56.7373         estimate D2E/DX2                !
 ! D9    D(23,1,2,15)           59.9042         estimate D2E/DX2                !
 ! D10   D(1,2,3,24)           -58.0514         estimate D2E/DX2                !
 ! D11   D(1,2,3,25)          -178.2563         estimate D2E/DX2                !
 ! D12   D(1,2,3,26)            61.844          estimate D2E/DX2                !
 ! D13   D(4,2,3,24)           177.368          estimate D2E/DX2                !
 ! D14   D(4,2,3,25)            57.1631         estimate D2E/DX2                !
 ! D15   D(4,2,3,26)           -62.7366         estimate D2E/DX2                !
 ! D16   D(15,2,3,24)           60.7816         estimate D2E/DX2                !
 ! D17   D(15,2,3,25)          -59.4233         estimate D2E/DX2                !
 ! D18   D(15,2,3,26)         -179.323          estimate D2E/DX2                !
 ! D19   D(1,2,4,5)            -62.7132         estimate D2E/DX2                !
 ! D20   D(3,2,4,5)             60.7122         estimate D2E/DX2                !
 ! D21   D(15,2,4,5)           178.9963         estimate D2E/DX2                !
 ! D22   D(1,2,15,16)         -119.3318         estimate D2E/DX2                !
 ! D23   D(1,2,15,20)           60.6299         estimate D2E/DX2                !
 ! D24   D(3,2,15,16)          121.1744         estimate D2E/DX2                !
 ! D25   D(3,2,15,20)          -58.864          estimate D2E/DX2                !
 ! D26   D(4,2,15,16)            1.0034         estimate D2E/DX2                !
 ! D27   D(4,2,15,20)         -179.035          estimate D2E/DX2                !
 ! D28   D(2,4,5,6)            -94.9868         estimate D2E/DX2                !
 ! D29   D(2,4,5,14)            87.6174         estimate D2E/DX2                !
 ! D30   D(4,5,6,7)           -179.1442         estimate D2E/DX2                !
 ! D31   D(4,5,6,27)             0.76           estimate D2E/DX2                !
 ! D32   D(14,5,6,7)            -1.7723         estimate D2E/DX2                !
 ! D33   D(14,5,6,27)          178.1319         estimate D2E/DX2                !
 ! D34   D(4,5,14,13)          179.1728         estimate D2E/DX2                !
 ! D35   D(4,5,14,33)           -0.6137         estimate D2E/DX2                !
 ! D36   D(6,5,14,13)            1.8159         estimate D2E/DX2                !
 ! D37   D(6,5,14,33)         -177.9706         estimate D2E/DX2                !
 ! D38   D(5,6,7,8)              0.6751         estimate D2E/DX2                !
 ! D39   D(5,6,7,28)          -179.6499         estimate D2E/DX2                !
 ! D40   D(27,6,7,8)          -179.2294         estimate D2E/DX2                !
 ! D41   D(27,6,7,28)            0.4455         estimate D2E/DX2                !
 ! D42   D(6,7,8,9)           -179.934          estimate D2E/DX2                !
 ! D43   D(6,7,8,13)             0.3664         estimate D2E/DX2                !
 ! D44   D(28,7,8,9)             0.3959         estimate D2E/DX2                !
 ! D45   D(28,7,8,13)         -179.3038         estimate D2E/DX2                !
 ! D46   D(7,8,9,10)          -179.6769         estimate D2E/DX2                !
 ! D47   D(7,8,9,29)             0.2212         estimate D2E/DX2                !
 ! D48   D(13,8,9,10)            0.0233         estimate D2E/DX2                !
 ! D49   D(13,8,9,29)          179.9214         estimate D2E/DX2                !
 ! D50   D(7,8,13,12)          179.5711         estimate D2E/DX2                !
 ! D51   D(7,8,13,14)           -0.3295         estimate D2E/DX2                !
 ! D52   D(9,8,13,12)           -0.1351         estimate D2E/DX2                !
 ! D53   D(9,8,13,14)          179.9643         estimate D2E/DX2                !
 ! D54   D(8,9,10,11)            0.0704         estimate D2E/DX2                !
 ! D55   D(8,9,10,30)          179.9542         estimate D2E/DX2                !
 ! D56   D(29,9,10,11)        -179.8292         estimate D2E/DX2                !
 ! D57   D(29,9,10,30)           0.0546         estimate D2E/DX2                !
 ! D58   D(9,10,11,12)          -0.0506         estimate D2E/DX2                !
 ! D59   D(9,10,11,31)         179.8846         estimate D2E/DX2                !
 ! D60   D(30,10,11,12)       -179.9343         estimate D2E/DX2                !
 ! D61   D(30,10,11,31)          0.001          estimate D2E/DX2                !
 ! D62   D(10,11,12,13)         -0.0637         estimate D2E/DX2                !
 ! D63   D(10,11,12,32)        179.9271         estimate D2E/DX2                !
 ! D64   D(31,11,12,13)       -179.999          estimate D2E/DX2                !
 ! D65   D(31,11,12,32)         -0.0082         estimate D2E/DX2                !
 ! D66   D(11,12,13,8)           0.1564         estimate D2E/DX2                !
 ! D67   D(11,12,13,14)       -179.945          estimate D2E/DX2                !
 ! D68   D(32,12,13,8)        -179.8343         estimate D2E/DX2                !
 ! D69   D(32,12,13,14)          0.0643         estimate D2E/DX2                !
 ! D70   D(8,13,14,5)           -0.7466         estimate D2E/DX2                !
 ! D71   D(8,13,14,33)         179.0378         estimate D2E/DX2                !
 ! D72   D(12,13,14,5)         179.3549         estimate D2E/DX2                !
 ! D73   D(12,13,14,33)         -0.8607         estimate D2E/DX2                !
 ! D74   D(2,15,16,17)         179.978          estimate D2E/DX2                !
 ! D75   D(2,15,16,34)          -0.0213         estimate D2E/DX2                !
 ! D76   D(20,15,16,17)          0.0156         estimate D2E/DX2                !
 ! D77   D(20,15,16,34)       -179.9837         estimate D2E/DX2                !
 ! D78   D(2,15,20,19)        -179.9789         estimate D2E/DX2                !
 ! D79   D(2,15,20,38)           0.0177         estimate D2E/DX2                !
 ! D80   D(16,15,20,19)         -0.0163         estimate D2E/DX2                !
 ! D81   D(16,15,20,38)        179.9803         estimate D2E/DX2                !
 ! D82   D(15,16,17,18)         -0.0058         estimate D2E/DX2                !
 ! D83   D(15,16,17,35)        179.9965         estimate D2E/DX2                !
 ! D84   D(34,16,17,18)        179.9935         estimate D2E/DX2                !
 ! D85   D(34,16,17,35)         -0.0042         estimate D2E/DX2                !
 ! D86   D(16,17,18,19)         -0.0036         estimate D2E/DX2                !
 ! D87   D(16,17,18,36)        179.9999         estimate D2E/DX2                !
 ! D88   D(35,17,18,19)        179.9941         estimate D2E/DX2                !
 ! D89   D(35,17,18,36)         -0.0024         estimate D2E/DX2                !
 ! D90   D(17,18,19,20)          0.0028         estimate D2E/DX2                !
 ! D91   D(17,18,19,37)       -179.9948         estimate D2E/DX2                !
 ! D92   D(36,18,19,20)        179.9993         estimate D2E/DX2                !
 ! D93   D(36,18,19,37)          0.0017         estimate D2E/DX2                !
 ! D94   D(18,19,20,15)          0.0073         estimate D2E/DX2                !
 ! D95   D(18,19,20,38)       -179.9894         estimate D2E/DX2                !
 ! D96   D(37,19,20,15)       -179.9951         estimate D2E/DX2                !
 ! D97   D(37,19,20,38)          0.0082         estimate D2E/DX2                !
 --------------------------------------------------------------------------------
 Trust Radius=3.00D-01 FncErr=1.00D-07 GrdErr=1.00D-06
 Number of steps in this run= 214 maximum allowed number of steps= 228.
 GradGradGradGradGradGradGradGradGradGradGradGradGradGradGradGradGradGrad

 Leave Link  103 at Fri Sep  3 00:05:30 2021, MaxMem=  268435456 cpu:       0.0
 (Enter /sw/target/amd/app/gaussian/Gaussian09RevA.02_gcc-4.9.2/g09/l202.exe)
                          Input orientation:                          
 ---------------------------------------------------------------------
 Center     Atomic      Atomic             Coordinates (Angstroms)
 Number     Number       Type             X           Y           Z
 ---------------------------------------------------------------------
      1          6           0       -1.230085    2.134025   -0.529093
      2         14           0       -1.460364    0.283933   -0.719285
      3          6           0       -1.412543   -0.177418   -2.535258
      4          8           0       -0.328845   -0.579927    0.168844
      5          6           0        1.029836   -0.579091    0.012661
      6          6           0        1.626157   -1.565686   -0.765368
      7          6           0        3.013527   -1.580776   -0.913888
      8          6           0        3.813548   -0.618852   -0.274578
      9          6           0        5.210508   -0.619611   -0.415073
     10          6           0        5.993205    0.338429    0.231543
     11          6           0        5.390432    1.308083    1.027581
     12          6           0        4.002975    1.323407    1.178673
     13          6           0        3.200631    0.368619    0.533465
     14          6           0        1.804390    0.372104    0.674990
     15          6           0       -3.165938   -0.197603   -0.007182
     16          6           0       -3.274910   -1.096312    1.068458
     17          6           0       -4.526853   -1.441940    1.582584
     18          6           0       -5.684489   -0.897074    1.032227
     19          6           0       -5.593517   -0.005071   -0.033653
     20          6           0       -4.344232    0.344370   -0.552058
     21          1           0       -2.007804    2.681716   -1.069641
     22          1           0       -0.259069    2.445364   -0.925572
     23          1           0       -1.276923    2.424011    0.524828
     24          1           0       -2.185333    0.357933   -3.094849
     25          1           0       -1.576402   -1.251174   -2.666556
     26          1           0       -0.441637    0.075043   -2.971905
     27          1           0        1.018544   -2.321650   -1.254054
     28          1           0        3.468224   -2.353629   -1.529347
     29          1           0        5.700927   -1.370573   -1.030396
     30          1           0        7.073693    0.325353    0.114372
     31          1           0        5.999547    2.053131    1.532782
     32          1           0        3.550811    2.088468    1.805920
     33          1           0        1.317561    1.112811    1.303602
     34          1           0       -2.387926   -1.538829    1.520023
     35          1           0       -4.596117   -2.138055    2.414398
     36          1           0       -6.656954   -1.167754    1.434201
     37          1           0       -6.496979    0.420076   -0.462937
     38          1           0       -4.307596    1.044147   -1.385080
 ---------------------------------------------------------------------
                    Distance matrix (angstroms):
                    1          2          3          4          5
     1  C    0.000000
     2  Si   1.874044   0.000000
     3  C    3.066066   1.874270   0.000000
     4  O    2.943618   1.677904   2.940847   0.000000
     5  C    3.572358   2.735261   3.552245   1.367629   0.000000
     6  C    4.679937   3.598587   3.780674   2.380442   1.390790
     7  C    5.652969   4.850846   4.918165   3.653144   2.407674
     8  C    5.751638   5.369072   5.711179   4.166240   2.798775
     9  C    7.005480   6.738655   6.968179   5.570185   4.202692
    10  C    7.481888   7.514169   7.922524   6.388711   5.052206
    11  C    6.851033   7.143797   7.821829   6.083760   4.858630
    12  C    5.564035   5.876293   6.735992   4.838088   3.717343
    13  C    4.886403   4.827155   5.567458   3.672858   2.425230
    14  C    3.709747   3.551112   4.577808   2.390238   1.394054
    15  C    3.075127   1.909961   3.076682   2.868145   4.213128
    16  C    4.143496   2.897185   4.159272   3.123341   4.462406
    17  C    5.302394   4.204830   5.315502   4.512760   5.838318
    18  C    5.609545   4.722902   5.611985   5.434053   6.798734
    19  C    4.884745   4.199591   4.875272   5.299834   6.648342
    20  C    3.591839   2.889345   3.577729   4.182984   5.481997
    21  H    1.094077   2.484311   3.267570   3.871829   4.586011
    22  H    1.094075   2.481421   3.286423   3.217919   3.418901
    23  H    1.094091   2.482217   4.018700   3.170050   3.821266
    24  H    3.263450   2.484826   1.094051   3.870119   4.568582
    25  H    4.018489   2.482314   1.094094   3.169616   3.797680
    26  H    3.290652   2.481076   1.094100   3.210298   3.391277
    27  H    5.043307   3.635935   3.485599   2.621773   2.154346
    28  H    6.573709   5.648355   5.437797   4.521903   3.387109
    29  H    7.782830   7.356512   7.368153   6.198504   4.851134
    30  H    8.522797   8.574779   8.904466   7.457886   6.112002
    31  H    7.518341   7.990753   8.744334   6.988696   5.825580
    32  H    5.320839   5.894479   6.972442   4.985186   4.084968
    33  H    3.300326   3.534965   4.884159   2.619865   2.147521
    34  H    4.362262   3.032710   4.387495   2.642914   3.856726
    35  H    6.184252   5.051628   6.203091   5.067533   6.312690
    36  H    6.648848   5.809427   6.651407   6.480095   7.839263
    37  H    5.539149   5.044972   5.522952   6.280528   7.607725
    38  H    3.375148   3.021248   3.346112   4.569765   5.751240
                    6          7          8          9         10
     6  C    0.000000
     7  C    1.395379   0.000000
     8  C    2.433526   1.405008   0.000000
     9  C    3.723619   2.449363   1.404007   0.000000
    10  C    4.867298   3.724761   2.433814   1.395911   0.000000
    11  C    5.063890   4.214794   2.809850   2.414462   1.391848
    12  C    4.216090   3.713771   2.433144   2.788096   2.414177
    13  C    2.812023   2.435155   1.415521   2.432268   2.809010
    14  C    2.421039   2.792899   2.433185   3.711250   4.212357
    15  C    5.040900   6.396958   6.997298   8.396982   9.177920
    16  C    5.253921   6.611266   7.230349   8.627307   9.415777
    17  C    6.586936   7.944116   8.584219   9.974119  10.754843
    18  C    7.558038   8.939256   9.591551  10.994209  11.770136
    19  C    7.422575   8.794252   9.430145  10.828208  11.594846
    20  C    6.272110   7.614048   8.219134   9.604222  10.367096
    21  H    5.598096   6.588388   6.738992   7.964374   8.438022
    22  H    4.434892   5.188432   5.138037   6.290545   6.698434
    23  H    5.100016   6.042862   5.984226   7.227296   7.569044
    24  H    4.863563   5.961823   6.700344   7.926869   8.829142
    25  H    3.737622   4.924219   5.930679   7.178454   8.259828
    26  H    3.440432   4.349176   5.085633   6.242329   7.192958
    27  H    1.086043   2.155125   3.416276   4.601455   5.833547
    28  H    2.144232   1.087585   2.168674   2.698885   4.089430
    29  H    4.088039   2.698125   2.167613   1.087693   2.144436
    30  H    5.833148   4.601695   3.416336   2.155163   1.086901
    31  H    6.124040   5.301678   3.896747   3.400040   2.152549
    32  H    4.865044   4.598846   3.424483   3.875706   3.392136
    33  H    3.398561   3.879301   3.423340   4.594580   4.859077
    34  H    4.619155   5.924641   6.521137   7.894666   8.684908
    35  H    7.011078   8.324346   8.958852  10.318986  11.091960
    36  H    8.579416   9.960036  10.623212  12.023183  12.796152
    37  H    8.367799   9.729157  10.364450  11.753659  12.509743
    38  H    6.511889   7.791732   8.363717   9.710989  10.450742
                   11         12         13         14         15
    11  C    0.000000
    12  C    1.395744   0.000000
    13  C    2.433510   1.404161   0.000000
    14  C    3.722912   2.447948   1.403400   0.000000
    15  C    8.749245   7.423816   6.414523   5.049167   0.000000
    16  C    8.992827   7.670384   6.660696   5.301920   1.405900
    17  C   10.306464   8.975982   8.005797   6.648242   2.434712
    18  C   11.292325   9.939766   8.988665   7.604061   2.812957
    19  C   11.112953   9.763567   8.820335   7.441335   2.435346
    20  C    9.908970   8.580781   7.622592   6.269926   1.406770
    21  H    7.811473   6.559679   5.920149   4.786530   3.280331
    22  H    6.084823   4.883815   4.290825   3.334377   4.034675
    23  H    6.778767   5.432878   4.926784   3.705045   3.274793
    24  H    8.676948   7.582235   6.494104   5.489060   3.286928
    25  H    8.290550   7.248703   5.973601   5.023019   3.272447
    26  H    7.178392   6.208082   5.063588   4.293335   4.035559
    27  H    6.123253   5.302021   3.897983   3.405154   4.855528
    28  H    4.862191   4.597817   3.425994   3.880343   7.139856
    29  H    3.392178   3.875636   3.423730   4.596549   9.002451
    30  H    2.152458   3.399729   3.895911   5.299248  10.253697
    31  H    1.086897   2.155038   3.416160   4.600109   9.562605
    32  H    2.144532   1.087754   2.167867   2.697201   7.323126
    33  H    4.086881   2.696555   2.166307   1.086647   4.851505
    34  H    8.297606   7.010887   5.986954   4.684150   2.176360
    35  H   10.655059   9.351637   8.403012   7.091751   3.416843
    36  H   12.305877  10.950126  10.017173   8.633765   3.899483
    37  H   12.013357  10.665830   9.748800   8.379135   3.418344
    38  H    9.997117   8.701517   7.778858   6.484744   2.178056
                   16         17         18         19         20
    16  C    0.000000
    17  C    1.396834   0.000000
    18  C    2.418073   1.392800   0.000000
    19  C    2.789515   2.411345   1.392855   0.000000
    20  C    2.417661   2.789435   2.418146   1.396985   0.000000
    21  H    4.522225   5.512209   5.544691   4.598851   3.345142
    22  H    5.061119   6.294121   6.666337   5.937717   4.608931
    23  H    4.084135   5.160084   5.541994   4.984508   3.859142
    24  H    4.542591   5.531784   5.554448   4.595477   3.335688
    25  H    4.106001   5.176557   5.539202   4.962073   3.831155
    26  H    5.071887   6.303459   6.668252   5.931409   4.599831
    27  H    5.032819   6.290615   7.224067   7.111629   6.029911
    28  H    7.334800   8.627662   9.615372   9.479872   8.322786
    29  H    9.222042  10.556526  11.580428  11.420270  10.201718
    30  H   10.489280  11.825888  12.849436  12.672383  11.437373
    31  H    9.805618  11.091578  12.061134  11.878091  10.689256
    32  H    7.568166   8.818294   9.736674   9.559585   8.422211
    33  H    5.101598   6.384494   7.289855   7.127476   6.007485
    34  H    1.089253   2.142034   3.393689   3.878419   3.415712
    35  H    2.154616   1.086871   2.152901   3.396672   3.876305
    36  H    3.402513   2.152795   1.086526   2.153445   3.403003
    37  H    3.876381   3.395976   2.151869   1.086866   2.155921
    38  H    3.415824   3.877594   3.392277   2.140282   1.088557
                   21         22         23         24         25
    21  H    0.000000
    22  H    1.770506   0.000000
    23  H    1.772831   1.772045   0.000000
    24  H    3.087548   3.574021   4.265671   0.000000
    25  H    4.266599   4.293109   4.876639   1.772980   0.000000
    26  H    3.586953   3.136755   4.294473   1.770768   1.771943
    27  H    5.850339   4.946172   5.563712   4.564375   3.142424
    28  H    7.453383   6.106357   7.040021   6.462668   5.287429
    29  H    8.709025   7.077706   8.093700   8.333234   7.459946
    30  H    9.456634   7.703592   8.620071   9.799476   9.221884
    31  H    8.443068   6.735549   7.355307   9.554105   9.270808
    32  H    6.286414   4.701448   5.006076   7.740519   7.579219
    33  H    4.376277   3.038203   3.009499   5.673313   5.452119
    34  H    4.966271   5.136805   4.234246   4.993575   4.274197
    35  H    6.485991   7.139546   5.949787   6.511040   5.976732
    36  H    6.534695   7.717259   6.532417   6.544877   6.529562
    37  H    5.063181   6.574750   5.678065   5.051843   5.644563
    38  H    2.840806   4.308727   3.838848   2.810374   3.790791
                   26         27         28         29         30
    26  H    0.000000
    27  H    3.290483   0.000000
    28  H    4.823529   2.465307   0.000000
    29  H    6.602299   4.783229   2.490043   0.000000
    30  H    8.128219   6.748633   4.783112   2.463969   0.000000
    31  H    8.105177   7.191353   5.933276   4.287284   2.480099
    32  H    6.543786   5.935062   5.555452   4.963129   4.287261
    33  H    4.738323   4.292614   4.966604   5.552354   5.930212
    34  H    5.154614   4.462326   6.652597   8.483071   9.745423
    35  H    7.153305   6.709371   8.979599  10.885070  12.146726
    36  H    7.719357   8.214101  10.616409  12.602880  13.874508
    37  H    6.563622   8.039031  10.398843  12.341691  13.583276
    38  H    4.289850   6.301867   8.486994  10.301806  11.502120
                   31         32         33         34         35
    31  H    0.000000
    32  H    2.464176   0.000000
    33  H    4.780975   2.488300   0.000000
    34  H    9.124256   6.964741   4.561652   0.000000
    35  H   11.428534   9.198162   6.839122   2.456641   0.000000
    36  H   13.060277  10.720990   8.295235   4.285984   2.479782
    37  H   12.759817  10.435005   8.041615   4.965255   4.293759
    38  H   10.759608   8.545622   6.235072   4.335496   4.964442
                   36         37         38
    36  H    0.000000
    37  H    2.479098   0.000000
    38  H    4.284896   2.456259   0.000000
 Stoichiometry    C18H18OSi
 Framework group  C1[X(C18H18OSi)]
 Deg. of freedom   108
 Full point group                 C1      NOp   1
 Largest Abelian subgroup         C1      NOp   1
 Largest concise Abelian subgroup C1      NOp   1
                         Standard orientation:                         
 ---------------------------------------------------------------------
 Center     Atomic      Atomic             Coordinates (Angstroms)
 Number     Number       Type             X           Y           Z
 ---------------------------------------------------------------------
      1          6           0       -1.166055   -1.525599    1.772780
      2         14           0       -1.494387    0.047146    0.808045
      3          6           0       -1.476459    1.518391    1.969082
      4          8           0       -0.407466    0.242267   -0.455242
      5          6           0        0.948886    0.396010   -0.371092
      6          6           0        1.489884    1.677266   -0.369522
      7          6           0        2.874065    1.840241   -0.301976
      8          6           0        3.725731    0.723998   -0.249866
      9          6           0        5.120270    0.871152   -0.180283
     10          6           0        5.954453   -0.247209   -0.135818
     11          6           0        5.406170   -1.526252   -0.161781
     12          6           0        4.021922   -1.690979   -0.231225
     13          6           0        3.168296   -0.576914   -0.274251
     14          6           0        1.774622   -0.726825   -0.343019
     15          6           0       -3.220894   -0.078294    0.000958
     16          6           0       -3.374004   -0.023797   -1.395517
     17          6           0       -4.640924   -0.116875   -1.976375
     18          6           0       -5.769779   -0.265356   -1.174170
     19          6           0       -5.634968   -0.321253    0.211019
     20          6           0       -4.370514   -0.228716    0.797669
     21          1           0       -1.915346   -1.665637    2.557608
     22          1           0       -0.181128   -1.489107    2.247741
     23          1           0       -1.194342   -2.397924    1.113019
     24          1           0       -2.221538    1.399925    2.761401
     25          1           0       -1.697246    2.442563    1.426680
     26          1           0       -0.494875    1.625976    2.440224
     27          1           0        0.841695    2.547085   -0.422016
     28          1           0        3.285424    2.847010   -0.295621
     29          1           0        5.568459    1.862042   -0.161815
     30          1           0        7.032383   -0.118320   -0.082823
     31          1           0        6.055330   -2.397382   -0.129073
     32          1           0        3.612715   -2.698619   -0.251747
     33          1           0        1.329515   -1.717498   -0.378372
     34          1           0       -2.510307    0.091675   -2.049096
     35          1           0       -4.744402   -0.073181   -3.057426
     36          1           0       -6.753986   -0.337496   -1.628780
     37          1           0       -6.515972   -0.437208    0.836851
     38          1           0       -4.299428   -0.276010    1.882872
 ---------------------------------------------------------------------
 Rotational constants (GHZ):      0.9355751      0.1283721      0.1276803
 Leave Link  202 at Fri Sep  3 00:05:30 2021, MaxMem=  268435456 cpu:       0.0
 (Enter /sw/target/amd/app/gaussian/Gaussian09RevA.02_gcc-4.9.2/g09/l301.exe)
 Standard basis: 6-31G(d) (6D, 7F)
 Ernie: Thresh=  0.10000D-02 Tol=  0.10000D-05 Strict=F.
 There are   340 symmetry adapted basis functions of A   symmetry.
 Integral buffers will be    131072 words long.
 Raffenetti 2 integral format.
 Two-electron integral symmetry is turned on.
   340 basis functions,   656 primitive gaussians,   340 cartesian basis functions
    74 alpha electrons       74 beta electrons
       nuclear repulsion energy      1517.4263290030 Hartrees.
 IExCor=  402 DFT=T Ex+Corr=B3LYP ExCW=0 ScaHFX=  0.200000
 ScaDFX=  0.800000  0.720000  1.000000  0.810000 ScalE2=  1.000000  1.000000
 IRadAn=      0 IRanWt=     -1 IRanGd=            0 ICorTp=0
 NAtoms=   38 NActive=   38 NUniq=   38 SFac= 7.50D-01 NAtFMM=   80 NAOKFM=F Big=F
 Leave Link  301 at Fri Sep  3 00:05:30 2021, MaxMem=  268435456 cpu:       0.1
 (Enter /sw/target/amd/app/gaussian/Gaussian09RevA.02_gcc-4.9.2/g09/l302.exe)
 NPDir=0 NMtPBC=     1 NCelOv=     1 NCel=       1 NClECP=     1 NCelD=      1
         NCelK=      1 NCelE2=     1 NClLst=     1 CellRange=     0.0.
 One-electron integrals computed using PRISM.
 NBasis=   340 RedAO= T  NBF=   340
 NBsUse=   340 1.00D-06 NBFU=   340
 Precomputing XC quadrature grid using
 IXCGrd= 2 IRadAn=           0 IRanWt=          -1 IRanGd=           0 AccXCQ= 1.00D-10.
 NRdTot=    2425 NPtTot=      309598 NUsed=      327080 NTot=      327112
 NSgBfM=   333   333   333   333   333 NAtAll=    38    38.
 Leave Link  302 at Fri Sep  3 00:05:32 2021, MaxMem=  268435456 cpu:       2.1
 (Enter /sw/target/amd/app/gaussian/Gaussian09RevA.02_gcc-4.9.2/g09/l303.exe)
 DipDrv:  MaxL=1.
 Leave Link  303 at Fri Sep  3 00:05:32 2021, MaxMem=  268435456 cpu:       0.1
 (Enter /sw/target/amd/app/gaussian/Gaussian09RevA.02_gcc-4.9.2/g09/l401.exe)
 Harris functional with IExCor=  402 diagonalized for initial guess.
 ExpMin= 7.78D-02 ExpMax= 1.61D+04 ExpMxC= 2.43D+03 IAcc=2 IRadAn=         0 AccDes= 0.00D+00
 HarFok:  IExCor=  402 AccDes= 0.00D+00 IRadAn=         0 IDoV= 1
 ScaDFX=  1.000000  1.000000  1.000000  1.000000
 FoFCou: FMM=F IPFlag=           0 FMFlag=      100000 FMFlg1=           0
         NFxFlg=           0 DoJE=T BraDBF=F KetDBF=T FulRan=T
         Omega=  0.000000  0.000000  1.000000  0.000000  0.000000 ICntrl=     500 IOpCl=  0
         NMat0=    1 NMatS0=    1 NMatT0=    0 NMatD0=    1 NMtDS0=    0 NMtDT0=    0
         I1Cent=           4 NGrid=           0.
 Petite list used in FoFCou.
 Harris En= -1061.75910790070    
 Initial guess orbital symmetries:
       Occupied  (A) (A) (A) (A) (A) (A) (A) (A) (A) (A) (A) (A)
                 (A) (A) (A) (A) (A) (A) (A) (A) (A) (A) (A) (A)
                 (A) (A) (A) (A) (A) (A) (A) (A) (A) (A) (A) (A)
                 (A) (A) (A) (A) (A) (A) (A) (A) (A) (A) (A) (A)
                 (A) (A) (A) (A) (A) (A) (A) (A) (A) (A) (A) (A)
                 (A) (A) (A) (A) (A) (A) (A) (A) (A) (A) (A) (A)
                 (A) (A)
       Virtual   (A) (A) (A) (A) (A) (A) (A) (A) (A) (A) (A) (A)
                 (A) (A) (A) (A) (A) (A) (A) (A) (A) (A) (A) (A)
                 (A) (A) (A) (A) (A) (A) (A) (A) (A) (A) (A) (A)
                 (A) (A) (A) (A) (A) (A) (A) (A) (A) (A) (A) (A)
                 (A) (A) (A) (A) (A) (A) (A) (A) (A) (A) (A) (A)
                 (A) (A) (A) (A) (A) (A) (A) (A) (A) (A) (A) (A)
                 (A) (A) (A) (A) (A) (A) (A) (A) (A) (A) (A) (A)
                 (A) (A) (A) (A) (A) (A) (A) (A) (A) (A) (A) (A)
                 (A) (A) (A) (A) (A) (A) (A) (A) (A) (A) (A) (A)
                 (A) (A) (A) (A) (A) (A) (A) (A) (A) (A) (A) (A)
                 (A) (A) (A) (A) (A) (A) (A) (A) (A) (A) (A) (A)
                 (A) (A) (A) (A) (A) (A) (A) (A) (A) (A) (A) (A)
                 (A) (A) (A) (A) (A) (A) (A) (A) (A) (A) (A) (A)
                 (A) (A) (A) (A) (A) (A) (A) (A) (A) (A) (A) (A)
                 (A) (A) (A) (A) (A) (A) (A) (A) (A) (A) (A) (A)
                 (A) (A) (A) (A) (A) (A) (A) (A) (A) (A) (A) (A)
                 (A) (A) (A) (A) (A) (A) (A) (A) (A) (A) (A) (A)
                 (A) (A) (A) (A) (A) (A) (A) (A) (A) (A) (A) (A)
                 (A) (A) (A) (A) (A) (A) (A) (A) (A) (A) (A) (A)
                 (A) (A) (A) (A) (A) (A) (A) (A) (A) (A) (A) (A)
                 (A) (A) (A) (A) (A) (A) (A) (A) (A) (A) (A) (A)
                 (A) (A) (A) (A) (A) (A) (A) (A) (A) (A) (A) (A)
                 (A) (A)
 The electronic state of the initial guess is 1-A.
 Leave Link  401 at Fri Sep  3 00:05:57 2021, MaxMem=  268435456 cpu:      24.9
 (Enter /sw/target/amd/app/gaussian/Gaussian09RevA.02_gcc-4.9.2/g09/l502.exe)
 Closed shell SCF:
 Requested convergence on RMS density matrix=1.00D-08 within  64 cycles.
 Requested convergence on MAX density matrix=1.00D-06.
 Requested convergence on             energy=1.00D-06.
 No special actions if energy rises.
 Using DIIS extrapolation, IDIIS=  1040.
 Integral symmetry usage will be decided dynamically.
       326725 words used for storage of precomputed grid.
 IEnd=      683676 IEndB=      683676 NGot=   268435456 MDV=   267871945
 LenX=   267871945 LenY=   267755904
 Fock matrices will be formed incrementally for  20 cycles.
 Integral accuracy reduced to 1.0D-05 until final iterations.

 Cycle   1  Pass 0  IDiag  1:
 FoFCou: FMM=F IPFlag=           0 FMFlag=      100000 FMFlg1=           0
         NFxFlg=           0 DoJE=F BraDBF=F KetDBF=F FulRan=T
         Omega=  0.000000  0.000000  1.000000  0.000000  0.000000 ICntrl=       0 IOpCl=  0
         NMat0=    1 NMatS0=    1 NMatT0=    0 NMatD0=    1 NMtDS0=    0 NMtDT0=    0
         I1Cent=           0 NGrid=           0.
 Symmetry not used in FoFCou.
 E= -1060.89401454877    
 DIIS: error= 4.60D-02 at cycle   1 NSaved=   1.
 NSaved= 1 IEnMin= 1 EnMin= -1060.89401454877     IErMin= 1 ErrMin= 4.60D-02
 ErrMax= 4.60D-02 EMaxC= 1.00D-01 BMatC= 6.28D-01 BMatP= 6.28D-01
 IDIUse=3 WtCom= 5.40D-01 WtEn= 4.60D-01
 Coeff-Com:  0.100D+01
 Coeff-En:   0.100D+01
 Coeff:      0.100D+01
 Gap=     0.167 Goal=   None    Shift=    0.000
 GapD=    0.167 DampG=1.000 DampE=0.500 DampFc=0.5000 IDamp=-1.
 Damping current iteration by 5.00D-01
 RMSDP=5.23D-03 MaxDP=2.09D-01              OVMax= 1.89D-01

 Cycle   2  Pass 0  IDiag  1:
 RMSU=  1.81D-03    CP:  9.71D-01
 E= -1061.20578837135     Delta-E=       -0.311773822586 Rises=F Damp=T
 DIIS: error= 6.79D-03 at cycle   2 NSaved=   2.
 NSaved= 2 IEnMin= 2 EnMin= -1061.20578837135     IErMin= 2 ErrMin= 6.79D-03
 ErrMax= 6.79D-03 EMaxC= 1.00D-01 BMatC= 2.33D-02 BMatP= 6.28D-01
 IDIUse=3 WtCom= 9.32D-01 WtEn= 6.79D-02
 Coeff-Com:  0.333D-01 0.967D+00
 Coeff-En:   0.514D-01 0.949D+00
 Coeff:      0.345D-01 0.965D+00
 Gap=     0.169 Goal=   None    Shift=    0.000
 RMSDP=1.29D-03 MaxDP=6.48D-02 DE=-3.12D-01 OVMax= 1.11D-01

 Cycle   3  Pass 0  IDiag  1:
 RMSU=  8.95D-04    CP:  9.58D-01  9.61D-01
 E= -1061.54622481327     Delta-E=       -0.340436441917 Rises=F Damp=F
 DIIS: error= 4.00D-03 at cycle   3 NSaved=   3.
 NSaved= 3 IEnMin= 3 EnMin= -1061.54622481327     IErMin= 3 ErrMin= 4.00D-03
 ErrMax= 4.00D-03 EMaxC= 1.00D-01 BMatC= 9.29D-03 BMatP= 2.33D-02
 IDIUse=3 WtCom= 9.60D-01 WtEn= 4.00D-02
 Coeff-Com: -0.130D-01 0.354D+00 0.659D+00
 Coeff-En:   0.000D+00 0.000D+00 0.100D+01
 Coeff:     -0.125D-01 0.340D+00 0.672D+00
 Gap=     0.166 Goal=   None    Shift=    0.000
 RMSDP=5.33D-04 MaxDP=2.66D-02 DE=-3.40D-01 OVMax= 5.64D-02

 Cycle   4  Pass 0  IDiag  1:
 RMSU=  3.03D-04    CP:  9.60D-01  9.83D-01  7.55D-01
 E= -1061.54960511323     Delta-E=       -0.003380299962 Rises=F Damp=F
 DIIS: error= 3.83D-03 at cycle   4 NSaved=   4.
 NSaved= 4 IEnMin= 4 EnMin= -1061.54960511323     IErMin= 4 ErrMin= 3.83D-03
 ErrMax= 3.83D-03 EMaxC= 1.00D-01 BMatC= 5.48D-03 BMatP= 9.29D-03
 IDIUse=3 WtCom= 9.62D-01 WtEn= 3.83D-02
 Coeff-Com: -0.111D-01 0.894D-01 0.438D+00 0.483D+00
 Coeff-En:   0.000D+00 0.000D+00 0.407D+00 0.593D+00
 Coeff:     -0.106D-01 0.860D-01 0.437D+00 0.488D+00
 Gap=     0.165 Goal=   None    Shift=    0.000
 RMSDP=2.71D-04 MaxDP=1.31D-02 DE=-3.38D-03 OVMax= 3.42D-02

 Cycle   5  Pass 0  IDiag  1:
 RMSU=  8.01D-05    CP:  9.59D-01  9.82D-01  8.24D-01  4.62D-01
 E= -1061.55538180597     Delta-E=       -0.005776692742 Rises=F Damp=F
 DIIS: error= 6.28D-04 at cycle   5 NSaved=   5.
 NSaved= 5 IEnMin= 5 EnMin= -1061.55538180597     IErMin= 5 ErrMin= 6.28D-04
 ErrMax= 6.28D-04 EMaxC= 1.00D-01 BMatC= 2.03D-04 BMatP= 5.48D-03
 IDIUse=3 WtCom= 9.94D-01 WtEn= 6.28D-03
 Coeff-Com: -0.363D-02 0.151D-01 0.158D+00 0.238D+00 0.592D+00
 Coeff-En:   0.000D+00 0.000D+00 0.000D+00 0.000D+00 0.100D+01
 Coeff:     -0.361D-02 0.150D-01 0.157D+00 0.237D+00 0.595D+00
 Gap=     0.164 Goal=   None    Shift=    0.000
 RMSDP=5.87D-05 MaxDP=2.54D-03 DE=-5.78D-03 OVMax= 6.92D-03

 Cycle   6  Pass 0  IDiag  1:
 RMSU=  2.46D-05    CP:  9.59D-01  9.83D-01  8.23D-01  5.35D-01  6.88D-01
 E= -1061.55557104034     Delta-E=       -0.000189234363 Rises=F Damp=F
 DIIS: error= 3.41D-04 at cycle   6 NSaved=   6.
 NSaved= 6 IEnMin= 6 EnMin= -1061.55557104034     IErMin= 6 ErrMin= 3.41D-04
 ErrMax= 3.41D-04 EMaxC= 1.00D-01 BMatC= 3.70D-05 BMatP= 2.03D-04
 IDIUse=3 WtCom= 9.97D-01 WtEn= 3.41D-03
 Coeff-Com: -0.128D-02 0.182D-02 0.591D-01 0.104D+00 0.367D+00 0.469D+00
 Coeff-En:   0.000D+00 0.000D+00 0.000D+00 0.000D+00 0.102D+00 0.898D+00
 Coeff:     -0.128D-02 0.181D-02 0.589D-01 0.104D+00 0.366D+00 0.470D+00
 Gap=     0.164 Goal=   None    Shift=    0.000
 RMSDP=1.94D-05 MaxDP=1.14D-03 DE=-1.89D-04 OVMax= 1.63D-03

 Cycle   7  Pass 0  IDiag  1:
 RMSU=  6.16D-06    CP:  9.59D-01  9.83D-01  8.27D-01  5.27D-01  7.26D-01
                    CP:  5.51D-01
 E= -1061.55560370332     Delta-E=       -0.000032662982 Rises=F Damp=F
 DIIS: error= 6.44D-05 at cycle   7 NSaved=   7.
 NSaved= 7 IEnMin= 7 EnMin= -1061.55560370332     IErMin= 7 ErrMin= 6.44D-05
 ErrMax= 6.44D-05 EMaxC= 1.00D-01 BMatC= 1.30D-06 BMatP= 3.70D-05
 IDIUse=1 WtCom= 1.00D+00 WtEn= 0.00D+00
 Coeff-Com: -0.434D-03 0.626D-04 0.225D-01 0.413D-01 0.161D+00 0.246D+00
 Coeff-Com:  0.529D+00
 Coeff:     -0.434D-03 0.626D-04 0.225D-01 0.413D-01 0.161D+00 0.246D+00
 Coeff:      0.529D+00
 Gap=     0.164 Goal=   None    Shift=    0.000
 RMSDP=4.45D-06 MaxDP=2.18D-04 DE=-3.27D-05 OVMax= 2.50D-04

 Initial convergence to 1.0D-05 achieved.  Increase integral accuracy.
 Cycle   8  Pass 1  IDiag  1:
 E= -1061.55559952300     Delta-E=        0.000004180318 Rises=F Damp=F
 DIIS: error= 4.17D-05 at cycle   1 NSaved=   1.
 NSaved= 1 IEnMin= 1 EnMin= -1061.55559952300     IErMin= 1 ErrMin= 4.17D-05
 ErrMax= 4.17D-05 EMaxC= 1.00D-01 BMatC= 5.02D-07 BMatP= 5.02D-07
 IDIUse=1 WtCom= 1.00D+00 WtEn= 0.00D+00
 Coeff-Com:  0.100D+01
 Coeff:      0.100D+01
 Gap=     0.164 Goal=   None    Shift=    0.000
 RMSDP=4.45D-06 MaxDP=2.18D-04 DE= 4.18D-06 OVMax= 3.05D-04

 Cycle   9  Pass 1  IDiag  1:
 RMSU=  1.24D-05    CP:  1.00D+00
 E= -1061.55559989931     Delta-E=       -0.000000376308 Rises=F Damp=F
 DIIS: error= 3.16D-05 at cycle   2 NSaved=   2.
 NSaved= 2 IEnMin= 2 EnMin= -1061.55559989931     IErMin= 2 ErrMin= 3.16D-05
 ErrMax= 3.16D-05 EMaxC= 1.00D-01 BMatC= 3.03D-07 BMatP= 5.02D-07
 IDIUse=1 WtCom= 1.00D+00 WtEn= 0.00D+00
 Coeff-Com:  0.410D+00 0.590D+00
 Coeff:      0.410D+00 0.590D+00
 Gap=     0.164 Goal=   None    Shift=    0.000
 RMSDP=3.07D-06 MaxDP=1.18D-04 DE=-3.76D-07 OVMax= 2.98D-04

 Cycle  10  Pass 1  IDiag  1:
 RMSU=  2.17D-06    CP:  1.00D+00  9.93D-01
 E= -1061.55560004816     Delta-E=       -0.000000148852 Rises=F Damp=F
 DIIS: error= 2.53D-05 at cycle   3 NSaved=   3.
 NSaved= 3 IEnMin= 3 EnMin= -1061.55560004816     IErMin= 3 ErrMin= 2.53D-05
 ErrMax= 2.53D-05 EMaxC= 1.00D-01 BMatC= 1.63D-07 BMatP= 3.03D-07
 IDIUse=1 WtCom= 1.00D+00 WtEn= 0.00D+00
 Coeff-Com: -0.301D-02 0.422D+00 0.581D+00
 Coeff:     -0.301D-02 0.422D+00 0.581D+00
 Gap=     0.164 Goal=   None    Shift=    0.000
 RMSDP=1.46D-06 MaxDP=5.32D-05 DE=-1.49D-07 OVMax= 1.46D-04

 Cycle  11  Pass 1  IDiag  1:
 RMSU=  3.93D-07    CP:  1.00D+00  1.01D+00  5.72D-01
 E= -1061.55560021884     Delta-E=       -0.000000170682 Rises=F Damp=F
 DIIS: error= 3.57D-06 at cycle   4 NSaved=   4.
 NSaved= 4 IEnMin= 4 EnMin= -1061.55560021884     IErMin= 4 ErrMin= 3.57D-06
 ErrMax= 3.57D-06 EMaxC= 1.00D-01 BMatC= 8.56D-09 BMatP= 1.63D-07
 IDIUse=1 WtCom= 1.00D+00 WtEn= 0.00D+00
 Coeff-Com: -0.155D-01 0.234D+00 0.350D+00 0.431D+00
 Coeff:     -0.155D-01 0.234D+00 0.350D+00 0.431D+00
 Gap=     0.164 Goal=   None    Shift=    0.000
 RMSDP=2.96D-07 MaxDP=1.67D-05 DE=-1.71D-07 OVMax= 2.86D-05

 Cycle  12  Pass 1  IDiag  1:
 RMSU=  1.07D-07    CP:  1.00D+00  1.01D+00  6.00D-01  5.70D-01
 E= -1061.55560022746     Delta-E=       -0.000000008620 Rises=F Damp=F
 DIIS: error= 5.22D-07 at cycle   5 NSaved=   5.
 NSaved= 5 IEnMin= 5 EnMin= -1061.55560022746     IErMin= 5 ErrMin= 5.22D-07
 ErrMax= 5.22D-07 EMaxC= 1.00D-01 BMatC= 1.07D-10 BMatP= 8.56D-09
 IDIUse=1 WtCom= 1.00D+00 WtEn= 0.00D+00
 Coeff-Com: -0.591D-02 0.732D-01 0.111D+00 0.166D+00 0.656D+00
 Coeff:     -0.591D-02 0.732D-01 0.111D+00 0.166D+00 0.656D+00
 Gap=     0.164 Goal=   None    Shift=    0.000
 RMSDP=5.56D-08 MaxDP=2.67D-06 DE=-8.62D-09 OVMax= 6.12D-06

 Cycle  13  Pass 1  IDiag  1:
 RMSU=  3.59D-08    CP:  1.00D+00  1.01D+00  5.99D-01  5.93D-01  8.77D-01
 E= -1061.55560022756     Delta-E=       -0.000000000093 Rises=F Damp=F
 DIIS: error= 3.75D-07 at cycle   6 NSaved=   6.
 NSaved= 6 IEnMin= 6 EnMin= -1061.55560022756     IErMin= 6 ErrMin= 3.75D-07
 ErrMax= 3.75D-07 EMaxC= 1.00D-01 BMatC= 3.89D-11 BMatP= 1.07D-10
 IDIUse=1 WtCom= 1.00D+00 WtEn= 0.00D+00
 Coeff-Com: -0.165D-02 0.152D-01 0.232D-01 0.464D-01 0.399D+00 0.518D+00
 Coeff:     -0.165D-02 0.152D-01 0.232D-01 0.464D-01 0.399D+00 0.518D+00
 Gap=     0.164 Goal=   None    Shift=    0.000
 RMSDP=2.61D-08 MaxDP=1.05D-06 DE=-9.28D-11 OVMax= 3.50D-06

 Cycle  14  Pass 1  IDiag  1:
 RMSU=  1.07D-08    CP:  1.00D+00  1.01D+00  5.99D-01  5.89D-01  9.37D-01
                    CP:  6.24D-01
 E= -1061.55560022758     Delta-E=       -0.000000000024 Rises=F Damp=F
 DIIS: error= 1.03D-07 at cycle   7 NSaved=   7.
 NSaved= 7 IEnMin= 7 EnMin= -1061.55560022758     IErMin= 7 ErrMin= 1.03D-07
 ErrMax= 1.03D-07 EMaxC= 1.00D-01 BMatC= 4.22D-12 BMatP= 3.89D-11
 IDIUse=1 WtCom= 1.00D+00 WtEn= 0.00D+00
 Coeff-Com: -0.260D-03 0.372D-04 0.847D-04 0.718D-02 0.158D+00 0.305D+00
 Coeff-Com:  0.530D+00
 Coeff:     -0.260D-03 0.372D-04 0.847D-04 0.718D-02 0.158D+00 0.305D+00
 Coeff:      0.530D+00
 Gap=     0.164 Goal=   None    Shift=    0.000
 RMSDP=8.24D-09 MaxDP=2.57D-07 DE=-2.36D-11 OVMax= 1.13D-06

 SCF Done:  E(RB3LYP) =  -1061.55560023     A.U. after   14 cycles
             Convg  =    0.8245D-08             -V/T =  2.0081
 KE= 1.053071275055D+03 PE=-5.514215706359D+03 EE= 1.882162502073D+03
 Leave Link  502 at Fri Sep  3 00:14:00 2021, MaxMem=  268435456 cpu:     480.9
 (Enter /sw/target/amd/app/gaussian/Gaussian09RevA.02_gcc-4.9.2/g09/l508.exe)
 QCSCF skips out because SCF is already converged.
 Leave Link  508 at Fri Sep  3 00:14:00 2021, MaxMem=  268435456 cpu:       0.0
 (Enter /sw/target/amd/app/gaussian/Gaussian09RevA.02_gcc-4.9.2/g09/l601.exe)
 Copying SCF densities to generalized density rwf, IOpCl= 0 IROHF=0.

 **********************************************************************

            Population analysis using the SCF density.

 **********************************************************************

 Orbital symmetries:
       Occupied  (A) (A) (A) (A) (A) (A) (A) (A) (A) (A) (A) (A)
                 (A) (A) (A) (A) (A) (A) (A) (A) (A) (A) (A) (A)
                 (A) (A) (A) (A) (A) (A) (A) (A) (A) (A) (A) (A)
                 (A) (A) (A) (A) (A) (A) (A) (A) (A) (A) (A) (A)
                 (A) (A) (A) (A) (A) (A) (A) (A) (A) (A) (A) (A)
                 (A) (A) (A) (A) (A) (A) (A) (A) (A) (A) (A) (A)
                 (A) (A)
       Virtual   (A) (A) (A) (A) (A) (A) (A) (A) (A) (A) (A) (A)
                 (A) (A) (A) (A) (A) (A) (A) (A) (A) (A) (A) (A)
                 (A) (A) (A) (A) (A) (A) (A) (A) (A) (A) (A) (A)
                 (A) (A) (A) (A) (A) (A) (A) (A) (A) (A) (A) (A)
                 (A) (A) (A) (A) (A) (A) (A) (A) (A) (A) (A) (A)
                 (A) (A) (A) (A) (A) (A) (A) (A) (A) (A) (A) (A)
                 (A) (A) (A) (A) (A) (A) (A) (A) (A) (A) (A) (A)
                 (A) (A) (A) (A) (A) (A) (A) (A) (A) (A) (A) (A)
                 (A) (A) (A) (A) (A) (A) (A) (A) (A) (A) (A) (A)
                 (A) (A) (A) (A) (A) (A) (A) (A) (A) (A) (A) (A)
                 (A) (A) (A) (A) (A) (A) (A) (A) (A) (A) (A) (A)
                 (A) (A) (A) (A) (A) (A) (A) (A) (A) (A) (A) (A)
                 (A) (A) (A) (A) (A) (A) (A) (A) (A) (A) (A) (A)
                 (A) (A) (A) (A) (A) (A) (A) (A) (A) (A) (A) (A)
                 (A) (A) (A) (A) (A) (A) (A) (A) (A) (A) (A) (A)
                 (A) (A) (A) (A) (A) (A) (A) (A) (A) (A) (A) (A)
                 (A) (A) (A) (A) (A) (A) (A) (A) (A) (A) (A) (A)
                 (A) (A) (A) (A) (A) (A) (A) (A) (A) (A) (A) (A)
                 (A) (A) (A) (A) (A) (A) (A) (A) (A) (A) (A) (A)
                 (A) (A) (A) (A) (A) (A) (A) (A) (A) (A) (A) (A)
                 (A) (A) (A) (A) (A) (A) (A) (A) (A) (A) (A) (A)
                 (A) (A) (A) (A) (A) (A) (A) (A) (A) (A) (A) (A)
                 (A) (A)
 The electronic state is 1-A.
 Alpha  occ. eigenvalues --  -66.14935 -19.15560 -10.24787 -10.19389 -10.19339
 Alpha  occ. eigenvalues --  -10.19115 -10.18935 -10.18875 -10.18851 -10.18825
 Alpha  occ. eigenvalues --  -10.18692 -10.18649 -10.18632 -10.18581 -10.18451
 Alpha  occ. eigenvalues --  -10.18381 -10.18378 -10.17434 -10.16295 -10.16260
 Alpha  occ. eigenvalues --   -5.29023  -3.65129  -3.64842  -3.64779  -1.03106
 Alpha  occ. eigenvalues --   -0.87326  -0.84339  -0.81459  -0.77150  -0.74209
 Alpha  occ. eigenvalues --   -0.73837  -0.73480  -0.71092  -0.70245  -0.68115
 Alpha  occ. eigenvalues --   -0.63141  -0.61137  -0.59833  -0.59501  -0.59015
 Alpha  occ. eigenvalues --   -0.54436  -0.51396  -0.50943  -0.50277  -0.46683
 Alpha  occ. eigenvalues --   -0.45168  -0.44914  -0.44172  -0.43795  -0.42722
 Alpha  occ. eigenvalues --   -0.42113  -0.41665  -0.41271  -0.41038  -0.40281
 Alpha  occ. eigenvalues --   -0.39692  -0.39496  -0.39460  -0.38343  -0.38106
 Alpha  occ. eigenvalues --   -0.36319  -0.35908  -0.34535  -0.33910  -0.33734
 Alpha  occ. eigenvalues --   -0.32587  -0.31012  -0.28711  -0.28236  -0.27963
 Alpha  occ. eigenvalues --   -0.24486  -0.24327  -0.23678  -0.20433
 Alpha virt. eigenvalues --   -0.03992  -0.00551   0.00176   0.00406   0.03374
 Alpha virt. eigenvalues --    0.07155   0.07755   0.09367   0.10166   0.10510
 Alpha virt. eigenvalues --    0.10861   0.11845   0.12745   0.13063   0.13516
 Alpha virt. eigenvalues --    0.14489   0.14661   0.15619   0.16757   0.17106
 Alpha virt. eigenvalues --    0.17489   0.17571   0.17885   0.19357   0.19919
 Alpha virt. eigenvalues --    0.20260   0.20838   0.21201   0.22242   0.22900
 Alpha virt. eigenvalues --    0.23904   0.26565   0.27408   0.28581   0.30452
 Alpha virt. eigenvalues --    0.31314   0.31415   0.31813   0.32312   0.34814
 Alpha virt. eigenvalues --    0.35084   0.35942   0.36789   0.39018   0.39846
 Alpha virt. eigenvalues --    0.43198   0.45267   0.45635   0.49775   0.50993
 Alpha virt. eigenvalues --    0.51633   0.52155   0.53445   0.53588   0.54517
 Alpha virt. eigenvalues --    0.54944   0.55238   0.55915   0.56272   0.56642
 Alpha virt. eigenvalues --    0.56765   0.57236   0.57765   0.59404   0.60022
 Alpha virt. eigenvalues --    0.60245   0.60516   0.60980   0.61284   0.61617
 Alpha virt. eigenvalues --    0.61991   0.62258   0.62561   0.62696   0.63563
 Alpha virt. eigenvalues --    0.64784   0.65559   0.65866   0.67513   0.68002
 Alpha virt. eigenvalues --    0.68838   0.69620   0.74028   0.74234   0.74744
 Alpha virt. eigenvalues --    0.76831   0.77603   0.78960   0.80462   0.81410
 Alpha virt. eigenvalues --    0.81676   0.82538   0.82871   0.83475   0.84109
 Alpha virt. eigenvalues --    0.84232   0.84625   0.84829   0.85086   0.85684
 Alpha virt. eigenvalues --    0.86545   0.87170   0.88230   0.89690   0.90228
 Alpha virt. eigenvalues --    0.91589   0.91895   0.92016   0.92451   0.93530
 Alpha virt. eigenvalues --    0.94100   0.94574   0.95023   0.95360   0.95934
 Alpha virt. eigenvalues --    0.96957   0.99342   1.00508   1.01733   1.02209
 Alpha virt. eigenvalues --    1.02793   1.03450   1.03961   1.05928   1.08076
 Alpha virt. eigenvalues --    1.10899   1.12245   1.13248   1.14733   1.16125
 Alpha virt. eigenvalues --    1.17100   1.19061   1.19428   1.21506   1.23080
 Alpha virt. eigenvalues --    1.23767   1.25567   1.26041   1.26474   1.28008
 Alpha virt. eigenvalues --    1.29206   1.33181   1.35798   1.39450   1.41086
 Alpha virt. eigenvalues --    1.42266   1.43475   1.44241   1.46011   1.47199
 Alpha virt. eigenvalues --    1.47304   1.48203   1.49043   1.49564   1.49738
 Alpha virt. eigenvalues --    1.49932   1.50644   1.51176   1.51876   1.53545
 Alpha virt. eigenvalues --    1.56535   1.62142   1.66511   1.69293   1.73494
 Alpha virt. eigenvalues --    1.75634   1.77387   1.78990   1.80127   1.80946
 Alpha virt. eigenvalues --    1.81378   1.84303   1.85397   1.86450   1.87604
 Alpha virt. eigenvalues --    1.89176   1.90321   1.91036   1.92657   1.94090
 Alpha virt. eigenvalues --    1.94879   1.95990   1.97027   1.97489   1.97857
 Alpha virt. eigenvalues --    1.98670   1.99789   2.03591   2.06233   2.07586
 Alpha virt. eigenvalues --    2.08342   2.10457   2.13053   2.14985   2.15346
 Alpha virt. eigenvalues --    2.15823   2.16261   2.16523   2.17429   2.19070
 Alpha virt. eigenvalues --    2.21180   2.21516   2.24196   2.26576   2.28161
 Alpha virt. eigenvalues --    2.28646   2.28730   2.29408   2.30690   2.31329
 Alpha virt. eigenvalues --    2.31683   2.32501   2.33636   2.33855   2.34545
 Alpha virt. eigenvalues --    2.36151   2.39037   2.42626   2.54818   2.58010
 Alpha virt. eigenvalues --    2.58953   2.61190   2.62860   2.64124   2.64601
 Alpha virt. eigenvalues --    2.65540   2.66231   2.68785   2.70552   2.72073
 Alpha virt. eigenvalues --    2.74899   2.76059   2.76975   2.78049   2.79072
 Alpha virt. eigenvalues --    2.80083   2.84851   2.88421   2.90229   3.01626
 Alpha virt. eigenvalues --    3.04478   3.05184   3.09753   3.12047   3.39572
 Alpha virt. eigenvalues --    3.39902   3.49836   4.03761   4.09289   4.10046
 Alpha virt. eigenvalues --    4.10759   4.12161   4.12264   4.13752   4.20884
 Alpha virt. eigenvalues --    4.21101   4.22189   4.23154   4.28432   4.33779
 Alpha virt. eigenvalues --    4.37212   4.38758   4.42110   4.59675   4.67252
 Alpha virt. eigenvalues --    4.84655
          Condensed to atoms (all electrons):
              1          2          3          4          5          6
     1  C    5.299094   0.378197  -0.039259  -0.018276  -0.001930  -0.000081
     2  Si   0.378197  11.866811   0.378807   0.346285  -0.012061  -0.002766
     3  C   -0.039259   0.378807   5.297432  -0.018580  -0.001287   0.000127
     4  O   -0.018276   0.346285  -0.018580   8.257331   0.182772  -0.048354
     5  C   -0.001930  -0.012061  -0.001287   0.182772   4.553277   0.494458
     6  C   -0.000081  -0.002766   0.000127  -0.048354   0.494458   5.048890
     7  C    0.000007   0.000466  -0.000008   0.003850  -0.001187   0.463033
     8  C    0.000001  -0.000026  -0.000001   0.000520  -0.034280  -0.009459
     9  C   -0.000000  -0.000008   0.000000   0.000001  -0.000978   0.009401
    10  C   -0.000000   0.000001  -0.000000  -0.000000   0.000064  -0.000366
    11  C   -0.000000   0.000002  -0.000000   0.000000  -0.000317   0.000068
    12  C   -0.000003  -0.000077   0.000000  -0.000090   0.007489  -0.000548
    13  C    0.000004   0.000497   0.000004   0.002963   0.009508  -0.037375
    14  C   -0.000150  -0.000427  -0.000138  -0.042450   0.487900  -0.061773
    15  C   -0.026736   0.374259  -0.026506  -0.025282   0.000974  -0.000073
    16  C   -0.000713  -0.024707  -0.000648   0.003794  -0.000185   0.000003
    17  C   -0.000048   0.005288  -0.000047   0.000176  -0.000003   0.000000
    18  C    0.000003  -0.000138   0.000003  -0.000000   0.000000   0.000000
    19  C   -0.000014   0.002887  -0.000004  -0.000007   0.000000  -0.000000
    20  C   -0.000014  -0.022127   0.000139  -0.000154   0.000017   0.000000
    21  H    0.358876  -0.010976  -0.000196   0.000486   0.000042   0.000000
    22  H    0.358969  -0.017425  -0.001104  -0.000986   0.000637  -0.000054
    23  H    0.367956  -0.021563   0.001189  -0.000602  -0.000178   0.000001
    24  H   -0.000201  -0.011373   0.359435   0.000508   0.000027   0.000018
    25  H    0.001184  -0.021149   0.367731  -0.000624  -0.000224   0.000134
    26  H   -0.001140  -0.017602   0.359460  -0.000971   0.000532   0.001169
    27  H    0.000009   0.001910   0.000035  -0.002801  -0.034014   0.349493
    28  H   -0.000000  -0.000049  -0.000000  -0.000068   0.003502  -0.040717
    29  H   -0.000000   0.000000  -0.000000   0.000000   0.000012   0.000194
    30  H    0.000000  -0.000000  -0.000000   0.000000  -0.000001   0.000003
    31  H   -0.000000  -0.000000  -0.000000  -0.000000   0.000003  -0.000001
    32  H   -0.000001  -0.000002   0.000000  -0.000001   0.000205   0.000010
    33  H    0.000275   0.001523   0.000012  -0.003095  -0.038247   0.005820
    34  H    0.000112  -0.007653   0.000111   0.007734  -0.000129  -0.000002
    35  H    0.000000  -0.000235   0.000000  -0.000000  -0.000000   0.000000
    36  H    0.000000   0.000021   0.000000   0.000000  -0.000000   0.000000
    37  H    0.000001  -0.000202   0.000001   0.000000  -0.000000   0.000000
    38  H    0.000529  -0.003923   0.000613   0.000011  -0.000000   0.000000
              7          8          9         10         11         12
     1  C    0.000007   0.000001  -0.000000  -0.000000  -0.000000  -0.000003
     2  Si   0.000466  -0.000026  -0.000008   0.000001   0.000002  -0.000077
     3  C   -0.000008  -0.000001   0.000000  -0.000000  -0.000000   0.000000
     4  O    0.003850   0.000520   0.000001  -0.000000   0.000000  -0.000090
     5  C   -0.001187  -0.034280  -0.000978   0.000064  -0.000317   0.007489
     6  C    0.463033  -0.009459   0.009401  -0.000366   0.000068  -0.000548
     7  C    5.172478   0.441516  -0.102547   0.008724  -0.000735   0.016955
     8  C    0.441516   4.679110   0.448057  -0.003142  -0.039186  -0.029262
     9  C   -0.102547   0.448057   5.135024   0.508078  -0.018680  -0.076478
    10  C    0.008724  -0.003142   0.508078   4.901130   0.507576  -0.020900
    11  C   -0.000735  -0.039186  -0.018680   0.507576   4.892500   0.511895
    12  C    0.016955  -0.029262  -0.076478  -0.020900   0.511895   5.130711
    13  C   -0.023339   0.490584  -0.027978  -0.039846  -0.002442   0.443865
    14  C   -0.075648  -0.039233   0.017499  -0.000602   0.008029  -0.091644
    15  C   -0.000000   0.000000   0.000000  -0.000000   0.000000  -0.000000
    16  C   -0.000000  -0.000000   0.000000  -0.000000  -0.000000   0.000000
    17  C   -0.000000  -0.000000  -0.000000  -0.000000  -0.000000   0.000000
    18  C    0.000000   0.000000  -0.000000   0.000000  -0.000000  -0.000000
    19  C    0.000000   0.000000   0.000000  -0.000000   0.000000  -0.000000
    20  C   -0.000000   0.000000   0.000000   0.000000   0.000000   0.000000
    21  H   -0.000000   0.000000  -0.000000   0.000000  -0.000000   0.000000
    22  H   -0.000002  -0.000005   0.000000   0.000000  -0.000000  -0.000002
    23  H    0.000000   0.000000  -0.000000  -0.000000  -0.000000  -0.000001
    24  H    0.000001   0.000000  -0.000000  -0.000000   0.000000   0.000000
    25  H   -0.000005  -0.000000  -0.000000   0.000000  -0.000000  -0.000000
    26  H   -0.000004  -0.000007  -0.000000   0.000000   0.000000  -0.000000
    27  H   -0.036352   0.002763  -0.000171   0.000003  -0.000000   0.000010
    28  H    0.353201  -0.039181  -0.008457   0.000205   0.000012  -0.000198
    29  H   -0.008558  -0.041915   0.354948  -0.045362   0.004661   0.000565
    30  H   -0.000201   0.002735  -0.036707   0.356855  -0.042268   0.004380
    31  H    0.000010   0.001050   0.004402  -0.042214   0.356400  -0.036571
    32  H   -0.000189   0.004629   0.000581   0.004614  -0.045275   0.354718
    33  H    0.000166   0.004531  -0.000158   0.000010   0.000218  -0.008410
    34  H    0.000000  -0.000000  -0.000000  -0.000000  -0.000000   0.000000
    35  H    0.000000  -0.000000   0.000000   0.000000  -0.000000  -0.000000
    36  H    0.000000  -0.000000  -0.000000   0.000000  -0.000000   0.000000
    37  H   -0.000000  -0.000000   0.000000   0.000000  -0.000000   0.000000
    38  H    0.000000  -0.000000  -0.000000   0.000000  -0.000000   0.000000
             13         14         15         16         17         18
     1  C    0.000004  -0.000150  -0.026736  -0.000713  -0.000048   0.000003
     2  Si   0.000497  -0.000427   0.374259  -0.024707   0.005288  -0.000138
     3  C    0.000004  -0.000138  -0.026506  -0.000648  -0.000047   0.000003
     4  O    0.002963  -0.042450  -0.025282   0.003794   0.000176  -0.000000
     5  C    0.009508   0.487900   0.000974  -0.000185  -0.000003   0.000000
     6  C   -0.037375  -0.061773  -0.000073   0.000003   0.000000   0.000000
     7  C   -0.023339  -0.075648  -0.000000  -0.000000  -0.000000   0.000000
     8  C    0.490584  -0.039233   0.000000  -0.000000  -0.000000   0.000000
     9  C   -0.027978   0.017499   0.000000   0.000000  -0.000000  -0.000000
    10  C   -0.039846  -0.000602  -0.000000  -0.000000  -0.000000   0.000000
    11  C   -0.002442   0.008029   0.000000  -0.000000  -0.000000  -0.000000
    12  C    0.443865  -0.091644  -0.000000   0.000000   0.000000  -0.000000
    13  C    4.699962   0.394569  -0.000001  -0.000000  -0.000000   0.000000
    14  C    0.394569   5.315547  -0.000093   0.000000  -0.000000   0.000000
    15  C   -0.000001  -0.000093   4.969629   0.501713  -0.029793  -0.036845
    16  C   -0.000000   0.000000   0.501713   4.949494   0.505367  -0.028824
    17  C   -0.000000  -0.000000  -0.029793   0.505367   4.901738   0.549626
    18  C    0.000000   0.000000  -0.036845  -0.028824   0.549626   4.844868
    19  C   -0.000000  -0.000000  -0.023719  -0.050039  -0.027007   0.551144
    20  C   -0.000000   0.000000   0.487730  -0.012087  -0.050677  -0.029373
    21  H    0.000001   0.000024  -0.001582   0.000009   0.000000   0.000000
    22  H   -0.000065   0.001497   0.001198   0.000011   0.000000  -0.000000
    23  H   -0.000002  -0.000036  -0.001320   0.000026  -0.000005  -0.000000
    24  H   -0.000000  -0.000001  -0.001545   0.000007   0.000000   0.000000
    25  H    0.000000   0.000004  -0.001304   0.000022  -0.000005  -0.000000
    26  H    0.000001  -0.000076   0.001194   0.000010   0.000000  -0.000000
    27  H    0.000644   0.005589  -0.000038  -0.000002   0.000000   0.000000
    28  H    0.004506   0.000487  -0.000000   0.000000   0.000000  -0.000000
    29  H    0.004595  -0.000189  -0.000000  -0.000000  -0.000000  -0.000000
    30  H    0.001047   0.000011   0.000000   0.000000   0.000000   0.000000
    31  H    0.002773  -0.000204  -0.000000   0.000000   0.000000  -0.000000
    32  H   -0.041169  -0.008613  -0.000000  -0.000000   0.000000   0.000000
    33  H   -0.041549   0.349598  -0.000037  -0.000002   0.000000   0.000000
    34  H    0.000000  -0.000002  -0.049941   0.363336  -0.050955   0.004702
    35  H    0.000000   0.000000   0.004489  -0.041208   0.356191  -0.044740
    36  H    0.000000   0.000000   0.000570   0.004750  -0.043874   0.358252
    37  H    0.000000   0.000000   0.004503   0.000793   0.004657  -0.044005
    38  H    0.000000   0.000000  -0.057772   0.006292   0.000323   0.004815
             19         20         21         22         23         24
     1  C   -0.000014  -0.000014   0.358876   0.358969   0.367956  -0.000201
     2  Si   0.002887  -0.022127  -0.010976  -0.017425  -0.021563  -0.011373
     3  C   -0.000004   0.000139  -0.000196  -0.001104   0.001189   0.359435
     4  O   -0.000007  -0.000154   0.000486  -0.000986  -0.000602   0.000508
     5  C    0.000000   0.000017   0.000042   0.000637  -0.000178   0.000027
     6  C   -0.000000   0.000000   0.000000  -0.000054   0.000001   0.000018
     7  C    0.000000  -0.000000  -0.000000  -0.000002   0.000000   0.000001
     8  C    0.000000   0.000000   0.000000  -0.000005   0.000000   0.000000
     9  C    0.000000   0.000000  -0.000000   0.000000  -0.000000  -0.000000
    10  C   -0.000000   0.000000   0.000000   0.000000  -0.000000  -0.000000
    11  C    0.000000   0.000000  -0.000000  -0.000000  -0.000000   0.000000
    12  C   -0.000000   0.000000   0.000000  -0.000002  -0.000001   0.000000
    13  C   -0.000000  -0.000000   0.000001  -0.000065  -0.000002  -0.000000
    14  C   -0.000000   0.000000   0.000024   0.001497  -0.000036  -0.000001
    15  C   -0.023719   0.487730  -0.001582   0.001198  -0.001320  -0.001545
    16  C   -0.050039  -0.012087   0.000009   0.000011   0.000026   0.000007
    17  C   -0.027007  -0.050677   0.000000   0.000000  -0.000005   0.000000
    18  C    0.551144  -0.029373   0.000000  -0.000000  -0.000000   0.000000
    19  C    4.878436   0.524900   0.000017   0.000001   0.000000   0.000016
    20  C    0.524900   4.945970   0.000242   0.000005  -0.000138   0.000200
    21  H    0.000017   0.000242   0.534972  -0.025210  -0.023771  -0.000049
    22  H    0.000001   0.000005  -0.025210   0.538154  -0.023917  -0.000061
    23  H    0.000000  -0.000138  -0.023771  -0.023917   0.530463   0.000006
    24  H    0.000016   0.000200  -0.000049  -0.000061   0.000006   0.534673
    25  H   -0.000000  -0.000135   0.000005   0.000000  -0.000022  -0.023786
    26  H    0.000001   0.000005  -0.000047   0.000379   0.000000  -0.025198
    27  H   -0.000000   0.000000   0.000000  -0.000001   0.000000   0.000008
    28  H   -0.000000   0.000000   0.000000  -0.000000  -0.000000  -0.000000
    29  H    0.000000   0.000000   0.000000   0.000000   0.000000   0.000000
    30  H   -0.000000  -0.000000  -0.000000  -0.000000  -0.000000  -0.000000
    31  H   -0.000000   0.000000  -0.000000   0.000000   0.000000   0.000000
    32  H   -0.000000  -0.000000   0.000000   0.000001  -0.000000   0.000000
    33  H   -0.000000   0.000000   0.000015  -0.000053   0.000714   0.000000
    34  H    0.000272   0.006099  -0.000002  -0.000003  -0.000012  -0.000002
    35  H    0.004673   0.000822   0.000000  -0.000000   0.000000   0.000000
[...]
    25  H   -0.000006  -0.000000  -0.000000   0.000000  -0.000000  -0.000000
    26  H   -0.000003  -0.000010  -0.000000   0.000000   0.000000  -0.000000
    27  H   -0.037702   0.002880  -0.000153   0.000003  -0.000000   0.000009
    28  H    0.351371  -0.039662  -0.008326   0.000171   0.000013  -0.000195
    29  H   -0.008511  -0.041777   0.353575  -0.045570   0.004571   0.000504
    30  H   -0.000190   0.002805  -0.037216   0.357187  -0.041370   0.004232
    31  H    0.000009   0.001000   0.004301  -0.041553   0.356560  -0.037262
    32  H   -0.000184   0.004672   0.000532   0.004511  -0.045433   0.353438
    33  H    0.000145   0.004330  -0.000142   0.000010   0.000197  -0.008053
    34  H    0.000000   0.000000  -0.000000  -0.000000  -0.000000   0.000000
    35  H    0.000000  -0.000000   0.000000   0.000000  -0.000000  -0.000000
    36  H    0.000000  -0.000000  -0.000000   0.000000  -0.000000   0.000000
    37  H   -0.000000  -0.000000  -0.000000   0.000000  -0.000000   0.000000
    38  H    0.000000  -0.000000  -0.000000   0.000000  -0.000000   0.000000
             13         14         15         16         17         18
     1  C    0.000010  -0.000347  -0.024206  -0.000690  -0.000044   0.000004
     2  Si   0.000411  -0.000572   0.385246  -0.025305   0.005401  -0.000287
     3  C    0.000003  -0.000161  -0.023954  -0.000664  -0.000043   0.000004
     4  O    0.002931  -0.042700  -0.029710   0.003457   0.000231  -0.000000
     5  C    0.008804   0.497170   0.001172  -0.000161  -0.000005  -0.000000
     6  C   -0.036292  -0.062724  -0.000080   0.000003   0.000000   0.000000
     7  C   -0.025689  -0.068503  -0.000000  -0.000000  -0.000000   0.000000
     8  C    0.491451  -0.040828   0.000000  -0.000000  -0.000000  -0.000000
     9  C   -0.031013   0.014854   0.000000   0.000000  -0.000000  -0.000000
    10  C   -0.038692  -0.000495  -0.000000  -0.000000  -0.000000   0.000000
    11  C   -0.005455   0.007669   0.000000  -0.000000  -0.000000  -0.000000
    12  C    0.447509  -0.081281  -0.000000   0.000000   0.000000  -0.000000
    13  C    4.725116   0.393682  -0.000001  -0.000000  -0.000000   0.000000
    14  C    0.393682   5.290294  -0.000103   0.000001  -0.000000   0.000000
    15  C   -0.000001  -0.000103   4.949043   0.499929  -0.028653  -0.036411
    16  C   -0.000000   0.000001   0.499929   4.952172   0.502117  -0.026362
    17  C   -0.000000  -0.000000  -0.028653   0.502117   4.905984   0.545538
    18  C    0.000000   0.000000  -0.036411  -0.026362   0.545538   4.849927
    19  C   -0.000000  -0.000000  -0.021901  -0.051682  -0.026593   0.547444
    20  C   -0.000000   0.000000   0.480534  -0.009174  -0.052600  -0.027660
    21  H    0.000001   0.000025  -0.001244   0.000002   0.000001   0.000000
    22  H   -0.000074   0.001814   0.001025   0.000011   0.000000  -0.000000
    23  H   -0.000003  -0.000045  -0.001236   0.000011  -0.000004  -0.000000
    24  H   -0.000000  -0.000002  -0.001166   0.000000   0.000001   0.000000
    25  H    0.000000   0.000004  -0.001229   0.000009  -0.000004  -0.000000
    26  H   -0.000001  -0.000087   0.001011   0.000011   0.000000  -0.000000
    27  H    0.000589   0.005881  -0.000048  -0.000002   0.000000   0.000000
    28  H    0.004635   0.000446  -0.000000   0.000000   0.000000  -0.000000
    29  H    0.004649  -0.000177  -0.000000  -0.000000   0.000000  -0.000000
    30  H    0.000987   0.000011   0.000000   0.000000   0.000000   0.000000
    31  H    0.002920  -0.000195  -0.000000  -0.000000   0.000000  -0.000000
    32  H   -0.041137  -0.008440  -0.000000  -0.000000   0.000000   0.000000
    33  H   -0.041766   0.348270  -0.000040  -0.000001   0.000000   0.000000
    34  H   -0.000000  -0.000002  -0.050076   0.362597  -0.050892   0.004646
    35  H    0.000000   0.000000   0.004355  -0.041034   0.357466  -0.044533
    36  H    0.000000   0.000000   0.000597   0.004599  -0.043265   0.358155
    37  H    0.000000   0.000000   0.004363   0.000766   0.004528  -0.043649
    38  H    0.000000   0.000000  -0.059168   0.006630   0.000322   0.004896
             19         20         21         22         23         24
     1  C   -0.000022   0.000029   0.356493   0.360495   0.367690  -0.000178
     2  Si   0.003226  -0.024303  -0.011067  -0.016248  -0.021049  -0.011545
     3  C   -0.000017   0.000102  -0.000169  -0.000952   0.001106   0.357071
     4  O   -0.000010  -0.000185   0.000507  -0.001141  -0.000617   0.000535
     5  C    0.000000   0.000019   0.000048   0.000717  -0.000160   0.000032
     6  C   -0.000000   0.000000   0.000000  -0.000058   0.000001   0.000024
     7  C    0.000000  -0.000000  -0.000000  -0.000003   0.000000   0.000001
     8  C    0.000000   0.000000   0.000000  -0.000005   0.000000   0.000000
     9  C    0.000000   0.000000  -0.000000   0.000000  -0.000000  -0.000000
    10  C   -0.000000   0.000000   0.000000   0.000000  -0.000000  -0.000000
    11  C    0.000000   0.000000  -0.000000  -0.000000  -0.000000   0.000000
    12  C   -0.000000   0.000000   0.000000  -0.000002  -0.000001   0.000000
    13  C   -0.000000  -0.000000   0.000001  -0.000074  -0.000003  -0.000000
    14  C   -0.000000   0.000000   0.000025   0.001814  -0.000045  -0.000002
    15  C   -0.021901   0.480534  -0.001244   0.001025  -0.001236  -0.001166
    16  C   -0.051682  -0.009174   0.000002   0.000011   0.000011   0.000000
    17  C   -0.026593  -0.052600   0.000001   0.000000  -0.000004   0.000001
    18  C    0.547444  -0.027660   0.000000  -0.000000  -0.000000   0.000000
    19  C    4.882314   0.520897   0.000013   0.000001   0.000000   0.000011
    20  C    0.520897   4.958513   0.000151   0.000003  -0.000138   0.000113
    21  H    0.000013   0.000151   0.541493  -0.025512  -0.024644  -0.000002
    22  H    0.000001   0.000003  -0.025512   0.532781  -0.023920  -0.000054
    23  H    0.000000  -0.000138  -0.024644  -0.023920   0.531195   0.000005
    24  H    0.000011   0.000113  -0.000002  -0.000054   0.000005   0.541485
    25  H    0.000000  -0.000134   0.000003   0.000001  -0.000020  -0.024679
    26  H    0.000001   0.000003  -0.000035   0.000287  -0.000000  -0.025542
    27  H   -0.000000   0.000000   0.000000  -0.000001   0.000000   0.000010
    28  H   -0.000000   0.000000   0.000000  -0.000000  -0.000000  -0.000000
    29  H    0.000000   0.000000   0.000000   0.000000   0.000000   0.000000
    30  H   -0.000000  -0.000000  -0.000000  -0.000000  -0.000000  -0.000000
    31  H   -0.000000   0.000000  -0.000000   0.000000   0.000000   0.000000
    32  H   -0.000000  -0.000000   0.000000   0.000001  -0.000000   0.000000
    33  H   -0.000000   0.000000   0.000017  -0.000032   0.000710   0.000000
    34  H    0.000231   0.006658  -0.000002  -0.000003  -0.000013  -0.000002
    35  H    0.004550   0.000817   0.000000  -0.000000   0.000000   0.000000
    36  H   -0.043578   0.004892  -0.000000   0.000000  -0.000000  -0.000000
    37  H    0.356754  -0.041583  -0.000001  -0.000000   0.000000  -0.000001
    38  H   -0.049239   0.359640   0.000541  -0.000029  -0.000010   0.000530
             25         26         27         28         29         30
     1  C    0.001099  -0.000986   0.000011  -0.000000  -0.000000   0.000000
     2  Si  -0.020642  -0.016453   0.001744  -0.000051   0.000000  -0.000000
     3  C    0.367400   0.360877   0.000082  -0.000001  -0.000000  -0.000000
     4  O   -0.000614  -0.001180  -0.002389  -0.000066   0.000000  -0.000000
     5  C   -0.000206   0.000697  -0.034416   0.003506   0.000012  -0.000000
     6  C    0.000114   0.001620   0.349474  -0.041037   0.000149   0.000003
     7  C   -0.000006  -0.000003  -0.037702   0.351371  -0.008511  -0.000190
     8  C   -0.000000  -0.000010   0.002880  -0.039662  -0.041777   0.002805
     9  C   -0.000000  -0.000000  -0.000153  -0.008326   0.353575  -0.037216
    10  C    0.000000   0.000000   0.000003   0.000171  -0.045570   0.357187
    11  C   -0.000000   0.000000  -0.000000   0.000013   0.004571  -0.041370
    12  C   -0.000000  -0.000000   0.000009  -0.000195   0.000504   0.004232
    13  C    0.000000  -0.000001   0.000589   0.004635   0.004649   0.000987
    14  C    0.000004  -0.000087   0.005881   0.000446  -0.000177   0.000011
    15  C   -0.001229   0.001011  -0.000048  -0.000000  -0.000000   0.000000
    16  C    0.000009   0.000011  -0.000002   0.000000  -0.000000   0.000000
    17  C   -0.000004   0.000000   0.000000   0.000000   0.000000   0.000000
    18  C   -0.000000  -0.000000   0.000000  -0.000000  -0.000000   0.000000
    19  C    0.000000   0.000001  -0.000000  -0.000000   0.000000  -0.000000
    20  C   -0.000134   0.000003   0.000000   0.000000   0.000000  -0.000000
    21  H    0.000003  -0.000035   0.000000   0.000000   0.000000  -0.000000
    22  H    0.000001   0.000287  -0.000001  -0.000000   0.000000  -0.000000
    23  H   -0.000020  -0.000000   0.000000  -0.000000   0.000000  -0.000000
    24  H   -0.024679  -0.025542   0.000010  -0.000000   0.000000  -0.000000
    25  H    0.531185  -0.023887   0.000523   0.000000  -0.000000  -0.000000
    26  H   -0.023887   0.532753  -0.000154   0.000004  -0.000000   0.000000
    27  H    0.000523  -0.000154   0.580668  -0.005594  -0.000010  -0.000000
    28  H    0.000000   0.000004  -0.005594   0.595914   0.006412  -0.000010
    29  H   -0.000000  -0.000000  -0.000010   0.006412   0.603712  -0.005481
    30  H   -0.000000   0.000000  -0.000000  -0.000010  -0.005481   0.596117
    31  H   -0.000000  -0.000000  -0.000000  -0.000000  -0.000189  -0.004874
    32  H    0.000000   0.000000  -0.000000   0.000003   0.000020  -0.000186
    33  H    0.000000  -0.000001  -0.000179   0.000019   0.000002  -0.000000
    34  H   -0.000012  -0.000003   0.000017   0.000000   0.000000  -0.000000
    35  H    0.000000  -0.000000   0.000000   0.000000  -0.000000   0.000000
    36  H   -0.000000   0.000000  -0.000000   0.000000  -0.000000   0.000000
    37  H    0.000000  -0.000000   0.000000   0.000000   0.000000   0.000000
    38  H   -0.000011  -0.000029   0.000000   0.000000   0.000000  -0.000000
             31         32         33         34         35         36
     1  C   -0.000000  -0.000001   0.000285   0.000129   0.000000   0.000000
     2  Si  -0.000000  -0.000001   0.001514  -0.008859  -0.000223   0.000023
     3  C   -0.000000  -0.000000   0.000014   0.000126   0.000000   0.000000
     4  O   -0.000000  -0.000001  -0.003181   0.009989  -0.000001   0.000000
     5  C    0.000003   0.000175  -0.038475  -0.000132  -0.000000  -0.000000
     6  C   -0.000001   0.000010   0.005816  -0.000004   0.000000   0.000000
     7  C    0.000009  -0.000184   0.000145   0.000000   0.000000   0.000000
     8  C    0.001000   0.004672   0.004330   0.000000  -0.000000  -0.000000
     9  C    0.004301   0.000532  -0.000142  -0.000000   0.000000  -0.000000
    10  C   -0.041553   0.004511   0.000010  -0.000000   0.000000   0.000000
    11  C    0.356560  -0.045433   0.000197  -0.000000  -0.000000  -0.000000
    12  C   -0.037262   0.353438  -0.008053   0.000000  -0.000000   0.000000
    13  C    0.002920  -0.041137  -0.041766  -0.000000   0.000000   0.000000
    14  C   -0.000195  -0.008440   0.348270  -0.000002   0.000000   0.000000
    15  C   -0.000000  -0.000000  -0.000040  -0.050076   0.004355   0.000597
    16  C   -0.000000  -0.000000  -0.000001   0.362597  -0.041034   0.004599
    17  C    0.000000   0.000000   0.000000  -0.050892   0.357466  -0.043265
    18  C   -0.000000   0.000000   0.000000   0.004646  -0.044533   0.358155
    19  C   -0.000000  -0.000000  -0.000000   0.000231   0.004550  -0.043578
    20  C    0.000000  -0.000000   0.000000   0.006658   0.000817   0.004892
    21  H   -0.000000   0.000000   0.000017  -0.000002   0.000000  -0.000000
    22  H    0.000000   0.000001  -0.000032  -0.000003  -0.000000   0.000000
    23  H    0.000000  -0.000000   0.000710  -0.000013   0.000000  -0.000000
    24  H    0.000000   0.000000   0.000000  -0.000002   0.000000  -0.000000
    25  H   -0.000000   0.000000   0.000000  -0.000012   0.000000  -0.000000
    26  H   -0.000000   0.000000  -0.000001  -0.000003  -0.000000   0.000000
    27  H   -0.000000  -0.000000  -0.000179   0.000017   0.000000  -0.000000
    28  H   -0.000000   0.000003   0.000019   0.000000   0.000000   0.000000
    29  H   -0.000189   0.000020   0.000002   0.000000  -0.000000  -0.000000
    30  H   -0.004874  -0.000186  -0.000000  -0.000000   0.000000   0.000000
    31  H    0.596119  -0.005576  -0.000012   0.000000   0.000000   0.000000
    32  H   -0.005576   0.603081   0.005948   0.000000   0.000000   0.000000
    33  H   -0.000012   0.005948   0.588736   0.000007   0.000000  -0.000000
    34  H    0.000000   0.000000   0.000007   0.577999  -0.004952  -0.000174
    35  H    0.000000   0.000000   0.000000  -0.004952   0.599773  -0.005732
    36  H    0.000000   0.000000  -0.000000  -0.000174  -0.005732   0.600257
    37  H    0.000000   0.000000   0.000000   0.000018  -0.000180  -0.005691
    38  H    0.000000   0.000000   0.000000  -0.000137   0.000019  -0.000193
             37         38
     1  C    0.000001   0.000542
     2  Si  -0.000205  -0.004035
     3  C    0.000001   0.000599
     4  O    0.000000   0.000012
     5  C   -0.000000  -0.000000
     6  C    0.000000   0.000000
     7  C   -0.000000   0.000000
     8  C   -0.000000  -0.000000
     9  C   -0.000000  -0.000000
    10  C    0.000000   0.000000
    11  C   -0.000000  -0.000000
    12  C    0.000000   0.000000
    13  C    0.000000   0.000000
    14  C    0.000000   0.000000
    15  C    0.004363  -0.059168
    16  C    0.000766   0.006630
    17  C    0.004528   0.000322
    18  C   -0.043649   0.004896
    19  C    0.356754  -0.049239
    20  C   -0.041583   0.359640
    21  H   -0.000001   0.000541
    22  H   -0.000000  -0.000029
    23  H    0.000000  -0.000010
    24  H   -0.000001   0.000530
    25  H    0.000000  -0.000011
    26  H   -0.000000  -0.000029
    27  H    0.000000   0.000000
    28  H    0.000000   0.000000
    29  H    0.000000   0.000000
    30  H    0.000000  -0.000000
    31  H    0.000000   0.000000
    32  H    0.000000   0.000000
    33  H    0.000000   0.000000
    34  H    0.000018  -0.000137
    35  H   -0.000180   0.000019
    36  H   -0.005691  -0.000193
    37  H    0.602260  -0.005520
    38  H   -0.005520   0.621825
 Mulliken atomic charges:
              1
     1  C   -0.677907
     2  Si   0.811547
     3  C   -0.678633
     4  O   -0.650841
     5  C    0.382251
     6  C   -0.168083
     7  C   -0.202188
     8  C    0.140119
     9  C   -0.192683
    10  C   -0.137502
    11  C   -0.135586
    12  C   -0.193027
    13  C    0.136425
    14  C   -0.253461
    15  C   -0.048048
    16  C   -0.177238
    17  C   -0.119487
    18  C   -0.131712
    19  C   -0.122400
    20  C   -0.176593
    21  H    0.163379
    22  H    0.170897
    23  H    0.171142
    24  H    0.163352
    25  H    0.171106
    26  H    0.171107
    27  H    0.138758
    28  H    0.132448
    29  H    0.128109
    30  H    0.127985
    31  H    0.128748
    32  H    0.128568
    33  H    0.135865
    34  H    0.152846
    35  H    0.129673
    36  H    0.130110
    37  H    0.128139
    38  H    0.122814
 Sum of Mulliken atomic charges =  -0.00000
 Mulliken charges with hydrogens summed into heavy atoms:
              1
     1  C   -0.172488
     2  Si   0.811547
     3  C   -0.173068
     4  O   -0.650841
     5  C    0.382251
     6  C   -0.029325
     7  C   -0.069740
     8  C    0.140119
     9  C   -0.064574
    10  C   -0.009517
    11  C   -0.006838
    12  C   -0.064459
    13  C    0.136425
    14  C   -0.117596
    15  C   -0.048048
    16  C   -0.024392
    17  C    0.010185
    18  C   -0.001603
    19  C    0.005739
    20  C   -0.053779
 Sum of Mulliken charges with hydrogens summed into heavy atoms =  -0.00000
 Electronic spatial extent (au):  <R**2>=           8459.4338
 Charge=             -0.0000 electrons
 Dipole moment (field-independent basis, Debye):
    X=              0.3582    Y=              0.0990    Z=              1.1156  Tot=              1.1759
 Quadrupole moment (field-independent basis, Debye-Ang):
   XX=           -111.0052   YY=           -118.5663   ZZ=           -122.3968
   XY=              1.1224   XZ=              0.4854   YZ=             -0.1226
 Traceless Quadrupole moment (field-independent basis, Debye-Ang):
   XX=              6.3175   YY=             -1.2435   ZZ=             -5.0740
   XY=              1.1224   XZ=              0.4854   YZ=             -0.1226
 Octapole moment (field-independent basis, Debye-Ang**2):
  XXX=              5.7025  YYY=             -5.2872  ZZZ=             -1.2387  XYY=            -30.5567
  XXY=              5.1640  XXZ=             -2.1794  XZZ=             36.7955  YZZ=              0.2816
  YYZ=             -0.3902  XYZ=             11.1873
 Hexadecapole moment (field-independent basis, Debye-Ang**3):
 XXXX=          -8983.3532 YYYY=           -902.7783 ZZZZ=           -876.9600 XXXY=             28.8514
 XXXZ=            -47.0184 YYYX=             -6.1797 YYYZ=            -14.4617 ZZZX=            -38.0041
 ZZZY=             16.2064 XXYY=          -1790.5774 XXZZ=          -1801.9622 YYZZ=           -326.6748
 XXYZ=              5.2158 YYXZ=             15.1076 ZZXY=             -3.4622
 N-N= 1.516730391096D+03 E-N=-5.512715968834D+03  KE= 1.052879337919D+03
 No NMR shielding tensors so no spin-rotation constants.
 Leave Link  601 at Fri Sep  3 03:04:08 2021, MaxMem=  268435456 cpu:       0.7
 (Enter /sw/target/amd/app/gaussian/Gaussian09RevA.02_gcc-4.9.2/g09/l9999.exe)
 1\1\GINC-HERMITE\FOpt\RB3LYP\6-31G(d)\C18H18O1Si1\JSCHLEINITZ\03-Sep-2
 021\0\\#p b3lyp 6-31G* opt scf(xqc,tight)\\opt calculation\\0,1\C,-1.2
 167199156,2.1790229142,-0.5438058109\Si,-1.5049605692,0.3270515722,-0.
 7401320922\C,-1.3624676085,-0.1582308899,-2.556006005\O,-0.3817604045,
 -0.5408469075,0.1766471731\C,0.9815224277,-0.5331785338,0.0237687621\C
 ,1.5864745141,-1.5487645468,-0.764062835\C,2.9535613783,-1.5920237028,
 -0.9038404143\C,3.7891920623,-0.6342653753,-0.2684017729\C,5.203410934
 5,-0.6529860704,-0.3969736941\C,5.9831071337,0.2887211877,0.2362270657
 \C,5.3785013881,1.2940393124,1.030411184\C,4.0101349824,1.3394985938,1
 .1757675646\C,3.1762542343,0.3834935803,0.5339789031\C,1.7625084463,0.
 4073859392,0.6630213262\C,-3.1578323005,-0.1903542712,-0.0149594073\C,
 -3.240560843,-1.0954962019,1.0579845076\C,-4.4754707512,-1.4726932257,
 1.5894168776\C,-5.6556324097,-0.9513500082,1.0572531276\C,-5.596864777
 4,-0.0510008738,-0.0086465748\C,-4.3604787874,0.3228579254,-0.53576874
 82\H,-1.9582087169,2.7522406686,-1.1140060561\H,-0.2234726478,2.469682
 3505,-0.9054658962\H,-1.2983554766,2.482495971,0.5058799286\H,-2.08781
 42728,0.391775688,-3.1681379014\H,-1.5530106011,-1.22803241,-2.6967018
 361\H,-0.3633122561,0.0625766279,-2.949911825\H,0.9474225607,-2.286159
 5132,-1.2401218174\H,3.4138200159,-2.3711303419,-1.5071532193\H,5.6619
 703149,-1.4280978417,-1.0070072395\H,7.0642041043,0.2639894041,0.13000
 53141\H,6.0020173961,2.0326838531,1.5272216149\H,3.5468057742,2.111356
 3757,1.7859346781\H,1.2893048128,1.1663763296,1.2795279876\H,-2.327255
 2067,-1.5069559938,1.4785217912\H,-4.516063662,-2.1739024455,2.4192964
 56\H,-6.617425006,-1.2447202957,1.4703897431\H,-6.5126206109,0.3584938
 514,-0.4277151146\H,-4.3399256569,1.0264453041,-1.3670567451\\Version=
 AM64L-G09RevA.02\State=1-A\HF=-1061.5604867\RMSD=2.640e-09\RMSF=3.413e
 -06\Dipole=-0.1527937,0.2373925,-0.3664873\Quadrupole=4.7768985,-1.739
 931,-3.0369675,-0.5610555,-0.1277066,1.2420607\PG=C01 [X(C18H18O1Si1)]
 \\@


 SCIENCE AT ITS BEST PROVIDES US WITH BETTER QUESTIONS, 
 NOT ABSOLUTE ANSWERS

                                    -- NORMAN COUSINS, 1976
 Job cpu time:  0 days  2 hours 57 minutes 42.9 seconds.
 File lengths (MBytes):  RWF=     80 Int=      0 D2E=      0 Chk=      9 Scr=      1
 Normal termination of Gaussian 09 at Fri Sep  3 03:04:09 2021.
