 Entering Gaussian System, Link 0=g09
 Input=mol_inp042.com
 Output=mol_inp042.log
 Initial command:
 /sw/target/amd/app/gaussian/Gaussian09RevA.02_gcc-4.9.2/g09/l1.exe /home/jschleinitz/optim_react/042/Gau-2804768.inp -scrdir=/home/jschleinitz/optim_react/042/
 Entering Link 1 = /sw/target/amd/app/gaussian/Gaussian09RevA.02_gcc-4.9.2/g09/l1.exe PID=   2804770.
  
 Copyright (c) 1988,1990,1992,1993,1995,1998,2003,2009, Gaussian, Inc.
                  All Rights Reserved.
  
 This is part of the Gaussian(R) 09 program.  It is based on
 the Gaussian(R) 03 system (copyright 2003, Gaussian, Inc.),
 the Gaussian(R) 98 system (copyright 1998, Gaussian, Inc.),
 the Gaussian(R) 94 system (copyright 1995, Gaussian, Inc.),
 the Gaussian 92(TM) system (copyright 1992, Gaussian, Inc.),
 the Gaussian 90(TM) system (copyright 1990, Gaussian, Inc.),
 the Gaussian 88(TM) system (copyright 1988, Gaussian, Inc.),
 the Gaussian 86(TM) system (copyright 1986, Carnegie Mellon
 University), and the Gaussian 82(TM) system (copyright 1983,
 Carnegie Mellon University). Gaussian is a federally registered
 trademark of Gaussian, Inc.
  
 This software contains proprietary and confidential information,
 including trade secrets, belonging to Gaussian, Inc.
  
 This software is provided under written license and may be
 used, copied, transmitted, or stored only in accord with that
 written license.
  
 The following legend is applicable only to US Government
 contracts under FAR:
  
                    RESTRICTED RIGHTS LEGEND
  
 Use, reproduction and disclosure by the US Government is
 subject to restrictions as set forth in subparagraphs (a)
 and (c) of the Commercial Computer Software - Restricted
 Rights clause in FAR 52.227-19.
  
 Gaussian, Inc.
 340 Quinnipiac St., Bldg. 40, Wallingford CT 06492
  
  
 ---------------------------------------------------------------
 Warning -- This program may not be used in any manner that
 competes with the business of Gaussian, Inc. or will provide
 assistance to any competitor of Gaussian, Inc.  The licensee
 of this program is prohibited from giving any competitor of
 Gaussian, Inc. access to this program.  By using this program,
 the user acknowledges that Gaussian, Inc. is engaged in the
 business of creating and licensing software in the field of
 computational chemistry and represents and warrants to the
 licensee that it is not a competitor of Gaussian, Inc. and that
 it will not use this program in any manner prohibited above.
 ---------------------------------------------------------------
  

 Cite this work as:
 Gaussian 09, Revision A.02,
 M. J. Frisch, G. W. Trucks, H. B. Schlegel, G. E. Scuseria, 
 M. A. Robb, J. R. Cheeseman, G. Scalmani, V. Barone, B. Mennucci, 
 G. A. Petersson, H. Nakatsuji, M. Caricato, X. Li, H. P. Hratchian, 
 A. F. Izmaylov, J. Bloino, G. Zheng, J. L. Sonnenberg, M. Hada, 
 M. Ehara, K. Toyota, R. Fukuda, J. Hasegawa, M. Ishida, T. Nakajima, 
 Y. Honda, O. Kitao, H. Nakai, T. Vreven, J. A. Montgomery, Jr., 
 J. E. Peralta, F. Ogliaro, M. Bearpark, J. J. Heyd, E. Brothers, 
 K. N. Kudin, V. N. Staroverov, R. Kobayashi, J. Normand, 
 K. Raghavachari, A. Rendell, J. C. Burant, S. S. Iyengar, J. Tomasi, 
 M. Cossi, N. Rega, J. M. Millam, M. Klene, J. E. Knox, J. B. Cross, 
 V. Bakken, C. Adamo, J. Jaramillo, R. Gomperts, R. E. Stratmann, 
 O. Yazyev, A. J. Austin, R. Cammi, C. Pomelli, J. W. Ochterski, 
 R. L. Martin, K. Morokuma, V. G. Zakrzewski, G. A. Voth, 
 P. Salvador, J. J. Dannenberg, S. Dapprich, A. D. Daniels, 
 O. Farkas, J. B. Foresman, J. V. Ortiz, J. Cioslowski, 
 and D. J. Fox, Gaussian, Inc., Wallingford CT, 2009.
 
 ******************************************
 Gaussian 09:  AM64L-G09RevA.02 11-Jun-2009
                 3-Sep-2021 
 ******************************************
 %chk=opt.chk
 %mem=2gb
 %nproc=1
 Will use up to    1 processors via shared memory.
 ----------------------------------
 #p b3lyp 6-31G* opt scf(xqc,tight)
 ----------------------------------
 1/14=-1,18=20,19=15,26=3,38=1/1,3;
 2/9=110,12=2,17=6,18=5,40=1/2;
 3/5=1,6=6,7=1,11=2,16=1,25=1,30=1,71=1,74=-5/1,2,3;
 4//1;
 5/5=2,8=3,13=1,32=2,38=5/2,8;
 6/7=2,8=2,9=2,10=2,28=1/1;
 7//1,2,3,16;
 1/14=-1,18=20,19=15/3(2);
 2/9=110/2;
 99//99;
 2/9=110/2;
 3/5=1,6=6,7=1,11=2,16=1,25=1,30=1,71=1,74=-5/1,2,3;
 4/5=5,16=3/1;
 5/5=2,8=3,13=1,32=2,38=5/2,8;
 7//1,2,3,16;
 1/14=-1,18=20,19=15/3(-5);
 2/9=110/2;
 6/7=2,8=2,9=2,10=2,19=2,28=1/1;
 99/9=1/99;
 Leave Link    1 at Fri Sep  3 00:09:17 2021, MaxMem=  268435456 cpu:       0.1
 (Enter /sw/target/amd/app/gaussian/Gaussian09RevA.02_gcc-4.9.2/g09/l101.exe)
 ---------------
 opt calculation
 ---------------
 Symbolic Z-matrix:
 Charge =  0 Multiplicity = 1
 C                    -3.15848   1.58135  -2.0895 
 O                    -1.84963   1.35147  -1.58645 
 C                    -1.78975   0.33991  -0.65143 
 N                    -2.89827  -0.30511  -0.30575 
 C                    -2.70905  -1.25239   0.6063 
 O                    -3.78191  -1.99258   1.0565 
 C                    -5.01734  -1.61991   0.46144 
 N                    -1.55157  -1.5809    1.15884 
 C                    -0.5186   -0.87015   0.72247 
 O                     0.69449  -1.19393   1.3213 
 C                     1.82722  -0.69135   0.73123 
 C                     2.3003   -1.21829  -0.47064 
 C                     3.48694  -0.72979  -1.01448 
 C                     4.20097   0.27134  -0.35129 
 C                     3.73354   0.79719   0.86094 
 C                     4.52402   1.8415    1.59145 
 C                     2.54839   0.29225   1.40991 
 N                    -0.57688   0.10935  -0.17508 
 H                    -3.84184   1.89643  -1.29298 
 H                    -3.54459   0.69895  -2.61194 
 H                    -3.09831   2.39704  -2.81663 
 H                    -5.00424  -1.78855  -0.62083 
 H                    -5.27363  -0.58036   0.69368 
 H                    -5.79897  -2.25632   0.88748 
 H                     1.7528   -2.00496  -0.98088 
 H                     3.85999  -1.13154  -1.95285 
 H                     5.1288    0.63746  -0.78565 
 H                     3.86572   2.48929   2.17977 
 H                     5.24353   1.36417   2.26373 
 H                     5.06667   2.48279   0.88893 
 H                     2.17968   0.66565   2.36162 
 
 NAtoms=     31 NQM=     31 NQMF=      0 NMic=      0 NMicF=      0 NTot=     31.
                    Isotopes and Nuclear Properties:
 (Nuclear quadrupole moments (NQMom) in fm**2, nuclear magnetic moments (NMagM)
  in nuclear magnetons)

  Atom         1           2           3           4           5           6           7           8           9          10
 IAtWgt=          12          16          12          14          12          16          12          14          12          16
 AtmWgt=  12.0000000  15.9949146  12.0000000  14.0030740  12.0000000  15.9949146  12.0000000  14.0030740  12.0000000  15.9949146
 NucSpn=           0           0           0           2           0           0           0           2           0           0
 AtZEff=   0.0000000   0.0000000   0.0000000   0.0000000   0.0000000   0.0000000   0.0000000   0.0000000   0.0000000   0.0000000
 NQMom=    0.0000000   0.0000000   0.0000000   2.0440000   0.0000000   0.0000000   0.0000000   2.0440000   0.0000000   0.0000000
 NMagM=    0.0000000   0.0000000   0.0000000   0.4037610   0.0000000   0.0000000   0.0000000   0.4037610   0.0000000   0.0000000

  Atom        11          12          13          14          15          16          17          18          19          20
 IAtWgt=          12          12          12          12          12          12          12          14           1           1
 AtmWgt=  12.0000000  12.0000000  12.0000000  12.0000000  12.0000000  12.0000000  12.0000000  14.0030740   1.0078250   1.0078250
 NucSpn=           0           0           0           0           0           0           0           2           1           1
 AtZEff=   0.0000000   0.0000000   0.0000000   0.0000000   0.0000000   0.0000000   0.0000000   0.0000000   0.0000000   0.0000000
 NQMom=    0.0000000   0.0000000   0.0000000   0.0000000   0.0000000   0.0000000   0.0000000   2.0440000   0.0000000   0.0000000
 NMagM=    0.0000000   0.0000000   0.0000000   0.0000000   0.0000000   0.0000000   0.0000000   0.4037610   2.7928460   2.7928460

  Atom        21          22          23          24          25          26          27          28          29          30
 IAtWgt=           1           1           1           1           1           1           1           1           1           1
 AtmWgt=   1.0078250   1.0078250   1.0078250   1.0078250   1.0078250   1.0078250   1.0078250   1.0078250   1.0078250   1.0078250
 NucSpn=           1           1           1           1           1           1           1           1           1           1
 AtZEff=   0.0000000   0.0000000   0.0000000   0.0000000   0.0000000   0.0000000   0.0000000   0.0000000   0.0000000   0.0000000
 NQMom=    0.0000000   0.0000000   0.0000000   0.0000000   0.0000000   0.0000000   0.0000000   0.0000000   0.0000000   0.0000000
 NMagM=    2.7928460   2.7928460   2.7928460   2.7928460   2.7928460   2.7928460   2.7928460   2.7928460   2.7928460   2.7928460

  Atom        31
 IAtWgt=           1
 AtmWgt=   1.0078250
 NucSpn=           1
 AtZEff=   0.0000000
 NQMom=    0.0000000
 NMagM=    2.7928460
 Leave Link  101 at Fri Sep  3 00:09:17 2021, MaxMem=  268435456 cpu:       0.2
 (Enter /sw/target/amd/app/gaussian/Gaussian09RevA.02_gcc-4.9.2/g09/l103.exe)

 GradGradGradGradGradGradGradGradGradGradGradGradGradGradGradGradGradGrad
 Berny optimization.
 Initialization pass.
                           ----------------------------
                           !    Initial Parameters    !
                           ! (Angstroms and Degrees)  !
 --------------------------                            --------------------------
 ! Name  Definition              Value          Derivative Info.                !
 --------------------------------------------------------------------------------
 ! R1    R(1,2)                  1.4209         estimate D2E/DX2                !
 ! R2    R(1,19)                 1.0958         estimate D2E/DX2                !
 ! R3    R(1,20)                 1.0957         estimate D2E/DX2                !
 ! R4    R(1,21)                 1.0944         estimate D2E/DX2                !
 ! R5    R(2,3)                  1.3788         estimate D2E/DX2                !
 ! R6    R(3,4)                  1.3283         estimate D2E/DX2                !
 ! R7    R(3,18)                 1.3233         estimate D2E/DX2                !
 ! R8    R(4,5)                  1.3285         estimate D2E/DX2                !
 ! R9    R(5,6)                  1.379          estimate D2E/DX2                !
 ! R10   R(5,8)                  1.324          estimate D2E/DX2                !
 ! R11   R(6,7)                  1.421          estimate D2E/DX2                !
 ! R12   R(7,22)                 1.0954         estimate D2E/DX2                !
 ! R13   R(7,23)                 1.0956         estimate D2E/DX2                !
 ! R14   R(7,24)                 1.0943         estimate D2E/DX2                !
 ! R15   R(8,9)                  1.3276         estimate D2E/DX2                !
 ! R16   R(9,10)                 1.391          estimate D2E/DX2                !
 ! R17   R(9,18)                 1.3298         estimate D2E/DX2                !
 ! R18   R(10,11)                1.3725         estimate D2E/DX2                !
 ! R19   R(11,12)                1.395          estimate D2E/DX2                !
 ! R20   R(11,17)                1.3958         estimate D2E/DX2                !
 ! R21   R(12,13)                1.3937         estimate D2E/DX2                !
 ! R22   R(12,25)                1.0858         estimate D2E/DX2                !
 ! R23   R(13,14)                1.3971         estimate D2E/DX2                !
 ! R24   R(13,26)                1.0868         estimate D2E/DX2                !
 ! R25   R(14,15)                1.4016         estimate D2E/DX2                !
 ! R26   R(14,27)                1.0879         estimate D2E/DX2                !
 ! R27   R(15,16)                1.4997         estimate D2E/DX2                !
 ! R28   R(15,17)                1.4003         estimate D2E/DX2                !
 ! R29   R(16,28)                1.095          estimate D2E/DX2                !
 ! R30   R(16,29)                1.0943         estimate D2E/DX2                !
 ! R31   R(16,30)                1.0951         estimate D2E/DX2                !
 ! R32   R(17,31)                1.0868         estimate D2E/DX2                !
 ! A1    A(2,1,19)             111.3232         estimate D2E/DX2                !
 ! A2    A(2,1,20)             111.2905         estimate D2E/DX2                !
 ! A3    A(2,1,21)             107.7682         estimate D2E/DX2                !
 ! A4    A(19,1,20)            111.0012         estimate D2E/DX2                !
 ! A5    A(19,1,21)            107.6342         estimate D2E/DX2                !
 ! A6    A(20,1,21)            107.6259         estimate D2E/DX2                !
 ! A7    A(1,2,3)              113.5014         estimate D2E/DX2                !
 ! A8    A(2,3,4)              119.7689         estimate D2E/DX2                !
 ! A9    A(2,3,18)             114.3137         estimate D2E/DX2                !
 ! A10   A(4,3,18)             125.9174         estimate D2E/DX2                !
 ! A11   A(3,4,5)              113.9566         estimate D2E/DX2                !
 ! A12   A(4,5,6)              119.7386         estimate D2E/DX2                !
 ! A13   A(4,5,8)              126.0104         estimate D2E/DX2                !
 ! A14   A(6,5,8)              114.251          estimate D2E/DX2                !
 ! A15   A(5,6,7)              113.5108         estimate D2E/DX2                !
 ! A16   A(6,7,22)             111.2825         estimate D2E/DX2                !
 ! A17   A(6,7,23)             111.3127         estimate D2E/DX2                !
 ! A18   A(6,7,24)             107.785          estimate D2E/DX2                !
 ! A19   A(22,7,23)            110.997          estimate D2E/DX2                !
 ! A20   A(22,7,24)            107.6776         estimate D2E/DX2                !
 ! A21   A(23,7,24)            107.5901         estimate D2E/DX2                !
 ! A22   A(5,8,9)              114.2174         estimate D2E/DX2                !
 ! A23   A(8,9,10)             114.3565         estimate D2E/DX2                !
 ! A24   A(8,9,18)             125.5962         estimate D2E/DX2                !
 ! A25   A(10,9,18)            120.0141         estimate D2E/DX2                !
 ! A26   A(9,10,11)            116.7054         estimate D2E/DX2                !
 ! A27   A(10,11,12)           120.7948         estimate D2E/DX2                !
 ! A28   A(10,11,17)           118.3859         estimate D2E/DX2                !
 ! A29   A(12,11,17)           120.6573         estimate D2E/DX2                !
 ! A30   A(11,12,13)           119.5069         estimate D2E/DX2                !
 ! A31   A(11,12,25)           120.5004         estimate D2E/DX2                !
 ! A32   A(13,12,25)           119.9926         estimate D2E/DX2                !
 ! A33   A(12,13,14)           120.0705         estimate D2E/DX2                !
 ! A34   A(12,13,26)           119.9741         estimate D2E/DX2                !
 ! A35   A(14,13,26)           119.9547         estimate D2E/DX2                !
 ! A36   A(13,14,15)           120.5937         estimate D2E/DX2                !
 ! A37   A(13,14,27)           119.1759         estimate D2E/DX2                !
 ! A38   A(15,14,27)           120.2301         estimate D2E/DX2                !
 ! A39   A(14,15,16)           120.4483         estimate D2E/DX2                !
 ! A40   A(14,15,17)           119.0798         estimate D2E/DX2                !
 ! A41   A(16,15,17)           120.4131         estimate D2E/DX2                !
 ! A42   A(15,16,28)           110.9022         estimate D2E/DX2                !
 ! A43   A(15,16,29)           110.0033         estimate D2E/DX2                !
 ! A44   A(15,16,30)           110.8843         estimate D2E/DX2                !
 ! A45   A(28,16,29)           108.859          estimate D2E/DX2                !
 ! A46   A(28,16,30)           107.2257         estimate D2E/DX2                !
 ! A47   A(29,16,30)           108.8885         estimate D2E/DX2                !
 ! A48   A(11,17,15)           120.0514         estimate D2E/DX2                !
 ! A49   A(11,17,31)           119.5134         estimate D2E/DX2                !
 ! A50   A(15,17,31)           120.4341         estimate D2E/DX2                !
 ! A51   A(3,18,9)             114.2963         estimate D2E/DX2                !
 ! D1    D(19,1,2,3)            62.0874         estimate D2E/DX2                !
 ! D2    D(20,1,2,3)           -62.3164         estimate D2E/DX2                !
 ! D3    D(21,1,2,3)           179.8998         estimate D2E/DX2                !
 ! D4    D(1,2,3,4)             -0.2437         estimate D2E/DX2                !
 ! D5    D(1,2,3,18)           179.7998         estimate D2E/DX2                !
 ! D6    D(2,3,4,5)           -179.7467         estimate D2E/DX2                !
 ! D7    D(18,3,4,5)             0.2043         estimate D2E/DX2                !
 ! D8    D(2,3,18,9)          -179.7277         estimate D2E/DX2                !
 ! D9    D(4,3,18,9)             0.319          estimate D2E/DX2                !
 ! D10   D(3,4,5,6)            179.681          estimate D2E/DX2                !
 ! D11   D(3,4,5,8)             -0.2608         estimate D2E/DX2                !
 ! D12   D(4,5,6,7)             -0.4268         estimate D2E/DX2                !
 ! D13   D(8,5,6,7)            179.5216         estimate D2E/DX2                !
 ! D14   D(4,5,8,9)             -0.2159         estimate D2E/DX2                !
 ! D15   D(6,5,8,9)            179.8395         estimate D2E/DX2                !
 ! D16   D(5,6,7,22)            62.5396         estimate D2E/DX2                !
 ! D17   D(5,6,7,23)           -61.8449         estimate D2E/DX2                !
 ! D18   D(5,6,7,24)          -179.6081         estimate D2E/DX2                !
 ! D19   D(5,8,9,10)           178.7297         estimate D2E/DX2                !
 ! D20   D(5,8,9,18)             0.8377         estimate D2E/DX2                !
 ! D21   D(8,9,10,11)          167.3638         estimate D2E/DX2                !
 ! D22   D(18,9,10,11)         -14.6157         estimate D2E/DX2                !
 ! D23   D(8,9,18,3)            -0.8854         estimate D2E/DX2                !
 ! D24   D(10,9,18,3)         -178.6676         estimate D2E/DX2                !
 ! D25   D(9,10,11,12)         -73.5493         estimate D2E/DX2                !
 ! D26   D(9,10,11,17)         111.0456         estimate D2E/DX2                !
 ! D27   D(10,11,12,13)       -177.0365         estimate D2E/DX2                !
 ! D28   D(10,11,12,25)          2.8101         estimate D2E/DX2                !
 ! D29   D(17,11,12,13)         -1.7359         estimate D2E/DX2                !
 ! D30   D(17,11,12,25)        178.1107         estimate D2E/DX2                !
 ! D31   D(10,11,17,15)        177.8574         estimate D2E/DX2                !
 ! D32   D(10,11,17,31)         -2.5277         estimate D2E/DX2                !
 ! D33   D(12,11,17,15)          2.4457         estimate D2E/DX2                !
 ! D34   D(12,11,17,31)       -177.9394         estimate D2E/DX2                !
 ! D35   D(11,12,13,14)          0.6039         estimate D2E/DX2                !
 ! D36   D(11,12,13,26)       -179.7098         estimate D2E/DX2                !
 ! D37   D(25,12,13,14)       -179.2434         estimate D2E/DX2                !
 ! D38   D(25,12,13,26)          0.4429         estimate D2E/DX2                !
 ! D39   D(12,13,14,15)         -0.1887         estimate D2E/DX2                !
 ! D40   D(12,13,14,27)        179.6081         estimate D2E/DX2                !
 ! D41   D(26,13,14,15)       -179.875          estimate D2E/DX2                !
 ! D42   D(26,13,14,27)         -0.0782         estimate D2E/DX2                !
 ! D43   D(13,14,15,16)        178.1034         estimate D2E/DX2                !
 ! D44   D(13,14,15,17)          0.8786         estimate D2E/DX2                !
 ! D45   D(27,14,15,16)         -1.6912         estimate D2E/DX2                !
 ! D46   D(27,14,15,17)       -178.916          estimate D2E/DX2                !
 ! D47   D(14,15,16,28)        151.2833         estimate D2E/DX2                !
 ! D48   D(14,15,16,29)        -88.2357         estimate D2E/DX2                !
 ! D49   D(14,15,16,30)         32.2706         estimate D2E/DX2                !
 ! D50   D(17,15,16,28)        -31.5291         estimate D2E/DX2                !
 ! D51   D(17,15,16,29)         88.9519         estimate D2E/DX2                !
 ! D52   D(17,15,16,30)       -150.5418         estimate D2E/DX2                !
 ! D53   D(14,15,17,11)         -1.9923         estimate D2E/DX2                !
 ! D54   D(14,15,17,31)        178.3964         estimate D2E/DX2                !
 ! D55   D(16,15,17,11)       -179.2181         estimate D2E/DX2                !
 ! D56   D(16,15,17,31)          1.1706         estimate D2E/DX2                !
 --------------------------------------------------------------------------------
 Trust Radius=3.00D-01 FncErr=1.00D-07 GrdErr=1.00D-06
 Number of steps in this run= 149 maximum allowed number of steps= 186.
 GradGradGradGradGradGradGradGradGradGradGradGradGradGradGradGradGradGrad

 Leave Link  103 at Fri Sep  3 00:09:17 2021, MaxMem=  268435456 cpu:       0.0
 (Enter /sw/target/amd/app/gaussian/Gaussian09RevA.02_gcc-4.9.2/g09/l202.exe)
                          Input orientation:                          
 ---------------------------------------------------------------------
 Center     Atomic      Atomic             Coordinates (Angstroms)
 Number     Number       Type             X           Y           Z
 ---------------------------------------------------------------------
      1          6           0       -3.158480    1.581351   -2.089496
      2          8           0       -1.849625    1.351471   -1.586451
      3          6           0       -1.789752    0.339905   -0.651434
      4          7           0       -2.898273   -0.305105   -0.305745
      5          6           0       -2.709048   -1.252393    0.606303
      6          8           0       -3.781907   -1.992577    1.056502
      7          6           0       -5.017335   -1.619910    0.461442
      8          7           0       -1.551567   -1.580904    1.158836
      9          6           0       -0.518599   -0.870152    0.722467
     10          8           0        0.694489   -1.193925    1.321303
     11          6           0        1.827220   -0.691352    0.731230
     12          6           0        2.300298   -1.218293   -0.470641
     13          6           0        3.486935   -0.729794   -1.014482
     14          6           0        4.200972    0.271339   -0.351287
     15          6           0        3.733540    0.797192    0.860937
     16          6           0        4.524016    1.841503    1.591447
     17          6           0        2.548391    0.292254    1.409907
     18          7           0       -0.576875    0.109349   -0.175082
     19          1           0       -3.841838    1.896433   -1.292978
     20          1           0       -3.544592    0.698949   -2.611935
     21          1           0       -3.098315    2.397037   -2.816630
     22          1           0       -5.004239   -1.788554   -0.620825
     23          1           0       -5.273626   -0.580360    0.693684
     24          1           0       -5.798974   -2.256321    0.887481
     25          1           0        1.752799   -2.004959   -0.980875
     26          1           0        3.859991   -1.131539   -1.952849
     27          1           0        5.128797    0.637455   -0.785649
     28          1           0        3.865723    2.489287    2.179768
     29          1           0        5.243531    1.364172    2.263731
     30          1           0        5.066669    2.482786    0.888928
     31          1           0        2.179676    0.665654    2.361616
 ---------------------------------------------------------------------
                    Distance matrix (angstroms):
                    1          2          3          4          5
     1  C    0.000000
     2  O    1.420915   0.000000
     3  C    2.341501   1.378806   0.000000
     4  N    2.609251   2.341819   1.328291   0.000000
     5  C    3.936931   3.510966   2.227649   1.328530   0.000000
     6  O    4.801971   4.679911   3.510869   2.341813   1.378977
     7  C    4.495631   4.801808   3.936580   2.609159   2.341846
     8  N    4.809749   4.027935   2.650154   2.363531   1.323999
     9  C    4.570118   3.469631   2.228827   2.653177   2.226582
    10  O    5.846458   4.626726   3.523603   4.042923   3.478320
    11  C    6.162701   4.802495   4.007211   4.853328   4.572538
    12  C    6.344837   5.007053   4.380545   5.280743   5.123916
    13  C    7.117485   5.756534   5.396247   6.438443   6.425750
    14  C    7.674571   6.269134   5.998630   7.122755   7.140526
    15  C    7.537898   6.121165   5.744835   6.823280   6.765543
    16  C    8.522779   7.138800   6.866511   7.955981   7.928425
    17  C    6.817329   5.426108   4.803216   5.741642   5.538265
    18  N    3.535033   2.270401   1.323306   2.361723   2.647842
    19  H    1.095763   2.086150   2.654320   2.590697   3.847803
    20  H    1.095746   2.085741   2.655549   2.596992   3.855246
    21  H    1.094389   2.041023   3.260706   3.694067   5.018599
    22  H    4.113403   4.554534   3.855412   2.595186   2.657294
    23  H    4.110101   4.544752   3.846246   2.591703   2.652607
    24  H    5.528320   5.893544   5.018218   3.693927   3.261070
    25  H    6.181531   4.960827   4.261055   4.997777   4.795161
    26  H    7.525781   6.236930   5.981507   7.005004   7.050967
    27  H    8.442151   7.060416   6.926245   8.096455   8.181740
    28  H    8.269848   6.938605   6.679816   7.729039   7.726809
    29  H    9.465281   8.070745   7.682082   8.699291   8.534459
    30  H    8.794127   7.432530   7.346779   8.522903   8.630945
    31  H    7.010478   5.682679   4.994091   5.817453   5.537116
                    6          7          8          9         10
     6  O    0.000000
     7  C    1.421006   0.000000
     8  N    2.270322   3.535453   0.000000
     9  C    3.467073   4.568249   1.327633   0.000000
    10  O    4.554787   5.791870   2.284932   1.391049   0.000000
    11  C    5.767261   6.912520   3.519993   2.352640   1.372532
    12  C    6.318615   7.387681   4.198041   3.080729   2.406300
    13  C    7.662875   8.677169   5.552855   4.368180   3.670022
    14  C    8.416267   9.445345   6.229204   4.972957   4.152105
    15  C    8.018915   9.087342   5.803141   4.569452   3.662283
    16  C    9.163771  10.212525   6.986611   5.791042   4.894086
    17  C    6.739289   7.861054   4.514578   3.351147   2.377716
    18  N    4.025807   4.807617   2.363539   1.329817   2.356705
    19  H    4.544012   4.101762   4.832040   4.770737   6.079724
    20  H    4.556101   4.122102   4.836175   4.768328   6.084664
    21  H    5.893824   5.528495   5.832733   5.463942   6.663547
    22  H    2.085461   1.095406   3.889891   4.771673   6.049872
    23  H    2.085958   1.095575   3.882161   4.763936   6.032310
    24  H    2.041247   1.094298   4.309326   5.461781   6.594084
    25  H    5.897799   6.932767   3.959422   3.057517   2.660417
    26  H    8.258098   9.212721   6.258552   5.137868   4.554598
    27  H    9.471601  10.468760   7.302698   6.036586   5.239875
    28  H    8.935048   9.937146   6.852429   5.712428   4.935559
    29  H    9.704829  10.836898   7.487832   6.369446   5.303378
    30  H    9.917371  10.895045   7.770938   6.516527   5.728971
    31  H    6.656575   7.786619   4.518393   3.510868   2.597319
                   11         12         13         14         15
    11  C    0.000000
    12  C    1.394978   0.000000
    13  C    2.409075   1.393737   0.000000
    14  C    2.780884   2.417811   1.397120   0.000000
    15  C    2.422115   2.808819   2.430987   1.401607   0.000000
    16  C    3.798426   4.308072   3.804993   2.518727   1.499694
    17  C    1.395769   2.424822   2.793405   2.415215   1.400324
    18  N    2.691133   3.182470   4.233592   4.783839   4.486217
    19  H    6.552272   6.935675   7.790093   8.259207   7.951983
    20  H    6.478121   6.513348   7.350887   8.080046   8.064843
    21  H    6.810753   6.907916   7.509349   7.992252   7.922010
    22  H    7.049875   7.328302   8.565978   9.436722   9.232036
    23  H    7.101813   7.689404   8.926791   9.570024   9.113433
    24  H    7.786679   8.277693   9.600826  10.388577  10.009669
    25  H    2.159260   1.085789   2.152766   3.401686   3.894568
    26  H    3.395615   2.153395   1.086785   2.156232   3.413705
    27  H    3.868729   3.397563   2.148824   1.087920   2.164140
    28  H    4.046013   4.818856   4.550736   3.382000   2.149412
    29  H    4.271407   4.775828   4.268138   3.019856   2.137609
    30  H    4.538067   4.816557   4.054528   2.679191   2.149243
    31  H    2.150314   3.403746   3.879979   3.406019   2.164216
                   16         17         18         19         20
    16  C    0.000000
    17  C    2.517186   0.000000
    18  N    5.669221   3.508979   0.000000
    19  H    8.849319   7.121377   3.886302   0.000000
    20  H    9.169312   7.311980   3.885000   1.806093   0.000000
    21  H    8.822680   7.360640   4.309171   1.767752   1.767644
    22  H   10.433557   8.092951   4.837590   3.922001   3.504677
    23  H   10.132383   7.903061   4.825963   3.483008   3.943768
    24  H   11.128875   8.743378   5.830588   5.082337   5.105073
    25  H    5.393677   3.409691   3.247612   6.827754   6.167157
    26  H    4.673536   3.880156   4.938222   8.301940   7.655908
    27  H    2.732412   3.405602   5.762498   9.072745   8.863790
    28  H    1.095032   2.674884   5.562922   8.474546   9.004360
    29  H    1.094309   3.023542   6.434246   9.771254  10.072028
    30  H    1.095102   3.378102   6.214090   9.190540   9.465301
    31  H    2.733443   1.086797   3.787200   7.150490   7.583176
                   21         22         23         24         25
    21  H    0.000000
    22  H    5.096399   0.000000
    23  H    5.091088   1.805612   0.000000
    24  H    6.532055   1.767879   1.767029   0.000000
    25  H    6.803005   6.770083   7.362355   7.783522   0.000000
    26  H    7.849522   8.987799   9.525277  10.130558   2.479487
    27  H    8.654847  10.420706  10.577424  11.427576   4.291600
    28  H    8.571483  10.238138   9.754941  10.844223   5.886625
    29  H    9.821572  11.103024  10.810034  11.702092   5.836413
    30  H    8.966910  11.042956  10.786227  11.854170   5.883685
    31  H    7.594018   8.156392   7.738621   8.623797   4.299610
                   26         27         28         29         30
    26  H    0.000000
    27  H    2.470134   0.000000
    28  H    5.494446   3.717302   0.000000
    29  H    5.091395   3.136877   1.780811   0.000000
    30  H    4.753432   2.492652   1.763117   1.781196   0.000000
    31  H    4.966686   4.313164   2.490273   3.143997   3.715576
                   31
    31  H    0.000000
 Stoichiometry    C12H13N3O3
 Framework group  C1[X(C12H13N3O3)]
 Deg. of freedom    87
 Full point group                 C1      NOp   1
 Largest Abelian subgroup         C1      NOp   1
 Largest concise Abelian subgroup C1      NOp   1
                         Standard orientation:                         
 ---------------------------------------------------------------------
 Center     Atomic      Atomic             Coordinates (Angstroms)
 Number     Number       Type             X           Y           Z
 ---------------------------------------------------------------------
      1          6           0        2.907604    2.998781   -0.091609
      2          8           0        1.608048    2.424244   -0.083838
      3          6           0        1.616481    1.045505   -0.073062
      4          7           0        2.773470    0.393027   -0.075771
      5          6           0        2.646988   -0.929455   -0.069890
      6          8           0        3.773726   -1.724416   -0.078555
      7          6           0        4.987901   -0.986559   -0.103142
      8          7           0        1.506790   -1.602330   -0.057074
      9          6           0        0.422489   -0.836325   -0.045346
     10          8           0       -0.777293   -1.540119   -0.059957
     11          6           0       -1.915221   -0.825187    0.219038
     12          6           0       -2.195959   -0.408817    1.520493
     13          6           0       -3.388992    0.261640    1.784429
     14          6           0       -4.300089    0.501759    0.752833
     15          6           0       -4.025669    0.077240   -0.554446
     16          6           0       -5.024453    0.299025   -1.650952
     17          6           0       -2.832112   -0.608758   -0.810836
     18          7           0        0.413923    0.493366   -0.061497
     19          1           0        3.462977    2.715809   -0.992822
     20          1           0        3.465566    2.732925    0.813188
     21          1           0        2.791616    4.086959   -0.101661
     22          1           0        5.096258   -0.369217    0.795224
     23          1           0        5.065032   -0.376838   -1.010103
     24          1           0        5.814534   -1.703509   -0.115348
     25          1           0       -1.494378   -0.605602    2.325476
     26          1           0       -3.613260    0.593578    2.794688
     27          1           0       -5.229747    1.020714    0.976422
     28          1           0       -4.524761    0.399385   -2.620143
     29          1           0       -5.721811   -0.542989   -1.698032
     30          1           0       -5.591873    1.220240   -1.481701
     31          1           0       -2.609088   -0.970659   -1.811045
 ---------------------------------------------------------------------
 Rotational constants (GHZ):      0.8671437      0.2107452      0.1886981
 Leave Link  202 at Fri Sep  3 00:09:17 2021, MaxMem=  268435456 cpu:       0.0
 (Enter /sw/target/amd/app/gaussian/Gaussian09RevA.02_gcc-4.9.2/g09/l301.exe)
 Standard basis: 6-31G(d) (6D, 7F)
 Ernie: Thresh=  0.10000D-02 Tol=  0.10000D-05 Strict=F.
 There are   296 symmetry adapted basis functions of A   symmetry.
 Integral buffers will be    131072 words long.
 Raffenetti 2 integral format.
 Two-electron integral symmetry is turned on.
   296 basis functions,   556 primitive gaussians,   296 cartesian basis functions
    65 alpha electrons       65 beta electrons
       nuclear repulsion energy      1274.5422449280 Hartrees.
 IExCor=  402 DFT=T Ex+Corr=B3LYP ExCW=0 ScaHFX=  0.200000
 ScaDFX=  0.800000  0.720000  1.000000  0.810000 ScalE2=  1.000000  1.000000
 IRadAn=      0 IRanWt=     -1 IRanGd=            0 ICorTp=0
 NAtoms=   31 NActive=   31 NUniq=   31 SFac= 7.50D-01 NAtFMM=   80 NAOKFM=F Big=F
 Leave Link  301 at Fri Sep  3 00:09:17 2021, MaxMem=  268435456 cpu:       0.1
 (Enter /sw/target/amd/app/gaussian/Gaussian09RevA.02_gcc-4.9.2/g09/l302.exe)
 NPDir=0 NMtPBC=     1 NCelOv=     1 NCel=       1 NClECP=     1 NCelD=      1
         NCelK=      1 NCelE2=     1 NClLst=     1 CellRange=     0.0.
 One-electron integrals computed using PRISM.
 NBasis=   296 RedAO= T  NBF=   296
 NBsUse=   296 1.00D-06 NBFU=   296
 Precomputing XC quadrature grid using
 IXCGrd= 2 IRadAn=           0 IRanWt=          -1 IRanGd=           0 AccXCQ= 1.00D-10.
 NRdTot=    1980 NPtTot=      252180 NUsed=      266456 NTot=      266488
 NSgBfM=   293   293   293   293   293 NAtAll=    31    31.
 Leave Link  302 at Fri Sep  3 00:09:19 2021, MaxMem=  268435456 cpu:       1.8
 (Enter /sw/target/amd/app/gaussian/Gaussian09RevA.02_gcc-4.9.2/g09/l303.exe)
 DipDrv:  MaxL=1.
 Leave Link  303 at Fri Sep  3 00:09:19 2021, MaxMem=  268435456 cpu:       0.1
 (Enter /sw/target/amd/app/gaussian/Gaussian09RevA.02_gcc-4.9.2/g09/l401.exe)
 Harris functional with IExCor=  402 diagonalized for initial guess.
 ExpMin= 1.61D-01 ExpMax= 5.48D+03 ExpMxC= 8.25D+02 IAcc=1 IRadAn=         1 AccDes= 0.00D+00
 HarFok:  IExCor=  402 AccDes= 0.00D+00 IRadAn=         1 IDoV= 1
 ScaDFX=  1.000000  1.000000  1.000000  1.000000
 FoFCou: FMM=F IPFlag=           0 FMFlag=      100000 FMFlg1=           0
         NFxFlg=           0 DoJE=T BraDBF=F KetDBF=T FulRan=T
         Omega=  0.000000  0.000000  1.000000  0.000000  0.000000 ICntrl=     500 IOpCl=  0
         NMat0=    1 NMatS0=    1 NMatT0=    0 NMatD0=    1 NMtDS0=    0 NMtDT0=    0
         I1Cent=           4 NGrid=           0.
 Petite list used in FoFCou.
 Harris En= -855.116831335681    
 Initial guess orbital symmetries:
       Occupied  (A) (A) (A) (A) (A) (A) (A) (A) (A) (A) (A) (A)
                 (A) (A) (A) (A) (A) (A) (A) (A) (A) (A) (A) (A)
                 (A) (A) (A) (A) (A) (A) (A) (A) (A) (A) (A) (A)
                 (A) (A) (A) (A) (A) (A) (A) (A) (A) (A) (A) (A)
                 (A) (A) (A) (A) (A) (A) (A) (A) (A) (A) (A) (A)
                 (A) (A) (A) (A) (A)
       Virtual   (A) (A) (A) (A) (A) (A) (A) (A) (A) (A) (A) (A)
                 (A) (A) (A) (A) (A) (A) (A) (A) (A) (A) (A) (A)
                 (A) (A) (A) (A) (A) (A) (A) (A) (A) (A) (A) (A)
                 (A) (A) (A) (A) (A) (A) (A) (A) (A) (A) (A) (A)
                 (A) (A) (A) (A) (A) (A) (A) (A) (A) (A) (A) (A)
                 (A) (A) (A) (A) (A) (A) (A) (A) (A) (A) (A) (A)
                 (A) (A) (A) (A) (A) (A) (A) (A) (A) (A) (A) (A)
                 (A) (A) (A) (A) (A) (A) (A) (A) (A) (A) (A) (A)
                 (A) (A) (A) (A) (A) (A) (A) (A) (A) (A) (A) (A)
                 (A) (A) (A) (A) (A) (A) (A) (A) (A) (A) (A) (A)
                 (A) (A) (A) (A) (A) (A) (A) (A) (A) (A) (A) (A)
                 (A) (A) (A) (A) (A) (A) (A) (A) (A) (A) (A) (A)
                 (A) (A) (A) (A) (A) (A) (A) (A) (A) (A) (A) (A)
                 (A) (A) (A) (A) (A) (A) (A) (A) (A) (A) (A) (A)
                 (A) (A) (A) (A) (A) (A) (A) (A) (A) (A) (A) (A)
                 (A) (A) (A) (A) (A) (A) (A) (A) (A) (A) (A) (A)
                 (A) (A) (A) (A) (A) (A) (A) (A) (A) (A) (A) (A)
                 (A) (A) (A) (A) (A) (A) (A) (A) (A) (A) (A) (A)
                 (A) (A) (A) (A) (A) (A) (A) (A) (A) (A) (A) (A)
                 (A) (A) (A)
 The electronic state of the initial guess is 1-A.
 Leave Link  401 at Fri Sep  3 00:09:28 2021, MaxMem=  268435456 cpu:       9.3
 (Enter /sw/target/amd/app/gaussian/Gaussian09RevA.02_gcc-4.9.2/g09/l502.exe)
 Closed shell SCF:
 Requested convergence on RMS density matrix=1.00D-08 within  64 cycles.
 Requested convergence on MAX density matrix=1.00D-06.
 Requested convergence on             energy=1.00D-06.
 No special actions if energy rises.
 Using DIIS extrapolation, IDIIS=  1040.
 Integral symmetry usage will be decided dynamically.
       266164 words used for storage of precomputed grid.
 IEnd=      538558 IEndB=      538558 NGot=   268435456 MDV=   267989035
 LenX=   267989035 LenY=   267900978
 Fock matrices will be formed incrementally for  20 cycles.
 Integral accuracy reduced to 1.0D-05 until final iterations.

 Cycle   1  Pass 0  IDiag  1:
 FoFCou: FMM=F IPFlag=           0 FMFlag=      100000 FMFlg1=           0
         NFxFlg=           0 DoJE=F BraDBF=F KetDBF=F FulRan=T
         Omega=  0.000000  0.000000  1.000000  0.000000  0.000000 ICntrl=       0 IOpCl=  0
         NMat0=    1 NMatS0=    1 NMatT0=    0 NMatD0=    1 NMtDS0=    0 NMtDT0=    0
         I1Cent=           0 NGrid=           0.
 Symmetry not used in FoFCou.
 E= -854.610579836557    
 DIIS: error= 3.25D-02 at cycle   1 NSaved=   1.
 NSaved= 1 IEnMin= 1 EnMin= -854.610579836557     IErMin= 1 ErrMin= 3.25D-02
 ErrMax= 3.25D-02 EMaxC= 1.00D-01 BMatC= 4.52D-01 BMatP= 4.52D-01
 IDIUse=3 WtCom= 6.75D-01 WtEn= 3.25D-01
 Coeff-Com:  0.100D+01
 Coeff-En:   0.100D+01
 Coeff:      0.100D+01
 Gap=     0.258 Goal=   None    Shift=    0.000
 GapD=    0.258 DampG=1.000 DampE=0.500 DampFc=0.5000 IDamp=-1.
 Damping current iteration by 5.00D-01
 RMSDP=4.63D-03 MaxDP=1.65D-01              OVMax= 1.94D-01

 Cycle   2  Pass 0  IDiag  1:
 RMSU=  1.61D-03    CP:  9.81D-01
 E= -854.785816164208     Delta-E=       -0.175236327650 Rises=F Damp=T
 DIIS: error= 5.87D-03 at cycle   2 NSaved=   2.
 NSaved= 2 IEnMin= 2 EnMin= -854.785816164208     IErMin= 2 ErrMin= 5.87D-03
 ErrMax= 5.87D-03 EMaxC= 1.00D-01 BMatC= 3.13D-02 BMatP= 4.52D-01
 IDIUse=3 WtCom= 9.41D-01 WtEn= 5.87D-02
 Coeff-Com:  0.109D+00 0.891D+00
 Coeff-En:   0.177D+00 0.823D+00
 Coeff:      0.113D+00 0.887D+00
 Gap=     0.218 Goal=   None    Shift=    0.000
 RMSDP=1.16D-03 MaxDP=4.46D-02 DE=-1.75D-01 OVMax= 1.67D-01

 Cycle   3  Pass 0  IDiag  1:
 RMSU=  7.86D-04    CP:  9.76D-01  8.62D-01
 E= -855.016642069587     Delta-E=       -0.230825905380 Rises=F Damp=F
 DIIS: error= 4.68D-03 at cycle   3 NSaved=   3.
 NSaved= 3 IEnMin= 3 EnMin= -855.016642069587     IErMin= 3 ErrMin= 4.68D-03
 ErrMax= 4.68D-03 EMaxC= 1.00D-01 BMatC= 1.74D-02 BMatP= 3.13D-02
 IDIUse=3 WtCom= 9.53D-01 WtEn= 4.68D-02
 Coeff-Com:  0.122D-01 0.414D+00 0.574D+00
 Coeff-En:   0.000D+00 0.000D+00 0.100D+01
 Coeff:      0.116D-01 0.395D+00 0.594D+00
 Gap=     0.215 Goal=   None    Shift=    0.000
 RMSDP=6.97D-04 MaxDP=2.56D-02 DE=-2.31D-01 OVMax= 6.36D-02

 Cycle   4  Pass 0  IDiag  1:
 RMSU=  3.48D-04    CP:  9.78D-01  9.01D-01  5.64D-01
 E= -855.028207772085     Delta-E=       -0.011565702498 Rises=F Damp=F
 DIIS: error= 3.31D-03 at cycle   4 NSaved=   4.
 NSaved= 4 IEnMin= 4 EnMin= -855.028207772085     IErMin= 4 ErrMin= 3.31D-03
 ErrMax= 3.31D-03 EMaxC= 1.00D-01 BMatC= 5.44D-03 BMatP= 1.74D-02
 IDIUse=3 WtCom= 9.67D-01 WtEn= 3.31D-02
 Coeff-Com: -0.430D-02 0.117D+00 0.369D+00 0.518D+00
 Coeff-En:   0.000D+00 0.000D+00 0.268D+00 0.732D+00
 Coeff:     -0.416D-02 0.113D+00 0.366D+00 0.526D+00
 Gap=     0.207 Goal=   None    Shift=    0.000
 RMSDP=3.28D-04 MaxDP=1.28D-02 DE=-1.16D-02 OVMax= 3.28D-02

 Cycle   5  Pass 0  IDiag  1:
 RMSU=  1.01D-04    CP:  9.78D-01  8.83D-01  7.13D-01  5.10D-01
 E= -855.033207019646     Delta-E=       -0.004999247561 Rises=F Damp=F
 DIIS: error= 1.13D-03 at cycle   5 NSaved=   5.
 NSaved= 5 IEnMin= 5 EnMin= -855.033207019646     IErMin= 5 ErrMin= 1.13D-03
 ErrMax= 1.13D-03 EMaxC= 1.00D-01 BMatC= 6.02D-04 BMatP= 5.44D-03
 IDIUse=3 WtCom= 9.89D-01 WtEn= 1.13D-02
 Coeff-Com: -0.259D-02 0.222D-01 0.152D+00 0.316D+00 0.512D+00
 Coeff-En:   0.000D+00 0.000D+00 0.000D+00 0.692D-01 0.931D+00
 Coeff:     -0.256D-02 0.219D-01 0.150D+00 0.313D+00 0.517D+00
 Gap=     0.207 Goal=   None    Shift=    0.000
 RMSDP=9.31D-05 MaxDP=3.10D-03 DE=-5.00D-03 OVMax= 8.45D-03

 Cycle   6  Pass 0  IDiag  1:
 RMSU=  3.11D-05    CP:  9.78D-01  8.92D-01  6.93D-01  5.88D-01  5.41D-01
 E= -855.033777188358     Delta-E=       -0.000570168712 Rises=F Damp=F
 DIIS: error= 2.53D-04 at cycle   6 NSaved=   6.
 NSaved= 6 IEnMin= 6 EnMin= -855.033777188358     IErMin= 6 ErrMin= 2.53D-04
 ErrMax= 2.53D-04 EMaxC= 1.00D-01 BMatC= 2.89D-05 BMatP= 6.02D-04
 IDIUse=3 WtCom= 9.97D-01 WtEn= 2.53D-03
 Coeff-Com: -0.929D-03 0.266D-02 0.491D-01 0.119D+00 0.265D+00 0.565D+00
 Coeff-En:   0.000D+00 0.000D+00 0.000D+00 0.000D+00 0.000D+00 0.100D+01
 Coeff:     -0.927D-03 0.266D-02 0.490D-01 0.118D+00 0.264D+00 0.566D+00
 Gap=     0.207 Goal=   None    Shift=    0.000
 RMSDP=2.18D-05 MaxDP=9.16D-04 DE=-5.70D-04 OVMax= 1.43D-03

 Cycle   7  Pass 0  IDiag  1:
 RMSU=  9.50D-06    CP:  9.78D-01  8.90D-01  7.00D-01  5.85D-01  5.83D-01
                    CP:  6.83D-01
 E= -855.033801031082     Delta-E=       -0.000023842724 Rises=F Damp=F
 DIIS: error= 8.29D-05 at cycle   7 NSaved=   7.
 NSaved= 7 IEnMin= 7 EnMin= -855.033801031082     IErMin= 7 ErrMin= 8.29D-05
 ErrMax= 8.29D-05 EMaxC= 1.00D-01 BMatC= 3.58D-06 BMatP= 2.89D-05
 IDIUse=1 WtCom= 1.00D+00 WtEn= 0.00D+00
 Coeff-Com: -0.346D-03-0.738D-04 0.180D-01 0.475D-01 0.123D+00 0.341D+00
 Coeff-Com:  0.471D+00
 Coeff:     -0.346D-03-0.738D-04 0.180D-01 0.475D-01 0.123D+00 0.341D+00
 Coeff:      0.471D+00
 Gap=     0.207 Goal=   None    Shift=    0.000
 RMSDP=7.05D-06 MaxDP=3.95D-04 DE=-2.38D-05 OVMax= 5.14D-04

 Initial convergence to 1.0D-05 achieved.  Increase integral accuracy.
 Cycle   8  Pass 1  IDiag  1:
 E= -855.033825872324     Delta-E=       -0.000024841242 Rises=F Damp=F
 DIIS: error= 2.24D-05 at cycle   1 NSaved=   1.
 NSaved= 1 IEnMin= 1 EnMin= -855.033825872324     IErMin= 1 ErrMin= 2.24D-05
 ErrMax= 2.24D-05 EMaxC= 1.00D-01 BMatC= 4.19D-07 BMatP= 4.19D-07
 IDIUse=1 WtCom= 1.00D+00 WtEn= 0.00D+00
 Coeff-Com:  0.100D+01
 Coeff:      0.100D+01
 Gap=     0.207 Goal=   None    Shift=    0.000
 RMSDP=7.05D-06 MaxDP=3.95D-04 DE=-2.48D-05 OVMax= 3.52D-04

 Cycle   9  Pass 1  IDiag  1:
 RMSU=  1.02D-05    CP:  1.00D+00
 E= -855.033825692259     Delta-E=        0.000000180064 Rises=F Damp=F
 DIIS: error= 4.30D-05 at cycle   2 NSaved=   2.
 NSaved= 2 IEnMin= 1 EnMin= -855.033825872324     IErMin= 1 ErrMin= 2.24D-05
 ErrMax= 4.30D-05 EMaxC= 1.00D-01 BMatC= 7.09D-07 BMatP= 4.19D-07
 IDIUse=1 WtCom= 1.00D+00 WtEn= 0.00D+00
 Coeff-Com:  0.577D+00 0.423D+00
 Coeff:      0.577D+00 0.423D+00
 Gap=     0.207 Goal=   None    Shift=    0.000
 RMSDP=3.16D-06 MaxDP=2.30D-04 DE= 1.80D-07 OVMax= 2.96D-04

 Cycle  10  Pass 1  IDiag  1:
 RMSU=  2.15D-06    CP:  1.00D+00  9.39D-01
 E= -855.033826276675     Delta-E=       -0.000000584416 Rises=F Damp=F
 DIIS: error= 1.22D-05 at cycle   3 NSaved=   3.
 NSaved= 3 IEnMin= 3 EnMin= -855.033826276675     IErMin= 3 ErrMin= 1.22D-05
 ErrMax= 1.22D-05 EMaxC= 1.00D-01 BMatC= 4.96D-08 BMatP= 4.19D-07
 IDIUse=1 WtCom= 1.00D+00 WtEn= 0.00D+00
 Coeff-Com:  0.623D-01 0.211D+00 0.727D+00
 Coeff:      0.623D-01 0.211D+00 0.727D+00
 Gap=     0.207 Goal=   None    Shift=    0.000
 RMSDP=9.93D-07 MaxDP=4.18D-05 DE=-5.84D-07 OVMax= 6.97D-05

 Cycle  11  Pass 1  IDiag  1:
 RMSU=  4.92D-07    CP:  1.00D+00  9.62D-01  7.96D-01
 E= -855.033826314334     Delta-E=       -0.000000037659 Rises=F Damp=F
 DIIS: error= 4.12D-06 at cycle   4 NSaved=   4.
 NSaved= 4 IEnMin= 4 EnMin= -855.033826314334     IErMin= 4 ErrMin= 4.12D-06
 ErrMax= 4.12D-06 EMaxC= 1.00D-01 BMatC= 9.10D-09 BMatP= 4.96D-08
 IDIUse=1 WtCom= 1.00D+00 WtEn= 0.00D+00
 Coeff-Com: -0.974D-02 0.891D-01 0.430D+00 0.491D+00
 Coeff:     -0.974D-02 0.891D-01 0.430D+00 0.491D+00
 Gap=     0.207 Goal=   None    Shift=    0.000
 RMSDP=3.65D-07 MaxDP=1.26D-05 DE=-3.77D-08 OVMax= 2.98D-05

 Cycle  12  Pass 1  IDiag  1:
 RMSU=  1.16D-07    CP:  1.00D+00  9.64D-01  8.22D-01  5.48D-01
 E= -855.033826322423     Delta-E=       -0.000000008090 Rises=F Damp=F
 DIIS: error= 9.02D-07 at cycle   5 NSaved=   5.
 NSaved= 5 IEnMin= 5 EnMin= -855.033826322423     IErMin= 5 ErrMin= 9.02D-07
 ErrMax= 9.02D-07 EMaxC= 1.00D-01 BMatC= 4.56D-10 BMatP= 9.10D-09
 IDIUse=1 WtCom= 1.00D+00 WtEn= 0.00D+00
 Coeff-Com: -0.810D-02 0.462D-01 0.236D+00 0.296D+00 0.431D+00
 Coeff:     -0.810D-02 0.462D-01 0.236D+00 0.296D+00 0.431D+00
 Gap=     0.207 Goal=   None    Shift=    0.000
 RMSDP=8.38D-08 MaxDP=3.38D-06 DE=-8.09D-09 OVMax= 7.76D-06

 Cycle  13  Pass 1  IDiag  1:
 RMSU=  3.99D-08    CP:  1.00D+00  9.64D-01  8.19D-01  5.64D-01  6.32D-01
 E= -855.033826322865     Delta-E=       -0.000000000442 Rises=F Damp=F
 DIIS: error= 2.20D-07 at cycle   6 NSaved=   6.
 NSaved= 6 IEnMin= 6 EnMin= -855.033826322865     IErMin= 6 ErrMin= 2.20D-07
 ErrMax= 2.20D-07 EMaxC= 1.00D-01 BMatC= 2.25D-11 BMatP= 4.56D-10
 IDIUse=1 WtCom= 1.00D+00 WtEn= 0.00D+00
 Coeff-Com: -0.303D-02 0.138D-01 0.745D-01 0.966D-01 0.220D+00 0.598D+00
 Coeff:     -0.303D-02 0.138D-01 0.745D-01 0.966D-01 0.220D+00 0.598D+00
 Gap=     0.207 Goal=   None    Shift=    0.000
 RMSDP=2.18D-08 MaxDP=8.23D-07 DE=-4.42D-10 OVMax= 2.26D-06

 Cycle  14  Pass 1  IDiag  1:
 RMSU=  1.01D-08    CP:  1.00D+00  9.64D-01  8.21D-01  5.56D-01  7.01D-01
                    CP:  8.22D-01
 E= -855.033826322896     Delta-E=       -0.000000000031 Rises=F Damp=F
 DIIS: error= 7.98D-08 at cycle   7 NSaved=   7.
 NSaved= 7 IEnMin= 7 EnMin= -855.033826322896     IErMin= 7 ErrMin= 7.98D-08
 ErrMax= 7.98D-08 EMaxC= 1.00D-01 BMatC= 3.08D-12 BMatP= 2.25D-11
 IDIUse=1 WtCom= 1.00D+00 WtEn= 0.00D+00
 Coeff-Com: -0.552D-03 0.134D-02 0.898D-02 0.124D-01 0.577D-01 0.322D+00
 Coeff-Com:  0.598D+00
 Coeff:     -0.552D-03 0.134D-02 0.898D-02 0.124D-01 0.577D-01 0.322D+00
 Coeff:      0.598D+00
 Gap=     0.207 Goal=   None    Shift=    0.000
 RMSDP=6.67D-09 MaxDP=2.64D-07 DE=-3.14D-11 OVMax= 6.48D-07

 SCF Done:  E(RB3LYP) =  -855.033826323     A.U. after   14 cycles
             Convg  =    0.6669D-08             -V/T =  2.0093
 KE= 8.471601265043D+02 PE=-4.540587975489D+03 EE= 1.563851777734D+03
 Leave Link  502 at Fri Sep  3 00:15:33 2021, MaxMem=  268435456 cpu:     363.1
 (Enter /sw/target/amd/app/gaussian/Gaussian09RevA.02_gcc-4.9.2/g09/l508.exe)
 QCSCF skips out because SCF is already converged.
 Leave Link  508 at Fri Sep  3 00:15:34 2021, MaxMem=  268435456 cpu:       0.0
 (Enter /sw/target/amd/app/gaussian/Gaussian09RevA.02_gcc-4.9.2/g09/l601.exe)
 Copying SCF densities to generalized density rwf, IOpCl= 0 IROHF=0.

 **********************************************************************

            Population analysis using the SCF density.

 **********************************************************************

 Orbital symmetries:
       Occupied  (A) (A) (A) (A) (A) (A) (A) (A) (A) (A) (A) (A)
                 (A) (A) (A) (A) (A) (A) (A) (A) (A) (A) (A) (A)
                 (A) (A) (A) (A) (A) (A) (A) (A) (A) (A) (A) (A)
                 (A) (A) (A) (A) (A) (A) (A) (A) (A) (A) (A) (A)
                 (A) (A) (A) (A) (A) (A) (A) (A) (A) (A) (A) (A)
                 (A) (A) (A) (A) (A)
       Virtual   (A) (A) (A) (A) (A) (A) (A) (A) (A) (A) (A) (A)
                 (A) (A) (A) (A) (A) (A) (A) (A) (A) (A) (A) (A)
                 (A) (A) (A) (A) (A) (A) (A) (A) (A) (A) (A) (A)
                 (A) (A) (A) (A) (A) (A) (A) (A) (A) (A) (A) (A)
                 (A) (A) (A) (A) (A) (A) (A) (A) (A) (A) (A) (A)
                 (A) (A) (A) (A) (A) (A) (A) (A) (A) (A) (A) (A)
                 (A) (A) (A) (A) (A) (A) (A) (A) (A) (A) (A) (A)
                 (A) (A) (A) (A) (A) (A) (A) (A) (A) (A) (A) (A)
                 (A) (A) (A) (A) (A) (A) (A) (A) (A) (A) (A) (A)
                 (A) (A) (A) (A) (A) (A) (A) (A) (A) (A) (A) (A)
                 (A) (A) (A) (A) (A) (A) (A) (A) (A) (A) (A) (A)
                 (A) (A) (A) (A) (A) (A) (A) (A) (A) (A) (A) (A)
                 (A) (A) (A) (A) (A) (A) (A) (A) (A) (A) (A) (A)
                 (A) (A) (A) (A) (A) (A) (A) (A) (A) (A) (A) (A)
                 (A) (A) (A) (A) (A) (A) (A) (A) (A) (A) (A) (A)
                 (A) (A) (A) (A) (A) (A) (A) (A) (A) (A) (A) (A)
                 (A) (A) (A) (A) (A) (A) (A) (A) (A) (A) (A) (A)
                 (A) (A) (A) (A) (A) (A) (A) (A) (A) (A) (A) (A)
                 (A) (A) (A) (A) (A) (A) (A) (A) (A) (A) (A) (A)
                 (A) (A) (A)
 The electronic state is 1-A.
 Alpha  occ. eigenvalues --  -19.20190 -19.20167 -19.20037 -14.34879 -14.34217
 Alpha  occ. eigenvalues --  -14.33898 -10.33392 -10.33385 -10.33226 -10.24518
 Alpha  occ. eigenvalues --  -10.24377 -10.24279 -10.19666 -10.18969 -10.18665
 Alpha  occ. eigenvalues --  -10.18487 -10.18347 -10.18152  -1.10909  -1.09281
 Alpha  occ. eigenvalues --   -1.08733  -1.00944  -0.91101  -0.90809  -0.85159
 Alpha  occ. eigenvalues --   -0.77198  -0.75286  -0.73272  -0.72774  -0.68578
 Alpha  occ. eigenvalues --   -0.66574  -0.65554  -0.60666  -0.59602  -0.58130
 Alpha  occ. eigenvalues --   -0.55221  -0.52095  -0.50867  -0.50616  -0.49300
 Alpha  occ. eigenvalues --   -0.47946  -0.47789  -0.44857  -0.44502  -0.44062
 Alpha  occ. eigenvalues --   -0.43586  -0.42363  -0.41348  -0.40727  -0.39829
 Alpha  occ. eigenvalues --   -0.39293  -0.37612  -0.37462  -0.36981  -0.35552
 Alpha  occ. eigenvalues --   -0.35330  -0.34496  -0.34130  -0.30613  -0.28976
 Alpha  occ. eigenvalues --   -0.28614  -0.27852  -0.27538  -0.24347  -0.23272
 Alpha virt. eigenvalues --   -0.02563  -0.02396   0.00325   0.00474   0.09413
 Alpha virt. eigenvalues --    0.09655   0.11764   0.12099   0.12305   0.13465
 Alpha virt. eigenvalues --    0.13497   0.14216   0.14312   0.14862   0.15228
 Alpha virt. eigenvalues --    0.15358   0.16267   0.17469   0.17918   0.19062
 Alpha virt. eigenvalues --    0.19262   0.20497   0.20994   0.24648   0.25357
 Alpha virt. eigenvalues --    0.27201   0.28220   0.29704   0.30060   0.30114
 Alpha virt. eigenvalues --    0.32654   0.35205   0.38645   0.39745   0.42290
 Alpha virt. eigenvalues --    0.42901   0.47908   0.49431   0.50125   0.50978
 Alpha virt. eigenvalues --    0.51947   0.52975   0.53880   0.54132   0.54666
 Alpha virt. eigenvalues --    0.54802   0.55392   0.56095   0.56980   0.58172
 Alpha virt. eigenvalues --    0.58713   0.58886   0.59196   0.60338   0.60784
 Alpha virt. eigenvalues --    0.61758   0.62581   0.63166   0.64600   0.65190
 Alpha virt. eigenvalues --    0.66351   0.66704   0.67959   0.68272   0.71324
 Alpha virt. eigenvalues --    0.71699   0.73173   0.75650   0.76132   0.77315
 Alpha virt. eigenvalues --    0.78354   0.81308   0.82496   0.83275   0.83939
 Alpha virt. eigenvalues --    0.84127   0.84330   0.85095   0.85465   0.86373
 Alpha virt. eigenvalues --    0.88113   0.88546   0.89185   0.90289   0.90649
 Alpha virt. eigenvalues --    0.91441   0.92433   0.93944   0.94590   0.95410
 Alpha virt. eigenvalues --    0.95929   0.96081   0.98247   1.00211   1.01991
 Alpha virt. eigenvalues --    1.02713   1.03472   1.05083   1.05101   1.05808
 Alpha virt. eigenvalues --    1.07713   1.09766   1.13643   1.14291   1.17313
 Alpha virt. eigenvalues --    1.17580   1.19182   1.20640   1.24918   1.27221
 Alpha virt. eigenvalues --    1.28413   1.29141   1.33253   1.35252   1.37962
 Alpha virt. eigenvalues --    1.38905   1.39276   1.39857   1.42823   1.43597
 Alpha virt. eigenvalues --    1.44897   1.45984   1.46570   1.48404   1.49250
 Alpha virt. eigenvalues --    1.49553   1.49929   1.50682   1.50886   1.51372
 Alpha virt. eigenvalues --    1.55229   1.57659   1.58666   1.64506   1.69796
 Alpha virt. eigenvalues --    1.74575   1.74810   1.77653   1.78178   1.81179
 Alpha virt. eigenvalues --    1.81467   1.82581   1.84824   1.86866   1.88657
 Alpha virt. eigenvalues --    1.89671   1.90026   1.90337   1.93853   1.94408
 Alpha virt. eigenvalues --    1.96897   1.97543   1.97926   1.99521   1.99760
 Alpha virt. eigenvalues --    2.00593   2.04521   2.05062   2.07795   2.10487
 Alpha virt. eigenvalues --    2.10986   2.11470   2.11911   2.14641   2.16150
 Alpha virt. eigenvalues --    2.18164   2.20548   2.21066   2.22452   2.23404
 Alpha virt. eigenvalues --    2.26716   2.27124   2.27698   2.28220   2.28803
 Alpha virt. eigenvalues --    2.30709   2.34862   2.36376   2.38679   2.39934
 Alpha virt. eigenvalues --    2.40694   2.43268   2.45886   2.45992   2.47954
 Alpha virt. eigenvalues --    2.49024   2.51935   2.53497   2.55390   2.60170
 Alpha virt. eigenvalues --    2.61855   2.64634   2.65610   2.67066   2.69098
 Alpha virt. eigenvalues --    2.70785   2.74069   2.74996   2.75892   2.77542
 Alpha virt. eigenvalues --    2.78970   2.82763   2.83284   2.88396   2.89825
 Alpha virt. eigenvalues --    2.94043   3.02992   3.12346   3.20554   3.22542
 Alpha virt. eigenvalues --    3.29563   3.42173   3.48143   4.03738   4.04918
 Alpha virt. eigenvalues --    4.09106   4.09768   4.10951   4.13302   4.19436
 Alpha virt. eigenvalues --    4.23277   4.24550   4.25152   4.28802   4.31480
 Alpha virt. eigenvalues --    4.37089   4.43633   4.54032   4.64852   4.70726
 Alpha virt. eigenvalues --    4.82026
          Condensed to atoms (all electrons):
              1          2          3          4          5          6
     1  C    4.894656   0.228083  -0.031245  -0.007848   0.000612  -0.000008
     2  O    0.228083   8.181145   0.308257  -0.082479   0.000957  -0.000014
     3  C   -0.031245   0.308257   4.298868   0.392441  -0.037905   0.000869
     4  N   -0.007848  -0.082479   0.392441   7.072674   0.388320  -0.081007
     5  C    0.000612   0.000957  -0.037905   0.388320   4.312120   0.310752
     6  O   -0.000008  -0.000014   0.000869  -0.081007   0.310752   8.175244
     7  C   -0.000067  -0.000007   0.000639  -0.008078  -0.031790   0.228597
     8  N    0.000077  -0.000190  -0.032097  -0.074706   0.464042  -0.080938
     9  C   -0.000087   0.001268  -0.044515  -0.031197  -0.045745   0.001574
    10  O    0.000000  -0.000009   0.001839  -0.000194   0.001749  -0.000007
    11  C   -0.000000  -0.000000   0.000560   0.000050   0.000080  -0.000000
    12  C   -0.000000   0.000003   0.000076  -0.000010   0.000033   0.000000
    13  C    0.000000   0.000000   0.000002  -0.000000  -0.000000   0.000000
    14  C    0.000000  -0.000000   0.000001   0.000000  -0.000000  -0.000000
    15  C    0.000000   0.000000  -0.000001  -0.000000  -0.000000   0.000000
    16  C   -0.000000  -0.000000  -0.000000  -0.000000   0.000000  -0.000000
    17  C   -0.000000   0.000002   0.000001  -0.000003   0.000009  -0.000000
    18  N    0.004697  -0.081411   0.473708  -0.076699  -0.031792  -0.000190
    19  H    0.372587  -0.031569  -0.008130   0.007029  -0.000105  -0.000004
    20  H    0.372664  -0.031774  -0.007944   0.006905  -0.000127  -0.000004
    21  H    0.376392  -0.030419   0.004089   0.000893  -0.000007  -0.000000
    22  H    0.000037  -0.000004  -0.000109   0.006905  -0.008071  -0.031741
    23  H    0.000033  -0.000004  -0.000117   0.006992  -0.008035  -0.031687
    24  H    0.000000  -0.000000  -0.000006   0.000893   0.004143  -0.030416
    25  H   -0.000000   0.000000  -0.000031  -0.000001   0.000015  -0.000000
    26  H   -0.000000   0.000000  -0.000000  -0.000000   0.000000  -0.000000
    27  H   -0.000000   0.000000  -0.000000   0.000000  -0.000000  -0.000000
    28  H   -0.000000   0.000000   0.000000  -0.000000   0.000000   0.000000
    29  H    0.000000   0.000000  -0.000000   0.000000  -0.000000   0.000000
    30  H    0.000000  -0.000000   0.000000   0.000000  -0.000000   0.000000
    31  H   -0.000000   0.000000  -0.000005   0.000000   0.000001  -0.000000
              7          8          9         10         11         12
     1  C   -0.000067   0.000077  -0.000087   0.000000  -0.000000  -0.000000
     2  O   -0.000007  -0.000190   0.001268  -0.000009  -0.000000   0.000003
     3  C    0.000639  -0.032097  -0.044515   0.001839   0.000560   0.000076
     4  N   -0.008078  -0.074706  -0.031197  -0.000194   0.000050  -0.000010
     5  C   -0.031790   0.464042  -0.045745   0.001749   0.000080   0.000033
     6  O    0.228597  -0.080938   0.001574  -0.000007  -0.000000   0.000000
     7  C    4.894780   0.004727  -0.000118   0.000000   0.000000  -0.000000
     8  N    0.004727   6.907476   0.440066  -0.077464   0.001121  -0.000229
     9  C   -0.000118   0.440066   4.358345   0.293413  -0.015823  -0.004441
    10  O    0.000000  -0.077464   0.293413   8.301187   0.184055  -0.049784
    11  C    0.000000   0.001121  -0.015823   0.184055   4.535458   0.529109
    12  C   -0.000000  -0.000229  -0.004441  -0.049784   0.529109   4.980921
    13  C   -0.000000  -0.000002  -0.000045   0.004246  -0.003191   0.509764
    14  C   -0.000000   0.000000   0.000056   0.000331  -0.042025  -0.042345
    15  C   -0.000000   0.000001  -0.000079   0.003612  -0.005140  -0.034018
    16  C    0.000000  -0.000000  -0.000004  -0.000075   0.005400   0.000639
    17  C    0.000000  -0.000200  -0.004143  -0.044691   0.525143  -0.073818
    18  N    0.000078  -0.075455   0.399068  -0.077678   0.000570   0.003277
    19  H    0.000037  -0.000014   0.000044   0.000000   0.000000   0.000000
    20  H    0.000034  -0.000015   0.000051   0.000000   0.000000   0.000000
    21  H    0.000000   0.000001   0.000003  -0.000000  -0.000000   0.000000
    22  H    0.372556  -0.000141   0.000048   0.000000   0.000000  -0.000000
    23  H    0.372395  -0.000133   0.000049   0.000000   0.000000   0.000000
    24  H    0.376639  -0.000005   0.000003  -0.000000  -0.000000   0.000000
    25  H    0.000000  -0.000246   0.002179  -0.004189  -0.038585   0.349461
    26  H    0.000000  -0.000000  -0.000010  -0.000059   0.003189  -0.036689
    27  H   -0.000000   0.000000   0.000000   0.000002   0.000598   0.004983
    28  H    0.000000   0.000000  -0.000001  -0.000001   0.000082   0.000003
    29  H   -0.000000  -0.000000   0.000000   0.000001  -0.000145   0.000046
    30  H   -0.000000   0.000000   0.000000   0.000000  -0.000124   0.000002
    31  H    0.000000  -0.000052   0.000340  -0.001490  -0.040508   0.006388
             13         14         15         16         17         18
     1  C    0.000000   0.000000   0.000000  -0.000000  -0.000000   0.004697
     2  O    0.000000  -0.000000   0.000000  -0.000000   0.000002  -0.081411
     3  C    0.000002   0.000001  -0.000001  -0.000000   0.000001   0.473708
     4  N   -0.000000   0.000000  -0.000000  -0.000000  -0.000003  -0.076699
     5  C   -0.000000  -0.000000  -0.000000   0.000000   0.000009  -0.031792
     6  O    0.000000  -0.000000   0.000000  -0.000000  -0.000000  -0.000190
     7  C   -0.000000  -0.000000  -0.000000   0.000000   0.000000   0.000078
     8  N   -0.000002   0.000000   0.000001  -0.000000  -0.000200  -0.075455
     9  C   -0.000045   0.000056  -0.000079  -0.000004  -0.004143   0.399068
    10  O    0.004246   0.000331   0.003612  -0.000075  -0.044691  -0.077678
    11  C   -0.003191  -0.042025  -0.005140   0.005400   0.525143   0.000570
    12  C    0.509764  -0.042345  -0.034018   0.000639  -0.073818   0.003277
    13  C    4.887373   0.523219  -0.013651   0.006857  -0.045054  -0.000519
    14  C    0.523219   4.955093   0.554395  -0.064169  -0.040375   0.000076
    15  C   -0.013651   0.554395   4.641873   0.347250   0.512456  -0.000178
    16  C    0.006857  -0.064169   0.347250   5.209959  -0.053791  -0.000001
    17  C   -0.045054  -0.040375   0.512456  -0.053791   5.071968   0.001953
    18  N   -0.000519   0.000076  -0.000178  -0.000001   0.001953   6.932433
    19  H    0.000000  -0.000000  -0.000000   0.000000   0.000000  -0.000138
    20  H   -0.000000  -0.000000   0.000000   0.000000   0.000000  -0.000138
    21  H    0.000000  -0.000000   0.000000   0.000000   0.000000  -0.000002
    22  H   -0.000000   0.000000  -0.000000   0.000000  -0.000000  -0.000014
    23  H    0.000000  -0.000000  -0.000000   0.000000   0.000000  -0.000015
    24  H    0.000000  -0.000000   0.000000  -0.000000   0.000000   0.000001
    25  H   -0.041362   0.004771   0.000421   0.000009   0.005950   0.000223
    26  H    0.353599  -0.038226   0.003425  -0.000211   0.000993  -0.000003
    27  H   -0.045621   0.356548  -0.045118  -0.009119   0.005746   0.000000
    28  H   -0.000187   0.003285  -0.028795   0.364453  -0.003401  -0.000000
    29  H   -0.000158  -0.002097  -0.027245   0.363420  -0.002192   0.000000
    30  H    0.000152  -0.003292  -0.028993   0.365837   0.002727   0.000000
    31  H   -0.000043   0.006053  -0.044170  -0.009452   0.347436   0.000028
             19         20         21         22         23         24
     1  C    0.372587   0.372664   0.376392   0.000037   0.000033   0.000000
     2  O   -0.031569  -0.031774  -0.030419  -0.000004  -0.000004  -0.000000
     3  C   -0.008130  -0.007944   0.004089  -0.000109  -0.000117  -0.000006
     4  N    0.007029   0.006905   0.000893   0.006905   0.006992   0.000893
     5  C   -0.000105  -0.000127  -0.000007  -0.008071  -0.008035   0.004143
     6  O   -0.000004  -0.000004  -0.000000  -0.031741  -0.031687  -0.030416
     7  C    0.000037   0.000034   0.000000   0.372556   0.372395   0.376639
     8  N   -0.000014  -0.000015   0.000001  -0.000141  -0.000133  -0.000005
     9  C    0.000044   0.000051   0.000003   0.000048   0.000049   0.000003
    10  O    0.000000   0.000000  -0.000000   0.000000   0.000000  -0.000000
    11  C    0.000000   0.000000  -0.000000   0.000000   0.000000  -0.000000
    12  C    0.000000   0.000000   0.000000  -0.000000   0.000000   0.000000
    13  C    0.000000  -0.000000   0.000000  -0.000000   0.000000   0.000000
    14  C   -0.000000  -0.000000  -0.000000   0.000000  -0.000000  -0.000000
    15  C   -0.000000   0.000000   0.000000  -0.000000  -0.000000   0.000000
    16  C    0.000000   0.000000   0.000000   0.000000   0.000000  -0.000000
    17  C    0.000000   0.000000   0.000000  -0.000000   0.000000   0.000000
    18  N   -0.000138  -0.000138  -0.000002  -0.000014  -0.000015   0.000001
    19  H    0.567006  -0.036948  -0.034061  -0.000039   0.000338  -0.000000
    20  H   -0.036948   0.567706  -0.034181   0.000315  -0.000038  -0.000000
    21  H   -0.034061  -0.034181   0.549698   0.000000  -0.000000   0.000000
    22  H   -0.000039   0.000315   0.000000   0.568455  -0.037112  -0.034152
    23  H    0.000338  -0.000038  -0.000000  -0.037112   0.568226  -0.034110
    24  H   -0.000000  -0.000000   0.000000  -0.034152  -0.034110   0.549166
    25  H    0.000000  -0.000000  -0.000000   0.000000   0.000000  -0.000000
    26  H   -0.000000   0.000000   0.000000   0.000000  -0.000000   0.000000
    27  H   -0.000000  -0.000000  -0.000000   0.000000  -0.000000  -0.000000
    28  H    0.000000  -0.000000   0.000000   0.000000  -0.000000   0.000000
    29  H   -0.000000   0.000000  -0.000000  -0.000000   0.000000  -0.000000
    30  H    0.000000  -0.000000  -0.000000   0.000000  -0.000000   0.000000
    31  H    0.000000   0.000000  -0.000000   0.000000  -0.000000  -0.000000
             25         26         27         28         29         30
     1  C   -0.000000  -0.000000  -0.000000  -0.000000   0.000000   0.000000
     2  O    0.000000   0.000000   0.000000   0.000000   0.000000  -0.000000
     3  C   -0.000031  -0.000000  -0.000000   0.000000  -0.000000   0.000000
     4  N   -0.000001  -0.000000   0.000000  -0.000000   0.000000   0.000000
     5  C    0.000015   0.000000  -0.000000   0.000000  -0.000000  -0.000000
     6  O   -0.000000  -0.000000  -0.000000   0.000000   0.000000   0.000000
     7  C    0.000000   0.000000  -0.000000   0.000000  -0.000000  -0.000000
     8  N   -0.000246  -0.000000   0.000000   0.000000  -0.000000   0.000000
     9  C    0.002179  -0.000010   0.000000  -0.000001   0.000000   0.000000
    10  O   -0.004189  -0.000059   0.000002  -0.000001   0.000001   0.000000
    11  C   -0.038585   0.003189   0.000598   0.000082  -0.000145  -0.000124
    12  C    0.349461  -0.036689   0.004983   0.000003   0.000046   0.000002
    13  C   -0.041362   0.353599  -0.045621  -0.000187  -0.000158   0.000152
    14  C    0.004771  -0.038226   0.356548   0.003285  -0.002097  -0.003292
    15  C    0.000421   0.003425  -0.045118  -0.028795  -0.027245  -0.028993
    16  C    0.000009  -0.000211  -0.009119   0.364453   0.363420   0.365837
    17  C    0.005950   0.000993   0.005746  -0.003401  -0.002192   0.002727
    18  N    0.000223  -0.000003   0.000000  -0.000000   0.000000   0.000000
    19  H    0.000000  -0.000000  -0.000000   0.000000  -0.000000   0.000000
    20  H   -0.000000   0.000000  -0.000000  -0.000000   0.000000  -0.000000
    21  H   -0.000000   0.000000  -0.000000   0.000000  -0.000000  -0.000000
    22  H    0.000000   0.000000   0.000000   0.000000  -0.000000   0.000000
    23  H    0.000000  -0.000000  -0.000000  -0.000000   0.000000  -0.000000
    24  H   -0.000000   0.000000  -0.000000   0.000000  -0.000000   0.000000
    25  H    0.593593  -0.005702  -0.000178  -0.000000  -0.000000  -0.000000
    26  H   -0.005702   0.591704  -0.005156   0.000003   0.000003  -0.000004
    27  H   -0.000178  -0.005156   0.610026   0.000055   0.000588   0.004908
    28  H   -0.000000   0.000003   0.000055   0.558015  -0.028380  -0.028410
    29  H   -0.000000   0.000003   0.000588  -0.028380   0.554936  -0.028362
    30  H   -0.000000  -0.000004   0.004908  -0.028410  -0.028362   0.557852
    31  H   -0.000161   0.000018  -0.000152   0.004845   0.000605   0.000041
             31
     1  C   -0.000000
     2  O    0.000000
     3  C   -0.000005
     4  N    0.000000
     5  C    0.000001
     6  O   -0.000000
     7  C    0.000000
     8  N   -0.000052
     9  C    0.000340
    10  O   -0.001490
    11  C   -0.040508
    12  C    0.006388
    13  C   -0.000043
    14  C    0.006053
    15  C   -0.044170
    16  C   -0.009452
    17  C    0.347436
    18  N    0.000028
    19  H    0.000000
    20  H    0.000000
    21  H   -0.000000
    22  H    0.000000
    23  H   -0.000000
    24  H   -0.000000
    25  H   -0.000161
    26  H    0.000018
    27  H   -0.000152
    28  H    0.004845
    29  H    0.000605
    30  H    0.000041
    31  H    0.597877
 Mulliken atomic charges:
              1
     1  C   -0.210583
     2  O   -0.461835
     3  C    0.680756
     4  N   -0.520879
     5  C    0.680746
     6  O   -0.461021
     7  C   -0.210423
     8  N   -0.475624
     9  C    0.649700
    10  O   -0.534795
    11  C    0.360128
    12  C   -0.143369
    13  C   -0.135380
    14  C   -0.171299
    15  C    0.163956
    16  C   -0.527001
    17  C   -0.206716
    18  N   -0.471879
    19  H    0.163966
    20  H    0.163494
    21  H    0.167593
    22  H    0.163067
    23  H    0.163218
    24  H    0.167845
    25  H    0.133834
    26  H    0.133127
    27  H    0.121890
    28  H    0.158435
    29  H    0.168981
    30  H    0.157666
    31  H    0.132402
 Sum of Mulliken atomic charges =  -0.00000
 Mulliken charges with hydrogens summed into heavy atoms:
              1
     1  C    0.284471
     2  O   -0.461835
     3  C    0.680756
     4  N   -0.520879
     5  C    0.680746
     6  O   -0.461021
     7  C    0.283706
     8  N   -0.475624
     9  C    0.649700
    10  O   -0.534795
    11  C    0.360128
    12  C   -0.009535
    13  C   -0.002253
    14  C   -0.049409
    15  C    0.163956
    16  C   -0.041919
    17  C   -0.074313
    18  N   -0.471879
 Sum of Mulliken charges with hydrogens summed into heavy atoms =  -0.00000
 Electronic spatial extent (au):  <R**2>=           5836.4346
 Charge=              0.0000 electrons
 Dipole moment (field-independent basis, Debye):
    X=              1.7348    Y=              2.6933    Z=              0.0285  Tot=              3.2037
 Quadrupole moment (field-independent basis, Debye-Ang):
   XX=            -77.9543   YY=           -108.9274   ZZ=            -96.5827
   XY=              5.5424   XZ=              0.6839   YZ=              0.7667
 Traceless Quadrupole moment (field-independent basis, Debye-Ang):
   XX=             16.5338   YY=            -14.4392   ZZ=             -2.0946
   XY=              5.5424   XZ=              0.6839   YZ=              0.7667
 Octapole moment (field-independent basis, Debye-Ang**2):
  XXX=             82.2738  YYY=             39.1539  ZZZ=              3.1313  XYY=             22.8983
  XXY=             27.1967  XXZ=             -8.6532  XZZ=              2.4890  YZZ=              0.4970
  YYZ=             -1.9630  XYZ=             -5.6293
 Hexadecapole moment (field-independent basis, Debye-Ang**3):
 XXXX=          -5302.2081 YYYY=          -1122.1390 ZZZZ=           -505.3729 XXXY=            -87.8930
 XXXZ=             12.4604 YYYX=            104.0492 YYYZ=             -2.8848 ZZZX=            -15.1187
 ZZZY=              6.3381 XXYY=          -1156.6313 XXZZ=          -1050.1459 YYZZ=           -282.6311
 XXYZ=             23.8986 YYXZ=              3.1530 ZZXY=             -3.6910
 N-N= 1.274542244928D+03 E-N=-4.540587963142D+03  KE= 8.471601265043D+02
 No NMR shielding tensors so no spin-rotation constants.
 Leave Link  601 at Fri Sep  3 00:15:34 2021, MaxMem=  268435456 cpu:       0.5
 (Enter /sw/target/amd/app/gaussian/Gaussian09RevA.02_gcc-4.9.2/g09/l701.exe)
 Compute integral first derivatives.
 ... and contract with generalized density number  0.
 Leave Link  701 at Fri Sep  3 00:15:35 2021, MaxMem=  268435456 cpu:       0.5
 (Enter /sw/target/amd/app/gaussian/Gaussian09RevA.02_gcc-4.9.2/g09/l702.exe)
 L702 exits ... SP integral derivatives will be done elsewhere.
 Leave Link  702 at Fri Sep  3 00:15:35 2021, MaxMem=  268435456 cpu:       0.1
 (Enter /sw/target/amd/app/gaussian/Gaussian09RevA.02_gcc-4.9.2/g09/l703.exe)
 Compute integral first derivatives, UseDBF=F ICtDFT=           0.
 Integral derivatives from FoFDir, PRISM(SPDF).
 Calling FoFJK, ICntrl=      2127 FMM=F ISym2X=0 I1Cent= 0 IOpClX= 0 NMat=1 NMatS=1 NMatT=0.
 FoFCou: FMM=F IPFlag=           0 FMFlag=      100000 FMFlg1=         800
         NFxFlg=           0 DoJE=F BraDBF=F KetDBF=F FulRan=T
         Omega=  0.000000  0.000000  1.000000  0.000000  0.000000 ICntrl=    2127 IOpCl=  0
         NMat0=    1 NMatS0=    1 NMatT0=    0 NMatD0=    1 NMtDS0=    0 NMtDT0=    0
         I1Cent=           0 NGrid=           0.
 Symmetry not used in FoFCou.
 Leave Link  703 at Fri Sep  3 00:17:37 2021, MaxMem=  268435456 cpu:     122.2
 (Enter /sw/target/amd/app/gaussian/Gaussian09RevA.02_gcc-4.9.2/g09/l716.exe)
 Dipole        = 6.82515674D-01 1.05961262D+00 1.12135815D-02
 ***** Axes restored to original set *****
 -------------------------------------------------------------------
 Center     Atomic                   Forces (Hartrees/Bohr)
 Number     Number              X              Y              Z
 -------------------------------------------------------------------
      1        6          -0.010167987    0.008913407   -0.010188892
      2        8          -0.000590121   -0.025677002    0.023320760
      3        6           0.005001658    0.019633729   -0.017466497
      4        7          -0.009902351    0.003197926   -0.005293575
      5        6          -0.014665658   -0.018407411    0.014829007
      6        8           0.025452521    0.019990341   -0.012814021
      7        6          -0.016471405   -0.002499695   -0.001049186
      8        7           0.006072151   -0.008550675    0.008426409
      9        6           0.010570356   -0.003552531    0.010889767
     10        8          -0.041764709    0.001577090   -0.011912271
     11        6           0.022387883    0.008639004   -0.004126599
     12        6          -0.001032160   -0.002227332   -0.002889662
     13        6           0.000842516    0.002097496    0.004089425
     14        6          -0.002845691   -0.001839910   -0.002195781
     15        6           0.000172861   -0.005705178   -0.002439274
     16        6          -0.001724552    0.004809260   -0.000749652
     17        6          -0.001380223   -0.000998540   -0.004222466
     18        7           0.015296870    0.001015053    0.001029163
     19        1          -0.000421010   -0.004376029   -0.000595044
     20        1          -0.001525553   -0.000096263    0.004168727
     21        1           0.006476505   -0.000127018    0.001576272
     22        1           0.000927044    0.004166454    0.000540454
     23        1           0.001983080    0.000027521   -0.003913859
     24        1           0.005076294   -0.002703900    0.003379514
     25        1          -0.001889773    0.000401917    0.001209566
     26        1          -0.000524277   -0.000293548    0.000280181
     27        1          -0.000490558    0.001327637    0.001155281
     28        1           0.001472029   -0.000510131    0.002367869
     29        1           0.002515815    0.002487234    0.002296107
     30        1           0.002335691   -0.000742715    0.001190271
     31        1          -0.001187245    0.000023812   -0.000891994
 -------------------------------------------------------------------
 Cartesian Forces:  Max     0.041764709 RMS     0.009330666
 Leave Link  716 at Fri Sep  3 00:17:37 2021, MaxMem=  268435456 cpu:       0.1
 (Enter /sw/target/amd/app/gaussian/Gaussian09RevA.02_gcc-4.9.2/g09/l103.exe)

 GradGradGradGradGradGradGradGradGradGradGradGradGradGradGradGradGradGrad
 Berny optimization.
 Internal  Forces:  Max     0.029506007 RMS     0.005873130
 Search for a local minimum.
 Step number   1 out of a maximum of  149
 All quantities printed in internal units (Hartrees-Bohrs-Radians)
 RMS Force = .58731D-02 SwitMx=.10000D-02 MixMth= 1
 Mixed Optimization -- RFO/linear search
 Second derivative matrix not updated -- first step.
     Eigenvalues ---    0.00770   0.01414   0.01415   0.01554   0.01810
     Eigenvalues ---    0.01970   0.01972   0.02055   0.02083   0.02098
     Eigenvalues ---    0.02115   0.02130   0.02147   0.02150   0.02156
     Eigenvalues ---    0.02164   0.02417   0.02475   0.02488   0.02636
     Eigenvalues ---    0.02660   0.02681   0.07308   0.07328   0.09964
     Eigenvalues ---    0.09966   0.10534   0.10536   0.16000   0.16000
     Eigenvalues ---    0.16000   0.16000   0.16000   0.16000   0.16000
     Eigenvalues ---    0.16000   0.16000   0.16000   0.16000   0.16000
     Eigenvalues ---    0.16000   0.21998   0.23459   0.23475   0.24918
     Eigenvalues ---    0.24970   0.24992   0.24996   0.25000   0.25000
     Eigenvalues ---    0.25000   0.25000   0.25000   0.25000   0.25000
     Eigenvalues ---    0.32409   0.34155   0.34157   0.34176   0.34195
     Eigenvalues ---    0.34230   0.34238   0.34310   0.34319   0.34321
     Eigenvalues ---    0.35054   0.35185   0.35187   0.35304   0.41938
     Eigenvalues ---    0.41981   0.42309   0.42323   0.45603   0.46071
     Eigenvalues ---    0.46216   0.46525   0.47137   0.49290   0.49321
     Eigenvalues ---    0.50493   0.54299   0.54923   0.59688   0.59990
     Eigenvalues ---    0.60306   0.610341000.000001000.000001000.00000
     Eigenvalues --- 1000.000001000.000001000.000001000.000001000.00000
     Eigenvalues --- 1000.000001000.000001000.000001000.000001000.00000
     Eigenvalues --- 1000.000001000.000001000.000001000.000001000.00000
     Eigenvalues --- 1000.000001000.000001000.000001000.000001000.00000
     Eigenvalues --- 1000.000001000.000001000.000001000.000001000.00000
     Eigenvalues --- 1000.000001000.000001000.000001000.000001000.00000
     Eigenvalues --- 1000.000001000.000001000.000001000.000001000.00000
     Eigenvalues --- 1000.000001000.000001000.000001000.000001000.00000
     Eigenvalues --- 1000.000001000.000001000.000001000.000001000.00000
     Eigenvalues --- 1000.000001000.000001000.000001000.00000
 RFO step:  Lambda=-1.36299334D-02 EMin= 7.69992860D-03
 Linear search not attempted -- first point.
 Iteration  1 RMS(Cart)=  0.09091415 RMS(Int)=  0.00254507
 Iteration  2 RMS(Cart)=  0.00475208 RMS(Int)=  0.00005392
 Iteration  3 RMS(Cart)=  0.00001373 RMS(Int)=  0.00005351
 Iteration  4 RMS(Cart)=  0.00000000 RMS(Int)=  0.00005351
 Variable       Old X    -DE/DX   Delta X   Delta X   Delta X     New X
                                 (Linear)    (Quad)   (Total)
    R1        2.68514   0.00767   0.00000   0.01757   0.01757   2.70271
    R2        2.07069  -0.00143   0.00000  -0.00402  -0.00402   2.06667
    R3        2.07066  -0.00137   0.00000  -0.00386  -0.00386   2.06679
    R4        2.06810  -0.00079   0.00000  -0.00220  -0.00220   2.06589
    R5        2.60557  -0.02780   0.00000  -0.05484  -0.05484   2.55072
    R6        2.51011   0.00482   0.00000   0.00836   0.00833   2.51844
    R7        2.50069   0.00599   0.00000   0.00961   0.00961   2.51029
    R8        2.51056   0.00631   0.00000   0.01081   0.01078   2.52134
[...]
 Alpha virt. eigenvalues --    1.38670   1.39536   1.41840   1.43560   1.43687
 Alpha virt. eigenvalues --    1.45855   1.46245   1.47289   1.48029   1.49263
 Alpha virt. eigenvalues --    1.50008   1.50371   1.50999   1.51370   1.52229
 Alpha virt. eigenvalues --    1.56261   1.58880   1.60584   1.66518   1.70593
 Alpha virt. eigenvalues --    1.75174   1.76690   1.78183   1.79643   1.80623
 Alpha virt. eigenvalues --    1.82182   1.83971   1.84742   1.86703   1.87471
 Alpha virt. eigenvalues --    1.88718   1.89324   1.89918   1.93506   1.94332
 Alpha virt. eigenvalues --    1.96277   1.97841   1.99408   1.99537   2.01005
 Alpha virt. eigenvalues --    2.01438   2.03105   2.03550   2.07785   2.09883
 Alpha virt. eigenvalues --    2.11081   2.11605   2.11778   2.14422   2.15498
 Alpha virt. eigenvalues --    2.17965   2.20926   2.21466   2.22592   2.23530
 Alpha virt. eigenvalues --    2.25354   2.26232   2.26902   2.28454   2.28953
 Alpha virt. eigenvalues --    2.31203   2.34119   2.35577   2.39217   2.39786
 Alpha virt. eigenvalues --    2.42043   2.43923   2.47754   2.49440   2.50146
 Alpha virt. eigenvalues --    2.51201   2.52116   2.55843   2.58072   2.61118
 Alpha virt. eigenvalues --    2.63343   2.64792   2.66244   2.67895   2.69065
 Alpha virt. eigenvalues --    2.72119   2.73510   2.74320   2.75691   2.76893
 Alpha virt. eigenvalues --    2.78665   2.82717   2.84055   2.88444   2.90527
 Alpha virt. eigenvalues --    2.94927   3.02551   3.12446   3.24415   3.26401
 Alpha virt. eigenvalues --    3.31037   3.42699   3.47010   4.03871   4.05277
 Alpha virt. eigenvalues --    4.09193   4.10414   4.12198   4.13336   4.19614
 Alpha virt. eigenvalues --    4.22969   4.23832   4.24996   4.30229   4.32402
 Alpha virt. eigenvalues --    4.37216   4.43568   4.54627   4.69033   4.72975
 Alpha virt. eigenvalues --    4.82791
          Condensed to atoms (all electrons):
              1          2          3          4          5          6
     1  C    4.891701   0.226340  -0.029678  -0.006102   0.000538  -0.000012
     2  O    0.226340   8.169580   0.324623  -0.086718   0.001110  -0.000019
     3  C   -0.029678   0.324623   4.281859   0.396641  -0.038654   0.000978
     4  N   -0.006102  -0.086718   0.396641   7.102280   0.389059  -0.085091
     5  C    0.000538   0.001110  -0.038654   0.389059   4.294774   0.327594
     6  O   -0.000012  -0.000019   0.000978  -0.085091   0.327594   8.162542
     7  C   -0.000047  -0.000011   0.000597  -0.006299  -0.030372   0.227277
     8  N    0.000069  -0.000195  -0.031043  -0.076259   0.457311  -0.085046
     9  C   -0.000105   0.001183  -0.044473  -0.028842  -0.045667   0.001606
    10  O    0.000001  -0.000011   0.002078  -0.000189   0.001829  -0.000006
    11  C    0.000000  -0.000004   0.000539   0.000050   0.000039  -0.000000
    12  C   -0.000000   0.000003   0.000083  -0.000005   0.000024   0.000000
    13  C    0.000000   0.000000   0.000004  -0.000000  -0.000000   0.000000
    14  C    0.000000  -0.000000   0.000001   0.000000  -0.000000  -0.000000
    15  C    0.000000   0.000000  -0.000001  -0.000000  -0.000000   0.000000
    16  C    0.000000  -0.000000  -0.000000  -0.000000   0.000000  -0.000000
    17  C   -0.000000   0.000002  -0.000041  -0.000003   0.000010  -0.000000
    18  N    0.004861  -0.085553   0.463876  -0.078774  -0.030490  -0.000187
    19  H    0.370694  -0.030642  -0.005883   0.007265  -0.000136  -0.000004
    20  H    0.370665  -0.030678  -0.005873   0.007241  -0.000143  -0.000004
    21  H    0.380170  -0.033064   0.003588   0.000827  -0.000004  -0.000000
    22  H    0.000026  -0.000004  -0.000132   0.007202  -0.005871  -0.030684
    23  H    0.000025  -0.000003  -0.000146   0.007117  -0.005811  -0.030702
    24  H    0.000000  -0.000000  -0.000004   0.000831   0.003647  -0.033159
    25  H   -0.000000  -0.000000  -0.000050   0.000000   0.000008  -0.000000
    26  H   -0.000000   0.000000  -0.000000  -0.000000   0.000000  -0.000000
    27  H   -0.000000   0.000000  -0.000000   0.000000  -0.000000  -0.000000
    28  H   -0.000000   0.000000   0.000000  -0.000000   0.000000   0.000000
    29  H    0.000000  -0.000000  -0.000000   0.000000  -0.000000   0.000000
    30  H    0.000000  -0.000000   0.000000   0.000000  -0.000000   0.000000
    31  H   -0.000000   0.000000  -0.000006   0.000000   0.000003  -0.000000
              7          8          9         10         11         12
     1  C   -0.000047   0.000069  -0.000105   0.000001   0.000000  -0.000000
     2  O   -0.000011  -0.000195   0.001183  -0.000011  -0.000004   0.000003
     3  C    0.000597  -0.031043  -0.044473   0.002078   0.000539   0.000083
     4  N   -0.006299  -0.076259  -0.028842  -0.000189   0.000050  -0.000005
     5  C   -0.030372   0.457311  -0.045667   0.001829   0.000039   0.000024
     6  O    0.227277  -0.085046   0.001606  -0.000006  -0.000000   0.000000
     7  C    4.891271   0.004872  -0.000146   0.000000  -0.000000  -0.000000
     8  N    0.004872   6.941727   0.434169  -0.084187   0.001575  -0.000176
     9  C   -0.000146   0.434169   4.333265   0.309924  -0.013926  -0.004758
    10  O    0.000000  -0.084187   0.309924   8.292801   0.176836  -0.044584
    11  C   -0.000000   0.001575  -0.013926   0.176836   4.530129   0.533884
    12  C   -0.000000  -0.000176  -0.004758  -0.044584   0.533884   4.964073
    13  C   -0.000000   0.000001  -0.000002   0.004084  -0.002688   0.509380
    14  C   -0.000000   0.000000   0.000045   0.000329  -0.041871  -0.042992
    15  C   -0.000000   0.000001  -0.000087   0.003487  -0.003686  -0.033653
    16  C    0.000000  -0.000000  -0.000003  -0.000067   0.005059   0.000590
    17  C    0.000000  -0.000223  -0.002182  -0.043843   0.528328  -0.073242
    18  N    0.000071  -0.074165   0.399629  -0.083237   0.001785   0.003770
    19  H    0.000027  -0.000010   0.000046   0.000000   0.000000   0.000000
    20  H    0.000026  -0.000010   0.000046   0.000000  -0.000000   0.000000
    21  H    0.000000   0.000001   0.000002  -0.000000  -0.000000   0.000000
    22  H    0.370423  -0.000141   0.000047   0.000000   0.000000  -0.000000
    23  H    0.370494  -0.000141   0.000048   0.000000   0.000000   0.000000
    24  H    0.380419   0.000002   0.000002  -0.000000  -0.000000   0.000000
    25  H    0.000000  -0.000169   0.001800  -0.004160  -0.035943   0.350421
    26  H    0.000000  -0.000000  -0.000009  -0.000060   0.003126  -0.037048
    27  H   -0.000000   0.000000   0.000000   0.000002   0.000528   0.004843
    28  H    0.000000   0.000000  -0.000001  -0.000001   0.000044   0.000008
    29  H   -0.000000  -0.000000   0.000000   0.000001  -0.000108   0.000037
    30  H   -0.000000   0.000000   0.000000   0.000000  -0.000113  -0.000001
    31  H    0.000000  -0.000101   0.000524  -0.001758  -0.039979   0.006437
             13         14         15         16         17         18
     1  C    0.000000   0.000000   0.000000   0.000000  -0.000000   0.004861
     2  O    0.000000  -0.000000   0.000000  -0.000000   0.000002  -0.085553
     3  C    0.000004   0.000001  -0.000001  -0.000000  -0.000041   0.463876
     4  N   -0.000000   0.000000  -0.000000  -0.000000  -0.000003  -0.078774
     5  C   -0.000000  -0.000000  -0.000000   0.000000   0.000010  -0.030490
     6  O    0.000000  -0.000000   0.000000  -0.000000  -0.000000  -0.000187
     7  C   -0.000000  -0.000000  -0.000000   0.000000   0.000000   0.000071
     8  N    0.000001   0.000000   0.000001  -0.000000  -0.000223  -0.074165
     9  C   -0.000002   0.000045  -0.000087  -0.000003  -0.002182   0.399629
    10  O    0.004084   0.000329   0.003487  -0.000067  -0.043843  -0.083237
    11  C   -0.002688  -0.041871  -0.003686   0.005059   0.528328   0.001785
    12  C    0.509380  -0.042992  -0.033653   0.000590  -0.073242   0.003770
    13  C    4.898300   0.521225  -0.014404   0.006989  -0.047716  -0.000408
    14  C    0.521225   4.946399   0.560605  -0.057436  -0.041437   0.000067
    15  C   -0.014404   0.560605   4.637517   0.346654   0.505262  -0.000167
    16  C    0.006989  -0.057436   0.346654   5.209995  -0.056939  -0.000001
    17  C   -0.047716  -0.041437   0.505262  -0.056939   5.073065   0.001083
    18  N   -0.000408   0.000067  -0.000167  -0.000001   0.001083   6.972449
    19  H    0.000000  -0.000000  -0.000000   0.000000   0.000000  -0.000141
    20  H   -0.000000  -0.000000   0.000000   0.000000   0.000000  -0.000144
    21  H    0.000000  -0.000000   0.000000  -0.000000   0.000000   0.000005
    22  H   -0.000000   0.000000   0.000000  -0.000000  -0.000000  -0.000011
    23  H    0.000000  -0.000000  -0.000000   0.000000   0.000000  -0.000011
    24  H    0.000000  -0.000000   0.000000  -0.000000   0.000000   0.000001
    25  H   -0.041461   0.004469   0.000399   0.000009   0.005935   0.000475
    26  H    0.353646  -0.037732   0.003437  -0.000202   0.001056  -0.000004
    27  H   -0.045997   0.355370  -0.043110  -0.009833   0.006181   0.000000
    28  H   -0.000177   0.002334  -0.027327   0.364661  -0.002950  -0.000000
    29  H   -0.000172  -0.001127  -0.025723   0.362834  -0.002471   0.000000
    30  H    0.000150  -0.002933  -0.028723   0.365673   0.003089   0.000000
    31  H   -0.000039   0.005917  -0.045772  -0.008648   0.348669   0.000077
             19         20         21         22         23         24
     1  C    0.370694   0.370665   0.380170   0.000026   0.000025   0.000000
     2  O   -0.030642  -0.030678  -0.033064  -0.000004  -0.000003  -0.000000
     3  C   -0.005883  -0.005873   0.003588  -0.000132  -0.000146  -0.000004
     4  N    0.007265   0.007241   0.000827   0.007202   0.007117   0.000831
     5  C   -0.000136  -0.000143  -0.000004  -0.005871  -0.005811   0.003647
     6  O   -0.000004  -0.000004  -0.000000  -0.030684  -0.030702  -0.033159
     7  C    0.000027   0.000026   0.000000   0.370423   0.370494   0.380419
     8  N   -0.000010  -0.000010   0.000001  -0.000141  -0.000141   0.000002
     9  C    0.000046   0.000046   0.000002   0.000047   0.000048   0.000002
    10  O    0.000000   0.000000  -0.000000   0.000000   0.000000  -0.000000
    11  C    0.000000  -0.000000  -0.000000   0.000000   0.000000  -0.000000
    12  C    0.000000   0.000000   0.000000  -0.000000   0.000000   0.000000
    13  C    0.000000  -0.000000   0.000000  -0.000000   0.000000   0.000000
    14  C   -0.000000  -0.000000  -0.000000   0.000000  -0.000000  -0.000000
    15  C   -0.000000   0.000000   0.000000   0.000000  -0.000000   0.000000
    16  C    0.000000   0.000000  -0.000000  -0.000000   0.000000  -0.000000
    17  C    0.000000   0.000000   0.000000  -0.000000   0.000000   0.000000
    18  N   -0.000141  -0.000144   0.000005  -0.000011  -0.000011   0.000001
    19  H    0.560161  -0.038386  -0.030881  -0.000034   0.000239   0.000000
    20  H   -0.038386   0.560579  -0.030951   0.000240  -0.000034   0.000000
    21  H   -0.030881  -0.030951   0.538629   0.000000   0.000000   0.000000
    22  H   -0.000034   0.000240   0.000000   0.561829  -0.038583  -0.030974
    23  H    0.000239  -0.000034   0.000000  -0.038583   0.561843  -0.031007
    24  H    0.000000   0.000000   0.000000  -0.030974  -0.031007   0.538339
    25  H   -0.000000   0.000000  -0.000000  -0.000000   0.000000  -0.000000
    26  H    0.000000   0.000000   0.000000   0.000000  -0.000000   0.000000
    27  H   -0.000000  -0.000000  -0.000000   0.000000  -0.000000  -0.000000
    28  H    0.000000  -0.000000   0.000000   0.000000  -0.000000   0.000000
    29  H   -0.000000   0.000000  -0.000000  -0.000000   0.000000  -0.000000
    30  H   -0.000000  -0.000000  -0.000000   0.000000  -0.000000   0.000000
    31  H    0.000000   0.000000  -0.000000   0.000000   0.000000  -0.000000
             25         26         27         28         29         30
     1  C   -0.000000  -0.000000  -0.000000  -0.000000   0.000000   0.000000
     2  O   -0.000000   0.000000   0.000000   0.000000  -0.000000  -0.000000
     3  C   -0.000050  -0.000000  -0.000000   0.000000  -0.000000   0.000000
     4  N    0.000000  -0.000000   0.000000  -0.000000   0.000000   0.000000
     5  C    0.000008   0.000000  -0.000000   0.000000  -0.000000  -0.000000
     6  O   -0.000000  -0.000000  -0.000000   0.000000   0.000000   0.000000
     7  C    0.000000   0.000000  -0.000000   0.000000  -0.000000  -0.000000
     8  N   -0.000169  -0.000000   0.000000   0.000000  -0.000000   0.000000
     9  C    0.001800  -0.000009   0.000000  -0.000001   0.000000   0.000000
    10  O   -0.004160  -0.000060   0.000002  -0.000001   0.000001   0.000000
    11  C   -0.035943   0.003126   0.000528   0.000044  -0.000108  -0.000113
    12  C    0.350421  -0.037048   0.004843   0.000008   0.000037  -0.000001
    13  C   -0.041461   0.353646  -0.045997  -0.000177  -0.000172   0.000150
    14  C    0.004469  -0.037732   0.355370   0.002334  -0.001127  -0.002933
    15  C    0.000399   0.003437  -0.043110  -0.027327  -0.025723  -0.028723
    16  C    0.000009  -0.000202  -0.009833   0.364661   0.362834   0.365673
    17  C    0.005935   0.001056   0.006181  -0.002950  -0.002471   0.003089
    18  N    0.000475  -0.000004   0.000000  -0.000000   0.000000   0.000000
    19  H   -0.000000   0.000000  -0.000000   0.000000  -0.000000  -0.000000
    20  H    0.000000   0.000000  -0.000000  -0.000000   0.000000  -0.000000
    21  H   -0.000000   0.000000  -0.000000   0.000000  -0.000000  -0.000000
    22  H   -0.000000   0.000000   0.000000   0.000000  -0.000000   0.000000
    23  H    0.000000  -0.000000  -0.000000  -0.000000   0.000000  -0.000000
    24  H   -0.000000   0.000000  -0.000000   0.000000  -0.000000   0.000000
    25  H    0.584729  -0.005432  -0.000161  -0.000000  -0.000000  -0.000000
    26  H   -0.005432   0.590595  -0.005221   0.000003   0.000003  -0.000005
    27  H   -0.000161  -0.005221   0.608589   0.000060   0.000326   0.005920
    28  H   -0.000000   0.000003   0.000060   0.556588  -0.031384  -0.027094
    29  H   -0.000000   0.000003   0.000326  -0.031384   0.558440  -0.029276
    30  H   -0.000000  -0.000005   0.005920  -0.027094  -0.029276   0.556319
    31  H   -0.000164   0.000018  -0.000157   0.003633   0.000827   0.000037
             31
     1  C   -0.000000
     2  O    0.000000
     3  C   -0.000006
     4  N    0.000000
     5  C    0.000003
     6  O   -0.000000
     7  C    0.000000
     8  N   -0.000101
     9  C    0.000524
    10  O   -0.001758
    11  C   -0.039979
    12  C    0.006437
    13  C   -0.000039
    14  C    0.005917
    15  C   -0.045772
    16  C   -0.008648
    17  C    0.348669
    18  N    0.000077
    19  H    0.000000
    20  H    0.000000
    21  H   -0.000000
    22  H    0.000000
    23  H    0.000000
    24  H   -0.000000
    25  H   -0.000164
    26  H    0.000018
    27  H   -0.000157
    28  H    0.003633
    29  H    0.000827
    30  H    0.000037
    31  H    0.595502
 Mulliken atomic charges:
              1
     1  C   -0.209146
     2  O   -0.455938
     3  C    0.681119
     4  N   -0.550231
     5  C    0.681203
     6  O   -0.455085
     7  C   -0.208601
     8  N   -0.487864
     9  C    0.657864
    10  O   -0.529271
    11  C    0.356394
    12  C   -0.137096
    13  C   -0.140714
    14  C   -0.171233
    15  C    0.165292
    16  C   -0.529334
    17  C   -0.201635
    18  N   -0.494856
    19  H    0.167686
    20  H    0.167425
    21  H    0.171675
    22  H    0.166664
    23  H    0.166672
    24  H    0.171901
    25  H    0.139295
    26  H    0.133827
    27  H    0.122658
    28  H    0.161603
    29  H    0.167792
    30  H    0.156956
    31  H    0.134979
 Sum of Mulliken atomic charges =  -0.00000
 Mulliken charges with hydrogens summed into heavy atoms:
              1
     1  C    0.297641
     2  O   -0.455938
     3  C    0.681119
     4  N   -0.550231
     5  C    0.681203
     6  O   -0.455085
     7  C    0.296636
     8  N   -0.487864
     9  C    0.657864
    10  O   -0.529271
    11  C    0.356394
    12  C    0.002199
    13  C   -0.006887
    14  C   -0.048575
    15  C    0.165292
    16  C   -0.042983
    17  C   -0.066656
    18  N   -0.494856
 Sum of Mulliken charges with hydrogens summed into heavy atoms =  -0.00000
 Electronic spatial extent (au):  <R**2>=           5899.9393
 Charge=              0.0000 electrons
 Dipole moment (field-independent basis, Debye):
    X=              1.8106    Y=              2.6841    Z=             -0.5566  Tot=              3.2852
 Quadrupole moment (field-independent basis, Debye-Ang):
   XX=            -75.2129   YY=           -107.3472   ZZ=            -96.5545
   XY=              5.2038   XZ=              0.1041   YZ=              1.9823
 Traceless Quadrupole moment (field-independent basis, Debye-Ang):
   XX=             17.8253   YY=            -14.3090   ZZ=             -3.5163
   XY=              5.2038   XZ=              0.1041   YZ=              1.9823
 Octapole moment (field-independent basis, Debye-Ang**2):
  XXX=             90.6088  YYY=             39.4654  ZZZ=              3.1444  XYY=             27.4734
  XXY=             21.2226  XXZ=            -14.8978  XZZ=              2.8504  YZZ=              1.6836
  YYZ=             -5.8052  XYZ=             -7.9497
 Hexadecapole moment (field-independent basis, Debye-Ang**3):
 XXXX=          -5299.8497 YYYY=          -1109.6658 ZZZZ=           -529.1186 XXXY=           -113.6633
 XXXZ=             10.7306 YYYX=            107.0807 YYYZ=             -7.3099 ZZZX=            -14.2266
 ZZZY=              6.9410 XXYY=          -1139.1458 XXZZ=          -1062.4690 YYZZ=           -283.7167
 XXYZ=             31.2590 YYXZ=             -7.9515 ZZXY=             -5.1265
 N-N= 1.272377719777D+03 E-N=-4.536594099351D+03  KE= 8.472480266360D+02
 No NMR shielding tensors so no spin-rotation constants.
 Leave Link  601 at Fri Sep  3 03:20:23 2021, MaxMem=  268435456 cpu:       0.5
 (Enter /sw/target/amd/app/gaussian/Gaussian09RevA.02_gcc-4.9.2/g09/l9999.exe)
 1\1\GINC-HERMITE\FOpt\RB3LYP\6-31G(d)\C12H13N3O3\JSCHLEINITZ\03-Sep-20
 21\0\\#p b3lyp 6-31G* opt scf(xqc,tight)\\opt calculation\\0,1\C,-3.21
 58768309,1.5332175022,-2.2064115375\O,-1.9081433199,1.1947315685,-1.72
 74153661\C,-1.816822647,0.2641972314,-0.7760732859\N,-2.9336577267,-0.
 3083296658,-0.3155973435\C,-2.7090356185,-1.2253655016,0.6367389923\O,
 -3.749273292,-1.8652567159,1.1734322473\C,-5.0589979813,-1.532769986,0
 .6969970359\N,-1.5252215172,-1.5865947424,1.1275276693\C,-0.5063392135
 ,-0.9291851977,0.571654564\O,0.6937791197,-1.2805665298,1.0663389271\C
 ,1.8630778737,-0.7035743347,0.553860119\C,2.3971059558,-1.1596774398,-
 0.6478661425\C,3.6134034629,-0.6300071851,-1.0740325721\C,4.277361273,
 0.3289065157,-0.3060037137\C,3.7408398798,0.7768295413,0.9070083379\C,
 4.4699720111,1.789858606,1.7589803748\C,2.5147927433,0.2461864886,1.33
 02934463\N,-0.5696568587,0.0031701504,-0.3781865791\H,-3.8391597007,1.
 9237321453,-1.3973998988\H,-3.7077498862,0.6621360306,-2.6478161895\H,
 -3.0490114966,2.3006426662,-2.96316771\H,-5.1506657779,-1.7396126836,-
 0.3727945984\H,-5.2853065168,-0.4783185729,0.8776254533\H,-5.736266488
 4,-2.169964535,1.2669133007\H,1.8665635716,-1.9063938512,-1.2290111581
 \H,4.0461756285,-0.9663824311,-2.0121935666\H,5.2254047317,0.733321873
 3,-0.6521021958\H,3.7765624819,2.509053286,2.2087322983\H,5.0093453307
 ,1.3023467376,2.5819145635\H,5.2048383989,2.3499831711,1.1719889096\H,
 2.0619644097,0.5636848585,2.2652886184\\Version=AM64L-G09RevA.02\State
 =1-A\HF=-855.042963\RMSD=6.520e-09\RMSF=1.236e-06\Dipole=-0.7699704,0.
 7565076,-0.7109105\Quadrupole=13.0160667,-7.905177,-5.1108897,0.108930
 3,3.8979426,4.5549221\PG=C01 [X(C12H13N3O3)]\\@


 NOTHING RESEMBLES A NEW PHENOMENON AS MUCH AS A MISTAKE.

                               -- ENRICO FERMI (?)
 Job cpu time:  0 days  3 hours 10 minutes  1.4 seconds.
 File lengths (MBytes):  RWF=     62 Int=      0 D2E=      0 Chk=      7 Scr=      1
 Normal termination of Gaussian 09 at Fri Sep  3 03:20:23 2021.
