 Entering Gaussian System, Link 0=g09
 Input=C10H12N2_6ba2_conf_0.com
 Output=C10H12N2_6ba2_conf_0.log
 Initial command:
 /sw/target/amd/app/gaussian/Gaussian09RevA.02_gcc-4.9.2/g09/l1.exe /home/jschleinitz/gaussian/Gau-1794186.inp -scrdir=/home/jschleinitz/gaussian/
 Entering Link 1 = /sw/target/amd/app/gaussian/Gaussian09RevA.02_gcc-4.9.2/g09/l1.exe PID=   1794198.
  
 Copyright (c) 1988,1990,1992,1993,1995,1998,2003,2009, Gaussian, Inc.
                  All Rights Reserved.
  
 This is part of the Gaussian(R) 09 program.  It is based on
 the Gaussian(R) 03 system (copyright 2003, Gaussian, Inc.),
 the Gaussian(R) 98 system (copyright 1998, Gaussian, Inc.),
 the Gaussian(R) 94 system (copyright 1995, Gaussian, Inc.),
 the Gaussian 92(TM) system (copyright 1992, Gaussian, Inc.),
 the Gaussian 90(TM) system (copyright 1990, Gaussian, Inc.),
 the Gaussian 88(TM) system (copyright 1988, Gaussian, Inc.),
 the Gaussian 86(TM) system (copyright 1986, Carnegie Mellon
 University), and the Gaussian 82(TM) system (copyright 1983,
 Carnegie Mellon University). Gaussian is a federally registered
 trademark of Gaussian, Inc.
  
 This software contains proprietary and confidential information,
 including trade secrets, belonging to Gaussian, Inc.
  
 This software is provided under written license and may be
 used, copied, transmitted, or stored only in accord with that
 written license.
  
 The following legend is applicable only to US Government
 contracts under FAR:
  
                    RESTRICTED RIGHTS LEGEND
  
 Use, reproduction and disclosure by the US Government is
 subject to restrictions as set forth in subparagraphs (a)
 and (c) of the Commercial Computer Software - Restricted
 Rights clause in FAR 52.227-19.
  
 Gaussian, Inc.
 340 Quinnipiac St., Bldg. 40, Wallingford CT 06492
  
  
 ---------------------------------------------------------------
 Warning -- This program may not be used in any manner that
 competes with the business of Gaussian, Inc. or will provide
 assistance to any competitor of Gaussian, Inc.  The licensee
 of this program is prohibited from giving any competitor of
 Gaussian, Inc. access to this program.  By using this program,
 the user acknowledges that Gaussian, Inc. is engaged in the
 business of creating and licensing software in the field of
 computational chemistry and represents and warrants to the
 licensee that it is not a competitor of Gaussian, Inc. and that
 it will not use this program in any manner prohibited above.
 ---------------------------------------------------------------
  

 Cite this work as:
 Gaussian 09, Revision A.02,
 M. J. Frisch, G. W. Trucks, H. B. Schlegel, G. E. Scuseria, 
 M. A. Robb, J. R. Cheeseman, G. Scalmani, V. Barone, B. Mennucci, 
 G. A. Petersson, H. Nakatsuji, M. Caricato, X. Li, H. P. Hratchian, 
 A. F. Izmaylov, J. Bloino, G. Zheng, J. L. Sonnenberg, M. Hada, 
 M. Ehara, K. Toyota, R. Fukuda, J. Hasegawa, M. Ishida, T. Nakajima, 
 Y. Honda, O. Kitao, H. Nakai, T. Vreven, J. A. Montgomery, Jr., 
 J. E. Peralta, F. Ogliaro, M. Bearpark, J. J. Heyd, E. Brothers, 
 K. N. Kudin, V. N. Staroverov, R. Kobayashi, J. Normand, 
 K. Raghavachari, A. Rendell, J. C. Burant, S. S. Iyengar, J. Tomasi, 
 M. Cossi, N. Rega, J. M. Millam, M. Klene, J. E. Knox, J. B. Cross, 
 V. Bakken, C. Adamo, J. Jaramillo, R. Gomperts, R. E. Stratmann, 
 O. Yazyev, A. J. Austin, R. Cammi, C. Pomelli, J. W. Ochterski, 
 R. L. Martin, K. Morokuma, V. G. Zakrzewski, G. A. Voth, 
 P. Salvador, J. J. Dannenberg, S. Dapprich, A. D. Daniels, 
 O. Farkas, J. B. Foresman, J. V. Ortiz, J. Cioslowski, 
 and D. J. Fox, Gaussian, Inc., Wallingford CT, 2009.
 
 ******************************************
 Gaussian 09:  AM64L-G09RevA.02 11-Jun-2009
                 3-Oct-2021 
 ******************************************
 %nproc=4
 Will use up to    4 processors via shared memory.
 %mem=8gb
 %chk=C10H12N2_6ba2_conf_0.chk
 -----------------------------------
 #p opt b3lyp/6-31G* scf=(xqc,tight)
 -----------------------------------
 1/14=-1,18=20,19=15,26=3,38=1/1,3;
 2/9=110,12=2,17=6,18=5,40=1/2;
 3/5=1,6=6,7=1,11=2,16=1,25=1,30=1,71=1,74=-5/1,2,3;
 4//1;
 5/5=2,8=3,13=1,32=2,38=5/2,8;
 6/7=2,8=2,9=2,10=2,28=1/1;
 7//1,2,3,16;
 1/14=-1,18=20,19=15/3(2);
 2/9=110/2;
 99//99;
 2/9=110/2;
 3/5=1,6=6,7=1,11=2,16=1,25=1,30=1,71=1,74=-5/1,2,3;
 4/5=5,16=3/1;
 5/5=2,8=3,13=1,32=2,38=5/2,8;
 7//1,2,3,16;
 1/14=-1,18=20,19=15/3(-5);
 2/9=110/2;
 6/7=2,8=2,9=2,10=2,19=2,28=1/1;
 99/9=1/99;
 Leave Link    1 at Sun Oct  3 18:20:19 2021, MaxMem= 1073741824 cpu:       0.1
 (Enter /sw/target/amd/app/gaussian/Gaussian09RevA.02_gcc-4.9.2/g09/l101.exe)
 -------------------------
 Cc1cc2ncn(c2cc1C)C_conf_0
 -------------------------
 Symbolic Z-matrix:
 Charge =  0 Multiplicity = 1
 C                     0.97537  -0.16662  -0.03799 
 C                     2.47826  -0.07961  -0.03744 
 C                     3.22637  -1.27486  -0.03877 
 C                     4.62702  -1.2155   -0.03612 
 N                     5.54931  -2.23508  -0.03633 
 C                     6.72008  -1.6385   -0.03218 
 N                     6.59197  -0.27933  -0.02931 
 C                     5.25398   0.02528  -0.03281 
 C                     4.54685   1.23202  -0.03268 
 C                     3.14001   1.1683   -0.03513 
 C                     2.36189   2.45891  -0.03463 
 C                     7.67487   0.67012  -0.02231 
 H                     0.63186  -1.20654  -0.03751 
 H                     0.56734   0.31463  -0.93235 
 H                     0.56687   0.31519   0.85595 
 H                     2.74372  -2.24643  -0.04077 
 H                     7.67866  -2.14106  -0.03102 
 H                     5.0668    2.18468  -0.03048 
 H                     3.02742   3.32907  -0.03583 
 H                     1.7359    2.52517   0.86068 
 H                     1.7341    2.52469  -0.92836 
 H                     8.63021   0.13943  -0.02064 
 H                     7.59151   1.28465   0.87793 
 H                     7.59793   1.29087  -0.91861 
 
 NAtoms=     24 NQM=     24 NQMF=      0 NMic=      0 NMicF=      0 NTot=     24.
                    Isotopes and Nuclear Properties:
 (Nuclear quadrupole moments (NQMom) in fm**2, nuclear magnetic moments (NMagM)
  in nuclear magnetons)

  Atom         1           2           3           4           5           6           7           8           9          10
 IAtWgt=          12          12          12          12          14          12          14          12          12          12
 AtmWgt=  12.0000000  12.0000000  12.0000000  12.0000000  14.0030740  12.0000000  14.0030740  12.0000000  12.0000000  12.0000000
 NucSpn=           0           0           0           0           2           0           2           0           0           0
 AtZEff=   0.0000000   0.0000000   0.0000000   0.0000000   0.0000000   0.0000000   0.0000000   0.0000000   0.0000000   0.0000000
 NQMom=    0.0000000   0.0000000   0.0000000   0.0000000   2.0440000   0.0000000   2.0440000   0.0000000   0.0000000   0.0000000
 NMagM=    0.0000000   0.0000000   0.0000000   0.0000000   0.4037610   0.0000000   0.4037610   0.0000000   0.0000000   0.0000000

  Atom        11          12          13          14          15          16          17          18          19          20
 IAtWgt=          12          12           1           1           1           1           1           1           1           1
 AtmWgt=  12.0000000  12.0000000   1.0078250   1.0078250   1.0078250   1.0078250   1.0078250   1.0078250   1.0078250   1.0078250
 NucSpn=           0           0           1           1           1           1           1           1           1           1
 AtZEff=   0.0000000   0.0000000   0.0000000   0.0000000   0.0000000   0.0000000   0.0000000   0.0000000   0.0000000   0.0000000
 NQMom=    0.0000000   0.0000000   0.0000000   0.0000000   0.0000000   0.0000000   0.0000000   0.0000000   0.0000000   0.0000000
 NMagM=    0.0000000   0.0000000   2.7928460   2.7928460   2.7928460   2.7928460   2.7928460   2.7928460   2.7928460   2.7928460

  Atom        21          22          23          24
 IAtWgt=           1           1           1           1
 AtmWgt=   1.0078250   1.0078250   1.0078250   1.0078250
 NucSpn=           1           1           1           1
 AtZEff=   0.0000000   0.0000000   0.0000000   0.0000000
 NQMom=    0.0000000   0.0000000   0.0000000   0.0000000
 NMagM=    2.7928460   2.7928460   2.7928460   2.7928460
 Leave Link  101 at Sun Oct  3 18:20:21 2021, MaxMem= 1073741824 cpu:       0.2
 (Enter /sw/target/amd/app/gaussian/Gaussian09RevA.02_gcc-4.9.2/g09/l103.exe)

 GradGradGradGradGradGradGradGradGradGradGradGradGradGradGradGradGradGrad
 Berny optimization.
 Initialization pass.
                           ----------------------------
                           !    Initial Parameters    !
                           ! (Angstroms and Degrees)  !
 --------------------------                            --------------------------
 ! Name  Definition              Value          Derivative Info.                !
 --------------------------------------------------------------------------------
 ! R1    R(1,2)                  1.5054         estimate D2E/DX2                !
 ! R2    R(1,13)                 1.0952         estimate D2E/DX2                !
 ! R3    R(1,14)                 1.0945         estimate D2E/DX2                !
 ! R4    R(1,15)                 1.0946         estimate D2E/DX2                !
 ! R5    R(2,3)                  1.4101         estimate D2E/DX2                !
 ! R6    R(2,10)                 1.4125         estimate D2E/DX2                !
 ! R7    R(3,4)                  1.4019         estimate D2E/DX2                !
 ! R8    R(3,16)                 1.0849         estimate D2E/DX2                !
 ! R9    R(4,5)                  1.3748         estimate D2E/DX2                !
 ! R10   R(4,8)                  1.3902         estimate D2E/DX2                !
 ! R11   R(5,6)                  1.314          estimate D2E/DX2                !
 ! R12   R(6,7)                  1.3652         estimate D2E/DX2                !
 ! R13   R(6,17)                 1.0823         estimate D2E/DX2                !
 ! R14   R(7,8)                  1.3722         estimate D2E/DX2                !
 ! R15   R(7,12)                 1.4402         estimate D2E/DX2                !
 ! R16   R(8,9)                  1.3987         estimate D2E/DX2                !
 ! R17   R(9,10)                 1.4083         estimate D2E/DX2                !
 ! R18   R(9,18)                 1.0853         estimate D2E/DX2                !
 ! R19   R(10,11)                1.507          estimate D2E/DX2                !
 ! R20   R(11,19)                1.0955         estimate D2E/DX2                !
 ! R21   R(11,20)                1.0945         estimate D2E/DX2                !
 ! R22   R(11,21)                1.0942         estimate D2E/DX2                !
 ! R23   R(12,22)                1.0928         estimate D2E/DX2                !
 ! R24   R(12,23)                1.0932         estimate D2E/DX2                !
 ! R25   R(12,24)                1.093          estimate D2E/DX2                !
 ! A1    A(2,1,13)             111.5932         estimate D2E/DX2                !
 ! A2    A(2,1,14)             110.307          estimate D2E/DX2                !
 ! A3    A(2,1,15)             110.2942         estimate D2E/DX2                !
 ! A4    A(13,1,14)            107.5133         estimate D2E/DX2                !
 ! A5    A(13,1,15)            107.4907         estimate D2E/DX2                !
 ! A6    A(14,1,15)            109.5522         estimate D2E/DX2                !
 ! A7    A(1,2,3)              118.7294         estimate D2E/DX2                !
 ! A8    A(1,2,10)             121.2501         estimate D2E/DX2                !
 ! A9    A(3,2,10)             120.0205         estimate D2E/DX2                !
 ! A10   A(2,3,4)              119.6162         estimate D2E/DX2                !
 ! A11   A(2,3,16)             121.5402         estimate D2E/DX2                !
 ! A12   A(4,3,16)             118.8436         estimate D2E/DX2                !
 ! A13   A(3,4,5)              129.7049         estimate D2E/DX2                !
 ! A14   A(3,4,8)              119.2339         estimate D2E/DX2                !
 ! A15   A(5,4,8)              111.0613         estimate D2E/DX2                !
 ! A16   A(4,5,6)              105.1294         estimate D2E/DX2                !
 ! A17   A(5,6,7)              111.6177         estimate D2E/DX2                !
 ! A18   A(5,6,17)             125.3309         estimate D2E/DX2                !
 ! A19   A(7,6,17)             123.0513         estimate D2E/DX2                !
 ! A20   A(6,7,8)              108.2094         estimate D2E/DX2                !
 ! A21   A(6,7,12)             125.8585         estimate D2E/DX2                !
 ! A22   A(8,7,12)             125.932          estimate D2E/DX2                !
 ! A23   A(4,8,7)              103.9822         estimate D2E/DX2                !
 ! A24   A(4,8,9)              122.8231         estimate D2E/DX2                !
 ! A25   A(7,8,9)              133.1947         estimate D2E/DX2                !
 ! A26   A(8,9,10)             117.7765         estimate D2E/DX2                !
 ! A27   A(8,9,18)             121.0051         estimate D2E/DX2                !
 ! A28   A(10,9,18)            121.2185         estimate D2E/DX2                !
 ! A29   A(2,10,9)             120.5299         estimate D2E/DX2                !
 ! A30   A(2,10,11)            120.9773         estimate D2E/DX2                !
 ! A31   A(9,10,11)            118.4928         estimate D2E/DX2                !
 ! A32   A(10,11,19)           111.504          estimate D2E/DX2                !
 ! A33   A(10,11,20)           110.3309         estimate D2E/DX2                !
 ! A34   A(10,11,21)           110.3321         estimate D2E/DX2                !
 ! A35   A(19,11,20)           107.4744         estimate D2E/DX2                !
 ! A36   A(19,11,21)           107.453          estimate D2E/DX2                !
 ! A37   A(20,11,21)           109.6561         estimate D2E/DX2                !
 ! A38   A(7,12,22)            109.7049         estimate D2E/DX2                !
 ! A39   A(7,12,23)            108.4977         estimate D2E/DX2                !
 ! A40   A(7,12,24)            108.5113         estimate D2E/DX2                !
 ! A41   A(22,12,23)           109.7789         estimate D2E/DX2                !
 ! A42   A(22,12,24)           109.7908         estimate D2E/DX2                !
 ! A43   A(23,12,24)           110.529          estimate D2E/DX2                !
 ! D1    D(13,1,2,3)             0.1081         estimate D2E/DX2                !
 ! D2    D(13,1,2,10)         -179.8685         estimate D2E/DX2                !
 ! D3    D(14,1,2,3)          -119.3345         estimate D2E/DX2                !
 ! D4    D(14,1,2,10)           60.6889         estimate D2E/DX2                !
 ! D5    D(15,1,2,3)           119.5138         estimate D2E/DX2                !
 ! D6    D(15,1,2,10)          -60.4628         estimate D2E/DX2                !
 ! D7    D(1,2,3,4)           -179.898          estimate D2E/DX2                !
 ! D8    D(1,2,3,16)             0.0367         estimate D2E/DX2                !
 ! D9    D(10,2,3,4)             0.0789         estimate D2E/DX2                !
 ! D10   D(10,2,3,16)         -179.9864         estimate D2E/DX2                !
 ! D11   D(1,2,10,9)           179.907          estimate D2E/DX2                !
 ! D12   D(1,2,10,11)           -0.066          estimate D2E/DX2                !
 ! D13   D(3,2,10,9)            -0.0693         estimate D2E/DX2                !
 ! D14   D(3,2,10,11)          179.9577         estimate D2E/DX2                !
 ! D15   D(2,3,4,5)            179.9771         estimate D2E/DX2                !
 ! D16   D(2,3,4,8)             -0.0281         estimate D2E/DX2                !
 ! D17   D(16,3,4,5)             0.0407         estimate D2E/DX2                !
 ! D18   D(16,3,4,8)          -179.9645         estimate D2E/DX2                !
 ! D19   D(3,4,5,6)           -179.9586         estimate D2E/DX2                !
 ! D20   D(8,4,5,6)              0.0462         estimate D2E/DX2                !
 ! D21   D(3,4,8,7)            179.9314         estimate D2E/DX2                !
 ! D22   D(3,4,8,9)             -0.0345         estimate D2E/DX2                !
 ! D23   D(5,4,8,7)             -0.0729         estimate D2E/DX2                !
 ! D24   D(5,4,8,9)            179.9613         estimate D2E/DX2                !
 ! D25   D(4,5,6,7)              0.0006         estimate D2E/DX2                !
 ! D26   D(4,5,6,17)           179.9947         estimate D2E/DX2                !
 ! D27   D(5,6,7,8)             -0.0469         estimate D2E/DX2                !
 ! D28   D(5,6,7,12)           179.8898         estimate D2E/DX2                !
 ! D29   D(17,6,7,8)           179.9588         estimate D2E/DX2                !
 ! D30   D(17,6,7,12)           -0.1045         estimate D2E/DX2                !
 ! D31   D(6,7,8,4)              0.0705         estimate D2E/DX2                !
 ! D32   D(6,7,8,9)           -179.9689         estimate D2E/DX2                !
 ! D33   D(12,7,8,4)          -179.8661         estimate D2E/DX2                !
 ! D34   D(12,7,8,9)             0.0945         estimate D2E/DX2                !
 ! D35   D(6,7,12,22)            0.0593         estimate D2E/DX2                !
 ! D36   D(6,7,12,23)         -119.8639         estimate D2E/DX2                !
 ! D37   D(6,7,12,24)          120.0053         estimate D2E/DX2                !
 ! D38   D(8,7,12,22)          179.9851         estimate D2E/DX2                !
 ! D39   D(8,7,12,23)           60.0618         estimate D2E/DX2                !
 ! D40   D(8,7,12,24)          -60.0689         estimate D2E/DX2                !
 ! D41   D(4,8,9,10)             0.044          estimate D2E/DX2                !
 ! D42   D(4,8,9,18)          -179.9731         estimate D2E/DX2                !
 ! D43   D(7,8,9,10)          -179.9105         estimate D2E/DX2                !
 ! D44   D(7,8,9,18)             0.0724         estimate D2E/DX2                !
 ! D45   D(8,9,10,2)             0.0085         estimate D2E/DX2                !
 ! D46   D(8,9,10,11)          179.9822         estimate D2E/DX2                !
 ! D47   D(18,9,10,2)         -179.9744         estimate D2E/DX2                !
 ! D48   D(18,9,10,11)          -0.0007         estimate D2E/DX2                !
 ! D49   D(2,10,11,19)        -179.8277         estimate D2E/DX2                !
 ! D50   D(2,10,11,20)          60.8204         estimate D2E/DX2                !
 ! D51   D(2,10,11,21)         -60.5021         estimate D2E/DX2                !
 ! D52   D(9,10,11,19)           0.1987         estimate D2E/DX2                !
 ! D53   D(9,10,11,20)        -119.1531         estimate D2E/DX2                !
 ! D54   D(9,10,11,21)         119.5244         estimate D2E/DX2                !
 --------------------------------------------------------------------------------
 Trust Radius=3.00D-01 FncErr=1.00D-07 GrdErr=1.00D-06
 Number of steps in this run= 132 maximum allowed number of steps= 144.
 GradGradGradGradGradGradGradGradGradGradGradGradGradGradGradGradGradGrad

 Leave Link  103 at Sun Oct  3 18:20:21 2021, MaxMem= 1073741824 cpu:       0.0
 (Enter /sw/target/amd/app/gaussian/Gaussian09RevA.02_gcc-4.9.2/g09/l202.exe)
                          Input orientation:                          
 ---------------------------------------------------------------------
 Center     Atomic      Atomic             Coordinates (Angstroms)
 Number     Number       Type             X           Y           Z
 ---------------------------------------------------------------------
      1          6           0        0.975373   -0.166625   -0.037986
      2          6           0        2.478256   -0.079613   -0.037439
      3          6           0        3.226373   -1.274856   -0.038774
      4          6           0        4.627025   -1.215500   -0.036121
      5          7           0        5.549310   -2.235085   -0.036326
      6          6           0        6.720078   -1.638495   -0.032185
      7          7           0        6.591966   -0.279325   -0.029310
      8          6           0        5.253980    0.025277   -0.032805
      9          6           0        4.546848    1.232016   -0.032683
     10          6           0        3.140012    1.168300   -0.035135
     11          6           0        2.361892    2.458913   -0.034629
     12          6           0        7.674869    0.670120   -0.022305
     13          1           0        0.631861   -1.206543   -0.037514
     14          1           0        0.567345    0.314626   -0.932351
     15          1           0        0.566867    0.315186    0.855947
     16          1           0        2.743724   -2.246426   -0.040766
     17          1           0        7.678656   -2.141055   -0.031020
     18          1           0        5.066799    2.184677   -0.030483
     19          1           0        3.027419    3.329073   -0.035825
     20          1           0        1.735904    2.525172    0.860679
     21          1           0        1.734099    2.524694   -0.928359
     22          1           0        8.630207    0.139427   -0.020635
     23          1           0        7.591507    1.284654    0.877929
     24          1           0        7.597927    1.290871   -0.918615
 ---------------------------------------------------------------------
                    Distance matrix (angstroms):
                    1          2          3          4          5
     1  C    0.000000
     2  C    1.505400   0.000000
     3  C    2.509019   1.410066   0.000000
     4  C    3.799303   2.430524   1.401912   0.000000
     5  N    5.019904   3.751991   2.513580   1.374833   0.000000
     6  C    5.930268   4.519203   3.512585   2.135372   1.314014
     7  N    5.617731   4.118563   3.509757   2.176572   2.216343
     8  C    4.282912   2.777709   2.408646   1.390184   2.279576
     9  C    3.835579   2.449381   2.833390   2.448832   3.609118
    10  C    2.543167   1.412520   2.444684   2.809574   4.169862
    11  C    2.969157   2.541193   3.832541   4.316496   5.673910
    12  C    6.751566   5.250439   4.855134   3.584007   3.599779
    13  H    1.095186   2.163133   2.595411   3.995173   5.023863
    14  H    1.094522   2.146596   3.224184   4.430069   5.667792
    15  H    1.094594   2.146489   3.225172   4.429861   5.667873
    16  H    2.729954   2.183017   1.084851   2.147010   2.805613
    17  H    6.988021   5.594082   4.535768   3.188908   2.131428
    18  H    4.718945   3.439129   3.918622   3.428503   4.446025
    19  H    4.053493   3.452640   4.608227   4.817872   6.108993
    20  H    2.937989   2.853525   4.179799   4.812011   6.164960
    21  H    2.934557   2.851303   4.177897   4.811877   6.164987
    22  H    7.660970   6.155872   5.585871   4.226291   3.889791
    23  H    6.835082   5.370703   5.142551   3.984271   4.170730
    24  H    6.837984   5.372684   5.144664   3.985844   4.172245
                    6          7          8          9         10
     6  C    0.000000
     7  N    1.365197   0.000000
     8  C    2.217562   1.372225   0.000000
     9  C    3.600384   2.542965   1.398662   0.000000
    10  C    4.549173   3.743213   2.403199   1.408280   0.000000
    11  C    5.981851   5.038998   3.779783   2.505856   1.507034
    12  C    2.498285   1.440199   2.505321   3.178104   4.562156
    13  H    6.103523   6.031804   4.783450   4.612344   3.454086
    14  H    6.517753   6.120811   4.780948   4.181801   2.855236
    15  H    6.516722   6.118738   4.779431   4.179772   2.853578
    16  H    4.022567   4.321873   3.385570   3.918020   3.437649
    17  H    1.082331   2.155675   3.251469   4.602807   5.617040
    18  H    4.165330   2.897834   2.167498   1.085318   2.178428
    19  H    6.189708   5.072138   3.984050   2.589657   2.163705
    20  H    6.555556   5.677907   4.407340   3.220521   2.148279
    21  H    6.557077   5.680642   4.408931   3.222548   2.148080
    22  H    2.609547   2.080830   3.378178   4.227022   5.585788
    23  H    3.183158   2.065961   2.807044   3.178353   4.545660
    24  H    3.183954   2.065996   2.807218   3.177644   4.546269
                   11         12         13         14         15
    11  C    0.000000
    12  C    5.606037   0.000000
    13  H    4.053219   7.288762   0.000000
    14  H    2.936711   7.174361   1.766028   0.000000
    15  H    2.934418   7.170844   1.765831   1.788299   0.000000
    16  H    4.720810   5.729116   2.354003   3.477145   3.479175
    17  H    7.030484   2.811192   7.108493   7.577171   7.576106
    18  H    2.718776   3.015954   5.582929   4.955355   4.952791
    19  H    1.095494   5.354345   5.129378   3.992820   3.991627
    20  H    1.094453   6.284280   3.993916   3.076849   2.500142
    21  H    1.094169   6.289128   3.991324   2.499146   3.070522
    22  H    6.683710   1.092845   8.110823   8.116136   8.112752
    23  H    5.436958   1.093171   7.448541   7.318259   7.091257
    24  H    5.437078   1.092988   7.452482   7.098051   7.316888
                   16         17         18         19         20
    16  H    0.000000
    17  H    4.936067   0.000000
    18  H    5.003144   5.053094   0.000000
    19  H    5.582714   7.180275   2.338534   0.000000
    20  H    4.959481   7.608226   3.464818   1.765782   0.000000
    21  H    4.956889   7.610007   3.468239   1.765310   1.789039
    22  H    6.351644   2.471064   4.108652   6.447117   7.348463
    23  H    6.067415   3.545316   2.830089   5.083847   5.985588
    24  H    6.070122   3.545767   2.827415   5.081647   6.249216
                   21         22         23         24
    21  H    0.000000
    22  H    7.353215   0.000000
    23  H    6.253767   1.788257   0.000000
    24  H    5.992237   1.788237   1.796566   0.000000
 Stoichiometry    C10H12N2
 Framework group  C1[X(C10H12N2)]
 Deg. of freedom    66
 Full point group                 C1      NOp   1
 Largest Abelian subgroup         C1      NOp   1
 Largest concise Abelian subgroup C1      NOp   1
                         Standard orientation:                         
 ---------------------------------------------------------------------
 Center     Atomic      Atomic             Coordinates (Angstroms)
 Number     Number       Type             X           Y           Z
 ---------------------------------------------------------------------
      1          6           0       -3.263601   -1.054491    0.002964
      2          6           0       -1.839063   -0.567753    0.000198
      3          6           0       -0.797897   -1.518678   -0.000584
      4          6           0        0.535569   -1.085986   -0.000980
      5          7           0        1.697437   -1.820988   -0.001311
      6          6           0        2.665408   -0.932356   -0.000690
      7          7           0        2.177603    0.342716    0.000038
      8          6           0        0.806932    0.277457   -0.001187
      9          6           0       -0.197834    1.250442   -0.001725
     10          6           0       -1.536089    0.811892   -0.001107
     11          6           0       -2.631730    1.846650   -0.001261
     12          6           0        2.966331    1.547736    0.003079
     13          1           0       -3.315739   -2.148430    0.006006
     14          1           0       -3.787097   -0.702283   -0.891396
     15          1           0       -3.784940   -0.697801    0.896895
     16          1           0       -1.002406   -2.584078    0.000165
     17          1           0        3.723630   -1.159529   -0.000646
     18          1           0        0.047681    2.307625   -0.002312
     19          1           0       -2.223856    2.863374   -0.005402
     20          1           0       -3.251179    1.744699    0.895241
     21          1           0       -3.255559    1.739682   -0.893786
     22          1           0        4.028974    1.292593    0.003685
     23          1           0        2.722660    2.119473    0.902392
     24          1           0        2.724398    2.123094   -0.894169
 ---------------------------------------------------------------------
 Rotational constants (GHZ):      1.9186750      0.7077261      0.5222013
 Leave Link  202 at Sun Oct  3 18:20:21 2021, MaxMem= 1073741824 cpu:       0.0
 (Enter /sw/target/amd/app/gaussian/Gaussian09RevA.02_gcc-4.9.2/g09/l301.exe)
 Standard basis: 6-31G(d) (6D, 7F)
 Ernie: Thresh=  0.10000D-02 Tol=  0.10000D-05 Strict=F.
 There are   204 symmetry adapted basis functions of A   symmetry.
 Integral buffers will be    131072 words long.
 Raffenetti 2 integral format.
 Two-electron integral symmetry is turned on.
   204 basis functions,   384 primitive gaussians,   204 cartesian basis functions
    43 alpha electrons       43 beta electrons
       nuclear repulsion energy       673.6043180789 Hartrees.
 IExCor=  402 DFT=T Ex+Corr=B3LYP ExCW=0 ScaHFX=  0.200000
 ScaDFX=  0.800000  0.720000  1.000000  0.810000 ScalE2=  1.000000  1.000000
 IRadAn=      0 IRanWt=     -1 IRanGd=            0 ICorTp=0
 NAtoms=   24 NActive=   24 NUniq=   24 SFac= 7.50D-01 NAtFMM=   80 NAOKFM=F Big=F
 Leave Link  301 at Sun Oct  3 18:20:22 2021, MaxMem= 1073741824 cpu:       0.1
 (Enter /sw/target/amd/app/gaussian/Gaussian09RevA.02_gcc-4.9.2/g09/l302.exe)
 NPDir=0 NMtPBC=     1 NCelOv=     1 NCel=       1 NClECP=     1 NCelD=      1
         NCelK=      1 NCelE2=     1 NClLst=     1 CellRange=     0.0.
 One-electron integrals computed using PRISM.
 NBasis=   204 RedAO= T  NBF=   204
 NBsUse=   204 1.00D-06 NBFU=   204
 Precomputing XC quadrature grid using
 IXCGrd= 2 IRadAn=           0 IRanWt=          -1 IRanGd=           0 AccXCQ= 1.00D-10.
 NRdTot=    1512 NPtTot=      191502 NUsed=      202411 NTot=      202443
 NSgBfM=   203   203   203   203   203 NAtAll=    24    24.
 Leave Link  302 at Sun Oct  3 18:20:26 2021, MaxMem= 1073741824 cpu:       1.8
 (Enter /sw/target/amd/app/gaussian/Gaussian09RevA.02_gcc-4.9.2/g09/l303.exe)
 DipDrv:  MaxL=1.
 Leave Link  303 at Sun Oct  3 18:20:27 2021, MaxMem= 1073741824 cpu:       0.2
 (Enter /sw/target/amd/app/gaussian/Gaussian09RevA.02_gcc-4.9.2/g09/l401.exe)
 Harris functional with IExCor=  402 diagonalized for initial guess.
 ExpMin= 1.61D-01 ExpMax= 4.17D+03 ExpMxC= 6.27D+02 IAcc=1 IRadAn=         1 AccDes= 0.00D+00
 HarFok:  IExCor=  402 AccDes= 0.00D+00 IRadAn=         1 IDoV= 1
 ScaDFX=  1.000000  1.000000  1.000000  1.000000
 FoFCou: FMM=F IPFlag=           0 FMFlag=      100000 FMFlg1=           0
         NFxFlg=           0 DoJE=T BraDBF=F KetDBF=T FulRan=T
         Omega=  0.000000  0.000000  1.000000  0.000000  0.000000 ICntrl=     500 IOpCl=  0
         NMat0=    1 NMatS0=    1 NMatT0=    0 NMatD0=    1 NMtDS0=    0 NMtDT0=    0
         I1Cent=           4 NGrid=           0.
 Petite list used in FoFCou.
 Harris En= -497.882704933464    
 Initial guess orbital symmetries:
       Occupied  (A) (A) (A) (A) (A) (A) (A) (A) (A) (A) (A) (A)
                 (A) (A) (A) (A) (A) (A) (A) (A) (A) (A) (A) (A)
                 (A) (A) (A) (A) (A) (A) (A) (A) (A) (A) (A) (A)
                 (A) (A) (A) (A) (A) (A) (A)
       Virtual   (A) (A) (A) (A) (A) (A) (A) (A) (A) (A) (A) (A)
                 (A) (A) (A) (A) (A) (A) (A) (A) (A) (A) (A) (A)
                 (A) (A) (A) (A) (A) (A) (A) (A) (A) (A) (A) (A)
                 (A) (A) (A) (A) (A) (A) (A) (A) (A) (A) (A) (A)
                 (A) (A) (A) (A) (A) (A) (A) (A) (A) (A) (A) (A)
                 (A) (A) (A) (A) (A) (A) (A) (A) (A) (A) (A) (A)
                 (A) (A) (A) (A) (A) (A) (A) (A) (A) (A) (A) (A)
                 (A) (A) (A) (A) (A) (A) (A) (A) (A) (A) (A) (A)
                 (A) (A) (A) (A) (A) (A) (A) (A) (A) (A) (A) (A)
                 (A) (A) (A) (A) (A) (A) (A) (A) (A) (A) (A) (A)
                 (A) (A) (A) (A) (A) (A) (A) (A) (A) (A) (A) (A)
                 (A) (A) (A) (A) (A) (A) (A) (A) (A) (A) (A) (A)
                 (A) (A) (A) (A) (A) (A) (A) (A) (A) (A) (A) (A)
                 (A) (A) (A) (A) (A)
 The electronic state of the initial guess is 1-A.
 Leave Link  401 at Sun Oct  3 18:20:43 2021, MaxMem= 1073741824 cpu:       8.1
 (Enter /sw/target/amd/app/gaussian/Gaussian09RevA.02_gcc-4.9.2/g09/l502.exe)
 Closed shell SCF:
 Requested convergence on RMS density matrix=1.00D-08 within  64 cycles.
 Requested convergence on MAX density matrix=1.00D-06.
 Requested convergence on             energy=1.00D-06.
 No special actions if energy rises.
 Using DIIS extrapolation, IDIIS=  1040.
 Integral symmetry usage will be decided dynamically.
       202182 words used for storage of precomputed grid.
 Keep R1 ints in memory in canonical form, NReq=223267319.
 IEnd=      335340 IEndB=      335340 NGot=  1073741824 MDV=   854827996
 LenX=   854827996 LenY=   854785939
 Symmetry not used in FoFDir.
 MinBra= 0 MaxBra= 2 Meth= 1.
 IRaf=       0 NMat=   1 IRICut=       1 DoRegI=T DoRafI=F ISym2E= 0 JSym2E=0.
 Integral accuracy reduced to 1.0D-05 until final iterations.

 Cycle   1  Pass 0  IDiag  1:
 E= -497.497262657468    
 DIIS: error= 4.75D-02 at cycle   1 NSaved=   1.
 NSaved= 1 IEnMin= 1 EnMin= -497.497262657468     IErMin= 1 ErrMin= 4.75D-02
 ErrMax= 4.75D-02 EMaxC= 1.00D-01 BMatC= 2.84D-01 BMatP= 2.84D-01
 IDIUse=3 WtCom= 5.25D-01 WtEn= 4.75D-01
 Coeff-Com:  0.100D+01
 Coeff-En:   0.100D+01
 Coeff:      0.100D+01
 Gap=     0.222 Goal=   None    Shift=    0.000
 GapD=    0.222 DampG=1.000 DampE=0.500 DampFc=0.5000 IDamp=-1.
 Damping current iteration by 5.00D-01
 RMSDP=6.89D-03 MaxDP=1.66D-01              OVMax= 2.34D-01

 Cycle   2  Pass 0  IDiag  1:
 E= -497.631236408444     Delta-E=       -0.133973750976 Rises=F Damp=T
 DIIS: error= 9.61D-03 at cycle   2 NSaved=   2.
 NSaved= 2 IEnMin= 2 EnMin= -497.631236408444     IErMin= 2 ErrMin= 9.61D-03
 ErrMax= 9.61D-03 EMaxC= 1.00D-01 BMatC= 2.27D-02 BMatP= 2.84D-01
 IDIUse=3 WtCom= 9.04D-01 WtEn= 9.61D-02
 Coeff-Com:  0.781D-01 0.922D+00
 Coeff-En:   0.126D+00 0.874D+00
 Coeff:      0.827D-01 0.917D+00
 Gap=     0.207 Goal=   None    Shift=    0.000
 RMSDP=2.21D-03 MaxDP=6.47D-02 DE=-1.34D-01 OVMax= 2.14D-01

 Cycle   3  Pass 0  IDiag  1:
 E= -497.773428103917     Delta-E=       -0.142191695473 Rises=F Damp=F
 DIIS: error= 1.51D-02 at cycle   3 NSaved=   3.
 NSaved= 3 IEnMin= 3 EnMin= -497.773428103917     IErMin= 2 ErrMin= 9.61D-03
 ErrMax= 1.51D-02 EMaxC= 1.00D-01 BMatC= 3.67D-02 BMatP= 2.27D-02
 IDIUse=2 WtCom= 0.00D+00 WtEn= 1.00D+00
 Coeff-En:   0.000D+00 0.000D+00 0.100D+01
 Coeff:      0.000D+00 0.000D+00 0.100D+01
 Gap=     0.215 Goal=   None    Shift=    0.000
 RMSDP=3.11D-03 MaxDP=1.08D-01 DE=-1.42D-01 OVMax= 1.93D-01

 Cycle   4  Pass 0  IDiag  1:
 E= -497.625958129912     Delta-E=        0.147469974005 Rises=F Damp=F
 DIIS: error= 4.17D-02 at cycle   4 NSaved=   4.
 NSaved= 4 IEnMin= 3 EnMin= -497.773428103917     IErMin= 2 ErrMin= 9.61D-03
 ErrMax= 4.17D-02 EMaxC= 1.00D-01 BMatC= 1.91D-01 BMatP= 2.27D-02
 IDIUse=2 WtCom= 0.00D+00 WtEn= 1.00D+00
 Coeff-En:   0.000D+00 0.000D+00 0.781D+00 0.219D+00
 Coeff:      0.000D+00 0.000D+00 0.781D+00 0.219D+00
 Gap=     0.200 Goal=   None    Shift=    0.000
 RMSDP=1.64D-03 MaxDP=5.48D-02 DE= 1.47D-01 OVMax= 1.28D-01

 Cycle   5  Pass 0  IDiag  1:
 E= -497.796197424470     Delta-E=       -0.170239294558 Rises=F Damp=F
 DIIS: error= 1.03D-02 at cycle   5 NSaved=   5.
 NSaved= 5 IEnMin= 5 EnMin= -497.796197424470     IErMin= 2 ErrMin= 9.61D-03
 ErrMax= 1.03D-02 EMaxC= 1.00D-01 BMatC= 1.37D-02 BMatP= 2.27D-02
 IDIUse=3 WtCom= 8.97D-01 WtEn= 1.03D-01
 Coeff-Com: -0.156D-02 0.169D-01 0.285D+00-0.931D-01 0.793D+00
 Coeff-En:   0.000D+00 0.000D+00 0.319D+00 0.000D+00 0.681D+00
 Coeff:     -0.140D-02 0.151D-01 0.288D+00-0.835D-01 0.782D+00
 Gap=     0.201 Goal=   None    Shift=    0.000
 RMSDP=5.96D-04 MaxDP=2.10D-02 DE=-1.70D-01 OVMax= 4.80D-02

 Cycle   6  Pass 0  IDiag  1:
 E= -497.809358902584     Delta-E=       -0.013161478114 Rises=F Damp=F
 DIIS: error= 6.79D-04 at cycle   6 NSaved=   6.
 NSaved= 6 IEnMin= 6 EnMin= -497.809358902584     IErMin= 6 ErrMin= 6.79D-04
 ErrMax= 6.79D-04 EMaxC= 1.00D-01 BMatC= 7.20D-05 BMatP= 1.37D-02
 IDIUse=3 WtCom= 9.93D-01 WtEn= 6.79D-03
 Coeff-Com: -0.220D-02 0.920D-02 0.144D+00-0.712D-01 0.499D+00 0.422D+00
 Coeff-En:   0.000D+00 0.000D+00 0.000D+00 0.000D+00 0.000D+00 0.100D+01
 Coeff:     -0.219D-02 0.913D-02 0.143D+00-0.707D-01 0.495D+00 0.426D+00
 Gap=     0.201 Goal=   None    Shift=    0.000
 RMSDP=5.56D-05 MaxDP=1.74D-03 DE=-1.32D-02 OVMax= 4.78D-03

 Cycle   7  Pass 0  IDiag  1:
 E= -497.809437006444     Delta-E=       -0.000078103860 Rises=F Damp=F
 DIIS: error= 1.19D-04 at cycle   7 NSaved=   7.
 NSaved= 7 IEnMin= 7 EnMin= -497.809437006444     IErMin= 7 ErrMin= 1.19D-04
 ErrMax= 1.19D-04 EMaxC= 1.00D-01 BMatC= 3.10D-06 BMatP= 7.20D-05
 IDIUse=3 WtCom= 9.99D-01 WtEn= 1.19D-03
 Coeff-Com: -0.555D-03 0.182D-02 0.430D-01-0.244D-01 0.160D+00 0.206D+00
 Coeff-Com:  0.614D+00
 Coeff-En:   0.000D+00 0.000D+00 0.000D+00 0.000D+00 0.000D+00 0.000D+00
 Coeff-En:   0.100D+01
 Coeff:     -0.554D-03 0.182D-02 0.429D-01-0.244D-01 0.160D+00 0.206D+00
 Coeff:      0.615D+00
 Gap=     0.201 Goal=   None    Shift=    0.000
 RMSDP=1.16D-05 MaxDP=3.03D-04 DE=-7.81D-05 OVMax= 7.11D-04

 Cycle   8  Pass 0  IDiag  1:
 E= -497.809439687303     Delta-E=       -0.000002680860 Rises=F Damp=F
 DIIS: error= 4.45D-05 at cycle   8 NSaved=   8.
 NSaved= 8 IEnMin= 8 EnMin= -497.809439687303     IErMin= 8 ErrMin= 4.45D-05
 ErrMax= 4.45D-05 EMaxC= 1.00D-01 BMatC= 5.54D-07 BMatP= 3.10D-06
 IDIUse=1 WtCom= 1.00D+00 WtEn= 0.00D+00
 Coeff-Com:  0.126D-03-0.659D-03 0.860D-02-0.414D-02 0.287D-01 0.679D-01
 Coeff-Com:  0.363D+00 0.537D+00
 Coeff:      0.126D-03-0.659D-03 0.860D-02-0.414D-02 0.287D-01 0.679D-01
 Coeff:      0.363D+00 0.537D+00
 Gap=     0.201 Goal=   None    Shift=    0.000
 RMSDP=4.29D-06 MaxDP=1.70D-04 DE=-2.68D-06 OVMax= 2.87D-04

 Initial convergence to 1.0D-05 achieved.  Increase integral accuracy.
 Cycle   9  Pass 1  IDiag  1:
 E= -497.809477006418     Delta-E=       -0.000037319114 Rises=F Damp=F
 DIIS: error= 1.37D-05 at cycle   1 NSaved=   1.
 NSaved= 1 IEnMin= 1 EnMin= -497.809477006418     IErMin= 1 ErrMin= 1.37D-05
 ErrMax= 1.37D-05 EMaxC= 1.00D-01 BMatC= 8.21D-08 BMatP= 8.21D-08
 IDIUse=1 WtCom= 1.00D+00 WtEn= 0.00D+00
 Coeff-Com:  0.100D+01
 Coeff:      0.100D+01
 Gap=     0.201 Goal=   None    Shift=    0.000
 RMSDP=4.29D-06 MaxDP=1.70D-04 DE=-3.73D-05 OVMax= 1.07D-04

 Cycle  10  Pass 1  IDiag  1:
 E= -497.809477071888     Delta-E=       -0.000000065470 Rises=F Damp=F
 DIIS: error= 1.29D-05 at cycle   2 NSaved=   2.
 NSaved= 2 IEnMin= 2 EnMin= -497.809477071888     IErMin= 2 ErrMin= 1.29D-05
 ErrMax= 1.29D-05 EMaxC= 1.00D-01 BMatC= 4.45D-08 BMatP= 8.21D-08
 IDIUse=1 WtCom= 1.00D+00 WtEn= 0.00D+00
 Coeff-Com:  0.389D+00 0.611D+00
 Coeff:      0.389D+00 0.611D+00
 Gap=     0.201 Goal=   None    Shift=    0.000
 RMSDP=2.10D-06 MaxDP=6.16D-05 DE=-6.55D-08 OVMax= 1.30D-04

 Cycle  11  Pass 1  IDiag  1:
 E= -497.809477092444     Delta-E=       -0.000000020555 Rises=F Damp=F
 DIIS: error= 1.02D-05 at cycle   3 NSaved=   3.
 NSaved= 3 IEnMin= 3 EnMin= -497.809477092444     IErMin= 3 ErrMin= 1.02D-05
 ErrMax= 1.02D-05 EMaxC= 1.00D-01 BMatC= 2.43D-08 BMatP= 4.45D-08
 IDIUse=1 WtCom= 1.00D+00 WtEn= 0.00D+00
 Coeff-Com: -0.246D-02 0.423D+00 0.579D+00
 Coeff:     -0.246D-02 0.423D+00 0.579D+00
 Gap=     0.201 Goal=   None    Shift=    0.000
 RMSDP=9.88D-07 MaxDP=2.58D-05 DE=-2.06D-08 OVMax= 6.74D-05

 Cycle  12  Pass 1  IDiag  1:
 E= -497.809477115887     Delta-E=       -0.000000023444 Rises=F Damp=F
 DIIS: error= 3.29D-06 at cycle   4 NSaved=   4.
 NSaved= 4 IEnMin= 4 EnMin= -497.809477115887     IErMin= 4 ErrMin= 3.29D-06
 ErrMax= 3.29D-06 EMaxC= 1.00D-01 BMatC= 2.07D-09 BMatP= 2.43D-08
 IDIUse=1 WtCom= 1.00D+00 WtEn= 0.00D+00
 Coeff-Com: -0.196D-01 0.242D+00 0.371D+00 0.406D+00
 Coeff:     -0.196D-01 0.242D+00 0.371D+00 0.406D+00
 Gap=     0.201 Goal=   None    Shift=    0.000
 RMSDP=2.61D-07 MaxDP=6.80D-06 DE=-2.34D-08 OVMax= 1.89D-05

 Cycle  13  Pass 1  IDiag  1:
 E= -497.809477117844     Delta-E=       -0.000000001957 Rises=F Damp=F
 DIIS: error= 5.82D-07 at cycle   5 NSaved=   5.
 NSaved= 5 IEnMin= 5 EnMin= -497.809477117844     IErMin= 5 ErrMin= 5.82D-07
 ErrMax= 5.82D-07 EMaxC= 1.00D-01 BMatC= 6.55D-11 BMatP= 2.07D-09
 IDIUse=1 WtCom= 1.00D+00 WtEn= 0.00D+00
 Coeff-Com: -0.995D-02 0.107D+00 0.168D+00 0.218D+00 0.517D+00
 Coeff:     -0.995D-02 0.107D+00 0.168D+00 0.218D+00 0.517D+00
 Gap=     0.201 Goal=   None    Shift=    0.000
 RMSDP=5.18D-08 MaxDP=2.11D-06 DE=-1.96D-09 OVMax= 3.43D-06

 Cycle  14  Pass 1  IDiag  1:
 E= -497.809477117903     Delta-E=       -0.000000000060 Rises=F Damp=F
 DIIS: error= 1.64D-07 at cycle   6 NSaved=   6.
 NSaved= 6 IEnMin= 6 EnMin= -497.809477117903     IErMin= 6 ErrMin= 1.64D-07
 ErrMax= 1.64D-07 EMaxC= 1.00D-01 BMatC= 8.11D-12 BMatP= 6.55D-11
 IDIUse=1 WtCom= 1.00D+00 WtEn= 0.00D+00
 Coeff-Com: -0.261D-02 0.208D-01 0.349D-01 0.523D-01 0.285D+00 0.610D+00
 Coeff:     -0.261D-02 0.208D-01 0.349D-01 0.523D-01 0.285D+00 0.610D+00
 Gap=     0.201 Goal=   None    Shift=    0.000
 RMSDP=1.64D-08 MaxDP=4.71D-07 DE=-5.96D-11 OVMax= 1.04D-06

 Cycle  15  Pass 1  IDiag  1:
 E= -497.809477117914     Delta-E=       -0.000000000010 Rises=F Damp=F
 DIIS: error= 6.47D-08 at cycle   7 NSaved=   7.
 NSaved= 7 IEnMin= 7 EnMin= -497.809477117914     IErMin= 7 ErrMin= 6.47D-08
 ErrMax= 6.47D-08 EMaxC= 1.00D-01 BMatC= 7.96D-13 BMatP= 8.11D-12
 IDIUse=1 WtCom= 1.00D+00 WtEn= 0.00D+00
 Coeff-Com: -0.397D-03 0.116D-02 0.301D-02 0.639D-02 0.104D+00 0.321D+00
 Coeff-Com:  0.565D+00
 Coeff:     -0.397D-03 0.116D-02 0.301D-02 0.639D-02 0.104D+00 0.321D+00
 Coeff:      0.565D+00
 Gap=     0.201 Goal=   None    Shift=    0.000
 RMSDP=7.53D-09 MaxDP=2.01D-07 DE=-1.02D-11 OVMax= 6.34D-07

 SCF Done:  E(RB3LYP) =  -497.809477118     A.U. after   15 cycles
             Convg  =    0.7526D-08             -V/T =  2.0094
 KE= 4.931885806017D+02 PE=-2.501113622182D+03 EE= 8.365112463835D+02
 Leave Link  502 at Sun Oct  3 18:27:40 2021, MaxMem= 1073741824 cpu:     173.6
 (Enter /sw/target/amd/app/gaussian/Gaussian09RevA.02_gcc-4.9.2/g09/l508.exe)
 QCSCF skips out because SCF is already converged.
 Leave Link  508 at Sun Oct  3 18:27:42 2021, MaxMem= 1073741824 cpu:       0.0
 (Enter /sw/target/amd/app/gaussian/Gaussian09RevA.02_gcc-4.9.2/g09/l601.exe)
 Copying SCF densities to generalized density rwf, IOpCl= 0 IROHF=0.

 **********************************************************************

            Population analysis using the SCF density.

 **********************************************************************

 Orbital symmetries:
       Occupied  (A) (A) (A) (A) (A) (A) (A) (A) (A) (A) (A) (A)
                 (A) (A) (A) (A) (A) (A) (A) (A) (A) (A) (A) (A)
                 (A) (A) (A) (A) (A) (A) (A) (A) (A) (A) (A) (A)
                 (A) (A) (A) (A) (A) (A) (A)
       Virtual   (A) (A) (A) (A) (A) (A) (A) (A) (A) (A) (A) (A)
                 (A) (A) (A) (A) (A) (A) (A) (A) (A) (A) (A) (A)
                 (A) (A) (A) (A) (A) (A) (A) (A) (A) (A) (A) (A)
                 (A) (A) (A) (A) (A) (A) (A) (A) (A) (A) (A) (A)
                 (A) (A) (A) (A) (A) (A) (A) (A) (A) (A) (A) (A)
                 (A) (A) (A) (A) (A) (A) (A) (A) (A) (A) (A) (A)
                 (A) (A) (A) (A) (A) (A) (A) (A) (A) (A) (A) (A)
                 (A) (A) (A) (A) (A) (A) (A) (A) (A) (A) (A) (A)
                 (A) (A) (A) (A) (A) (A) (A) (A) (A) (A) (A) (A)
                 (A) (A) (A) (A) (A) (A) (A) (A) (A) (A) (A) (A)
                 (A) (A) (A) (A) (A) (A) (A) (A) (A) (A) (A) (A)
                 (A) (A) (A) (A) (A) (A) (A) (A) (A) (A) (A) (A)
                 (A) (A) (A) (A) (A) (A) (A) (A) (A) (A) (A) (A)
                 (A) (A) (A) (A) (A)
 The electronic state is 1-A.
 Alpha  occ. eigenvalues --  -14.38579 -14.30136 -10.24109 -10.23748 -10.20740
 Alpha  occ. eigenvalues --  -10.19051 -10.18892 -10.18573 -10.18378 -10.17896
 Alpha  occ. eigenvalues --  -10.17494 -10.17492  -1.01897  -0.88592  -0.84199
 Alpha  occ. eigenvalues --   -0.76771  -0.75198  -0.72495  -0.68298  -0.67558
 Alpha  occ. eigenvalues --   -0.60509  -0.57902  -0.56592  -0.51788  -0.48269
 Alpha  occ. eigenvalues --   -0.48098  -0.46497  -0.43953  -0.43339  -0.43145
 Alpha  occ. eigenvalues --   -0.41456  -0.40265  -0.40089  -0.39881  -0.38164
 Alpha  occ. eigenvalues --   -0.37023  -0.34055  -0.33751  -0.31387  -0.28423
 Alpha  occ. eigenvalues --   -0.25716  -0.21362  -0.20844
 Alpha virt. eigenvalues --   -0.00773   0.03029   0.06614   0.08463   0.09918
 Alpha virt. eigenvalues --    0.11959   0.12623   0.13799   0.14305   0.14722
 Alpha virt. eigenvalues --    0.15255   0.16378   0.16734   0.17649   0.18618
 Alpha virt. eigenvalues --    0.21150   0.23631   0.24245   0.25629   0.26044
 Alpha virt. eigenvalues --    0.28039   0.32737   0.33497   0.35381   0.36708
 Alpha virt. eigenvalues --    0.39596   0.44366   0.46595   0.48762   0.48821
 Alpha virt. eigenvalues --    0.50189   0.52729   0.53630   0.54702   0.55483
 Alpha virt. eigenvalues --    0.56619   0.57641   0.58137   0.59274   0.61472
 Alpha virt. eigenvalues --    0.62871   0.64743   0.66660   0.66721   0.67246
 Alpha virt. eigenvalues --    0.69909   0.71757   0.72694   0.74966   0.75205
 Alpha virt. eigenvalues --    0.77808   0.78836   0.79045   0.79997   0.81321
 Alpha virt. eigenvalues --    0.82442   0.83701   0.83916   0.85953   0.86369
 Alpha virt. eigenvalues --    0.87197   0.87965   0.90246   0.90629   0.91598
 Alpha virt. eigenvalues --    0.92226   0.94487   0.94863   0.95621   0.96872
 Alpha virt. eigenvalues --    1.00321   1.01671   1.04907   1.08296   1.11878
 Alpha virt. eigenvalues --    1.15368   1.16980   1.20946   1.23302   1.23877
 Alpha virt. eigenvalues --    1.30460   1.32516   1.33013   1.33905   1.34105
 Alpha virt. eigenvalues --    1.39167   1.41463   1.42751   1.43597   1.44460
 Alpha virt. eigenvalues --    1.45870   1.51860   1.52693   1.59278   1.65225
 Alpha virt. eigenvalues --    1.70283   1.77950   1.79766   1.82595   1.84033
 Alpha virt. eigenvalues --    1.85513   1.85890   1.87209   1.89399   1.92077
 Alpha virt. eigenvalues --    1.93196   1.94842   1.98729   1.98767   2.01013
 Alpha virt. eigenvalues --    2.03667   2.05500   2.06480   2.09001   2.15565
 Alpha virt. eigenvalues --    2.16243   2.18361   2.19245   2.23441   2.24621
 Alpha virt. eigenvalues --    2.24768   2.27215   2.27574   2.29156   2.30325
 Alpha virt. eigenvalues --    2.33189   2.34869   2.36223   2.40448   2.43927
 Alpha virt. eigenvalues --    2.44822   2.46133   2.51989   2.54571   2.60625
 Alpha virt. eigenvalues --    2.63543   2.68060   2.70667   2.70685   2.72362
 Alpha virt. eigenvalues --    2.79927   2.82336   2.92512   2.96016   2.97732
 Alpha virt. eigenvalues --    3.04019   3.15032   3.28798   3.47368   4.04684
 Alpha virt. eigenvalues --    4.09701   4.12256   4.15509   4.18616   4.23848
 Alpha virt. eigenvalues --    4.28874   4.30626   4.37562   4.46705   4.52430
 Alpha virt. eigenvalues --    4.82532
          Condensed to atoms (all electrons):
              1          2          3          4          5          6
     1  C    5.225171   0.356332  -0.060718   0.006157  -0.000102   0.000005
     2  C    0.356332   4.751051   0.513445  -0.010529   0.003943  -0.000031
     3  C   -0.060718   0.513445   5.140959   0.480148  -0.065755   0.004755
     4  C    0.006157  -0.010529   0.480148   4.698739   0.395540  -0.112163
     5  N   -0.000102   0.003943  -0.065755   0.395540   6.847558   0.533256
     6  C    0.000005  -0.000031   0.004755  -0.112163   0.533256   4.738136
     7  N    0.000001   0.000581   0.011432  -0.038100  -0.093285   0.367236
     8  C    0.000160  -0.042943  -0.044325   0.448515  -0.087623  -0.074834
     9  C    0.008919  -0.018717  -0.069246  -0.043238   0.012615   0.006753
    10  C   -0.069768   0.524564  -0.008531  -0.037728  -0.000114   0.000015
    11  C   -0.018817  -0.067573   0.008097   0.000453   0.000000   0.000002
    12  C   -0.000000   0.000020  -0.000259   0.009117   0.006166  -0.040353
    13  H    0.366421  -0.028243  -0.003646   0.000246  -0.000004   0.000000
    14  H    0.360298  -0.028108   0.000591  -0.000175   0.000001  -0.000000
    15  H    0.360363  -0.028113   0.000605  -0.000175   0.000001  -0.000000
    16  H   -0.009762  -0.043989   0.337768  -0.035762  -0.000458  -0.000055
    17  H   -0.000000   0.000004  -0.000234   0.004642  -0.035983   0.375339
    18  H   -0.000152   0.004163   0.000540   0.003758  -0.000178  -0.000236
    19  H    0.000186   0.003733  -0.000127  -0.000000  -0.000000  -0.000000
    20  H    0.002358  -0.004958  -0.000117   0.000024  -0.000000  -0.000000
    21  H    0.002389  -0.005004  -0.000117   0.000025  -0.000000  -0.000000
    22  H   -0.000000  -0.000000   0.000007  -0.000078   0.000142  -0.001222
    23  H   -0.000000  -0.000003  -0.000003  -0.000204  -0.000146   0.000991
    24  H   -0.000000  -0.000003  -0.000003  -0.000203  -0.000148   0.000998
              7          8          9         10         11         12
     1  C    0.000001   0.000160   0.008919  -0.069768  -0.018817  -0.000000
     2  C    0.000581  -0.042943  -0.018717   0.524564  -0.067573   0.000020
     3  C    0.011432  -0.044325  -0.069246  -0.008531   0.008097  -0.000259
     4  C   -0.038100   0.448515  -0.043238  -0.037728   0.000453   0.009117
     5  N   -0.093285  -0.087623   0.012615  -0.000114   0.000000   0.006166
     6  C    0.367236  -0.074834   0.006753   0.000015   0.000002  -0.040353
     7  N    6.970113   0.267830  -0.087182   0.004051  -0.000138   0.274457
     8  C    0.267830   4.813594   0.424203   0.004123   0.005598  -0.040665
     9  C   -0.087182   0.424203   5.217202   0.508986  -0.059790  -0.002078
    10  C    0.004051   0.004123   0.508986   4.731180   0.352719  -0.000189
    11  C   -0.000138   0.005598  -0.059790   0.352719   5.225651  -0.000000
    12  C    0.274457  -0.040665  -0.002078  -0.000189  -0.000000   4.988344
    13  H   -0.000000   0.000002  -0.000133   0.003637   0.000175   0.000000
    14  H   -0.000000   0.000049  -0.000143  -0.004788   0.002403  -0.000000
    15  H   -0.000000   0.000050  -0.000142  -0.004834   0.002426  -0.000000
    16  H   -0.000133   0.007737   0.000175   0.004916  -0.000131   0.000002
    17  H   -0.056539   0.003943  -0.000087   0.000002  -0.000000   0.000352
    18  H   -0.006640  -0.036726   0.337774  -0.034335  -0.009326   0.003454
    19  H   -0.000003   0.000326  -0.004739  -0.028898   0.364793  -0.000000
    20  H    0.000002  -0.000123   0.000526  -0.027351   0.361051  -0.000000
    21  H    0.000002  -0.000124   0.000569  -0.027329   0.361092  -0.000000
    22  H   -0.031778   0.002467   0.000068   0.000002  -0.000000   0.378739
    23  H   -0.043087  -0.000964   0.002630   0.000012   0.000001   0.373945
    24  H   -0.043017  -0.000980   0.002611   0.000013   0.000001   0.373926
             13         14         15         16         17         18
     1  C    0.366421   0.360298   0.360363  -0.009762  -0.000000  -0.000152
     2  C   -0.028243  -0.028108  -0.028113  -0.043989   0.000004   0.004163
     3  C   -0.003646   0.000591   0.000605   0.337768  -0.000234   0.000540
     4  C    0.000246  -0.000175  -0.000175  -0.035762   0.004642   0.003758
     5  N   -0.000004   0.000001   0.000001  -0.000458  -0.035983  -0.000178
     6  C    0.000000  -0.000000  -0.000000  -0.000055   0.375339  -0.000236
     7  N   -0.000000  -0.000000  -0.000000  -0.000133  -0.056539  -0.006640
     8  C    0.000002   0.000049   0.000050   0.007737   0.003943  -0.036726
     9  C   -0.000133  -0.000143  -0.000142   0.000175  -0.000087   0.337774
    10  C    0.003637  -0.004788  -0.004834   0.004916   0.000002  -0.034335
    11  C    0.000175   0.002403   0.002426  -0.000131  -0.000000  -0.009326
    12  C    0.000000  -0.000000  -0.000000   0.000002   0.000352   0.003454
    13  H    0.554323  -0.028342  -0.028375   0.006652  -0.000000   0.000002
    14  H   -0.028342   0.573210  -0.033093   0.000173   0.000000  -0.000002
    15  H   -0.028375  -0.033093   0.573246   0.000172   0.000000  -0.000002
    16  H    0.006652   0.000173   0.000172   0.602911  -0.000004   0.000022
    17  H   -0.000000   0.000000   0.000000  -0.000004   0.546922  -0.000002
    18  H    0.000002  -0.000002  -0.000002   0.000022  -0.000002   0.610231
    19  H   -0.000004   0.000002   0.000001   0.000002  -0.000000   0.007175
    20  H   -0.000001  -0.000880   0.003478  -0.000001   0.000000   0.000134
    21  H   -0.000001   0.003480  -0.000887  -0.000001   0.000000   0.000133
    22  H    0.000000  -0.000000  -0.000000  -0.000000   0.004093  -0.000066
    23  H   -0.000000  -0.000000   0.000000   0.000000  -0.000086   0.000702
    24  H   -0.000000   0.000000  -0.000000   0.000000  -0.000085   0.000708
             19         20         21         22         23         24
     1  C    0.000186   0.002358   0.002389  -0.000000  -0.000000  -0.000000
     2  C    0.003733  -0.004958  -0.005004  -0.000000  -0.000003  -0.000003
     3  C   -0.000127  -0.000117  -0.000117   0.000007  -0.000003  -0.000003
     4  C   -0.000000   0.000024   0.000025  -0.000078  -0.000204  -0.000203
     5  N   -0.000000  -0.000000  -0.000000   0.000142  -0.000146  -0.000148
     6  C   -0.000000  -0.000000  -0.000000  -0.001222   0.000991   0.000998
     7  N   -0.000003   0.000002   0.000002  -0.031778  -0.043087  -0.043017
     8  C    0.000326  -0.000123  -0.000124   0.002467  -0.000964  -0.000980
     9  C   -0.004739   0.000526   0.000569   0.000068   0.002630   0.002611
    10  C   -0.028898  -0.027351  -0.027329   0.000002   0.000012   0.000013
    11  C    0.364793   0.361051   0.361092  -0.000000   0.000001   0.000001
    12  C   -0.000000  -0.000000  -0.000000   0.378739   0.373945   0.373926
    13  H   -0.000004  -0.000001  -0.000001   0.000000  -0.000000  -0.000000
    14  H    0.000002  -0.000880   0.003480  -0.000000  -0.000000   0.000000
    15  H    0.000001   0.003478  -0.000887  -0.000000   0.000000  -0.000000
    16  H    0.000002  -0.000001  -0.000001  -0.000000   0.000000   0.000000
    17  H   -0.000000   0.000000   0.000000   0.004093  -0.000086  -0.000085
    18  H    0.007175   0.000134   0.000133  -0.000066   0.000702   0.000708
    19  H    0.564903  -0.028811  -0.028849   0.000000   0.000000   0.000000
    20  H   -0.028811   0.568091  -0.032335   0.000000  -0.000000   0.000000
    21  H   -0.028849  -0.032335   0.568026   0.000000   0.000000  -0.000000
    22  H    0.000000   0.000000   0.000000   0.528933  -0.026418  -0.026404
    23  H    0.000000  -0.000000   0.000000  -0.026418   0.557253  -0.039674
    24  H    0.000000   0.000000  -0.000000  -0.026404  -0.039674   0.557211
 Mulliken atomic charges:
              1
     1  C   -0.529440
     2  C    0.120378
     3  C   -0.245267
     4  C    0.230990
     5  N   -0.515429
     6  C    0.201406
     7  N   -0.495804
     8  C    0.350709
     9  C   -0.237537
    10  C    0.109643
    11  C   -0.528687
    12  C   -0.324978
    13  H    0.157288
    14  H    0.155321
    15  H    0.155277
    16  H    0.129766
    17  H    0.157722
    18  H    0.118870
    19  H    0.150310
    20  H    0.158913
    21  H    0.158934
    22  H    0.171516
    23  H    0.175050
    24  H    0.175050
 Sum of Mulliken atomic charges =  -0.00000
 Mulliken charges with hydrogens summed into heavy atoms:
              1
     1  C   -0.061554
     2  C    0.120378
     3  C   -0.115501
     4  C    0.230990
     5  N   -0.515429
     6  C    0.359128
     7  N   -0.495804
     8  C    0.350709
     9  C   -0.118667
    10  C    0.109643
    11  C   -0.060530
    12  C    0.196637
 Sum of Mulliken charges with hydrogens summed into heavy atoms =  -0.00000
 Electronic spatial extent (au):  <R**2>=           2172.4336
 Charge=             -0.0000 electrons
 Dipole moment (field-independent basis, Debye):
    X=              1.0958    Y=              3.3998    Z=              0.0058  Tot=              3.5720
 Quadrupole moment (field-independent basis, Debye-Ang):
   XX=            -57.2416   YY=            -72.3165   ZZ=            -72.8912
   XY=              7.0037   XZ=              0.0084   YZ=             -0.0047
 Traceless Quadrupole moment (field-independent basis, Debye-Ang):
   XX=             10.2415   YY=             -4.8333   ZZ=             -5.4081
   XY=              7.0037   XZ=              0.0084   YZ=             -0.0047
 Octapole moment (field-independent basis, Debye-Ang**2):
  XXX=             47.3458  YYY=             20.2203  ZZZ=              0.0245  XYY=             -6.3984
  XXY=             10.5889  XXZ=              0.0304  XZZ=              0.9790  YZZ=              2.4503
  YYZ=              0.0125  XYZ=              0.0071
 Hexadecapole moment (field-independent basis, Debye-Ang**3):
 XXXX=          -1860.1516 YYYY=           -819.3732 ZZZZ=            -93.0492 XXXY=             15.0194
 XXXZ=              0.1359 YYYX=             52.6283 YYYZ=             -0.0994 ZZZX=              0.0019
 ZZZY=              0.0340 XXYY=           -474.4322 XXZZ=           -355.4640 YYZZ=           -154.0869
 XXYZ=              0.0252 YYXZ=              0.0038 ZZXY=              2.3351
 N-N= 6.736043180789D+02 E-N=-2.501113622415D+03  KE= 4.931885806017D+02
 No NMR shielding tensors so no spin-rotation constants.
 Leave Link  601 at Sun Oct  3 18:27:45 2021, MaxMem= 1073741824 cpu:       1.2
 (Enter /sw/target/amd/app/gaussian/Gaussian09RevA.02_gcc-4.9.2/g09/l701.exe)
 Compute integral first derivatives.
 ... and contract with generalized density number  0.
 Leave Link  701 at Sun Oct  3 18:27:47 2021, MaxMem= 1073741824 cpu:       1.2
 (Enter /sw/target/amd/app/gaussian/Gaussian09RevA.02_gcc-4.9.2/g09/l702.exe)
 L702 exits ... SP integral derivatives will be done elsewhere.
 Leave Link  702 at Sun Oct  3 18:27:48 2021, MaxMem= 1073741824 cpu:       0.1
 (Enter /sw/target/amd/app/gaussian/Gaussian09RevA.02_gcc-4.9.2/g09/l703.exe)
 Compute integral first derivatives, UseDBF=F ICtDFT=           0.
 Integral derivatives from FoFDir, PRISM(SPDF).
 Calling FoFJK, ICntrl=      2127 FMM=F ISym2X=0 I1Cent= 0 IOpClX= 0 NMat=1 NMatS=1 NMatT=0.
 FoFCou: FMM=F IPFlag=           0 FMFlag=      100000 FMFlg1=         800
         NFxFlg=           0 DoJE=F BraDBF=F KetDBF=F FulRan=T
         Omega=  0.000000  0.000000  1.000000  0.000000  0.000000 ICntrl=    2127 IOpCl=  0
         NMat0=    1 NMatS0=    1 NMatT0=    0 NMatD0=    1 NMtDS0=    0 NMtDT0=    0
         I1Cent=           0 NGrid=           0.
 Symmetry not used in FoFCou.
 Leave Link  703 at Sun Oct  3 18:29:17 2021, MaxMem= 1073741824 cpu:      61.3
 (Enter /sw/target/amd/app/gaussian/Gaussian09RevA.02_gcc-4.9.2/g09/l716.exe)
 Dipole        = 4.31125422D-01 1.33757881D+00 2.30139826D-03
 ***** Axes restored to original set *****
 -------------------------------------------------------------------
 Center     Atomic                   Forces (Hartrees/Bohr)
 Number     Number              X              Y              Z
 -------------------------------------------------------------------
      1        6           0.001725211   -0.000697778    0.000031100
      2        6           0.008472069   -0.024142951   -0.000029294
      3        6          -0.002223385    0.009885243    0.000083670
      4        6          -0.019596671   -0.010716627   -0.000181815
      5        7           0.007857008   -0.016075408    0.000005028
      6        6          -0.021298049   -0.005037768   -0.000014417
      7        7           0.022816557    0.008922581   -0.000039459
      8        6           0.000605806    0.011749285    0.000128018
      9        6          -0.006094198   -0.005660571    0.000007590
     10        6           0.018897250    0.008370380    0.000048701
     11        6           0.003277983   -0.001105137    0.000088374
     12        6          -0.002771501    0.001928659    0.000071338
     13        1           0.001397223    0.000486200   -0.000028016
     14        1          -0.004658946    0.002603818    0.001084785
     15        1          -0.004626549    0.002595927   -0.001134169
     16        1          -0.002367155    0.000111684   -0.000010857
     17        1           0.001075531    0.001902874    0.000019861
     18        1          -0.001456987    0.001730393    0.000001515
     19        1           0.000189522   -0.001053647    0.000033442
     20        1          -0.004755867    0.002112277   -0.001215520
     21        1          -0.004861413    0.002103096    0.001095365
     22        1          -0.000442071    0.000948275   -0.000011189
     23        1           0.004423696    0.004495727   -0.000463251
     24        1           0.004414936    0.004543469    0.000429202
 -------------------------------------------------------------------
 Cartesian Forces:  Max     0.024142951 RMS     0.007006319
 Leave Link  716 at Sun Oct  3 18:29:17 2021, MaxMem= 1073741824 cpu:       0.0
 (Enter /sw/target/amd/app/gaussian/Gaussian09RevA.02_gcc-4.9.2/g09/l103.exe)

 GradGradGradGradGradGradGradGradGradGradGradGradGradGradGradGradGradGrad
 Berny optimization.
 Internal  Forces:  Max     0.020837308 RMS     0.004502665
 Search for a local minimum.
 Step number   1 out of a maximum of  132
 All quantities printed in internal units (Hartrees-Bohrs-Radians)
 RMS Force = .45027D-02 SwitMx=.10000D-02 MixMth= 1
 Mixed Optimization -- RFO/linear search
 Second derivative matrix not updated -- first step.
     Eigenvalues ---    0.00673   0.00695   0.01160   0.01431   0.01473
     Eigenvalues ---    0.01690   0.01946   0.02008   0.02021   0.02041
     Eigenvalues ---    0.02092   0.02116   0.02125   0.02284   0.02411
     Eigenvalues ---    0.07224   0.07225   0.07250   0.07272   0.07812
     Eigenvalues ---    0.07913   0.16000   0.16000   0.16000   0.16000
     Eigenvalues ---    0.16000   0.16000   0.16000   0.16000   0.16000
     Eigenvalues ---    0.16000   0.16000   0.16000   0.23073   0.23658
     Eigenvalues ---    0.24015   0.25000   0.25000   0.25000   0.25000
     Eigenvalues ---    0.25000   0.31650   0.31817   0.34185   0.34220
     Eigenvalues ---    0.34287   0.34295   0.34303   0.34335   0.34449
     Eigenvalues ---    0.34470   0.34486   0.35359   0.35414   0.35714
     Eigenvalues ---    0.39272   0.39558   0.40926   0.43328   0.44005
     Eigenvalues ---    0.44899   0.45329   0.45859   0.49789   0.50870
     Eigenvalues ---    0.607561000.000001000.000001000.000001000.00000
     Eigenvalues --- 1000.000001000.000001000.000001000.000001000.00000
     Eigenvalues --- 1000.000001000.000001000.000001000.000001000.00000
     Eigenvalues --- 1000.000001000.000001000.000001000.000001000.00000
     Eigenvalues --- 1000.000001000.000001000.000001000.000001000.00000
     Eigenvalues --- 1000.000001000.000001000.000001000.000001000.00000
     Eigenvalues --- 1000.000001000.000001000.000001000.000001000.00000
     Eigenvalues --- 1000.000001000.000001000.000001000.000001000.00000
     Eigenvalues --- 1000.000001000.000001000.000001000.000001000.00000
     Eigenvalues --- 1000.000001000.000001000.000001000.000001000.00000
     Eigenvalues --- 1000.000001000.000001000.000001000.000001000.00000
     Eigenvalues --- 1000.000001000.00000
 RFO step:  Lambda=-8.41923668D-03 EMin= 6.72897498D-03
 Linear search not attempted -- first point.
 Iteration  1 RMS(Cart)=  0.03049070 RMS(Int)=  0.00045834
 Iteration  2 RMS(Cart)=  0.00048743 RMS(Int)=  0.00019269
 Iteration  3 RMS(Cart)=  0.00000019 RMS(Int)=  0.00019269
 Variable       Old X    -DE/DX   Delta X   Delta X   Delta X     New X
                                 (Linear)    (Quad)   (Total)
    R1        2.84479   0.00586   0.00000   0.01795   0.01795   2.86274
    R2        2.06960  -0.00089   0.00000  -0.00255  -0.00255   2.06705
    R3        2.06835   0.00199   0.00000   0.00567   0.00567   2.07402
    R4        2.06848   0.00194   0.00000   0.00552   0.00552   2.07401
    R5        2.66464  -0.01200   0.00000  -0.02771  -0.02771   2.63692
    R6        2.66928   0.00965   0.00000   0.01999   0.02002   2.68930
    R7        2.64923  -0.00156   0.00000  -0.00263  -0.00267   2.64656
    R8        2.05007   0.00095   0.00000   0.00263   0.00263   2.05270
    R9        2.59806   0.00744   0.00000   0.01498   0.01483   2.61288
   R10        2.62707   0.02084   0.00000   0.04752   0.04730   2.67437
   R11        2.48313   0.00203   0.00000   0.00130   0.00140   2.48453
   R12        2.57985   0.01187   0.00000   0.02075   0.02096   2.60081
   R13        2.04531   0.00007   0.00000   0.00019   0.00019   2.04550
   R14        2.59313   0.00935   0.00000   0.01932   0.01936   2.61249
   R15        2.72158   0.01210   0.00000   0.02995   0.02995   2.75153
   R16        2.64309  -0.00274   0.00000  -0.00493  -0.00492   2.63817
   R17        2.66126  -0.00894   0.00000  -0.02059  -0.02055   2.64071
   R18        2.05095   0.00082   0.00000   0.00227   0.00227   2.05322
   R19        2.84788   0.00493   0.00000   0.01518   0.01518   2.86306
   R20        2.07018  -0.00073   0.00000  -0.00208  -0.00208   2.06811
   R21        2.06822   0.00186   0.00000   0.00528   0.00528   2.07350
   R22        2.06768   0.00202   0.00000   0.00575   0.00575   2.07343
   R23        2.06518  -0.00085   0.00000  -0.00241  -0.00241   2.06277
   R24        2.06579   0.00181   0.00000   0.00514   0.00514   2.07093
   R25        2.06545   0.00192   0.00000   0.00544   0.00544   2.07089
    A1        1.94767  -0.00297   0.00000  -0.01480  -0.01473   1.93294
    A2        1.92522   0.00488   0.00000   0.02756   0.02750   1.95272
    A3        1.92500   0.00487   0.00000   0.02756   0.02749   1.95249
    A4        1.87646  -0.00052   0.00000  -0.00046  -0.00039   1.87607
    A5        1.87607  -0.00049   0.00000  -0.00015  -0.00008   1.87598
    A6        1.91205  -0.00619   0.00000  -0.04214  -0.04232   1.86973
    A7        2.07222   0.00273   0.00000   0.01240   0.01241   2.08462
    A8        2.11621  -0.00548   0.00000  -0.01939  -0.01938   2.09683
    A9        2.09475   0.00275   0.00000   0.00698   0.00698   2.10173
   A10        2.08770  -0.00103   0.00000  -0.00368  -0.00376   2.08393
   A11        2.12128  -0.00170   0.00000  -0.01133  -0.01129   2.10999
   A12        2.07421   0.00273   0.00000   0.01501   0.01505   2.08927
   A13        2.26378   0.00253   0.00000   0.00463   0.00484   2.26861
   A14        2.08102  -0.00023   0.00000   0.00203   0.00207   2.08309
   A15        1.93838  -0.00231   0.00000  -0.00665  -0.00691   1.93148
   A16        1.83485  -0.00539   0.00000  -0.02634  -0.02644   1.80842
   A17        1.94810   0.01555   0.00000   0.06015   0.06039   2.00849
   A18        2.18744  -0.00553   0.00000  -0.01676  -0.01688   2.17056
   A19        2.14765  -0.01002   0.00000  -0.04339  -0.04351   2.10414
   A20        1.88861  -0.01325   0.00000  -0.05215  -0.05193   1.83668
   A21        2.19665   0.00860   0.00000   0.03373   0.03363   2.23027
   A22        2.19793   0.00464   0.00000   0.01841   0.01831   2.21623
   A23        1.81483   0.00540   0.00000   0.02499   0.02488   1.83971
   A24        2.14367  -0.00368   0.00000  -0.01208  -0.01207   2.13159
   A25        2.32469  -0.00172   0.00000  -0.01291  -0.01281   2.31188
   A26        2.05559   0.00026   0.00000   0.00266   0.00267   2.05825
   A27        2.11194   0.00203   0.00000   0.01153   0.01153   2.12346
   A28        2.11566  -0.00230   0.00000  -0.01419  -0.01419   2.10147
   A29        2.10364   0.00192   0.00000   0.00409   0.00412   2.10777
   A30        2.11145  -0.00427   0.00000  -0.01487  -0.01489   2.09656
   A31        2.06809   0.00236   0.00000   0.01078   0.01077   2.07886
   A32        1.94611  -0.00217   0.00000  -0.00920  -0.00920   1.93692
   A33        1.92564   0.00448   0.00000   0.02468   0.02463   1.95027
   A34        1.92566   0.00447   0.00000   0.02473   0.02468   1.95034
   A35        1.87578  -0.00055   0.00000   0.00028   0.00028   1.87606
   A36        1.87541  -0.00051   0.00000   0.00066   0.00066   1.87606
   A37        1.91386  -0.00612   0.00000  -0.04344  -0.04353   1.87033
   A38        1.91471  -0.00200   0.00000  -0.01411  -0.01399   1.90072
   A39        1.89364   0.00770   0.00000   0.04682   0.04616   1.93980
   A40        1.89388   0.00768   0.00000   0.04666   0.04600   1.93988
   A41        1.91600  -0.00337   0.00000  -0.02223  -0.02212   1.89388
   A42        1.91621  -0.00338   0.00000  -0.02238  -0.02227   1.89394
   A43        1.92910  -0.00638   0.00000  -0.03321  -0.03455   1.89455
    D1        0.00189  -0.00001   0.00000  -0.00024  -0.00025   0.00164
    D2       -3.13930  -0.00002   0.00000  -0.00059  -0.00058  -3.13988
    D3       -2.08278  -0.00067   0.00000  -0.00836  -0.00827  -2.09104
    D4        1.05922  -0.00068   0.00000  -0.00870  -0.00860   1.05062
    D5        2.08591   0.00068   0.00000   0.00825   0.00815   2.09406
    D6       -1.05527   0.00067   0.00000   0.00791   0.00782  -1.04746
    D7       -3.13981  -0.00004   0.00000  -0.00149  -0.00148  -3.14130
    D8        0.00064  -0.00001   0.00000  -0.00055  -0.00056   0.00008
    D9        0.00138  -0.00003   0.00000  -0.00115  -0.00115   0.00022
   D10       -3.14136  -0.00000   0.00000  -0.00022  -0.00023  -3.14159
   D11        3.13997   0.00003   0.00000   0.00118   0.00118   3.14115
   D12       -0.00115   0.00002   0.00000   0.00072   0.00072  -0.00043
   D13       -0.00121   0.00002   0.00000   0.00083   0.00084  -0.00037
   D14        3.14085   0.00001   0.00000   0.00037   0.00038   3.14124
   D15        3.14119   0.00000   0.00000  -0.00003  -0.00005   3.14114
   D16       -0.00049   0.00002   0.00000   0.00058   0.00057   0.00009
   D17        0.00071  -0.00002   0.00000  -0.00093  -0.00094  -0.00023
   D18       -3.14097  -0.00001   0.00000  -0.00031  -0.00032  -3.14129
   D19       -3.14087  -0.00001   0.00000  -0.00031  -0.00029  -3.14116
   D20        0.00081  -0.00003   0.00000  -0.00088  -0.00087  -0.00006
   D21        3.14039   0.00003   0.00000   0.00120   0.00122  -3.14157
   D22       -0.00060   0.00001   0.00000   0.00033   0.00034  -0.00026
   D23       -0.00127   0.00004   0.00000   0.00171   0.00173   0.00046
   D24        3.14092   0.00002   0.00000   0.00084   0.00085  -3.14142
   D25        0.00001  -0.00001   0.00000  -0.00037  -0.00039  -0.00038
   D26        3.14150   0.00001   0.00000   0.00036   0.00036  -3.14132
   D27       -0.00082   0.00004   0.00000   0.00150   0.00150   0.00068
   D28        3.13967   0.00003   0.00000   0.00111   0.00113   3.14080
   D29        3.14087   0.00002   0.00000   0.00078   0.00077  -3.14154
   D30       -0.00182   0.00001   0.00000   0.00039   0.00040  -0.00142
   D31        0.00123  -0.00006   0.00000  -0.00191  -0.00188  -0.00065
   D32       -3.14105  -0.00003   0.00000  -0.00090  -0.00086   3.14128
   D33       -3.13926  -0.00005   0.00000  -0.00153  -0.00152  -3.14078
   D34        0.00165  -0.00003   0.00000  -0.00053  -0.00050   0.00114
   D35        0.00104   0.00002   0.00000   0.00036   0.00036   0.00139
   D36       -2.09202   0.00063   0.00000   0.00739   0.00795  -2.08407
   D37        2.09449  -0.00062   0.00000  -0.00695  -0.00752   2.08697
   D38        3.14133  -0.00000   0.00000  -0.00013  -0.00013   3.14120
   D39        1.04828   0.00061   0.00000   0.00689   0.00747   1.05574
   D40       -1.04840  -0.00064   0.00000  -0.00744  -0.00801  -1.05641
   D41        0.00077  -0.00002   0.00000  -0.00064  -0.00065   0.00012
   D42       -3.14112  -0.00000   0.00000   0.00008   0.00009  -3.14103
   D43       -3.14003  -0.00005   0.00000  -0.00182  -0.00182   3.14134
   D44        0.00126  -0.00003   0.00000  -0.00109  -0.00108   0.00018
   D45        0.00015  -0.00000   0.00000   0.00004   0.00005   0.00020
   D46        3.14128   0.00001   0.00000   0.00048   0.00049  -3.14141
   D47       -3.14115  -0.00002   0.00000  -0.00069  -0.00068   3.14136
   D48       -0.00001  -0.00001   0.00000  -0.00025  -0.00024  -0.00025
   D49       -3.13859  -0.00001   0.00000  -0.00020  -0.00021  -3.13879
   D50        1.06152  -0.00088   0.00000  -0.01090  -0.01086   1.05065
   D51       -1.05596   0.00089   0.00000   0.01099   0.01096  -1.04500
   D52        0.00347  -0.00002   0.00000  -0.00065  -0.00065   0.00281
   D53       -2.07961  -0.00089   0.00000  -0.01135  -0.01131  -2.09093
   D54        2.08609   0.00088   0.00000   0.01054   0.01051   2.09661
         Item               Value     Threshold  Converged?
 Maximum Force            0.020837     0.000450     NO 
 RMS     Force            0.004503     0.000300     NO 
 Maximum Displacement     0.155378     0.001800     NO 
 RMS     Displacement     0.030417     0.001200     NO 
 Predicted change in Energy=-4.357352D-03
 GradGradGradGradGradGradGradGradGradGradGradGradGradGradGradGradGradGrad

 Leave Link  103 at Sun Oct  3 18:29:28 2021, MaxMem= 1073741824 cpu:       4.7
 (Enter /sw/target/amd/app/gaussian/Gaussian09RevA.02_gcc-4.9.2/g09/l202.exe)
                          Input orientation:                          
 ---------------------------------------------------------------------
 Center     Atomic      Atomic             Coordinates (Angstroms)
 Number     Number       Type             X           Y           Z
 ---------------------------------------------------------------------
      1          6           0        0.969494   -0.156095   -0.039802
      2          6           0        2.483428   -0.102081   -0.037104
      3          6           0        3.212182   -1.292063   -0.037800
      4          6           0        4.611751   -1.241161   -0.034942
      5          7           0        5.538106   -2.267643   -0.034477
      6          6           0        6.694076   -1.641303   -0.030775
      7          7           0        6.613115   -0.267400   -0.029192
      8          6           0        5.260165    0.016766   -0.031296
      9          6           0        4.549530    1.218420   -0.030751
     10          6           0        3.153646    1.153329   -0.033800
     11          6           0        2.355730    2.441259   -0.033530
     12          6           0        7.709372    0.690866   -0.024292
     13          1           0        0.618691   -1.192151   -0.040430
     14          1           0        0.544171    0.336712   -0.923429
     15          1           0        0.541268    0.336530    0.842516
     16          1           0        2.708545   -2.254491   -0.040320
     17          1           0        7.656929   -2.135847   -0.029596
     18          1           0        5.055181    2.180102   -0.028458
     19          1           0        3.018060    3.312476   -0.033684
     20          1           0        1.709212    2.518670    0.849631
     21          1           0        1.708676    2.518774   -0.916246
     22          1           0        8.655277    0.146083   -0.023347
     23          1           0        7.673729    1.327683    0.866867
     24          1           0        7.677962    1.332049   -0.912450
 ---------------------------------------------------------------------
                    Distance matrix (angstroms):
                    1          2          3          4          5
     1  C    0.000000
     2  C    1.514899   0.000000
     3  C    2.513976   1.395400   0.000000
     4  C    3.800451   2.413974   1.400498   0.000000
     5  N    5.032979   3.744426   2.522239   1.382678   0.000000
     6  C    5.914115   4.483169   3.499372   2.120426   1.314755
     7  N    5.644728   4.133003   3.551951   2.225691   2.270825
     8  C    4.294160   2.779285   2.430496   1.415216   2.301258
     9  C    3.834844   2.452048   2.844482   2.460372   3.623526
    10  C    2.546594   1.423115   2.446096   2.803508   4.169976
    11  C    2.944135   2.546546   3.830303   4.318547   5.683421
    12  C    6.792903   5.285776   4.914968   3.650767   3.669779
    13  H    1.093836   2.159979   2.595416   3.993365   5.035609
    14  H    1.097522   2.176885   3.248927   4.452449   5.701955
    15  H    1.097516   2.176717   3.249777   4.452850   5.702563
    16  H    2.725356   2.164153   1.086243   2.156168   2.829598
    17  H    6.974332   5.558900   4.524137   3.173893   2.122923
    18  H    4.706461   3.438364   3.930988   3.449886   4.473890
    19  H    4.028355   3.456160   4.608632   4.824466   6.122775
    20  H    2.914213   2.872985   4.191437   4.831515   6.192809
    21  H    2.910234   2.870890   4.189830   4.831320   6.192886
    22  H    7.691738   6.176852   5.629899   4.274890   3.942455
    23  H    6.926067   5.458994   5.252323   4.097308   4.277813
    24  H    6.926733   5.459501   5.253016   4.097936   4.278739
                    6          7          8          9         10
     6  C    0.000000
     7  N    1.376287   0.000000
     8  C    2.192098   1.382472   0.000000
     9  C    3.574507   2.542843   1.396057   0.000000
    10  C    4.510502   3.739842   2.393576   1.397404   0.000000
    11  C    5.957228   5.046006   3.783373   2.511593   1.515068
    12  C    2.543597   1.456049   2.540291   3.203585   4.579149
    13  H    6.091973   6.065345   4.796336   4.611122   3.453595
    14  H    6.521557   6.164146   4.810287   4.197283   2.875354
    15  H    6.521618   6.163760   4.809759   4.196009   2.873953
    16  H    4.032437   4.381133   3.416058   3.930704   3.436771
    17  H    1.082433   2.140243   3.221525   4.572422   5.576581
    18  H    4.158019   2.901281   2.173028   1.086517   2.161048
    19  H    6.168715   5.073457   3.986069   2.594317   2.163401
    20  H    6.552051   5.708134   4.432249   3.245478   2.175085
    21  H    6.553206   5.709917   4.433537   3.247379   2.175107
    22  H    2.653510   2.083609   3.397583   4.243480   5.593085
    23  H    3.252747   2.114738   2.889722   3.252426   4.612239
    24  H    3.253645   2.114777   2.890008   3.252290   4.612310
                   11         12         13         14         15
    11  C    0.000000
    12  C    5.632534   0.000000
    13  H    4.027284   7.336469   0.000000
    14  H    2.915953   7.230075   1.767106   0.000000
    15  H    2.913694   7.229013   1.767047   1.765947   0.000000
    16  H    4.708990   5.803763   2.344366   3.489803   3.491400
    17  H    7.003757   2.827205   7.101230   7.583126   7.583261
    18  H    2.712059   3.043448   5.572672   4.954621   4.953056
    19  H    1.094395   5.374136   5.103791   3.970761   3.969695
    20  H    1.097248   6.332972   3.968834   3.043354   2.475051
    21  H    1.097212   6.336022   3.965613   2.473361   3.036161
    22  H    6.704642   1.091570   8.147262   8.163120   8.162299
    23  H    5.507438   1.095888   7.546278   7.417397   7.201040
    24  H    5.507177   1.095867   7.547537   7.202902   7.416425
                   16         17         18         19         20
    16  H    0.000000
    17  H    4.949818   0.000000
    18  H    5.017216   5.039495   0.000000
    19  H    5.575569   7.155652   2.330700   0.000000
    20  H    4.957191   7.603480   3.475799   1.767331   0.000000
    21  H    4.954900   7.604824   3.478787   1.767304   1.765877
    22  H    6.413008   2.490772   4.134967   6.465630   7.391826
    23  H    6.189347   3.577705   2.895690   5.140589   6.082287
    24  H    6.190234   3.578572   2.894757   5.138970   6.335533
                   21         22         23         24
    21  H    0.000000
    22  H    7.394741   0.000000
    23  H    6.338773   1.775415   0.000000
[...]
    22  H    0.000000   0.000000   0.000000   0.528106  -0.027152  -0.027143
    23  H    0.000000   0.000000  -0.000000  -0.027152   0.560170  -0.044116
    24  H    0.000000  -0.000000   0.000000  -0.027143  -0.044116   0.560136
 Mulliken atomic charges:
              1
     1  C   -0.537056
     2  C    0.136036
     3  C   -0.255689
     4  C    0.233612
     5  N   -0.495124
     6  C    0.182137
     7  N   -0.483653
     8  C    0.338037
     9  C   -0.244363
    10  C    0.105561
    11  C   -0.530970
    12  C   -0.325043
    13  H    0.161946
    14  H    0.166017
    15  H    0.165998
    16  H    0.131036
    17  H    0.147731
    18  H    0.115079
    19  H    0.150650
    20  H    0.153706
    21  H    0.153695
    22  H    0.174760
    23  H    0.177949
    24  H    0.177949
 Sum of Mulliken atomic charges =  -0.00000
 Mulliken charges with hydrogens summed into heavy atoms:
              1
     1  C   -0.043095
     2  C    0.136036
     3  C   -0.124654
     4  C    0.233612
     5  N   -0.495124
     6  C    0.329868
     7  N   -0.483653
     8  C    0.338037
     9  C   -0.129284
    10  C    0.105561
    11  C   -0.072918
    12  C    0.205614
 Sum of Mulliken charges with hydrogens summed into heavy atoms =  -0.00000
 Electronic spatial extent (au):  <R**2>=           2188.4201
 Charge=             -0.0000 electrons
 Dipole moment (field-independent basis, Debye):
    X=              0.6322    Y=              3.2608    Z=              0.0002  Tot=              3.3215
 Quadrupole moment (field-independent basis, Debye-Ang):
   XX=            -56.7654   YY=            -72.9978   ZZ=            -73.2511
   XY=              8.4658   XZ=              0.0003   YZ=              0.0007
 Traceless Quadrupole moment (field-independent basis, Debye-Ang):
   XX=             10.9061   YY=             -5.3264   ZZ=             -5.5797
   XY=              8.4658   XZ=              0.0003   YZ=              0.0007
 Octapole moment (field-independent basis, Debye-Ang**2):
  XXX=             36.9518  YYY=             21.2743  ZZZ=              0.0033  XYY=             -5.4619
  XXY=             11.9162  XXZ=             -0.0017  XZZ=              0.8697  YZZ=              2.1407
  YYZ=             -0.0012  XYZ=              0.0024
 Hexadecapole moment (field-independent basis, Debye-Ang**3):
 XXXX=          -1860.3301 YYYY=           -827.7592 ZZZZ=            -93.4836 XXXY=             34.9029
 XXXZ=              0.0025 YYYX=             58.0191 YYYZ=             -0.0152 ZZZX=              0.0058
 ZZZY=              0.0094 XXYY=           -475.8820 XXZZ=           -360.1307 YYZZ=           -156.5342
 XXYZ=              0.0128 YYXZ=             -0.0061 ZZXY=              3.8904
 N-N= 6.711655374691D+02 E-N=-2.496010385734D+03  KE= 4.932358476996D+02
 No NMR shielding tensors so no spin-rotation constants.
 Leave Link  601 at Mon Oct  4 00:45:52 2021, MaxMem= 1073741824 cpu:       1.2
 (Enter /sw/target/amd/app/gaussian/Gaussian09RevA.02_gcc-4.9.2/g09/l604.exe)
 Evaluate density.
 Using the total density.
 Monte-Carlo method of calculating molar volume:
 based on  0.001 e/bohr**3 density envelope.
 Number of points per bohr**3 =   20 CutOff= 1.00D-04
 Using the CI density.
 There are       369 points.  Will hold       369 in memory.
 LenV=  1073623252 MDV=  1073741824.
 Box volume = 6289.445 fraction occupied=0.236
 Integrated density= 8.2809026270256012D+01 error=-3.1909737297439875D+00
 Molar volume = 1482.877 bohr**3/mol (132.330 cm**3/mol)
 Recommended a0 for SCRF calculation =  4.62 angstrom (  8.73 bohr)
 Leave Link  604 at Mon Oct  4 00:45:53 2021, MaxMem= 1073741824 cpu:       0.3
 (Enter /sw/target/amd/app/gaussian/Gaussian09RevA.02_gcc-4.9.2/g09/l607.exe)
 ******************************Gaussian NBO Version 3.1******************************
             N A T U R A L   A T O M I C   O R B I T A L   A N D
          N A T U R A L   B O N D   O R B I T A L   A N A L Y S I S
 ******************************Gaussian NBO Version 3.1******************************
       /RESON  / : Allow strongly delocalized NBO set

 Analyzing the CI density

 Job title: Cc1cc2ncn(c2cc1C)C_conf_0                                       

 Storage needed:    126804 in NPA (1073738704 available)


 NATURAL POPULATIONS:  Natural atomic orbital occupancies 
                                                          
   NAO  Atom  No  lang   Type(AO)    Occupancy
 --------------------------------------------
     1    C    1  S      Cor( 1S)     1.99940
     2    C    1  S      Val( 2S)     1.09941
     3    C    1  S      Ryd( 3S)     0.00032
     4    C    1  S      Ryd( 4S)     0.00001
     5    C    1  px     Val( 2p)     1.11110
     6    C    1  px     Ryd( 3p)     0.00111
     7    C    1  py     Val( 2p)     1.24247
     8    C    1  py     Ryd( 3p)     0.00263
     9    C    1  pz     Val( 2p)     1.23710
    10    C    1  pz     Ryd( 3p)     0.00026
    11    C    1  dxy    Ryd( 3d)     0.00042
    12    C    1  dxz    Ryd( 3d)     0.00100
    13    C    1  dyz    Ryd( 3d)     0.00042
    14    C    1  dx2y2  Ryd( 3d)     0.00089
    15    C    1  dz2    Ryd( 3d)     0.00063

    16    C    2  S      Cor( 1S)     1.99903
    17    C    2  S      Val( 2S)     0.88687
    18    C    2  S      Ryd( 3S)     0.00043
    19    C    2  S      Ryd( 4S)     0.00005
    20    C    2  px     Val( 2p)     1.05303
    21    C    2  px     Ryd( 3p)     0.00415
    22    C    2  py     Val( 2p)     1.07409
    23    C    2  py     Ryd( 3p)     0.00366
    24    C    2  pz     Val( 2p)     0.93963
    25    C    2  pz     Ryd( 3p)     0.00314
    26    C    2  dxy    Ryd( 3d)     0.00083
    27    C    2  dxz    Ryd( 3d)     0.00061
    28    C    2  dyz    Ryd( 3d)     0.00083
    29    C    2  dx2y2  Ryd( 3d)     0.00074
    30    C    2  dz2    Ryd( 3d)     0.00034

    31    C    3  S      Cor( 1S)     1.99898
    32    C    3  S      Val( 2S)     0.94848
    33    C    3  S      Ryd( 3S)     0.00095
    34    C    3  S      Ryd( 4S)     0.00005
    35    C    3  px     Val( 2p)     1.05375
    36    C    3  px     Ryd( 3p)     0.00426
    37    C    3  py     Val( 2p)     1.19023
    38    C    3  py     Ryd( 3p)     0.00434
    39    C    3  pz     Val( 2p)     1.04886
    40    C    3  pz     Ryd( 3p)     0.00455
    41    C    3  dxy    Ryd( 3d)     0.00064
    42    C    3  dxz    Ryd( 3d)     0.00059
    43    C    3  dyz    Ryd( 3d)     0.00043
    44    C    3  dx2y2  Ryd( 3d)     0.00084
    45    C    3  dz2    Ryd( 3d)     0.00041

    46    C    4  S      Cor( 1S)     1.99899
    47    C    4  S      Val( 2S)     0.84586
    48    C    4  S      Ryd( 3S)     0.00231
    49    C    4  S      Ryd( 4S)     0.00010
    50    C    4  px     Val( 2p)     1.00488
    51    C    4  px     Ryd( 3p)     0.00487
    52    C    4  py     Val( 2p)     0.98579
    53    C    4  py     Ryd( 3p)     0.01009
    54    C    4  pz     Val( 2p)     1.01098
    55    C    4  pz     Ryd( 3p)     0.00210
    56    C    4  dxy    Ryd( 3d)     0.00087
    57    C    4  dxz    Ryd( 3d)     0.00125
    58    C    4  dyz    Ryd( 3d)     0.00068
    59    C    4  dx2y2  Ryd( 3d)     0.00132
    60    C    4  dz2    Ryd( 3d)     0.00033

    61    N    5  S      Cor( 1S)     1.99948
    62    N    5  S      Val( 2S)     1.40622
    63    N    5  S      Ryd( 3S)     0.00047
    64    N    5  S      Ryd( 4S)     0.00002
    65    N    5  px     Val( 2p)     1.18171
    66    N    5  px     Ryd( 3p)     0.00380
    67    N    5  py     Val( 2p)     1.64386
    68    N    5  py     Ryd( 3p)     0.00403
    69    N    5  pz     Val( 2p)     1.22437
    70    N    5  pz     Ryd( 3p)     0.00112
    71    N    5  dxy    Ryd( 3d)     0.00333
    72    N    5  dxz    Ryd( 3d)     0.00051
    73    N    5  dyz    Ryd( 3d)     0.00375
    74    N    5  dx2y2  Ryd( 3d)     0.00287
    75    N    5  dz2    Ryd( 3d)     0.00240

    76    C    6  S      Cor( 1S)     1.99937
    77    C    6  S      Val( 2S)     0.89136
    78    C    6  S      Ryd( 3S)     0.00248
    79    C    6  S      Ryd( 4S)     0.00015
    80    C    6  px     Val( 2p)     1.09446
    81    C    6  px     Ryd( 3p)     0.00494
    82    C    6  py     Val( 2p)     0.78060
    83    C    6  py     Ryd( 3p)     0.01133
    84    C    6  pz     Val( 2p)     1.03076
    85    C    6  pz     Ryd( 3p)     0.00543
    86    C    6  dxy    Ryd( 3d)     0.00098
    87    C    6  dxz    Ryd( 3d)     0.00074
    88    C    6  dyz    Ryd( 3d)     0.00144
    89    C    6  dx2y2  Ryd( 3d)     0.00227
    90    C    6  dz2    Ryd( 3d)     0.00044

    91    N    7  S      Cor( 1S)     1.99928
    92    N    7  S      Val( 2S)     1.19163
    93    N    7  S      Ryd( 3S)     0.00102
    94    N    7  S      Ryd( 4S)     0.00002
    95    N    7  px     Val( 2p)     1.30536
    96    N    7  px     Ryd( 3p)     0.00206
    97    N    7  py     Val( 2p)     1.31474
    98    N    7  py     Ryd( 3p)     0.00201
    99    N    7  pz     Val( 2p)     1.56128
   100    N    7  pz     Ryd( 3p)     0.00346
   101    N    7  dxy    Ryd( 3d)     0.00073
   102    N    7  dxz    Ryd( 3d)     0.00077
   103    N    7  dyz    Ryd( 3d)     0.00082
   104    N    7  dx2y2  Ryd( 3d)     0.00079
   105    N    7  dz2    Ryd( 3d)     0.00052

   106    C    8  S      Cor( 1S)     1.99897
   107    C    8  S      Val( 2S)     0.83370
   108    C    8  S      Ryd( 3S)     0.00205
   109    C    8  S      Ryd( 4S)     0.00008
   110    C    8  px     Val( 2p)     0.88406
   111    C    8  px     Ryd( 3p)     0.00346
   112    C    8  py     Val( 2p)     1.09742
   113    C    8  py     Ryd( 3p)     0.00681
   114    C    8  pz     Val( 2p)     1.01092
   115    C    8  pz     Ryd( 3p)     0.00293
   116    C    8  dxy    Ryd( 3d)     0.00079
   117    C    8  dxz    Ryd( 3d)     0.00144
   118    C    8  dyz    Ryd( 3d)     0.00084
   119    C    8  dx2y2  Ryd( 3d)     0.00123
   120    C    8  dz2    Ryd( 3d)     0.00040

   121    C    9  S      Cor( 1S)     1.99898
   122    C    9  S      Val( 2S)     0.93775
   123    C    9  S      Ryd( 3S)     0.00081
   124    C    9  S      Ryd( 4S)     0.00005
   125    C    9  px     Val( 2p)     1.06345
   126    C    9  px     Ryd( 3p)     0.00374
   127    C    9  py     Val( 2p)     1.17978
   128    C    9  py     Ryd( 3p)     0.00365
   129    C    9  pz     Val( 2p)     1.10275
   130    C    9  pz     Ryd( 3p)     0.00497
   131    C    9  dxy    Ryd( 3d)     0.00076
   132    C    9  dxz    Ryd( 3d)     0.00071
   133    C    9  dyz    Ryd( 3d)     0.00038
   134    C    9  dx2y2  Ryd( 3d)     0.00068
   135    C    9  dz2    Ryd( 3d)     0.00042

   136    C   10  S      Cor( 1S)     1.99904
   137    C   10  S      Val( 2S)     0.87491
   138    C   10  S      Ryd( 3S)     0.00049
   139    C   10  S      Ryd( 4S)     0.00005
   140    C   10  px     Val( 2p)     1.05978
   141    C   10  px     Ryd( 3p)     0.00407
   142    C   10  py     Val( 2p)     1.06111
   143    C   10  py     Ryd( 3p)     0.00430
   144    C   10  pz     Val( 2p)     1.04305
   145    C   10  pz     Ryd( 3p)     0.00369
   146    C   10  dxy    Ryd( 3d)     0.00064
   147    C   10  dxz    Ryd( 3d)     0.00075
   148    C   10  dyz    Ryd( 3d)     0.00050
   149    C   10  dx2y2  Ryd( 3d)     0.00082
   150    C   10  dz2    Ryd( 3d)     0.00034

   151    C   11  S      Cor( 1S)     1.99941
   152    C   11  S      Val( 2S)     1.09459
   153    C   11  S      Ryd( 3S)     0.00029
   154    C   11  S      Ryd( 4S)     0.00001
   155    C   11  px     Val( 2p)     1.17161
   156    C   11  px     Ryd( 3p)     0.00157
   157    C   11  py     Val( 2p)     1.17761
   158    C   11  py     Ryd( 3p)     0.00207
   159    C   11  pz     Val( 2p)     1.23732
   160    C   11  pz     Ryd( 3p)     0.00023
   161    C   11  dxy    Ryd( 3d)     0.00068
   162    C   11  dxz    Ryd( 3d)     0.00131
   163    C   11  dyz    Ryd( 3d)     0.00023
   164    C   11  dx2y2  Ryd( 3d)     0.00061
   165    C   11  dz2    Ryd( 3d)     0.00062

   166    C   12  S      Cor( 1S)     1.99947
   167    C   12  S      Val( 2S)     1.08381
   168    C   12  S      Ryd( 3S)     0.00106
   169    C   12  S      Ryd( 4S)     0.00001
   170    C   12  px     Val( 2p)     1.12968
   171    C   12  px     Ryd( 3p)     0.00262
   172    C   12  py     Val( 2p)     0.99275
   173    C   12  py     Ryd( 3p)     0.00220
   174    C   12  pz     Val( 2p)     1.24924
   175    C   12  pz     Ryd( 3p)     0.00104
   176    C   12  dxy    Ryd( 3d)     0.00104
   177    C   12  dxz    Ryd( 3d)     0.00035
   178    C   12  dyz    Ryd( 3d)     0.00154
   179    C   12  dx2y2  Ryd( 3d)     0.00080
   180    C   12  dz2    Ryd( 3d)     0.00091

   181    H   13  S      Val( 1S)     0.75702
   182    H   13  S      Ryd( 2S)     0.00084

   183    H   14  S      Val( 1S)     0.75297
   184    H   14  S      Ryd( 2S)     0.00124

   185    H   15  S      Val( 1S)     0.75298
   186    H   15  S      Ryd( 2S)     0.00124

   187    H   16  S      Val( 1S)     0.76099
   188    H   16  S      Ryd( 2S)     0.00140

   189    H   17  S      Val( 1S)     0.78272
   190    H   17  S      Ryd( 2S)     0.00072

   191    H   18  S      Val( 1S)     0.77095
   192    H   18  S      Ryd( 2S)     0.00113

   193    H   19  S      Val( 1S)     0.76294
   194    H   19  S      Ryd( 2S)     0.00083

   195    H   20  S      Val( 1S)     0.76362
   196    H   20  S      Ryd( 2S)     0.00152

   197    H   21  S      Val( 1S)     0.76362
   198    H   21  S      Ryd( 2S)     0.00152

   199    H   22  S      Val( 1S)     0.75851
   200    H   22  S      Ryd( 2S)     0.00072

   201    H   23  S      Val( 1S)     0.76226
   202    H   23  S      Ryd( 2S)     0.00211

   203    H   24  S      Val( 1S)     0.76225
   204    H   24  S      Ryd( 2S)     0.00211

 WARNING:  1 low occupancy (<1.9990e) core orbital  found on  C    3
           1 low occupancy (<1.9990e) core orbital  found on  C    4
           1 low occupancy (<1.9990e) core orbital  found on  C    8
           1 low occupancy (<1.9990e) core orbital  found on  C    9


 Summary of Natural Population Analysis:                  
                                                          
                                       Natural Population 
                Natural  -----------------------------------------------
    Atom  No    Charge         Core      Valence    Rydberg      Total
 -----------------------------------------------------------------------
      C    1   -0.69717      1.99940     4.69009    0.00768     6.69717
      C    2    0.03256      1.99903     3.95362    0.01479     5.96744
      C    3   -0.25737      1.99898     4.24132    0.01707     6.25737
      C    4    0.12957      1.99899     3.84751    0.02393     5.87043
      N    5   -0.47794      1.99948     5.45616    0.02230     7.47794
      C    6    0.17324      1.99937     3.79719    0.03021     5.82676
      N    7   -0.38450      1.99928     5.37301    0.01220     7.38450
      C    8    0.15492      1.99897     3.82609    0.02002     5.84508
      C    9   -0.29886      1.99898     4.28372    0.01616     6.29886
      C   10   -0.05355      1.99904     4.03886    0.01566     6.05355
      C   11   -0.68818      1.99941     4.68114    0.00764     6.68818
      C   12   -0.46651      1.99947     4.45547    0.01157     6.46651
      H   13    0.24214      0.00000     0.75702    0.00084     0.75786
      H   14    0.24579      0.00000     0.75297    0.00124     0.75421
      H   15    0.24578      0.00000     0.75298    0.00124     0.75422
      H   16    0.23760      0.00000     0.76099    0.00140     0.76240
      H   17    0.21657      0.00000     0.78272    0.00072     0.78343
      H   18    0.22792      0.00000     0.77095    0.00113     0.77208
      H   19    0.23623      0.00000     0.76294    0.00083     0.76377
      H   20    0.23486      0.00000     0.76362    0.00152     0.76514
      H   21    0.23487      0.00000     0.76362    0.00152     0.76513
      H   22    0.24077      0.00000     0.75851    0.00072     0.75923
      H   23    0.23563      0.00000     0.76226    0.00211     0.76437
      H   24    0.23564      0.00000     0.76225    0.00211     0.76436
 =======================================================================
   * Total *    0.00000     23.99039    61.79503    0.21458    86.00000

                                 Natural Population      
 --------------------------------------------------------
   Core                      23.99039 ( 99.9600% of  24)
   Valence                   61.79503 ( 99.6694% of  62)
   Natural Minimal Basis     85.78542 ( 99.7505% of  86)
   Natural Rydberg Basis      0.21458 (  0.2495% of  86)
 --------------------------------------------------------

    Atom  No          Natural Electron Configuration
 ----------------------------------------------------------------------------
      C    1      [core]2S( 1.10)2p( 3.59)
      C    2      [core]2S( 0.89)2p( 3.07)3p( 0.01)
      C    3      [core]2S( 0.95)2p( 3.29)3p( 0.01)
      C    4      [core]2S( 0.85)2p( 3.00)3p( 0.02)
      N    5      [core]2S( 1.41)2p( 4.05)3p( 0.01)3d( 0.01)
      C    6      [core]2S( 0.89)2p( 2.91)3p( 0.02)3d( 0.01)
      N    7      [core]2S( 1.19)2p( 4.18)3p( 0.01)
      C    8      [core]2S( 0.83)2p( 2.99)3p( 0.01)
      C    9      [core]2S( 0.94)2p( 3.35)3p( 0.01)
      C   10      [core]2S( 0.87)2p( 3.16)3p( 0.01)
      C   11      [core]2S( 1.09)2p( 3.59)
      C   12      [core]2S( 1.08)2p( 3.37)3p( 0.01)
      H   13            1S( 0.76)
      H   14            1S( 0.75)
      H   15            1S( 0.75)
      H   16            1S( 0.76)
      H   17            1S( 0.78)
      H   18            1S( 0.77)
      H   19            1S( 0.76)
      H   20            1S( 0.76)
      H   21            1S( 0.76)
      H   22            1S( 0.76)
      H   23            1S( 0.76)
      H   24            1S( 0.76)


 NBO analysis skipped by request.
 Leave Link  607 at Mon Oct  4 00:46:25 2021, MaxMem= 1073741824 cpu:      15.8
 (Enter /sw/target/amd/app/gaussian/Gaussian09RevA.02_gcc-4.9.2/g09/l9999.exe)
 1\1\GINC-HERMITE\SP\RTD-B3LYP-FC\6-31G(d)\C10H12N2\JSCHLEINITZ\04-Oct-
 2021\0\\#p TD(NStates=10, Root=1) b3lyp/6-31G* volume pop=NPA density=
 current Geom=AllCheck Guess=Read\\Cc1cc2ncn(c2cc1C)C_conf_0\\0,1\C,0,0
 .9721056857,-0.1557788213,-0.0400381125\C,0,2.4833793099,-0.1020065539
 ,-0.0369252031\C,0,3.2154269647,-1.2878694066,-0.0371608883\C,0,4.6140
 44555,-1.2364306398,-0.0342760446\N,0,5.5513200431,-2.2626589031,-0.03
 38189501\C,0,6.7045971739,-1.6450751785,-0.0308475285\N,0,6.6141785318
 ,-0.2694009663,-0.0288842777\C,0,5.2583775949,0.0194267904,-0.03118198
 4\C,0,4.5463596074,1.219921769,-0.0308832709\C,0,3.1521941633,1.158711
 6622,-0.0337717952\C,0,2.3535133223,2.4418378238,-0.0334026524\C,0,7.7
 062067084,0.6817130958,-0.0246437096\H,0,0.618245788,-1.1911269978,-0.
 0415196495\H,0,0.5454457113,0.3420136371,-0.9209678235\H,0,0.541831472
 2,0.340760052,0.8398265046\H,0,2.7115419201,-2.2504910521,-0.039531952
 1\H,0,7.6729938805,-2.1321514865,-0.0296680909\H,0,5.0513001879,2.1827
 292558,-0.0284734865\H,0,3.0121197193,3.3160139757,-0.0318707467\H,0,1
 .7003346133,2.516718863,0.8460170425\H,0,1.7021479904,2.5183942779,-0.
 9139972457\H,0,8.6527807294,0.1360665041,-0.0240806995\H,0,7.667243413
 2,1.3171203048,0.8675225737\H,0,7.6706084937,1.3210465432,-0.914132583
 7\\Version=AM64L-G09RevA.02\State=1-A\HF=-497.8134313\RMSD=9.307e-09\D
 ipole=0.5768462,1.1725527,0.0030602\Quadrupole=10.4656552,-6.3173828,-
 4.1482724,2.3684509,0.034062,0.0020708\PG=C01 [X(C10H12N2)]\\@


 A leading authority is anyone who has guessed right more than once.
 -- Frank A. Clark
 Job cpu time:  0 days  2 hours 38 minutes 42.9 seconds.
 File lengths (MBytes):  RWF=    140 Int=      0 D2E=      0 Chk=     19 Scr=      1
 Normal termination of Gaussian 09 at Mon Oct  4 00:46:32 2021.
