 Entering Gaussian System, Link 0=g09
 Input=C10H9NO_50f9_conf_0.com
 Output=C10H9NO_50f9_conf_0.log
 Initial command:
 /sw/target/amd/app/gaussian/Gaussian09RevA.02_gcc-4.9.2/g09/l1.exe /home/jschleinitz/gaussian/Gau-2642.inp -scrdir=/home/jschleinitz/gaussian/
 Entering Link 1 = /sw/target/amd/app/gaussian/Gaussian09RevA.02_gcc-4.9.2/g09/l1.exe PID=      2644.
  
 Copyright (c) 1988,1990,1992,1993,1995,1998,2003,2009, Gaussian, Inc.
                  All Rights Reserved.
  
 This is part of the Gaussian(R) 09 program.  It is based on
 the Gaussian(R) 03 system (copyright 2003, Gaussian, Inc.),
 the Gaussian(R) 98 system (copyright 1998, Gaussian, Inc.),
 the Gaussian(R) 94 system (copyright 1995, Gaussian, Inc.),
 the Gaussian 92(TM) system (copyright 1992, Gaussian, Inc.),
 the Gaussian 90(TM) system (copyright 1990, Gaussian, Inc.),
 the Gaussian 88(TM) system (copyright 1988, Gaussian, Inc.),
 the Gaussian 86(TM) system (copyright 1986, Carnegie Mellon
 University), and the Gaussian 82(TM) system (copyright 1983,
 Carnegie Mellon University). Gaussian is a federally registered
 trademark of Gaussian, Inc.
  
 This software contains proprietary and confidential information,
 including trade secrets, belonging to Gaussian, Inc.
  
 This software is provided under written license and may be
 used, copied, transmitted, or stored only in accord with that
 written license.
  
 The following legend is applicable only to US Government
 contracts under FAR:
  
                    RESTRICTED RIGHTS LEGEND
  
 Use, reproduction and disclosure by the US Government is
 subject to restrictions as set forth in subparagraphs (a)
 and (c) of the Commercial Computer Software - Restricted
 Rights clause in FAR 52.227-19.
  
 Gaussian, Inc.
 340 Quinnipiac St., Bldg. 40, Wallingford CT 06492
  
  
 ---------------------------------------------------------------
 Warning -- This program may not be used in any manner that
 competes with the business of Gaussian, Inc. or will provide
 assistance to any competitor of Gaussian, Inc.  The licensee
 of this program is prohibited from giving any competitor of
 Gaussian, Inc. access to this program.  By using this program,
 the user acknowledges that Gaussian, Inc. is engaged in the
 business of creating and licensing software in the field of
 computational chemistry and represents and warrants to the
 licensee that it is not a competitor of Gaussian, Inc. and that
 it will not use this program in any manner prohibited above.
 ---------------------------------------------------------------
  

 Cite this work as:
 Gaussian 09, Revision A.02,
 M. J. Frisch, G. W. Trucks, H. B. Schlegel, G. E. Scuseria, 
 M. A. Robb, J. R. Cheeseman, G. Scalmani, V. Barone, B. Mennucci, 
 G. A. Petersson, H. Nakatsuji, M. Caricato, X. Li, H. P. Hratchian, 
 A. F. Izmaylov, J. Bloino, G. Zheng, J. L. Sonnenberg, M. Hada, 
 M. Ehara, K. Toyota, R. Fukuda, J. Hasegawa, M. Ishida, T. Nakajima, 
 Y. Honda, O. Kitao, H. Nakai, T. Vreven, J. A. Montgomery, Jr., 
 J. E. Peralta, F. Ogliaro, M. Bearpark, J. J. Heyd, E. Brothers, 
 K. N. Kudin, V. N. Staroverov, R. Kobayashi, J. Normand, 
 K. Raghavachari, A. Rendell, J. C. Burant, S. S. Iyengar, J. Tomasi, 
 M. Cossi, N. Rega, J. M. Millam, M. Klene, J. E. Knox, J. B. Cross, 
 V. Bakken, C. Adamo, J. Jaramillo, R. Gomperts, R. E. Stratmann, 
 O. Yazyev, A. J. Austin, R. Cammi, C. Pomelli, J. W. Ochterski, 
 R. L. Martin, K. Morokuma, V. G. Zakrzewski, G. A. Voth, 
 P. Salvador, J. J. Dannenberg, S. Dapprich, A. D. Daniels, 
 O. Farkas, J. B. Foresman, J. V. Ortiz, J. Cioslowski, 
 and D. J. Fox, Gaussian, Inc., Wallingford CT, 2009.
 
 ******************************************
 Gaussian 09:  AM64L-G09RevA.02 11-Jun-2009
                30-Sep-2021 
 ******************************************
 %nproc=3
 Will use up to    3 processors via shared memory.
 %mem=6gb
 %chk=C10H9NO_50f9_conf_0.chk
 -----------------------------------
 #p opt b3lyp/6-31G* scf=(xqc,tight)
 -----------------------------------
 1/14=-1,18=20,19=15,26=3,38=1/1,3;
 2/9=110,12=2,17=6,18=5,40=1/2;
 3/5=1,6=6,7=1,11=2,16=1,25=1,30=1,71=1,74=-5/1,2,3;
 4//1;
 5/5=2,8=3,13=1,32=2,38=5/2,8;
 6/7=2,8=2,9=2,10=2,28=1/1;
 7//1,2,3,16;
 1/14=-1,18=20,19=15/3(2);
 2/9=110/2;
 99//99;
 2/9=110/2;
 3/5=1,6=6,7=1,11=2,16=1,25=1,30=1,71=1,74=-5/1,2,3;
 4/5=5,16=3/1;
 5/5=2,8=3,13=1,32=2,38=5/2,8;
 7//1,2,3,16;
 1/14=-1,18=20,19=15/3(-5);
 2/9=110/2;
 6/7=2,8=2,9=2,10=2,19=2,28=1/1;
 99/9=1/99;
 Leave Link    1 at Thu Sep 30 19:03:25 2021, MaxMem=  805306368 cpu:       0.1
 (Enter /sw/target/amd/app/gaussian/Gaussian09RevA.02_gcc-4.9.2/g09/l101.exe)
 -----------------------
 COc1cccc2c1nccc2_conf_0
 -----------------------
 Symbolic Z-matrix:
 Charge =  0 Multiplicity = 1
 C                     3.1613   -1.08434   0.14774 
 O                     2.54205   0.19403   0.09022 
 C                     3.23706   1.20524  -0.53787 
 C                     2.75902   2.47297  -0.16657 
 C                     3.33011   3.62801  -0.68191 
 C                     4.37986   3.52022  -1.58402 
 C                     4.85429   2.25927  -1.982 
 C                     4.28749   1.06522  -1.46935 
 N                     4.75626  -0.13784  -1.88985 
 C                     5.76372  -0.18544  -2.78818 
 C                     6.36795   0.9314   -3.3202 
 C                     5.9033    2.17072  -2.90781 
 H                     2.61722  -1.67773   0.88969 
 H                     4.20059  -1.02061   0.48709 
 H                     3.07074  -1.60636  -0.80917 
 H                     1.9363    2.54795   0.54111 
 H                     2.95864   4.60377  -0.38143 
 H                     4.82358   4.42975  -1.98386 
 H                     6.07891  -1.18442  -3.07528 
 H                     7.17474   0.84164  -4.03791 
 H                     6.36047   3.06889  -3.31639 
 
 NAtoms=     21 NQM=     21 NQMF=      0 NMic=      0 NMicF=      0 NTot=     21.
                    Isotopes and Nuclear Properties:
 (Nuclear quadrupole moments (NQMom) in fm**2, nuclear magnetic moments (NMagM)
  in nuclear magnetons)

  Atom         1           2           3           4           5           6           7           8           9          10
 IAtWgt=          12          16          12          12          12          12          12          12          14          12
 AtmWgt=  12.0000000  15.9949146  12.0000000  12.0000000  12.0000000  12.0000000  12.0000000  12.0000000  14.0030740  12.0000000
 NucSpn=           0           0           0           0           0           0           0           0           2           0
 AtZEff=   0.0000000   0.0000000   0.0000000   0.0000000   0.0000000   0.0000000   0.0000000   0.0000000   0.0000000   0.0000000
 NQMom=    0.0000000   0.0000000   0.0000000   0.0000000   0.0000000   0.0000000   0.0000000   0.0000000   2.0440000   0.0000000
 NMagM=    0.0000000   0.0000000   0.0000000   0.0000000   0.0000000   0.0000000   0.0000000   0.0000000   0.4037610   0.0000000

  Atom        11          12          13          14          15          16          17          18          19          20
 IAtWgt=          12          12           1           1           1           1           1           1           1           1
 AtmWgt=  12.0000000  12.0000000   1.0078250   1.0078250   1.0078250   1.0078250   1.0078250   1.0078250   1.0078250   1.0078250
 NucSpn=           0           0           1           1           1           1           1           1           1           1
 AtZEff=   0.0000000   0.0000000   0.0000000   0.0000000   0.0000000   0.0000000   0.0000000   0.0000000   0.0000000   0.0000000
 NQMom=    0.0000000   0.0000000   0.0000000   0.0000000   0.0000000   0.0000000   0.0000000   0.0000000   0.0000000   0.0000000
 NMagM=    0.0000000   0.0000000   2.7928460   2.7928460   2.7928460   2.7928460   2.7928460   2.7928460   2.7928460   2.7928460

  Atom        21
 IAtWgt=           1
 AtmWgt=   1.0078250
 NucSpn=           1
 AtZEff=   0.0000000
 NQMom=    0.0000000
 NMagM=    2.7928460
 Leave Link  101 at Thu Sep 30 19:03:26 2021, MaxMem=  805306368 cpu:       0.2
 (Enter /sw/target/amd/app/gaussian/Gaussian09RevA.02_gcc-4.9.2/g09/l103.exe)

 GradGradGradGradGradGradGradGradGradGradGradGradGradGradGradGradGradGrad
 Berny optimization.
 Initialization pass.
                           ----------------------------
                           !    Initial Parameters    !
                           ! (Angstroms and Degrees)  !
 --------------------------                            --------------------------
 ! Name  Definition              Value          Derivative Info.                !
 --------------------------------------------------------------------------------
 ! R1    R(1,2)                  1.4216         estimate D2E/DX2                !
 ! R2    R(1,13)                 1.0948         estimate D2E/DX2                !
 ! R3    R(1,14)                 1.0951         estimate D2E/DX2                !
 ! R4    R(1,15)                 1.0938         estimate D2E/DX2                !
 ! R5    R(2,3)                  1.3784         estimate D2E/DX2                !
 ! R6    R(3,4)                  1.4048         estimate D2E/DX2                !
 ! R7    R(3,8)                  1.4109         estimate D2E/DX2                !
 ! R8    R(4,5)                  1.3877         estimate D2E/DX2                !
 ! R9    R(4,16)                 1.0878         estimate D2E/DX2                !
 ! R10   R(5,6)                  1.3883         estimate D2E/DX2                !
 ! R11   R(5,17)                 1.0864         estimate D2E/DX2                !
 ! R12   R(6,7)                  1.4048         estimate D2E/DX2                !
 ! R13   R(6,18)                 1.0881         estimate D2E/DX2                !
 ! R14   R(7,8)                  1.4177         estimate D2E/DX2                !
 ! R15   R(7,12)                 1.4019         estimate D2E/DX2                !
 ! R16   R(8,9)                  1.3579         estimate D2E/DX2                !
 ! R17   R(9,10)                 1.3506         estimate D2E/DX2                !
 ! R18   R(10,11)                1.3768         estimate D2E/DX2                !
 ! R19   R(10,19)                1.0862         estimate D2E/DX2                !
 ! R20   R(11,12)                1.3863         estimate D2E/DX2                !
 ! R21   R(11,20)                1.0835         estimate D2E/DX2                !
 ! R22   R(12,21)                1.0875         estimate D2E/DX2                !
 ! A1    A(2,1,13)             107.3574         estimate D2E/DX2                !
 ! A2    A(2,1,14)             111.9372         estimate D2E/DX2                !
 ! A3    A(2,1,15)             110.9589         estimate D2E/DX2                !
 ! A4    A(13,1,14)            107.0472         estimate D2E/DX2                !
 ! A5    A(13,1,15)            107.0413         estimate D2E/DX2                !
 ! A6    A(14,1,15)            112.1751         estimate D2E/DX2                !
 ! A7    A(1,2,3)              117.2889         estimate D2E/DX2                !
 ! A8    A(2,3,4)              111.7154         estimate D2E/DX2                !
 ! A9    A(2,3,8)              127.1142         estimate D2E/DX2                !
 ! A10   A(4,3,8)              121.1575         estimate D2E/DX2                !
 ! A11   A(3,4,5)              120.8576         estimate D2E/DX2                !
 ! A12   A(3,4,16)             119.4399         estimate D2E/DX2                !
 ! A13   A(5,4,16)             119.7001         estimate D2E/DX2                !
 ! A14   A(4,5,6)              119.1988         estimate D2E/DX2                !
 ! A15   A(4,5,17)             120.2717         estimate D2E/DX2                !
 ! A16   A(6,5,17)             120.5295         estimate D2E/DX2                !
 ! A17   A(5,6,7)              120.6068         estimate D2E/DX2                !
 ! A18   A(5,6,18)             118.8297         estimate D2E/DX2                !
 ! A19   A(7,6,18)             120.5616         estimate D2E/DX2                !
 ! A20   A(6,7,8)              121.2345         estimate D2E/DX2                !
 ! A21   A(6,7,12)             119.7678         estimate D2E/DX2                !
 ! A22   A(8,7,12)             118.997          estimate D2E/DX2                !
 ! A23   A(3,8,7)              116.924          estimate D2E/DX2                !
 ! A24   A(3,8,9)              123.3244         estimate D2E/DX2                !
 ! A25   A(7,8,9)              119.7495         estimate D2E/DX2                !
 ! A26   A(8,9,10)             119.6492         estimate D2E/DX2                !
 ! A27   A(9,10,11)            123.7653         estimate D2E/DX2                !
 ! A28   A(9,10,19)            115.1305         estimate D2E/DX2                !
 ! A29   A(11,10,19)           121.1042         estimate D2E/DX2                !
 ! A30   A(10,11,12)           117.5901         estimate D2E/DX2                !
 ! A31   A(10,11,20)           121.0337         estimate D2E/DX2                !
 ! A32   A(12,11,20)           121.3758         estimate D2E/DX2                !
 ! A33   A(7,12,11)            120.2454         estimate D2E/DX2                !
 ! A34   A(7,12,21)            120.6974         estimate D2E/DX2                !
 ! A35   A(11,12,21)           119.0564         estimate D2E/DX2                !
 ! D1    D(13,1,2,3)           165.2259         estimate D2E/DX2                !
 ! D2    D(14,1,2,3)            48.0317         estimate D2E/DX2                !
 ! D3    D(15,1,2,3)           -78.1253         estimate D2E/DX2                !
 ! D4    D(1,2,3,4)           -160.7293         estimate D2E/DX2                !
 ! D5    D(1,2,3,8)             20.5754         estimate D2E/DX2                !
 ! D6    D(2,3,4,5)            179.6064         estimate D2E/DX2                !
 ! D7    D(2,3,4,16)             0.1614         estimate D2E/DX2                !
 ! D8    D(8,3,4,5)             -1.6095         estimate D2E/DX2                !
 ! D9    D(8,3,4,16)           178.9456         estimate D2E/DX2                !
 ! D10   D(2,3,8,7)           -179.8806         estimate D2E/DX2                !
 ! D11   D(2,3,8,9)              0.6417         estimate D2E/DX2                !
 ! D12   D(4,3,8,7)              1.5359         estimate D2E/DX2                !
 ! D13   D(4,3,8,9)           -177.9418         estimate D2E/DX2                !
 ! D14   D(3,4,5,6)              0.5339         estimate D2E/DX2                !
 ! D15   D(3,4,5,17)          -179.4547         estimate D2E/DX2                !
 ! D16   D(16,4,5,6)           179.9773         estimate D2E/DX2                !
 ! D17   D(16,4,5,17)           -0.0112         estimate D2E/DX2                !
 ! D18   D(4,5,6,7)              0.5323         estimate D2E/DX2                !
 ! D19   D(4,5,6,18)          -179.9637         estimate D2E/DX2                !
 ! D20   D(17,5,6,7)          -179.4793         estimate D2E/DX2                !
 ! D21   D(17,5,6,18)            0.0247         estimate D2E/DX2                !
 ! D22   D(5,6,7,8)             -0.5566         estimate D2E/DX2                !
 ! D23   D(5,6,7,12)           179.1362         estimate D2E/DX2                !
 ! D24   D(18,6,7,8)           179.948          estimate D2E/DX2                !
 ! D25   D(18,6,7,12)           -0.3592         estimate D2E/DX2                !
 ! D26   D(6,7,8,3)             -0.4727         estimate D2E/DX2                !
 ! D27   D(6,7,8,9)            179.0247         estimate D2E/DX2                !
 ! D28   D(12,7,8,3)           179.8322         estimate D2E/DX2                !
 ! D29   D(12,7,8,9)            -0.6705         estimate D2E/DX2                !
 ! D30   D(6,7,12,11)         -179.1872         estimate D2E/DX2                !
 ! D31   D(6,7,12,21)            0.4964         estimate D2E/DX2                !
 ! D32   D(8,7,12,11)            0.5125         estimate D2E/DX2                !
 ! D33   D(8,7,12,21)         -179.8039         estimate D2E/DX2                !
 ! D34   D(3,8,9,10)           179.8056         estimate D2E/DX2                !
 ! D35   D(7,8,9,10)             0.342          estimate D2E/DX2                !
 ! D36   D(8,9,10,11)            0.1614         estimate D2E/DX2                !
 ! D37   D(8,9,10,19)         -179.8273         estimate D2E/DX2                !
 ! D38   D(9,10,11,12)          -0.3171         estimate D2E/DX2                !
 ! D39   D(9,10,11,20)         179.9086         estimate D2E/DX2                !
 ! D40   D(19,10,11,12)        179.6709         estimate D2E/DX2                !
 ! D41   D(19,10,11,20)         -0.1034         estimate D2E/DX2                !
 ! D42   D(10,11,12,7)          -0.0349         estimate D2E/DX2                !
 ! D43   D(10,11,12,21)       -179.7237         estimate D2E/DX2                !
 ! D44   D(20,11,12,7)         179.7386         estimate D2E/DX2                !
 ! D45   D(20,11,12,21)          0.0499         estimate D2E/DX2                !
 --------------------------------------------------------------------------------
 Trust Radius=3.00D-01 FncErr=1.00D-07 GrdErr=1.00D-06
 Number of steps in this run= 112 maximum allowed number of steps= 126.
 GradGradGradGradGradGradGradGradGradGradGradGradGradGradGradGradGradGrad

 Leave Link  103 at Thu Sep 30 19:03:26 2021, MaxMem=  805306368 cpu:       0.0
 (Enter /sw/target/amd/app/gaussian/Gaussian09RevA.02_gcc-4.9.2/g09/l202.exe)
                          Input orientation:                          
 ---------------------------------------------------------------------
 Center     Atomic      Atomic             Coordinates (Angstroms)
 Number     Number       Type             X           Y           Z
 ---------------------------------------------------------------------
      1          6           0        3.161304   -1.084340    0.147742
      2          8           0        2.542052    0.194030    0.090220
      3          6           0        3.237063    1.205237   -0.537875
      4          6           0        2.759019    2.472971   -0.166574
      5          6           0        3.330110    3.628014   -0.681913
      6          6           0        4.379863    3.520217   -1.584016
      7          6           0        4.854289    2.259270   -1.981996
      8          6           0        4.287490    1.065221   -1.469348
      9          7           0        4.756263   -0.137841   -1.889848
     10          6           0        5.763724   -0.185443   -2.788176
     11          6           0        6.367953    0.931398   -3.320200
     12          6           0        5.903299    2.170721   -2.907815
     13          1           0        2.617224   -1.677727    0.889689
     14          1           0        4.200593   -1.020612    0.487092
     15          1           0        3.070736   -1.606359   -0.809170
     16          1           0        1.936302    2.547948    0.541113
     17          1           0        2.958643    4.603766   -0.381428
     18          1           0        4.823575    4.429748   -1.983861
     19          1           0        6.078912   -1.184417   -3.075282
     20          1           0        7.174736    0.841640   -4.037908
     21          1           0        6.360469    3.068889   -3.316389
 ---------------------------------------------------------------------
                    Distance matrix (angstroms):
                    1          2          3          4          5
     1  C    0.000000
     2  O    1.421623   0.000000
     3  C    2.391228   1.378435   0.000000
     4  C    3.593756   2.303603   1.404827   0.000000
     5  C    4.787807   3.606864   2.428838   1.387748   0.000000
     6  C    5.068117   4.152605   2.785594   2.394368   1.388305
     7  C    4.310651   3.729039   2.410787   2.780572   2.426272
     8  C    2.916142   2.497554   1.410902   2.452591   2.846847
     9  N    2.755273   2.988902   2.437141   3.711468   4.204127
    10  C    4.024950   4.336858   3.658123   4.792516   4.990118
    11  C    5.135408   5.178049   4.197474   5.034501   4.843633
    12  C    5.239311   4.918689   3.695618   4.182374   3.701303
    13  H    1.094814   2.036732   3.276221   4.285335   5.579339
    14  H    1.095144   2.093710   2.633125   3.835431   4.871759
    15  H    1.093795   2.080820   2.829547   4.141380   5.242340
    16  H    3.853425   2.472078   2.158487   1.087799   2.145935
    17  H    5.716261   4.454410   3.413502   2.150884   1.086449
    18  H    6.141013   5.239128   3.873677   3.375485   2.137354
    19  H    4.348602   4.942661   4.497220   5.732255   6.036855
    20  H    6.110377   6.238798   5.280881   6.094835   5.814441
    21  H    6.283643   5.869421   4.577008   4.821503   4.054153
                    6          7          8          9         10
     6  C    0.000000
     7  C    1.404797   0.000000
     8  C    2.459408   1.417683   0.000000
     9  N    3.690067   2.400884   1.357912   0.000000
    10  C    4.134850   2.730132   2.341524   1.350644   0.000000
    11  C    3.697137   2.417688   2.787810   2.405561   1.376762
    12  C    2.427847   1.401929   2.429435   2.771535   2.363324
    13  H    6.020360   5.361995   3.984797   3.830478   5.064985
    14  H    4.994071   4.157083   2.861102   2.595746   3.724012
    15  H    5.347521   4.415844   3.008931   2.483025   3.631481
    16  H    3.381194   3.868341   3.430528   4.590775   5.762357
    17  H    2.154104   3.413495   3.933282   5.290520   6.049582
    18  H    1.088120   2.170696   3.445600   4.569053   4.778158
    19  H    5.219600   3.814965   3.293795   2.061547   1.086150
    20  H    4.583413   3.408947   3.870875   3.379727   2.146551
    21  H    2.669759   2.169024   3.423958   3.858965   3.350491
                   11         12         13         14         15
    11  C    0.000000
    12  C    1.386321   0.000000
    13  H    6.212783   6.326917   0.000000
    14  H    4.796171   4.960766   1.760950   0.000000
    15  H    4.859745   5.166629   1.759798   1.816582   0.000000
    16  H    6.096106   5.270149   4.294356   4.226648   4.513145
    17  H    5.809136   4.579666   6.417902   5.824980   6.225848
    18  H    4.050847   2.668839   7.101164   6.016655   6.394290
    19  H    2.149466   3.363902   5.286552   4.030560   3.789778
    20  H    1.083541   2.158730   7.169333   5.726179   5.767171
    21  H    2.137507   1.087494   7.364329   5.987950   6.242310
                   16         17         18         19         20
    16  H    0.000000
    17  H    2.474399   0.000000
    18  H    4.272354   2.464963   0.000000
    19  H    6.646058   7.106053   5.855419   0.000000
    20  H    7.163806   6.730444   4.756216   2.496475   0.000000
    21  H    5.892789   4.747869   2.447369   4.269428   2.478761
                   21
    21  H    0.000000
 Stoichiometry    C10H9NO
 Framework group  C1[X(C10H9NO)]
 Deg. of freedom    57
 Full point group                 C1      NOp   1
 Largest Abelian subgroup         C1      NOp   1
 Largest concise Abelian subgroup C1      NOp   1
                         Standard orientation:                         
 ---------------------------------------------------------------------
 Center     Atomic      Atomic             Coordinates (Angstroms)
 Number     Number       Type             X           Y           Z
 ---------------------------------------------------------------------
      1          6           0       -2.211698   -2.027436    0.230098
      2          8           0       -2.399732   -0.672951   -0.158520
      3          6           0       -1.307132    0.163982   -0.082021
      4          6           0       -1.688354    1.515953   -0.062454
      5          6           0       -0.736779    2.522690    0.020186
      6          6           0        0.607809    2.181057    0.072704
      7          6           0        1.005760    0.834431    0.031632
      8          6           0        0.052542   -0.211583   -0.052354
      9          7           0        0.471500   -1.501950   -0.110261
     10          6           0        1.793458   -1.777203   -0.080277
     11          6           0        2.773616   -0.814646    0.010549
     12          6           0        2.369197    0.510151    0.067504
     13          1           0       -3.204252   -2.469522    0.364315
     14          1           0       -1.691343   -2.109133    1.190253
     15          1           0       -1.711994   -2.595372   -0.559923
     16          1           0       -2.744203    1.774395   -0.103678
     17          1           0       -1.042724    3.564911    0.043552
     18          1           0        1.348796    2.975209    0.138032
     19          1           0        2.046285   -2.832167   -0.133672
     20          1           0        3.822455   -1.085765    0.032723
     21          1           0        3.123817    1.290304    0.134979
 ---------------------------------------------------------------------
 Rotational constants (GHZ):      1.3886682      1.0329546      0.5972614
 Leave Link  202 at Thu Sep 30 19:03:26 2021, MaxMem=  805306368 cpu:       0.0
 (Enter /sw/target/amd/app/gaussian/Gaussian09RevA.02_gcc-4.9.2/g09/l301.exe)
 Standard basis: 6-31G(d) (6D, 7F)
 Ernie: Thresh=  0.10000D-02 Tol=  0.10000D-05 Strict=F.
 There are   198 symmetry adapted basis functions of A   symmetry.
 Integral buffers will be    131072 words long.
 Raffenetti 2 integral format.
 Two-electron integral symmetry is turned on.
   198 basis functions,   372 primitive gaussians,   198 cartesian basis functions
    42 alpha electrons       42 beta electrons
       nuclear repulsion energy       656.1770779559 Hartrees.
 IExCor=  402 DFT=T Ex+Corr=B3LYP ExCW=0 ScaHFX=  0.200000
 ScaDFX=  0.800000  0.720000  1.000000  0.810000 ScalE2=  1.000000  1.000000
 IRadAn=      0 IRanWt=     -1 IRanGd=            0 ICorTp=0
 NAtoms=   21 NActive=   21 NUniq=   21 SFac= 7.50D-01 NAtFMM=   80 NAOKFM=F Big=F
 Leave Link  301 at Thu Sep 30 19:03:27 2021, MaxMem=  805306368 cpu:       0.1
 (Enter /sw/target/amd/app/gaussian/Gaussian09RevA.02_gcc-4.9.2/g09/l302.exe)
 NPDir=0 NMtPBC=     1 NCelOv=     1 NCel=       1 NClECP=     1 NCelD=      1
         NCelK=      1 NCelE2=     1 NClLst=     1 CellRange=     0.0.
 One-electron integrals computed using PRISM.
 NBasis=   198 RedAO= T  NBF=   198
 NBsUse=   198 1.00D-06 NBFU=   198
 Precomputing XC quadrature grid using
 IXCGrd= 2 IRadAn=           0 IRanWt=          -1 IRanGd=           0 AccXCQ= 1.00D-10.
 NRdTot=    1315 NPtTot=      167144 NUsed=      176635 NTot=      176667
 NSgBfM=   198   198   198   198   198 NAtAll=    21    21.
 Leave Link  302 at Thu Sep 30 19:03:29 2021, MaxMem=  805306368 cpu:       1.3
 (Enter /sw/target/amd/app/gaussian/Gaussian09RevA.02_gcc-4.9.2/g09/l303.exe)
 DipDrv:  MaxL=1.
 Leave Link  303 at Thu Sep 30 19:03:30 2021, MaxMem=  805306368 cpu:       0.1
 (Enter /sw/target/amd/app/gaussian/Gaussian09RevA.02_gcc-4.9.2/g09/l401.exe)
 Harris functional with IExCor=  402 diagonalized for initial guess.
 ExpMin= 1.61D-01 ExpMax= 5.48D+03 ExpMxC= 8.25D+02 IAcc=1 IRadAn=         1 AccDes= 0.00D+00
 HarFok:  IExCor=  402 AccDes= 0.00D+00 IRadAn=         1 IDoV= 1
 ScaDFX=  1.000000  1.000000  1.000000  1.000000
 FoFCou: FMM=F IPFlag=           0 FMFlag=      100000 FMFlg1=           0
         NFxFlg=           0 DoJE=T BraDBF=F KetDBF=T FulRan=T
         Omega=  0.000000  0.000000  1.000000  0.000000  0.000000 ICntrl=     500 IOpCl=  0
         NMat0=    1 NMatS0=    1 NMatT0=    0 NMatD0=    1 NMtDS0=    0 NMtDT0=    0
         I1Cent=           4 NGrid=           0.
 Petite list used in FoFCou.
 Harris En= -516.486045963842    
 Initial guess orbital symmetries:
       Occupied  (A) (A) (A) (A) (A) (A) (A) (A) (A) (A) (A) (A)
                 (A) (A) (A) (A) (A) (A) (A) (A) (A) (A) (A) (A)
                 (A) (A) (A) (A) (A) (A) (A) (A) (A) (A) (A) (A)
                 (A) (A) (A) (A) (A) (A)
       Virtual   (A) (A) (A) (A) (A) (A) (A) (A) (A) (A) (A) (A)
                 (A) (A) (A) (A) (A) (A) (A) (A) (A) (A) (A) (A)
                 (A) (A) (A) (A) (A) (A) (A) (A) (A) (A) (A) (A)
                 (A) (A) (A) (A) (A) (A) (A) (A) (A) (A) (A) (A)
                 (A) (A) (A) (A) (A) (A) (A) (A) (A) (A) (A) (A)
                 (A) (A) (A) (A) (A) (A) (A) (A) (A) (A) (A) (A)
                 (A) (A) (A) (A) (A) (A) (A) (A) (A) (A) (A) (A)
                 (A) (A) (A) (A) (A) (A) (A) (A) (A) (A) (A) (A)
                 (A) (A) (A) (A) (A) (A) (A) (A) (A) (A) (A) (A)
                 (A) (A) (A) (A) (A) (A) (A) (A) (A) (A) (A) (A)
                 (A) (A) (A) (A) (A) (A) (A) (A) (A) (A) (A) (A)
                 (A) (A) (A) (A) (A) (A) (A) (A) (A) (A) (A) (A)
                 (A) (A) (A) (A) (A) (A) (A) (A) (A) (A) (A) (A)
 The electronic state of the initial guess is 1-A.
 Leave Link  401 at Thu Sep 30 19:03:39 2021, MaxMem=  805306368 cpu:       6.4
 (Enter /sw/target/amd/app/gaussian/Gaussian09RevA.02_gcc-4.9.2/g09/l502.exe)
 Closed shell SCF:
 Requested convergence on RMS density matrix=1.00D-08 within  64 cycles.
 Requested convergence on MAX density matrix=1.00D-06.
 Requested convergence on             energy=1.00D-06.
 No special actions if energy rises.
 Using DIIS extrapolation, IDIIS=  1040.
 Integral symmetry usage will be decided dynamically.
       176433 words used for storage of precomputed grid.
 Keep R1 ints in memory in canonical form, NReq=198317030.
 IEnd=      302265 IEndB=      302265 NGot=   805306368 MDV=   610973151
 LenX=   610973151 LenY=   610933506
 Symmetry not used in FoFDir.
 MinBra= 0 MaxBra= 2 Meth= 1.
 IRaf=       0 NMat=   1 IRICut=       1 DoRegI=T DoRafI=F ISym2E= 0 JSym2E=0.
 Integral accuracy reduced to 1.0D-05 until final iterations.

 Cycle   1  Pass 0  IDiag  1:
 E= -516.199665269063    
 DIIS: error= 3.82D-02 at cycle   1 NSaved=   1.
 NSaved= 1 IEnMin= 1 EnMin= -516.199665269063     IErMin= 1 ErrMin= 3.82D-02
 ErrMax= 3.82D-02 EMaxC= 1.00D-01 BMatC= 2.22D-01 BMatP= 2.22D-01
 IDIUse=3 WtCom= 6.18D-01 WtEn= 3.82D-01
 Coeff-Com:  0.100D+01
 Coeff-En:   0.100D+01
 Coeff:      0.100D+01
 Gap=     0.148 Goal=   None    Shift=    0.000
 GapD=    0.148 DampG=1.000 DampE=0.500 DampFc=0.5000 IDamp=-1.
 Damping current iteration by 5.00D-01
 RMSDP=5.84D-03 MaxDP=1.26D-01              OVMax= 2.24D-01

 Cycle   2  Pass 0  IDiag  1:
 E= -516.311110112149     Delta-E=       -0.111444843087 Rises=F Damp=T
 DIIS: error= 6.35D-03 at cycle   2 NSaved=   2.
 NSaved= 2 IEnMin= 2 EnMin= -516.311110112149     IErMin= 2 ErrMin= 6.35D-03
 ErrMax= 6.35D-03 EMaxC= 1.00D-01 BMatC= 1.54D-02 BMatP= 2.22D-01
 IDIUse=3 WtCom= 9.37D-01 WtEn= 6.35D-02
 Coeff-Com:  0.152D-01 0.985D+00
 Coeff-En:   0.199D-01 0.980D+00
 Coeff:      0.155D-01 0.985D+00
 Gap=     0.148 Goal=   None    Shift=    0.000
 RMSDP=1.83D-03 MaxDP=5.57D-02 DE=-1.11D-01 OVMax= 2.18D-01

 Cycle   3  Pass 0  IDiag  1:
 E= -516.418576062888     Delta-E=       -0.107465950739 Rises=F Damp=F
 DIIS: error= 1.04D-02 at cycle   3 NSaved=   3.
 NSaved= 3 IEnMin= 3 EnMin= -516.418576062888     IErMin= 2 ErrMin= 6.35D-03
 ErrMax= 1.04D-02 EMaxC= 1.00D-01 BMatC= 1.79D-02 BMatP= 1.54D-02
 IDIUse=2 WtCom= 0.00D+00 WtEn= 1.00D+00
 Coeff-En:   0.000D+00 0.000D+00 0.100D+01
 Coeff:      0.000D+00 0.000D+00 0.100D+01
 Gap=     0.149 Goal=   None    Shift=    0.000
 RMSDP=2.41D-03 MaxDP=1.00D-01 DE=-1.07D-01 OVMax= 2.42D-01

 Cycle   4  Pass 0  IDiag  1:
 E= -516.344674333070     Delta-E=        0.073901729818 Rises=F Damp=F
 DIIS: error= 2.45D-02 at cycle   4 NSaved=   4.
 NSaved= 4 IEnMin= 3 EnMin= -516.418576062888     IErMin= 2 ErrMin= 6.35D-03
 ErrMax= 2.45D-02 EMaxC= 1.00D-01 BMatC= 8.26D-02 BMatP= 1.54D-02
 IDIUse=2 WtCom= 0.00D+00 WtEn= 1.00D+00
 Coeff-En:   0.000D+00 0.000D+00 0.768D+00 0.232D+00
 Coeff:      0.000D+00 0.000D+00 0.768D+00 0.232D+00
 Gap=     0.149 Goal=   None    Shift=    0.000
 RMSDP=1.25D-03 MaxDP=5.13D-02 DE= 7.39D-02 OVMax= 1.31D-01

 Cycle   5  Pass 0  IDiag  1:
 E= -516.432897733278     Delta-E=       -0.088223400207 Rises=F Damp=F
 DIIS: error= 5.71D-03 at cycle   5 NSaved=   5.
 NSaved= 5 IEnMin= 5 EnMin= -516.432897733278     IErMin= 5 ErrMin= 5.71D-03
 ErrMax= 5.71D-03 EMaxC= 1.00D-01 BMatC= 5.57D-03 BMatP= 1.54D-02
 IDIUse=3 WtCom= 9.43D-01 WtEn= 5.71D-02
 Coeff-Com:  0.589D-02 0.593D-02 0.360D+00 0.775D-02 0.621D+00
 Coeff-En:   0.000D+00 0.000D+00 0.284D+00 0.000D+00 0.716D+00
 Coeff:      0.556D-02 0.559D-02 0.355D+00 0.730D-02 0.626D+00
 Gap=     0.148 Goal=   None    Shift=    0.000
 RMSDP=4.29D-04 MaxDP=1.88D-02 DE=-8.82D-02 OVMax= 4.28D-02

 Cycle   6  Pass 0  IDiag  1:
 E= -516.439100201989     Delta-E=       -0.006202468711 Rises=F Damp=F
 DIIS: error= 5.89D-04 at cycle   6 NSaved=   6.
 NSaved= 6 IEnMin= 6 EnMin= -516.439100201989     IErMin= 6 ErrMin= 5.89D-04
 ErrMax= 5.89D-04 EMaxC= 1.00D-01 BMatC= 8.97D-05 BMatP= 5.57D-03
 IDIUse=3 WtCom= 9.94D-01 WtEn= 5.89D-03
 Coeff-Com:  0.272D-02-0.591D-02 0.120D+00-0.452D-01 0.405D+00 0.523D+00
 Coeff-En:   0.000D+00 0.000D+00 0.000D+00 0.000D+00 0.000D+00 0.100D+01
 Coeff:      0.271D-02-0.587D-02 0.119D+00-0.450D-01 0.403D+00 0.526D+00
 Gap=     0.148 Goal=   None    Shift=    0.000
 RMSDP=5.80D-05 MaxDP=2.22D-03 DE=-6.20D-03 OVMax= 3.25D-03

 Cycle   7  Pass 0  IDiag  1:
 E= -516.439184621324     Delta-E=       -0.000084419335 Rises=F Damp=F
 DIIS: error= 1.08D-04 at cycle   7 NSaved=   7.
 NSaved= 7 IEnMin= 7 EnMin= -516.439184621324     IErMin= 7 ErrMin= 1.08D-04
 ErrMax= 1.08D-04 EMaxC= 1.00D-01 BMatC= 3.61D-06 BMatP= 8.97D-05
 IDIUse=3 WtCom= 9.99D-01 WtEn= 1.08D-03
 Coeff-Com:  0.133D-02-0.328D-02 0.551D-01-0.270D-01 0.209D+00 0.302D+00
 Coeff-Com:  0.463D+00
 Coeff-En:   0.000D+00 0.000D+00 0.000D+00 0.000D+00 0.000D+00 0.000D+00
 Coeff-En:   0.100D+01
 Coeff:      0.133D-02-0.327D-02 0.550D-01-0.270D-01 0.208D+00 0.302D+00
 Coeff:      0.463D+00
 Gap=     0.148 Goal=   None    Shift=    0.000
 RMSDP=1.06D-05 MaxDP=2.69D-04 DE=-8.44D-05 OVMax= 6.24D-04

 Cycle   8  Pass 0  IDiag  1:
 E= -516.439187925724     Delta-E=       -0.000003304400 Rises=F Damp=F
 DIIS: error= 2.17D-05 at cycle   8 NSaved=   8.
 NSaved= 8 IEnMin= 8 EnMin= -516.439187925724     IErMin= 8 ErrMin= 2.17D-05
 ErrMax= 2.17D-05 EMaxC= 1.00D-01 BMatC= 1.45D-07 BMatP= 3.61D-06
 IDIUse=1 WtCom= 1.00D+00 WtEn= 0.00D+00
 Coeff-Com:  0.361D-03-0.860D-03 0.115D-01-0.707D-02 0.473D-01 0.750D-01
 Coeff-Com:  0.193D+00 0.681D+00
 Coeff:      0.361D-03-0.860D-03 0.115D-01-0.707D-02 0.473D-01 0.750D-01
 Coeff:      0.193D+00 0.681D+00
 Gap=     0.148 Goal=   None    Shift=    0.000
 RMSDP=2.53D-06 MaxDP=6.69D-05 DE=-3.30D-06 OVMax= 1.38D-04

 Initial convergence to 1.0D-05 achieved.  Increase integral accuracy.
 Cycle   9  Pass 1  IDiag  1:
 E= -516.439168064776     Delta-E=        0.000019860948 Rises=F Damp=F
 DIIS: error= 2.53D-05 at cycle   1 NSaved=   1.
 NSaved= 1 IEnMin= 1 EnMin= -516.439168064776     IErMin= 1 ErrMin= 2.53D-05
 ErrMax= 2.53D-05 EMaxC= 1.00D-01 BMatC= 1.28D-07 BMatP= 1.28D-07
 IDIUse=1 WtCom= 1.00D+00 WtEn= 0.00D+00
 Coeff-Com:  0.100D+01
 Coeff:      0.100D+01
 Gap=     0.148 Goal=   None    Shift=    0.000
 RMSDP=2.53D-06 MaxDP=6.69D-05 DE= 1.99D-05 OVMax= 2.24D-04

 Cycle  10  Pass 1  IDiag  1:
 E= -516.439168109467     Delta-E=       -0.000000044691 Rises=F Damp=F
 DIIS: error= 2.37D-05 at cycle   2 NSaved=   2.
 NSaved= 2 IEnMin= 2 EnMin= -516.439168109467     IErMin= 2 ErrMin= 2.37D-05
 ErrMax= 2.37D-05 EMaxC= 1.00D-01 BMatC= 1.24D-07 BMatP= 1.28D-07
 IDIUse=1 WtCom= 1.00D+00 WtEn= 0.00D+00
 Coeff-Com:  0.495D+00 0.505D+00
 Coeff:      0.495D+00 0.505D+00
 Gap=     0.148 Goal=   None    Shift=    0.000
 RMSDP=2.67D-06 MaxDP=7.26D-05 DE=-4.47D-08 OVMax= 1.81D-04

 Cycle  11  Pass 1  IDiag  1:
 E= -516.439168200706     Delta-E=       -0.000000091239 Rises=F Damp=F
 DIIS: error= 1.29D-05 at cycle   3 NSaved=   3.
 NSaved= 3 IEnMin= 3 EnMin= -516.439168200706     IErMin= 3 ErrMin= 1.29D-05
 ErrMax= 1.29D-05 EMaxC= 1.00D-01 BMatC= 2.78D-08 BMatP= 1.24D-07
 IDIUse=1 WtCom= 1.00D+00 WtEn= 0.00D+00
 Coeff-Com: -0.504D-02 0.317D+00 0.688D+00
 Coeff:     -0.504D-02 0.317D+00 0.688D+00
 Gap=     0.148 Goal=   None    Shift=    0.000
 RMSDP=1.14D-06 MaxDP=2.68D-05 DE=-9.12D-08 OVMax= 7.69D-05

 Cycle  12  Pass 1  IDiag  1:
 E= -516.439168226042     Delta-E=       -0.000000025336 Rises=F Damp=F
 DIIS: error= 2.81D-06 at cycle   4 NSaved=   4.
 NSaved= 4 IEnMin= 4 EnMin= -516.439168226042     IErMin= 4 ErrMin= 2.81D-06
 ErrMax= 2.81D-06 EMaxC= 1.00D-01 BMatC= 2.40D-09 BMatP= 2.78D-08
 IDIUse=1 WtCom= 1.00D+00 WtEn= 0.00D+00
 Coeff-Com: -0.180D-01 0.179D+00 0.427D+00 0.412D+00
 Coeff:     -0.180D-01 0.179D+00 0.427D+00 0.412D+00
 Gap=     0.148 Goal=   None    Shift=    0.000
 RMSDP=3.00D-07 MaxDP=9.47D-06 DE=-2.53D-08 OVMax= 2.70D-05

 Cycle  13  Pass 1  IDiag  1:
 E= -516.439168228552     Delta-E=       -0.000000002510 Rises=F Damp=F
 DIIS: error= 7.29D-07 at cycle   5 NSaved=   5.
 NSaved= 5 IEnMin= 5 EnMin= -516.439168228552     IErMin= 5 ErrMin= 7.29D-07
 ErrMax= 7.29D-07 EMaxC= 1.00D-01 BMatC= 8.82D-11 BMatP= 2.40D-09
 IDIUse=1 WtCom= 1.00D+00 WtEn= 0.00D+00
 Coeff-Com: -0.988D-02 0.860D-01 0.210D+00 0.236D+00 0.478D+00
 Coeff:     -0.988D-02 0.860D-01 0.210D+00 0.236D+00 0.478D+00
 Gap=     0.148 Goal=   None    Shift=    0.000
 RMSDP=7.25D-08 MaxDP=1.86D-06 DE=-2.51D-09 OVMax= 6.18D-06

 Cycle  14  Pass 1  IDiag  1:
 E= -516.439168228618     Delta-E=       -0.000000000066 Rises=F Damp=F
 DIIS: error= 3.31D-07 at cycle   6 NSaved=   6.
 NSaved= 6 IEnMin= 6 EnMin= -516.439168228618     IErMin= 6 ErrMin= 3.31D-07
 ErrMax= 3.31D-07 EMaxC= 1.00D-01 BMatC= 1.58D-11 BMatP= 8.82D-11
 IDIUse=1 WtCom= 1.00D+00 WtEn= 0.00D+00
 Coeff-Com: -0.255D-02 0.186D-01 0.487D-01 0.687D-01 0.312D+00 0.555D+00
 Coeff:     -0.255D-02 0.186D-01 0.487D-01 0.687D-01 0.312D+00 0.555D+00
 Gap=     0.148 Goal=   None    Shift=    0.000
 RMSDP=2.97D-08 MaxDP=8.71D-07 DE=-6.64D-11 OVMax= 2.05D-06

 Cycle  15  Pass 1  IDiag  1:
 E= -516.439168228639     Delta-E=       -0.000000000021 Rises=F Damp=F
 DIIS: error= 7.73D-08 at cycle   7 NSaved=   7.
 NSaved= 7 IEnMin= 7 EnMin= -516.439168228639     IErMin= 7 ErrMin= 7.73D-08
 ErrMax= 7.73D-08 EMaxC= 1.00D-01 BMatC= 1.48D-12 BMatP= 1.58D-11
 IDIUse=1 WtCom= 1.00D+00 WtEn= 0.00D+00
 Coeff-Com: -0.637D-03 0.295D-02 0.932D-02 0.180D-01 0.125D+00 0.313D+00
 Coeff-Com:  0.532D+00
 Coeff:     -0.637D-03 0.295D-02 0.932D-02 0.180D-01 0.125D+00 0.313D+00
 Coeff:      0.532D+00
 Gap=     0.148 Goal=   None    Shift=    0.000
 RMSDP=8.56D-09 MaxDP=2.85D-07 DE=-2.11D-11 OVMax= 5.22D-07

 SCF Done:  E(RB3LYP) =  -516.439168229     A.U. after   15 cycles
             Convg  =    0.8558D-08             -V/T =  2.0092
 KE= 5.117367472122D+02 PE=-2.512358377701D+03 EE= 8.280053843046D+02
 Leave Link  502 at Thu Sep 30 19:08:07 2021, MaxMem=  805306368 cpu:     133.9
 (Enter /sw/target/amd/app/gaussian/Gaussian09RevA.02_gcc-4.9.2/g09/l508.exe)
 QCSCF skips out because SCF is already converged.
 Leave Link  508 at Thu Sep 30 19:08:08 2021, MaxMem=  805306368 cpu:       0.0
 (Enter /sw/target/amd/app/gaussian/Gaussian09RevA.02_gcc-4.9.2/g09/l601.exe)
 Copying SCF densities to generalized density rwf, IOpCl= 0 IROHF=0.

 **********************************************************************

            Population analysis using the SCF density.

 **********************************************************************

 Orbital symmetries:
       Occupied  (A) (A) (A) (A) (A) (A) (A) (A) (A) (A) (A) (A)
                 (A) (A) (A) (A) (A) (A) (A) (A) (A) (A) (A) (A)
                 (A) (A) (A) (A) (A) (A) (A) (A) (A) (A) (A) (A)
                 (A) (A) (A) (A) (A) (A)
       Virtual   (A) (A) (A) (A) (A) (A) (A) (A) (A) (A) (A) (A)
                 (A) (A) (A) (A) (A) (A) (A) (A) (A) (A) (A) (A)
                 (A) (A) (A) (A) (A) (A) (A) (A) (A) (A) (A) (A)
                 (A) (A) (A) (A) (A) (A) (A) (A) (A) (A) (A) (A)
                 (A) (A) (A) (A) (A) (A) (A) (A) (A) (A) (A) (A)
                 (A) (A) (A) (A) (A) (A) (A) (A) (A) (A) (A) (A)
                 (A) (A) (A) (A) (A) (A) (A) (A) (A) (A) (A) (A)
                 (A) (A) (A) (A) (A) (A) (A) (A) (A) (A) (A) (A)
                 (A) (A) (A) (A) (A) (A) (A) (A) (A) (A) (A) (A)
                 (A) (A) (A) (A) (A) (A) (A) (A) (A) (A) (A) (A)
                 (A) (A) (A) (A) (A) (A) (A) (A) (A) (A) (A) (A)
                 (A) (A) (A) (A) (A) (A) (A) (A) (A) (A) (A) (A)
                 (A) (A) (A) (A) (A) (A) (A) (A) (A) (A) (A) (A)
 The electronic state is 1-A.
 Alpha  occ. eigenvalues --  -19.16965 -14.32874 -10.24944 -10.22658 -10.22368
 Alpha  occ. eigenvalues --  -10.21848 -10.20822 -10.20126 -10.19751 -10.19231
 Alpha  occ. eigenvalues --  -10.18648 -10.18644  -1.05142  -0.93819  -0.84729
 Alpha  occ. eigenvalues --   -0.80644  -0.75918  -0.74253  -0.68109  -0.65035
 Alpha  occ. eigenvalues --   -0.62650  -0.59116  -0.53422  -0.52005  -0.51091
 Alpha  occ. eigenvalues --   -0.47521  -0.46419  -0.45688  -0.44367  -0.41661
 Alpha  occ. eigenvalues --   -0.41060  -0.40705  -0.39498  -0.37447  -0.35543
 Alpha  occ. eigenvalues --   -0.35286  -0.32883  -0.31680  -0.28497  -0.25585
 Alpha  occ. eigenvalues --   -0.24737  -0.20197
 Alpha virt. eigenvalues --   -0.05387  -0.01006   0.02936   0.09441   0.09470
 Alpha virt. eigenvalues --    0.10481   0.13331   0.13624   0.15825   0.16568
 Alpha virt. eigenvalues --    0.17238   0.17374   0.18501   0.19025   0.21387
 Alpha virt. eigenvalues --    0.24040   0.24534   0.26811   0.30086   0.32647
 Alpha virt. eigenvalues --    0.33894   0.35847   0.37632   0.44713   0.46133
 Alpha virt. eigenvalues --    0.49288   0.50529   0.52898   0.53035   0.53807
 Alpha virt. eigenvalues --    0.54194   0.55261   0.56752   0.57162   0.58505
 Alpha virt. eigenvalues --    0.58915   0.59365   0.60691   0.60852   0.61919
 Alpha virt. eigenvalues --    0.62693   0.63038   0.65787   0.66917   0.67961
 Alpha virt. eigenvalues --    0.69777   0.72326   0.75715   0.80045   0.80964
 Alpha virt. eigenvalues --    0.82648   0.82893   0.84681   0.85731   0.86373
 Alpha virt. eigenvalues --    0.87203   0.88499   0.89443   0.91014   0.91888
 Alpha virt. eigenvalues --    0.93278   0.94819   0.97779   0.98152   1.00417
 Alpha virt. eigenvalues --    1.05273   1.06680   1.07798   1.09222   1.11660
 Alpha virt. eigenvalues --    1.12911   1.18071   1.19789   1.22145   1.23629
 Alpha virt. eigenvalues --    1.25329   1.27974   1.34087   1.37024   1.38463
 Alpha virt. eigenvalues --    1.38993   1.41888   1.43342   1.45494   1.47775
 Alpha virt. eigenvalues --    1.49110   1.49376   1.51698   1.53712   1.55483
 Alpha virt. eigenvalues --    1.60524   1.67922   1.71065   1.75882   1.79419
 Alpha virt. eigenvalues --    1.82201   1.84354   1.85808   1.88821   1.91164
 Alpha virt. eigenvalues --    1.91703   1.93086   1.95646   1.96598   1.98860
 Alpha virt. eigenvalues --    2.01997   2.04631   2.08227   2.10340   2.12736
 Alpha virt. eigenvalues --    2.14562   2.16272   2.19053   2.20933   2.22155
 Alpha virt. eigenvalues --    2.25576   2.27105   2.29062   2.31338   2.32473
 Alpha virt. eigenvalues --    2.34850   2.35355   2.39083   2.40053   2.43738
 Alpha virt. eigenvalues --    2.51465   2.58977   2.62132   2.63235   2.65046
 Alpha virt. eigenvalues --    2.68008   2.71163   2.71517   2.74780   2.75637
 Alpha virt. eigenvalues --    2.78634   2.79425   2.89289   2.94378   2.99000
 Alpha virt. eigenvalues --    3.02264   3.18788   3.42124   3.48872   4.03521
 Alpha virt. eigenvalues --    4.07851   4.09985   4.12331   4.20029   4.24502
 Alpha virt. eigenvalues --    4.26526   4.34313   4.38140   4.45795   4.60367
 Alpha virt. eigenvalues --    4.86975
          Condensed to atoms (all electrons):
              1          2          3          4          5          6
     1  C    4.897843   0.238963  -0.028494   0.004164  -0.000148  -0.000035
     2  O    0.238963   8.221728   0.258862  -0.067112   0.003651   0.000278
     3  C   -0.028494   0.258862   4.734332   0.554415  -0.004865  -0.057931
     4  C    0.004164  -0.067112   0.554415   5.017311   0.490572  -0.031806
     5  C   -0.000148   0.003651  -0.004865   0.490572   4.893309   0.494026
     6  C   -0.000035   0.000278  -0.057931  -0.031806   0.494026   5.159611
     7  C    0.000193   0.004535  -0.028701  -0.041878   0.011832   0.427816
     8  C   -0.012410  -0.041100   0.341259  -0.055233  -0.039816  -0.023724
     9  N   -0.013426  -0.003786  -0.095629   0.004769  -0.000783   0.011724
    10  C    0.000114  -0.000015   0.004844  -0.000082   0.000028   0.000282
    11  C   -0.000012   0.000003  -0.000326   0.000008  -0.000450   0.009656
    12  C    0.000019  -0.000068   0.010477   0.000184   0.009014  -0.089450
    13  H    0.359932  -0.032817   0.001751  -0.000298   0.000002  -0.000001
    14  H    0.370599  -0.033460  -0.002796   0.000752   0.000004  -0.000029
    15  H    0.377569  -0.034132  -0.003594  -0.000064   0.000014  -0.000004
    16  H   -0.000123  -0.000143  -0.032908   0.348505  -0.043600   0.005522
    17  H    0.000003  -0.000064   0.003898  -0.039112   0.357005  -0.036855
    18  H   -0.000000   0.000002   0.000494   0.004759  -0.044075   0.356430
    19  H    0.000067  -0.000002  -0.000193   0.000004  -0.000001   0.000025
    20  H   -0.000000  -0.000000   0.000020   0.000000   0.000002  -0.000131
    21  H    0.000000   0.000000  -0.000115  -0.000007   0.000422  -0.009855
              7          8          9         10         11         12
     1  C    0.000193  -0.012410  -0.013426   0.000114  -0.000012   0.000019
     2  O    0.004535  -0.041100  -0.003786  -0.000015   0.000003  -0.000068
     3  C   -0.028701   0.341259  -0.095629   0.004844  -0.000326   0.010477
     4  C   -0.041878  -0.055233   0.004769  -0.000082   0.000008   0.000184
     5  C    0.011832  -0.039816  -0.000783   0.000028  -0.000450   0.009014
     6  C    0.427816  -0.023724   0.011724   0.000282   0.009656  -0.089450
     7  C    4.800467   0.380783  -0.053699  -0.038997   0.002653   0.456224
     8  C    0.380783   4.942540   0.368343  -0.055335  -0.037957  -0.036252
     9  N   -0.053699   0.368343   6.949615   0.489955  -0.016530  -0.066852
    10  C   -0.038997  -0.055335   0.489955   4.778237   0.466009  -0.031487
    11  C    0.002653  -0.037957  -0.016530   0.466009   4.988721   0.502088
    12  C    0.456224  -0.036252  -0.066852  -0.031487   0.502088   5.082057
    13  H    0.000038   0.000550   0.001501  -0.000009   0.000001  -0.000000
    14  H   -0.000353   0.002985   0.000658   0.000077  -0.000018   0.000025
    15  H   -0.000066   0.001391   0.005716   0.000231   0.000027   0.000004
    16  H   -0.000048   0.006355  -0.000074   0.000003  -0.000000  -0.000001
    17  H    0.003296   0.000733   0.000004  -0.000000   0.000003  -0.000217
    18  H   -0.042781   0.004167  -0.000107  -0.000013   0.000301  -0.008618
    19  H    0.000833   0.003693  -0.054790   0.378882  -0.067130   0.003665
    20  H    0.003800   0.000732   0.004534  -0.036668   0.350262  -0.036967
    21  H   -0.044425   0.004512  -0.000227   0.005020  -0.049264   0.363734
             13         14         15         16         17         18
     1  C    0.359932   0.370599   0.377569  -0.000123   0.000003  -0.000000
     2  O   -0.032817  -0.033460  -0.034132  -0.000143  -0.000064   0.000002
     3  C    0.001751  -0.002796  -0.003594  -0.032908   0.003898   0.000494
     4  C   -0.000298   0.000752  -0.000064   0.348505  -0.039112   0.004759
     5  C    0.000002   0.000004   0.000014  -0.043600   0.357005  -0.044075
     6  C   -0.000001  -0.000029  -0.000004   0.005522  -0.036855   0.356430
     7  C    0.000038  -0.000353  -0.000066  -0.000048   0.003296  -0.042781
     8  C    0.000550   0.002985   0.001391   0.006355   0.000733   0.004167
     9  N    0.001501   0.000658   0.005716  -0.000074   0.000004  -0.000107
    10  C   -0.000009   0.000077   0.000231   0.000003  -0.000000  -0.000013
    11  C    0.000001  -0.000018   0.000027  -0.000000   0.000003   0.000301
    12  C   -0.000000   0.000025   0.000004  -0.000001  -0.000217  -0.008618
    13  H    0.601206  -0.036076  -0.038977  -0.000056  -0.000000   0.000000
    14  H   -0.036076   0.581052  -0.036133   0.000046   0.000000   0.000000
    15  H   -0.038977  -0.036133   0.558589   0.000018  -0.000000   0.000000
    16  H   -0.000056   0.000046   0.000018   0.578765  -0.005934  -0.000196
    17  H   -0.000000   0.000000  -0.000000  -0.005934   0.588114  -0.004994
    18  H    0.000000   0.000000   0.000000  -0.000196  -0.004994   0.603338
    19  H   -0.000005   0.000004  -0.000059  -0.000000   0.000000  -0.000000
    20  H   -0.000000  -0.000000  -0.000000   0.000000  -0.000000  -0.000015
    21  H    0.000000   0.000000   0.000000  -0.000000  -0.000008   0.005728
             19         20         21
     1  C    0.000067  -0.000000   0.000000
     2  O   -0.000002  -0.000000   0.000000
     3  C   -0.000193   0.000020  -0.000115
     4  C    0.000004   0.000000  -0.000007
     5  C   -0.000001   0.000002   0.000422
     6  C    0.000025  -0.000131  -0.009855
     7  C    0.000833   0.003800  -0.044425
     8  C    0.003693   0.000732   0.004512
     9  N   -0.054790   0.004534  -0.000227
    10  C    0.378882  -0.036668   0.005020
    11  C   -0.067130   0.350262  -0.049264
    12  C    0.003665  -0.036967   0.363734
    13  H   -0.000005  -0.000000   0.000000
    14  H    0.000004  -0.000000   0.000000
    15  H   -0.000059  -0.000000   0.000000
    16  H   -0.000000   0.000000  -0.000000
    17  H    0.000000  -0.000000  -0.000008
    18  H   -0.000000  -0.000015   0.005728
    19  H    0.596497  -0.001994  -0.000207
    20  H   -0.001994   0.583719  -0.005698
    21  H   -0.000207  -0.005698   0.586641
 Mulliken atomic charges:
              1
     1  C   -0.194817
     2  O   -0.515322
     3  C    0.345199
     4  C   -0.189850
     5  C   -0.126143
     6  C   -0.215551
     7  C    0.158481
     8  C    0.243784
     9  N   -0.530914
    10  C    0.038924
    11  C   -0.148044
    12  C   -0.157581
    13  H    0.143258
    14  H    0.152665
    15  H    0.169470
    16  H    0.143869
    17  H    0.134128
    18  H    0.125582
    19  H    0.140710
    20  H    0.138404
    21  H    0.143748
 Sum of Mulliken atomic charges =  -0.00000
 Mulliken charges with hydrogens summed into heavy atoms:
              1
     1  C    0.270576
     2  O   -0.515322
     3  C    0.345199
     4  C   -0.045981
     5  C    0.007985
     6  C   -0.089969
     7  C    0.158481
     8  C    0.243784
     9  N   -0.530914
    10  C    0.179635
    11  C   -0.009640
    12  C   -0.013833
 Sum of Mulliken charges with hydrogens summed into heavy atoms =  -0.00000
 Electronic spatial extent (au):  <R**2>=           1857.0470
 Charge=             -0.0000 electrons
 Dipole moment (field-independent basis, Debye):
    X=              1.7738    Y=              0.4556    Z=              0.5345  Tot=              1.9077
 Quadrupole moment (field-independent basis, Debye-Ang):
   XX=            -62.1520   YY=            -61.6067   ZZ=            -71.6156
   XY=             -0.2261   XZ=             -0.8082   YZ=             -0.5025
 Traceless Quadrupole moment (field-independent basis, Debye-Ang):
   XX=              2.9728   YY=              3.5181   ZZ=             -6.4908
   XY=             -0.2261   XZ=             -0.8082   YZ=             -0.5025
 Octapole moment (field-independent basis, Debye-Ang**2):
  XXX=             16.7086  YYY=             -0.4839  ZZZ=             -0.2766  XYY=             -6.1586
  XXY=             -5.7740  XXZ=              2.8381  XZZ=             -5.9814  YZZ=             -6.1110
  YYZ=              1.0636  XYZ=              2.4474
 Hexadecapole moment (field-independent basis, Debye-Ang**3):
 XXXX=          -1262.7377 YYYY=           -983.1844 ZZZZ=            -82.6859 XXXY=             -1.8816
 XXXZ=             -2.5346 YYYX=              1.5822 YYYZ=              3.0344 ZZZX=              0.2870
 ZZZY=             -0.8393 XXYY=           -343.0912 XXZZ=           -251.4239 YYZZ=           -202.1665
 XXYZ=             -2.4959 YYXZ=             -1.1503 ZZXY=              6.9015
 N-N= 6.561770779559D+02 E-N=-2.512358368825D+03  KE= 5.117367472122D+02
 No NMR shielding tensors so no spin-rotation constants.
 Leave Link  601 at Thu Sep 30 19:08:10 2021, MaxMem=  805306368 cpu:       0.9
 (Enter /sw/target/amd/app/gaussian/Gaussian09RevA.02_gcc-4.9.2/g09/l701.exe)
 Compute integral first derivatives.
 ... and contract with generalized density number  0.
 Leave Link  701 at Thu Sep 30 19:08:12 2021, MaxMem=  805306368 cpu:       0.9
 (Enter /sw/target/amd/app/gaussian/Gaussian09RevA.02_gcc-4.9.2/g09/l702.exe)
 L702 exits ... SP integral derivatives will be done elsewhere.
 Leave Link  702 at Thu Sep 30 19:08:12 2021, MaxMem=  805306368 cpu:       0.1
 (Enter /sw/target/amd/app/gaussian/Gaussian09RevA.02_gcc-4.9.2/g09/l703.exe)
 Compute integral first derivatives, UseDBF=F ICtDFT=           0.
 Integral derivatives from FoFDir, PRISM(SPDF).
 Calling FoFJK, ICntrl=      2127 FMM=F ISym2X=0 I1Cent= 0 IOpClX= 0 NMat=1 NMatS=1 NMatT=0.
 FoFCou: FMM=F IPFlag=           0 FMFlag=      100000 FMFlg1=         800
         NFxFlg=           0 DoJE=F BraDBF=F KetDBF=F FulRan=T
         Omega=  0.000000  0.000000  1.000000  0.000000  0.000000 ICntrl=    2127 IOpCl=  0
         NMat0=    1 NMatS0=    1 NMatT0=    0 NMatD0=    1 NMtDS0=    0 NMtDT0=    0
         I1Cent=           0 NGrid=           0.
 Symmetry not used in FoFCou.
 Leave Link  703 at Thu Sep 30 19:09:33 2021, MaxMem=  805306368 cpu:      58.2
 (Enter /sw/target/amd/app/gaussian/Gaussian09RevA.02_gcc-4.9.2/g09/l716.exe)
 Dipole        = 6.97854231D-01 1.79230554D-01 2.10293602D-01
 ***** Axes restored to original set *****
 -------------------------------------------------------------------
 Center     Atomic                   Forces (Hartrees/Bohr)
 Number     Number              X              Y              Z
 -------------------------------------------------------------------
      1        6          -0.006507295   -0.015348347    0.005448722
      2        8           0.013299015    0.003363485   -0.008714735
      3        6          -0.034088572    0.004307478    0.028105985
      4        6           0.001509885   -0.014351766   -0.000664444
      5        6           0.012296769    0.005551739   -0.012285128
      6        6          -0.010460989    0.016810021    0.008569914
      7        6           0.002828556    0.022443425   -0.001911991
      8        6           0.012424836   -0.008383072   -0.010697663
      9        7           0.016212924   -0.011419654   -0.015780863
     10        6          -0.034348035   -0.018214727    0.030291500
     11        6           0.005992833    0.028658938   -0.005395928
     12        6           0.015351264   -0.012092450   -0.013727075
     13        1          -0.004458043    0.004756237    0.002630229
     14        1           0.000032208   -0.000015863   -0.005544905
     15        1           0.006711244    0.001623101    0.001181265
     16        1           0.001805156   -0.005024557   -0.000715475
     17        1           0.000190590   -0.000136688   -0.000042796
     18        1           0.002036471   -0.002598185   -0.001675970
     19        1           0.000282489   -0.001769889   -0.000223911
     20        1           0.001330528   -0.000040249   -0.001061984
     21        1          -0.002441836    0.001881023    0.002215255
 -------------------------------------------------------------------
 Cartesian Forces:  Max     0.034348035 RMS     0.012034692
 Leave Link  716 at Thu Sep 30 19:09:33 2021, MaxMem=  805306368 cpu:       0.1
 (Enter /sw/target/amd/app/gaussian/Gaussian09RevA.02_gcc-4.9.2/g09/l103.exe)

 GradGradGradGradGradGradGradGradGradGradGradGradGradGradGradGradGradGrad
 Berny optimization.
 Internal  Forces:  Max     0.030440738 RMS     0.007133358
 Search for a local minimum.
 Step number   1 out of a maximum of  112
 All quantities printed in internal units (Hartrees-Bohrs-Radians)
 RMS Force = .71334D-02 SwitMx=.10000D-02 MixMth= 1
 Mixed Optimization -- RFO/linear search
 Second derivative matrix not updated -- first step.
     Eigenvalues ---    0.01406   0.01958   0.01977   0.01978   0.01998
     Eigenvalues ---    0.02012   0.02046   0.02122   0.02143   0.02163
     Eigenvalues ---    0.02197   0.02224   0.02247   0.02326   0.02347
     Eigenvalues ---    0.02381   0.09872   0.10607   0.15999   0.15999
     Eigenvalues ---    0.16000   0.16000   0.16000   0.16000   0.16000
     Eigenvalues ---    0.16000   0.16000   0.22061   0.22123   0.23228
     Eigenvalues ---    0.23665   0.24871   0.24943   0.24993   0.25000
     Eigenvalues ---    0.34225   0.34262   0.34378   0.35031   0.35068
     Eigenvalues ---    0.35104   0.35226   0.35261   0.35570   0.38286
     Eigenvalues ---    0.41061   0.42217   0.43447   0.43686   0.44832
     Eigenvalues ---    0.46191   0.46417   0.47327   0.48565   0.49390
     Eigenvalues ---    0.52042   0.538271000.000001000.000001000.00000
     Eigenvalues --- 1000.000001000.000001000.000001000.000001000.00000
     Eigenvalues --- 1000.000001000.000001000.000001000.000001000.00000
     Eigenvalues --- 1000.000001000.000001000.000001000.000001000.00000
     Eigenvalues --- 1000.000001000.000001000.000001000.000001000.00000
     Eigenvalues --- 1000.000001000.000001000.000001000.000001000.00000
     Eigenvalues --- 1000.000001000.000001000.000001000.000001000.00000
     Eigenvalues --- 1000.000001000.000001000.000001000.000001000.00000
     Eigenvalues --- 1000.000001000.000001000.000001000.000001000.00000
     Eigenvalues --- 1000.000001000.00000
 RFO step:  Lambda=-1.47221542D-02 EMin= 1.40575602D-02
 Linear search not attempted -- first point.
 Iteration  1 RMS(Cart)=  0.08090820 RMS(Int)=  0.00352562
 Iteration  2 RMS(Cart)=  0.00547468 RMS(Int)=  0.00011570
 Iteration  3 RMS(Cart)=  0.00003394 RMS(Int)=  0.00011397
 Iteration  4 RMS(Cart)=  0.00000000 RMS(Int)=  0.00011397
 Variable       Old X    -DE/DX   Delta X   Delta X   Delta X     New X
                                 (Linear)    (Quad)   (Total)
    R1        2.68648   0.00641   0.00000   0.01468   0.01468   2.70116
    R2        2.06890   0.00142   0.00000   0.00397   0.00397   2.07287
    R3        2.06952  -0.00169   0.00000  -0.00473  -0.00473   2.06479
    R4        2.06697  -0.00236   0.00000  -0.00657  -0.00657   2.06040
    R5        2.60486  -0.00273   0.00000  -0.00537  -0.00537   2.59949
    R6        2.65474  -0.01118   0.00000  -0.02525  -0.02519   2.62955
    R7        2.66622   0.01874   0.00000   0.04241   0.04238   2.70860
    R8        2.62246   0.01775   0.00000   0.03403   0.03413   2.65660
    R9        2.05564  -0.00217   0.00000  -0.00595  -0.00595   2.04969
   R10        2.62352  -0.00703   0.00000  -0.01535  -0.01531   2.60820
   R11        2.05309  -0.00020   0.00000  -0.00054  -0.00054   2.05255
   R12        2.65468   0.00710   0.00000   0.01642   0.01635   2.67104
   R13        2.05625  -0.00073   0.00000  -0.00199  -0.00199   2.05425
   R14        2.67903   0.02290   0.00000   0.05574   0.05562   2.73465
   R15        2.64926   0.00958   0.00000   0.02255   0.02259   2.67186
   R16        2.56608   0.00373   0.00000   0.00642   0.00636   2.57244
   R17        2.55235  -0.02773   0.00000  -0.05093  -0.05098   2.50137
   R18        2.60170   0.03037   0.00000   0.05778   0.05779   2.65950
   R19        2.05253   0.00177   0.00000   0.00481   0.00481   2.05733
   R20        2.61977  -0.00725   0.00000  -0.01428  -0.01422   2.60555
   R21        2.04759   0.00170   0.00000   0.00458   0.00458   2.05218
   R22        2.05507  -0.00030   0.00000  -0.00083  -0.00083   2.05424
    A1        1.87374  -0.00891   0.00000  -0.04659  -0.04649   1.82725
    A2        1.95367  -0.00006   0.00000  -0.00387  -0.00386   1.94981
    A3        1.93660   0.00430   0.00000   0.02350   0.02364   1.96024
    A4        1.86833   0.00505   0.00000   0.03064   0.03059   1.89891
    A5        1.86822   0.00552   0.00000   0.03876   0.03901   1.90723
    A6        1.95783  -0.00579   0.00000  -0.04061  -0.04054   1.91728
    A7        2.04708   0.03044   0.00000   0.11499   0.11499   2.16207
    A8        1.94980   0.00452   0.00000   0.01669   0.01662   1.96642
    A9        2.21856   0.00426   0.00000   0.01574   0.01565   2.23421
   A10        2.11460  -0.00879   0.00000  -0.03281  -0.03281   2.08179
   A11        2.10936   0.00679   0.00000   0.02293   0.02310   2.13246
   A12        2.08462  -0.00844   0.00000  -0.04033  -0.04042   2.04420
   A13        2.08916   0.00165   0.00000   0.01740   0.01732   2.10648
   A14        2.08041   0.00613   0.00000   0.02006   0.02020   2.10061
   A15        2.09914  -0.00298   0.00000  -0.00954  -0.00961   2.08953
   A16        2.10364  -0.00315   0.00000  -0.01053  -0.01061   2.09303
   A17        2.10499  -0.00531   0.00000  -0.02211  -0.02214   2.08285
   A18        2.07397   0.00638   0.00000   0.03235   0.03236   2.10633
   A19        2.10420  -0.00107   0.00000  -0.01027  -0.01026   2.09394
   A20        2.11594  -0.00024   0.00000   0.00156   0.00138   2.11732
   A21        2.09034   0.00804   0.00000   0.02332   0.02337   2.11372
   A22        2.07689  -0.00781   0.00000  -0.02492  -0.02483   2.05206
   A23        2.04071   0.00143   0.00000   0.01029   0.01018   2.05088
   A24        2.15242  -0.00877   0.00000  -0.03802  -0.03793   2.11449
   A25        2.09002   0.00734   0.00000   0.02762   0.02755   2.11757
   A26        2.08827  -0.00329   0.00000  -0.01746  -0.01764   2.07063
   A27        2.16011   0.00374   0.00000   0.00985   0.00981   2.16992
   A28        2.00941  -0.00223   0.00000  -0.00701  -0.00699   2.00242
   A29        2.11367  -0.00150   0.00000  -0.00284  -0.00282   2.11085
   A30        2.05233   0.00339   0.00000   0.01307   0.01313   2.06547
   A31        2.11244  -0.00158   0.00000  -0.00589  -0.00592   2.10652
   A32        2.11841  -0.00181   0.00000  -0.00719  -0.00722   2.11118
   A33        2.09868  -0.00338   0.00000  -0.00824  -0.00814   2.09053
   A34        2.10657  -0.00221   0.00000  -0.01818  -0.01823   2.08834
   A35        2.07793   0.00558   0.00000   0.02640   0.02635   2.10428
    D1        2.88374  -0.00095   0.00000  -0.00541  -0.00516   2.87857
    D2        0.83831  -0.00158   0.00000  -0.01187  -0.01196   0.82635
    D3       -1.36354   0.00279   0.00000   0.02658   0.02642  -1.33712
    D4       -2.80526   0.00165   0.00000   0.04916   0.04898  -2.75628
    D5        0.35911   0.00242   0.00000   0.06878   0.06895   0.42806
    D6        3.13472   0.00060   0.00000   0.01851   0.01826  -3.13021
    D7        0.00282   0.00062   0.00000   0.01878   0.01857   0.02139
    D8       -0.02809   0.00006   0.00000   0.00090   0.00087  -0.02722
    D9        3.12319   0.00009   0.00000   0.00117   0.00118   3.12437
   D10       -3.13951  -0.00056   0.00000  -0.01626  -0.01623   3.12744
   D11        0.01120  -0.00009   0.00000  -0.00187  -0.00212   0.00908
   D12        0.02681   0.00009   0.00000   0.00438   0.00427   0.03107
   D13       -3.10567   0.00056   0.00000   0.01878   0.01838  -3.08729
   D14        0.00932  -0.00015   0.00000  -0.00590  -0.00594   0.00338
   D15       -3.13207   0.00008   0.00000   0.00044   0.00038  -3.13169
   D16        3.14120  -0.00023   0.00000  -0.00649  -0.00658   3.13462
   D17       -0.00020   0.00000   0.00000  -0.00015  -0.00026  -0.00045
   D18        0.00929   0.00029   0.00000   0.00616   0.00611   0.01540
   D19       -3.14096   0.00010   0.00000   0.00245   0.00229  -3.13867
   D20       -3.13250   0.00006   0.00000  -0.00020  -0.00023  -3.13273
   D21        0.00043  -0.00013   0.00000  -0.00391  -0.00404  -0.00361
   D22       -0.00971  -0.00001   0.00000  -0.00042  -0.00047  -0.01019
   D23        3.12652  -0.00040   0.00000  -0.00984  -0.01010   3.11642
   D24        3.14069   0.00015   0.00000   0.00315   0.00310  -3.13940
   D25       -0.00627  -0.00024   0.00000  -0.00628  -0.00652  -0.01279
   D26       -0.00825  -0.00018   0.00000  -0.00489  -0.00479  -0.01304
   D27        3.12457  -0.00072   0.00000  -0.01910  -0.01929   3.10528
   D28        3.13866   0.00016   0.00000   0.00432   0.00436  -3.14016
   D29       -0.01170  -0.00038   0.00000  -0.00989  -0.01014  -0.02184
   D30       -3.12741   0.00046   0.00000   0.01296   0.01308  -3.11433
   D31        0.00866   0.00035   0.00000   0.01004   0.01011   0.01877
   D32        0.00895   0.00010   0.00000   0.00383   0.00388   0.01282
   D33       -3.13817  -0.00001   0.00000   0.00090   0.00091  -3.13726
   D34        3.13820  -0.00017   0.00000  -0.00582  -0.00555   3.13265
   D35        0.00597   0.00034   0.00000   0.00906   0.00921   0.01518
   D36        0.00282  -0.00007   0.00000  -0.00227  -0.00220   0.00062
   D37       -3.13858  -0.00015   0.00000  -0.00360  -0.00361   3.14100
   D38       -0.00553  -0.00016   0.00000  -0.00364  -0.00374  -0.00927
   D39        3.14000  -0.00009   0.00000  -0.00130  -0.00138   3.13861
   D40        3.13585  -0.00008   0.00000  -0.00223  -0.00224   3.13361
   D41       -0.00181  -0.00001   0.00000   0.00011   0.00012  -0.00169
   D42       -0.00061   0.00005   0.00000   0.00240   0.00232   0.00171
   D43       -3.13677   0.00018   0.00000   0.00542   0.00546  -3.13131
   D44        3.13703  -0.00003   0.00000   0.00006  -0.00004   3.13699
   D45        0.00087   0.00010   0.00000   0.00308   0.00310   0.00397
         Item               Value     Threshold  Converged?
 Maximum Force            0.030441     0.000450     NO 
 RMS     Force            0.007133     0.000300     NO 
 Maximum Displacement     0.359835     0.001800     NO 
 RMS     Displacement     0.083892     0.001200     NO 
 Predicted change in Energy=-7.777854D-03
 GradGradGradGradGradGradGradGradGradGradGradGradGradGradGradGradGradGrad

 Leave Link  103 at Thu Sep 30 19:09:40 2021, MaxMem=  805306368 cpu:       2.9
 (Enter /sw/target/amd/app/gaussian/Gaussian09RevA.02_gcc-4.9.2/g09/l202.exe)
                          Input orientation:                          
 ---------------------------------------------------------------------
 Center     Atomic      Atomic             Coordinates (Angstroms)
 Number     Number       Type             X           Y           Z
 ---------------------------------------------------------------------
      1          6           0        3.093842   -1.158674    0.235847
      2          8           0        2.572007    0.159863    0.056099
      3          6           0        3.264568    1.182677   -0.549265
      4          6           0        2.790754    2.439633   -0.186175
      5          6           0        3.345464    3.625531   -0.698272
      6          6           0        4.392944    3.574948   -1.595592
      7          6           0        4.890425    2.318269   -2.009251
      8          6           0        4.331609    1.083884   -1.501155
      9          7           0        4.782240   -0.126690   -1.930716
     10          6           0        5.763428   -0.159786   -2.818561
     11          6           0        6.384294    0.982121   -3.358186
     12          6           0        5.941873    2.222461   -2.949649
     13          1           0        2.426807   -1.623943    0.971922
     14          1           0        4.108067   -1.140199    0.641892
     15          1           0        3.074575   -1.740725   -0.685910
     16          1           0        1.971760    2.473164    0.524171
     17          1           0        2.950326    4.586009   -0.380319
     18          1           0        4.827687    4.488670   -1.992857
     19          1           0        6.074123   -1.159631   -3.116946
     20          1           0        7.187599    0.886208   -4.082633
     21          1           0        6.389229    3.128539   -3.350385
 ---------------------------------------------------------------------
                    Distance matrix (angstroms):
                    1          2          3          4          5
     1  C    0.000000
     2  O    1.429391   0.000000
     3  C    2.475373   1.375593   0.000000
     4  C    3.635625   2.303019   1.391500   0.000000
     5  C    4.881035   3.630175   2.448731   1.405810   0.000000
     6  C    5.239180   4.207933   2.844467   2.417108   1.380201
     7  C    4.511906   3.781461   2.462628   2.783334   2.411328
     8  C    3.094884   2.524887   1.433329   2.437512   2.842020
     9  N    2.934224   2.985745   2.434374   3.687201   4.202666
    10  C    4.177784   4.307089   3.632660   4.745864   4.966971
    11  C    5.322325   5.183337   4.202731   5.009942   4.826722
    12  C    5.448921   4.964356   3.743121   4.196844   3.711960
    13  H    1.096913   2.010418   3.300450   4.241025   5.584842
    14  H    1.092642   2.095899   2.743374   3.903358   5.008971
    15  H    1.090317   2.101282   2.932754   4.219677   5.373103
    16  H    3.812144   2.435314   2.118720   1.084650   2.170110
    17  H    5.779415   4.463671   3.421982   2.161039   1.086161
    18  H    6.313939   5.293853   3.931525   3.407601   2.148940
    19  H    4.485899   4.906535   4.469115   5.685475   6.016090
    20  H    6.292031   6.241824   5.287982   6.076821   5.806875
    21  H    6.488515   5.915095   4.625598   4.841057   4.067580
                    6          7          8          9         10
     6  C    0.000000
     7  C    1.413451   0.000000
     8  C    2.493608   1.447115   0.000000
     9  N    3.737109   2.448610   1.361278   0.000000
    10  C    4.161985   2.749159   2.309194   1.323668   0.000000
    11  C    3.714157   2.415898   2.769916   2.415307   1.407345
    12  C    2.462087   1.413885   2.446925   2.810958   2.392515
    13  H    6.122605   5.522485   4.132398   4.026802   5.257810
    14  H    5.226863   4.427374   3.096638   2.846053   3.959314
    15  H    5.551756   4.639393   3.197369   2.659092   3.778558
    16  H    3.401390   3.867922   3.406014   4.548022   5.699389
    17  H    2.140159   3.400007   3.927989   5.288589   6.031678
    18  H    1.087064   2.171370   3.475692   4.616002   4.813059
    19  H    5.249487   3.837175   3.268102   2.035453   1.088694
    20  H    4.607038   3.409798   3.854839   3.382671   2.172612
    21  H    2.695131   2.168316   3.440068   3.897998   3.389328
                   11         12         13         14         15
    11  C    0.000000
    12  C    1.378798   0.000000
    13  H    6.418965   6.521445   0.000000
    14  H    5.068143   5.250666   1.780327   0.000000
    15  H    5.050662   5.390061   1.783718   1.786559   0.000000
    16  H    6.063527   5.281294   4.146546   4.199293   4.520770
    17  H    5.800676   4.597518   6.377001   5.930830   6.335329
    18  H    4.072227   2.700475   7.205427   6.256510   6.602035
    19  H    2.177499   3.388809   5.498849   4.242005   3.904470
    20  H    1.085966   2.149665   7.383395   5.992576   5.946046
    21  H    2.146438   1.087057   7.547795   6.274081   6.464989
                   16         17         18         19         20
    16  H    0.000000
    17  H    2.497961   0.000000
    18  H    4.307436   2.476739   0.000000
    19  H    6.579081   7.089401   5.892408   0.000000
    20  H    7.137650   6.734251   4.786866   2.521475   0.000000
    21  H    5.912337   4.771956   2.476136   4.306064   2.490308
                   21
    21  H    0.000000
 Stoichiometry    C10H9NO
 Framework group  C1[X(C10H9NO)]
 Deg. of freedom    57
 Full point group                 C1      NOp   1
 Largest Abelian subgroup         C1      NOp   1
 Largest concise Abelian subgroup C1      NOp   1
                         Standard orientation:                         
 ---------------------------------------------------------------------
 Center     Atomic      Atomic             Coordinates (Angstroms)
 Number     Number       Type             X           Y           Z
 ---------------------------------------------------------------------
      1          6           0       -2.569163   -1.812807    0.237510
      2          8           0       -2.444774   -0.449632   -0.174123
      3          6           0       -1.280675    0.277009   -0.078624
      4          6           0       -1.505102    1.650243   -0.067174
      5          6           0       -0.453655    2.580117    0.010897
      6          6           0        0.855755    2.148601    0.075660
      7          6           0        1.130522    0.762480    0.043785
      8          6           0        0.065620   -0.213544   -0.042826
      9          7           0        0.331537   -1.546607   -0.115690
     10          6           0        1.593810   -1.944129   -0.088511
     11          6           0        2.697154   -1.076336    0.012416
     12          6           0        2.459192    0.280217    0.077395
     13          1           0       -3.650381   -1.991021    0.286759
     14          1           0       -2.139789   -1.976572    1.228815
     15          1           0       -2.122717   -2.503713   -0.478119
     16          1           0       -2.536432    1.983158   -0.111810
     17          1           0       -0.675118    3.643349    0.026330
     18          1           0        1.672748    2.862907    0.138894
     19          1           0        1.733249   -3.022106   -0.149967
     20          1           0        3.710036   -1.467475    0.032432
     21          1           0        3.285089    0.983664    0.146319
 ---------------------------------------------------------------------
 Rotational constants (GHZ):      1.3722119      1.0021095      0.5840524
 Leave Link  202 at Thu Sep 30 19:09:40 2021, MaxMem=  805306368 cpu:       0.0
 (Enter /sw/target/amd/app/gaussian/Gaussian09RevA.02_gcc-4.9.2/g09/l301.exe)
 Standard basis: 6-31G(d) (6D, 7F)
 Ernie: Thresh=  0.10000D-02 Tol=  0.10000D-05 Strict=F.
 There are   198 symmetry adapted basis functions of A   symmetry.
 Integral buffers will be    131072 words long.
 Raffenetti 2 integral format.
 Two-electron integral symmetry is turned on.
   198 basis functions,   372 primitive gaussians,   198 cartesian basis functions
    42 alpha electrons       42 beta electrons
       nuclear repulsion energy       650.9947490745 Hartrees.
 IExCor=  402 DFT=T Ex+Corr=B3LYP ExCW=0 ScaHFX=  0.200000
 ScaDFX=  0.800000  0.720000  1.000000  0.810000 ScalE2=  1.000000  1.000000
 IRadAn=      0 IRanWt=     -1 IRanGd=            0 ICorTp=0
 NAtoms=   21 NActive=   21 NUniq=   21 SFac= 7.50D-01 NAtFMM=   80 NAOKFM=F Big=F
 Leave Link  301 at Thu Sep 30 19:09:40 2021, MaxMem=  805306368 cpu:       0.1
 (Enter /sw/target/amd/app/gaussian/Gaussian09RevA.02_gcc-4.9.2/g09/l302.exe)
 NPDir=0 NMtPBC=     1 NCelOv=     1 NCel=       1 NClECP=     1 NCelD=      1
         NCelK=      1 NCelE2=     1 NClLst=     1 CellRange=     0.0.
 One-electron integrals computed using PRISM.
 NBasis=   198 RedAO= T  NBF=   198
 NBsUse=   198 1.00D-06 NBFU=   198
 Precomputing XC quadrature grid using
 IXCGrd= 2 IRadAn=           0 IRanWt=          -1 IRanGd=           0 AccXCQ= 1.00D-10.
 NRdTot=    1317 NPtTot=      167144 NUsed=      176649 NTot=      176681
 NSgBfM=   197   198   198   198   198 NAtAll=    21    21.
 Leave Link  302 at Thu Sep 30 19:09:44 2021, MaxMem=  805306368 cpu:       1.3
 (Enter /sw/target/amd/app/gaussian/Gaussian09RevA.02_gcc-4.9.2/g09/l303.exe)
 DipDrv:  MaxL=1.
 Leave Link  303 at Thu Sep 30 19:09:44 2021, MaxMem=  805306368 cpu:       0.1
 (Enter /sw/target/amd/app/gaussian/Gaussian09RevA.02_gcc-4.9.2/g09/l401.exe)
 Initial guess read from the read-write file.
 B after Tr=     0.000000    0.000000    0.000000
         Rot=    1.000000    0.000000    0.000000    0.000000 Ang=   0.00 deg.
 Guess basis will be translated and rotated to current coordinates.
 Initial guess orbital symmetries:
       Occupied  (A) (A) (A) (A) (A) (A) (A) (A) (A) (A) (A) (A)
                 (A) (A) (A) (A) (A) (A) (A) (A) (A) (A) (A) (A)
                 (A) (A) (A) (A) (A) (A) (A) (A) (A) (A) (A) (A)
                 (A) (A) (A) (A) (A) (A)
       Virtual   (A) (A) (A) (A) (A) (A) (A) (A) (A) (A) (A) (A)
                 (A) (A) (A) (A) (A) (A) (A) (A) (A) (A) (A) (A)
                 (A) (A) (A) (A) (A) (A) (A) (A) (A) (A) (A) (A)
                 (A) (A) (A) (A) (A) (A) (A) (A) (A) (A) (A) (A)
                 (A) (A) (A) (A) (A) (A) (A) (A) (A) (A) (A) (A)
                 (A) (A) (A) (A) (A) (A) (A) (A) (A) (A) (A) (A)
                 (A) (A) (A) (A) (A) (A) (A) (A) (A) (A) (A) (A)
                 (A) (A) (A) (A) (A) (A) (A) (A) (A) (A) (A) (A)
                 (A) (A) (A) (A) (A) (A) (A) (A) (A) (A) (A) (A)
                 (A) (A) (A) (A) (A) (A) (A) (A) (A) (A) (A) (A)
                 (A) (A) (A) (A) (A) (A) (A) (A) (A) (A) (A) (A)
                 (A) (A) (A) (A) (A) (A) (A) (A) (A) (A) (A) (A)
                 (A) (A) (A) (A) (A) (A) (A) (A) (A) (A) (A) (A)
 The electronic state of the initial guess is 1-A.
 Generating alternative initial guess.
 Harris functional with IExCor=  402 diagonalized for initial guess.
 ExpMin= 1.61D-01 ExpMax= 5.48D+03 ExpMxC= 8.25D+02 IAcc=1 IRadAn=         1 AccDes= 0.00D+00
 HarFok:  IExCor=  402 AccDes= 0.00D+00 IRadAn=         1 IDoV= 1
 ScaDFX=  1.000000  1.000000  1.000000  1.000000
 FoFCou: FMM=F IPFlag=           0 FMFlag=      100000 FMFlg1=           0
         NFxFlg=           0 DoJE=T BraDBF=F KetDBF=T FulRan=T
         Omega=  0.000000  0.000000  1.000000  0.000000  0.000000 ICntrl=     500 IOpCl=  0
         NMat0=    1 NMatS0=    1 NMatT0=    0 NMatD0=    1 NMtDS0=    0 NMtDT0=    0
         I1Cent=           4 NGrid=           0.
 Petite list used in FoFCou.
 Harris En= -516.489330578626    
 Leave Link  401 at Thu Sep 30 19:09:54 2021, MaxMem=  805306368 cpu:       6.5
 (Enter /sw/target/amd/app/gaussian/Gaussian09RevA.02_gcc-4.9.2/g09/l502.exe)
 Closed shell SCF:
 Requested convergence on RMS density matrix=1.00D-08 within  64 cycles.
 Requested convergence on MAX density matrix=1.00D-06.
 Requested convergence on             energy=1.00D-06.
 No special actions if energy rises.
 Using DIIS extrapolation, IDIIS=  1040.
 Integral symmetry usage will be decided dynamically.
       176447 words used for storage of precomputed grid.
 Keep R1 ints in memory in canonical form, NReq=198317044.
 IEnd=      302279 IEndB=      302279 NGot=   805306368 MDV=   610973137
 LenX=   610973137 LenY=   610933492
 Symmetry not used in FoFDir.
 MinBra= 0 MaxBra= 2 Meth= 1.
 IRaf=       0 NMat=   1 IRICut=       1 DoRegI=T DoRafI=F ISym2E= 0 JSym2E=0.
 Integral accuracy reduced to 1.0D-05 until final iterations.

 Cycle   1  Pass 0  IDiag  1:
 E= -516.384379165715    
 DIIS: error= 1.05D-02 at cycle   1 NSaved=   1.
 NSaved= 1 IEnMin= 1 EnMin= -516.384379165715     IErMin= 1 ErrMin= 1.05D-02
 ErrMax= 1.05D-02 EMaxC= 1.00D-01 BMatC= 3.70D-02 BMatP= 3.70D-02
 IDIUse=3 WtCom= 8.95D-01 WtEn= 1.05D-01
 Coeff-Com:  0.100D+01
 Coeff-En:   0.100D+01
 Coeff:      0.100D+01
 Recover alternate guess density for next cycle.
 RMSDP=3.49D-03 MaxDP=6.74D-02              OVMax= 0.00D+00

 Cycle   2  Pass 0  IDiag  1:
 E= -516.209562792242     Delta-E=        0.174816373473 Rises=F Damp=F
 Switch densities from cycles 1 and 2 for lowest energy.
 DIIS: error= 4.16D-02 at cycle   2 NSaved=   2.
 NSaved= 2 IEnMin= 1 EnMin= -516.384379165715     IErMin= 1 ErrMin= 1.05D-02
 ErrMax= 4.16D-02 EMaxC= 1.00D+00 BMatC= 2.20D-01 BMatP= 3.70D-02
 IDIUse=1 WtCom= 1.00D+00 WtEn= 0.00D+00
 Coeff-Com:  0.860D+00 0.140D+00
 Coeff:      0.860D+00 0.140D+00
 Gap=     0.157 Goal=   None    Shift=    0.000
 RMSDP=1.52D-03 MaxDP=3.90D-02 DE= 1.75D-01 OVMax= 1.06D-01

 Cycle   3  Pass 0  IDiag  1:
[...]
     5  C   -0.000001   0.000002   0.000363
     6  C    0.000030  -0.000128  -0.010878
     7  C    0.001231   0.004470  -0.052148
     8  C    0.004314   0.000864   0.005011
     9  N   -0.057287   0.004934  -0.000199
    10  C    0.369913  -0.036874   0.005436
    11  C   -0.063574   0.346776  -0.047620
    12  C    0.003220  -0.040973   0.363576
    13  H   -0.000003  -0.000000   0.000000
    14  H    0.000007   0.000000  -0.000000
    15  H   -0.000262  -0.000001   0.000000
    16  H   -0.000000   0.000000  -0.000000
    17  H   -0.000000  -0.000000  -0.000003
    18  H   -0.000000  -0.000016   0.005897
    19  H    0.632959  -0.001908  -0.000210
    20  H   -0.001908   0.615075  -0.006593
    21  H   -0.000210  -0.006593   0.633562
 Mulliken atomic charges:
              1
     1  C   -0.216786
     2  O   -0.454066
     3  C    0.348526
     4  C   -0.162517
     5  C   -0.140508
     6  C   -0.161320
     7  C    0.154256
     8  C    0.231950
     9  N   -0.584145
    10  C    0.017226
    11  C   -0.148062
    12  C   -0.227503
    13  H    0.165170
    14  H    0.177228
    15  H    0.214907
    16  H    0.155995
    17  H    0.143568
    18  H    0.155983
    19  H    0.111788
    20  H    0.114351
    21  H    0.103962
 Sum of Mulliken atomic charges =  -0.00000
 Mulliken charges with hydrogens summed into heavy atoms:
              1
     1  C    0.340519
     2  O   -0.454066
     3  C    0.348526
     4  C   -0.006523
     5  C    0.003060
     6  C   -0.005337
     7  C    0.154256
     8  C    0.231950
     9  N   -0.584145
    10  C    0.129014
    11  C   -0.033711
    12  C   -0.123541
 Sum of Mulliken charges with hydrogens summed into heavy atoms =  -0.00000
 Electronic spatial extent (au):  <R**2>=           1869.9840
 Charge=             -0.0000 electrons
 Dipole moment (field-independent basis, Debye):
    X=             -2.4537    Y=              1.7133    Z=              1.0152  Tot=              3.1602
 Quadrupole moment (field-independent basis, Debye-Ang):
   XX=            -62.9765   YY=            -60.1669   ZZ=            -71.8470
   XY=              3.4733   XZ=             -1.7356   YZ=             -1.1287
 Traceless Quadrupole moment (field-independent basis, Debye-Ang):
   XX=              2.0203   YY=              4.8299   ZZ=             -6.8502
   XY=              3.4733   XZ=             -1.7356   YZ=             -1.1287
 Octapole moment (field-independent basis, Debye-Ang**2):
  XXX=            -21.8938  YYY=              7.5901  ZZZ=             -0.0356  XYY=            -11.8664
  XXY=             -8.9436  XXZ=              5.3802  XZZ=             -9.7839  YZZ=             -4.4822
  YYZ=              2.4664  XYZ=              4.2757
 Hexadecapole moment (field-independent basis, Debye-Ang**3):
 XXXX=          -1287.1047 YYYY=           -964.3238 ZZZZ=            -90.6699 XXXY=             25.3989
 XXXZ=             -6.9573 YYYX=             25.6733 YYYZ=              2.7032 ZZZX=             -0.7529
 ZZZY=             -2.6392 XXYY=           -345.0580 XXZZ=           -256.5749 YYZZ=           -203.9902
 XXYZ=             -6.0947 YYXZ=             -2.2593 ZZXY=              9.9071
 N-N= 6.536590897104D+02 E-N=-2.507108777323D+03  KE= 5.116895278097D+02
 No NMR shielding tensors so no spin-rotation constants.
 Leave Link  601 at Thu Sep 30 23:50:24 2021, MaxMem=  805306368 cpu:       0.7
 (Enter /sw/target/amd/app/gaussian/Gaussian09RevA.02_gcc-4.9.2/g09/l604.exe)
 Evaluate density.
 Using the total density.
 Monte-Carlo method of calculating molar volume:
 based on  0.001 e/bohr**3 density envelope.
 Number of points per bohr**3 =   20 CutOff= 1.00D-04
 Using the CI density.
 There are       379 points.  Will hold       379 in memory.
 LenV=   805190408 MDV=   805306368.
 Box volume = 6813.734 fraction occupied=0.206
 Integrated density= 8.4492824858099311D+01 error= 4.9282485809931131D-01
 Molar volume = 1402.299 bohr**3/mol (125.140 cm**3/mol)
 Recommended a0 for SCRF calculation =  4.54 angstrom (  8.59 bohr)
 Leave Link  604 at Thu Sep 30 23:50:24 2021, MaxMem=  805306368 cpu:       0.2
 (Enter /sw/target/amd/app/gaussian/Gaussian09RevA.02_gcc-4.9.2/g09/l607.exe)
 ******************************Gaussian NBO Version 3.1******************************
             N A T U R A L   A T O M I C   O R B I T A L   A N D
          N A T U R A L   B O N D   O R B I T A L   A N A L Y S I S
 ******************************Gaussian NBO Version 3.1******************************
       /RESON  / : Allow strongly delocalized NBO set

 Analyzing the CI density

 Job title: COc1cccc2c1nccc2_conf_0                                         

 Storage needed:    119154 in NPA ( 805303953 available)


 NATURAL POPULATIONS:  Natural atomic orbital occupancies 
                                                          
   NAO  Atom  No  lang   Type(AO)    Occupancy
 --------------------------------------------
     1    C    1  S      Cor( 1S)     1.99938
     2    C    1  S      Val( 2S)     1.11456
     3    C    1  S      Ryd( 3S)     0.00137
     4    C    1  S      Ryd( 4S)     0.00003
     5    C    1  px     Val( 2p)     1.23243
     6    C    1  px     Ryd( 3p)     0.00204
     7    C    1  py     Val( 2p)     0.84254
     8    C    1  py     Ryd( 3p)     0.00202
     9    C    1  pz     Val( 2p)     1.11166
    10    C    1  pz     Ryd( 3p)     0.00146
    11    C    1  dxy    Ryd( 3d)     0.00111
    12    C    1  dxz    Ryd( 3d)     0.00054
    13    C    1  dyz    Ryd( 3d)     0.00162
    14    C    1  dx2y2  Ryd( 3d)     0.00166
    15    C    1  dz2    Ryd( 3d)     0.00133

    16    O    2  S      Cor( 1S)     1.99974
    17    O    2  S      Val( 2S)     1.59352
    18    O    2  S      Ryd( 3S)     0.00085
    19    O    2  S      Ryd( 4S)     0.00006
    20    O    2  px     Val( 2p)     1.68781
    21    O    2  px     Ryd( 3p)     0.00237
    22    O    2  py     Val( 2p)     1.49035
    23    O    2  py     Ryd( 3p)     0.00144
    24    O    2  pz     Val( 2p)     1.64576
    25    O    2  pz     Ryd( 3p)     0.00198
    26    O    2  dxy    Ryd( 3d)     0.00104
    27    O    2  dxz    Ryd( 3d)     0.00144
    28    O    2  dyz    Ryd( 3d)     0.00074
    29    O    2  dx2y2  Ryd( 3d)     0.00094
    30    O    2  dz2    Ryd( 3d)     0.00102

    31    C    3  S      Cor( 1S)     1.99872
    32    C    3  S      Val( 2S)     0.84470
    33    C    3  S      Ryd( 3S)     0.00157
    34    C    3  S      Ryd( 4S)     0.00017
    35    C    3  px     Val( 2p)     0.89197
    36    C    3  px     Ryd( 3p)     0.00821
    37    C    3  py     Val( 2p)     0.94026
    38    C    3  py     Ryd( 3p)     0.00521
    39    C    3  pz     Val( 2p)     0.92903
    40    C    3  pz     Ryd( 3p)     0.00226
    41    C    3  dxy    Ryd( 3d)     0.00170
    42    C    3  dxz    Ryd( 3d)     0.00126
    43    C    3  dyz    Ryd( 3d)     0.00123
    44    C    3  dx2y2  Ryd( 3d)     0.00168
    45    C    3  dz2    Ryd( 3d)     0.00048

    46    C    4  S      Cor( 1S)     1.99905
    47    C    4  S      Val( 2S)     0.97560
    48    C    4  S      Ryd( 3S)     0.00080
    49    C    4  S      Ryd( 4S)     0.00005
    50    C    4  px     Val( 2p)     1.19595
    51    C    4  px     Ryd( 3p)     0.00506
    52    C    4  py     Val( 2p)     1.06142
    53    C    4  py     Ryd( 3p)     0.00454
    54    C    4  pz     Val( 2p)     0.97445
    55    C    4  pz     Ryd( 3p)     0.00135
    56    C    4  dxy    Ryd( 3d)     0.00052
    57    C    4  dxz    Ryd( 3d)     0.00037
    58    C    4  dyz    Ryd( 3d)     0.00070
    59    C    4  dx2y2  Ryd( 3d)     0.00091
    60    C    4  dz2    Ryd( 3d)     0.00045

    61    C    5  S      Cor( 1S)     1.99913
    62    C    5  S      Val( 2S)     0.96389
    63    C    5  S      Ryd( 3S)     0.00059
    64    C    5  S      Ryd( 4S)     0.00004
    65    C    5  px     Val( 2p)     1.06804
    66    C    5  px     Ryd( 3p)     0.00484
    67    C    5  py     Val( 2p)     1.18840
    68    C    5  py     Ryd( 3p)     0.00518
    69    C    5  pz     Val( 2p)     1.02903
    70    C    5  pz     Ryd( 3p)     0.00121
    71    C    5  dxy    Ryd( 3d)     0.00067
    72    C    5  dxz    Ryd( 3d)     0.00062
    73    C    5  dyz    Ryd( 3d)     0.00036
    74    C    5  dx2y2  Ryd( 3d)     0.00081
    75    C    5  dz2    Ryd( 3d)     0.00043

    76    C    6  S      Cor( 1S)     1.99904
    77    C    6  S      Val( 2S)     0.96410
    78    C    6  S      Ryd( 3S)     0.00057
    79    C    6  S      Ryd( 4S)     0.00006
    80    C    6  px     Val( 2p)     1.13023
    81    C    6  px     Ryd( 3p)     0.00404
    82    C    6  py     Val( 2p)     1.11521
    83    C    6  py     Ryd( 3p)     0.00438
    84    C    6  pz     Val( 2p)     0.88494
    85    C    6  pz     Ryd( 3p)     0.00138
    86    C    6  dxy    Ryd( 3d)     0.00092
    87    C    6  dxz    Ryd( 3d)     0.00059
    88    C    6  dyz    Ryd( 3d)     0.00048
    89    C    6  dx2y2  Ryd( 3d)     0.00068
    90    C    6  dz2    Ryd( 3d)     0.00041

    91    C    7  S      Cor( 1S)     1.99902
    92    C    7  S      Val( 2S)     0.88160
    93    C    7  S      Ryd( 3S)     0.00082
    94    C    7  S      Ryd( 4S)     0.00006
    95    C    7  px     Val( 2p)     1.11006
    96    C    7  px     Ryd( 3p)     0.00549
    97    C    7  py     Val( 2p)     1.08100
    98    C    7  py     Ryd( 3p)     0.00477
    99    C    7  pz     Val( 2p)     1.00285
   100    C    7  pz     Ryd( 3p)     0.00066
   101    C    7  dxy    Ryd( 3d)     0.00076
   102    C    7  dxz    Ryd( 3d)     0.00109
   103    C    7  dyz    Ryd( 3d)     0.00041
   104    C    7  dx2y2  Ryd( 3d)     0.00063
   105    C    7  dz2    Ryd( 3d)     0.00034

   106    C    8  S      Cor( 1S)     1.99897
   107    C    8  S      Val( 2S)     0.84216
   108    C    8  S      Ryd( 3S)     0.00179
   109    C    8  S      Ryd( 4S)     0.00012
   110    C    8  px     Val( 2p)     1.04969
   111    C    8  px     Ryd( 3p)     0.00540
   112    C    8  py     Val( 2p)     0.96457
   113    C    8  py     Ryd( 3p)     0.00842
   114    C    8  pz     Val( 2p)     0.98551
   115    C    8  pz     Ryd( 3p)     0.00059
   116    C    8  dxy    Ryd( 3d)     0.00116
   117    C    8  dxz    Ryd( 3d)     0.00041
   118    C    8  dyz    Ryd( 3d)     0.00157
   119    C    8  dx2y2  Ryd( 3d)     0.00103
   120    C    8  dz2    Ryd( 3d)     0.00030

   121    N    9  S      Cor( 1S)     1.99937
   122    N    9  S      Val( 2S)     1.34335
   123    N    9  S      Ryd( 3S)     0.00112
   124    N    9  S      Ryd( 4S)     0.00003
   125    N    9  px     Val( 2p)     1.48222
   126    N    9  px     Ryd( 3p)     0.00534
   127    N    9  py     Val( 2p)     1.39368
   128    N    9  py     Ryd( 3p)     0.00522
   129    N    9  pz     Val( 2p)     1.33921
   130    N    9  pz     Ryd( 3p)     0.00357
   131    N    9  dxy    Ryd( 3d)     0.00211
   132    N    9  dxz    Ryd( 3d)     0.00161
   133    N    9  dyz    Ryd( 3d)     0.00123
   134    N    9  dx2y2  Ryd( 3d)     0.00270
   135    N    9  dz2    Ryd( 3d)     0.00190

   136    C   10  S      Cor( 1S)     1.99925
   137    C   10  S      Val( 2S)     0.92210
   138    C   10  S      Ryd( 3S)     0.00163
   139    C   10  S      Ryd( 4S)     0.00008
   140    C   10  px     Val( 2p)     0.91780
   141    C   10  px     Ryd( 3p)     0.01075
   142    C   10  py     Val( 2p)     1.15493
   143    C   10  py     Ryd( 3p)     0.00532
   144    C   10  pz     Val( 2p)     0.98392
   145    C   10  pz     Ryd( 3p)     0.00302
   146    C   10  dxy    Ryd( 3d)     0.00112
   147    C   10  dxz    Ryd( 3d)     0.00138
   148    C   10  dyz    Ryd( 3d)     0.00030
   149    C   10  dx2y2  Ryd( 3d)     0.00137
   150    C   10  dz2    Ryd( 3d)     0.00037

   151    C   11  S      Cor( 1S)     1.99908
   152    C   11  S      Val( 2S)     0.97072
   153    C   11  S      Ryd( 3S)     0.00065
   154    C   11  S      Ryd( 4S)     0.00004
   155    C   11  px     Val( 2p)     1.18116
   156    C   11  px     Ryd( 3p)     0.00453
   157    C   11  py     Val( 2p)     1.08509
   158    C   11  py     Ryd( 3p)     0.00430
   159    C   11  pz     Val( 2p)     1.01789
   160    C   11  pz     Ryd( 3p)     0.00216
   161    C   11  dxy    Ryd( 3d)     0.00071
   162    C   11  dxz    Ryd( 3d)     0.00035
   163    C   11  dyz    Ryd( 3d)     0.00091
   164    C   11  dx2y2  Ryd( 3d)     0.00074
   165    C   11  dz2    Ryd( 3d)     0.00046

   166    C   12  S      Cor( 1S)     1.99906
   167    C   12  S      Val( 2S)     0.93406
   168    C   12  S      Ryd( 3S)     0.00078
   169    C   12  S      Ryd( 4S)     0.00005
   170    C   12  px     Val( 2p)     1.09730
   171    C   12  px     Ryd( 3p)     0.00448
   172    C   12  py     Val( 2p)     1.12963
   173    C   12  py     Ryd( 3p)     0.00465
   174    C   12  pz     Val( 2p)     1.14909
   175    C   12  pz     Ryd( 3p)     0.00544
   176    C   12  dxy    Ryd( 3d)     0.00078
   177    C   12  dxz    Ryd( 3d)     0.00026
   178    C   12  dyz    Ryd( 3d)     0.00045
   179    C   12  dx2y2  Ryd( 3d)     0.00060
   180    C   12  dz2    Ryd( 3d)     0.00042

   181    H   13  S      Val( 1S)     0.77882
   182    H   13  S      Ryd( 2S)     0.00095

   183    H   14  S      Val( 1S)     0.77450
   184    H   14  S      Ryd( 2S)     0.00109

   185    H   15  S      Val( 1S)     0.74452
   186    H   15  S      Ryd( 2S)     0.00131

   187    H   16  S      Val( 1S)     0.74808
   188    H   16  S      Ryd( 2S)     0.00129

   189    H   17  S      Val( 1S)     0.75498
   190    H   17  S      Ryd( 2S)     0.00078

   191    H   18  S      Val( 1S)     0.75843
   192    H   18  S      Ryd( 2S)     0.00114

   193    H   19  S      Val( 1S)     0.79007
   194    H   19  S      Ryd( 2S)     0.00108

   195    H   20  S      Val( 1S)     0.76780
   196    H   20  S      Ryd( 2S)     0.00094

   197    H   21  S      Val( 1S)     0.77742
   198    H   21  S      Ryd( 2S)     0.00096

 WARNING:  1 low occupancy (<1.9990e) core orbital  found on  C    3
           1 low occupancy (<1.9990e) core orbital  found on  C    8


 Summary of Natural Population Analysis:                  
                                                          
                                       Natural Population 
                Natural  -----------------------------------------------
    Atom  No    Charge         Core      Valence    Rydberg      Total
 -----------------------------------------------------------------------
      C    1   -0.31377      1.99938     4.30120    0.01320     6.31377
      O    2   -0.42905      1.99974     6.41744    0.01187     8.42905
      C    3    0.37155      1.99872     3.60596    0.02377     5.62845
      C    4   -0.22123      1.99905     4.20743    0.01475     6.22123
      C    5   -0.26323      1.99913     4.24936    0.01474     6.26323
      C    6   -0.10702      1.99904     4.09447    0.01351     6.10702
      C    7   -0.08956      1.99902     4.07551    0.01503     6.08956
      C    8    0.13829      1.99897     3.84193    0.02080     5.86171
      N    9   -0.58266      1.99937     5.55846    0.02483     7.58266
      C   10   -0.00334      1.99925     3.97875    0.02535     6.00334
      C   11   -0.26879      1.99908     4.25487    0.01484     6.26879
      C   12   -0.32706      1.99906     4.31007    0.01792     6.32706
      H   13    0.22024      0.00000     0.77882    0.00095     0.77976
      H   14    0.22441      0.00000     0.77450    0.00109     0.77559
      H   15    0.25418      0.00000     0.74452    0.00131     0.74582
      H   16    0.25063      0.00000     0.74808    0.00129     0.74937
      H   17    0.24424      0.00000     0.75498    0.00078     0.75576
      H   18    0.24043      0.00000     0.75843    0.00114     0.75957
      H   19    0.20885      0.00000     0.79007    0.00108     0.79115
      H   20    0.23127      0.00000     0.76780    0.00094     0.76873
      H   21    0.22162      0.00000     0.77742    0.00096     0.77838
 =======================================================================
   * Total *   -0.00000     23.98980    59.79006    0.22014    84.00000

                                 Natural Population      
 --------------------------------------------------------
   Core                      23.98980 ( 99.9575% of  24)
   Valence                   59.79006 ( 99.6501% of  60)
   Natural Minimal Basis     83.77986 ( 99.7379% of  84)
   Natural Rydberg Basis      0.22014 (  0.2621% of  84)
 --------------------------------------------------------

    Atom  No          Natural Electron Configuration
 ----------------------------------------------------------------------------
      C    1      [core]2S( 1.11)2p( 3.19)3p( 0.01)3d( 0.01)
      O    2      [core]2S( 1.59)2p( 4.82)3p( 0.01)3d( 0.01)
      C    3      [core]2S( 0.84)2p( 2.76)3p( 0.02)3d( 0.01)
      C    4      [core]2S( 0.98)2p( 3.23)3p( 0.01)
      C    5      [core]2S( 0.96)2p( 3.29)3p( 0.01)
      C    6      [core]2S( 0.96)2p( 3.13)3p( 0.01)
      C    7      [core]2S( 0.88)2p( 3.19)3p( 0.01)
      C    8      [core]2S( 0.84)2p( 3.00)3p( 0.01)
      N    9      [core]2S( 1.34)2p( 4.22)3p( 0.01)3d( 0.01)
      C   10      [core]2S( 0.92)2p( 3.06)3p( 0.02)
      C   11      [core]2S( 0.97)2p( 3.28)3p( 0.01)
      C   12      [core]2S( 0.93)2p( 3.38)3p( 0.01)
      H   13            1S( 0.78)
      H   14            1S( 0.77)
      H   15            1S( 0.74)
      H   16            1S( 0.75)
      H   17            1S( 0.75)
      H   18            1S( 0.76)
      H   19            1S( 0.79)
      H   20            1S( 0.77)
      H   21            1S( 0.78)


 NBO analysis skipped by request.
 Leave Link  607 at Thu Sep 30 23:50:42 2021, MaxMem=  805306368 cpu:      10.0
 (Enter /sw/target/amd/app/gaussian/Gaussian09RevA.02_gcc-4.9.2/g09/l9999.exe)
 1\1\GINC-HERMITE\SP\RTD-B3LYP-FC\6-31G(d)\C10H9N1O1\JSCHLEINITZ\30-Sep
 -2021\0\\#p TD(NStates=10, Root=1) b3lyp/6-31G* volume pop=NPA density
 =current Geom=AllCheck Guess=Read\\COc1cccc2c1nccc2_conf_0\\0,1\C,0,3.
 1719542803,-1.0984216667,0.2436486139\O,0,2.5002203606,0.1098153416,-0
 .1302408488\C,0,3.1942002267,1.1778741637,-0.608740138\C,0,2.748194600
 4,2.4242795008,-0.2001907314\C,0,3.3476292872,3.610692108,-0.669533873
 8\C,0,4.4082444312,3.5630050638,-1.5465540423\C,0,4.8886927666,2.30903
 4941,-1.9979879185\C,0,4.2803685742,1.0895023477,-1.5435812414\N,0,4.6
 873320383,-0.1328091902,-1.9908456352\C,0,5.6791623517,-0.1870873095,-
 2.855868534\C,0,6.3588332553,0.9505168095,-3.3547460166\C,0,5.95910133
 89,2.1916174429,-2.9224458428\H,0,2.4896480198,-1.6027727089,0.9334323
 24\H,0,4.1150134358,-0.8818129259,0.758179844\H,0,3.3766450627,-1.7270
 692477,-0.6231198105\H,0,1.9189312993,2.4611176828,0.4990882494\H,0,2.
 9683760075,4.5675866895,-0.3212807321\H,0,4.8796077489,4.4732694682,-1
 .9078275582\H,0,5.9728318663,-1.1816630999,-3.1910431232\H,0,7.1722479
 125,0.8305845361,-4.0640929678\H,0,6.4463853531,3.0950685559,-3.282191
 9776\\Version=AM64L-G09RevA.02\State=1-A\HF=-516.4474731\RMSD=8.130e-0
 9\Dipole=-0.5387724,0.4452385,1.0282502\Quadrupole=-3.2238729,4.546671
 2,-1.3227983,0.2751516,-2.7837057,-2.3129763\PG=C01 [X(C10H9N1O1)]\\@


 SATCHEL PAIGE'S GUIDE TO LONGEVITY

    1.  AVOID FRIED MEATS, WHICH ANGRY UP THE BLOOD.

    2.  IF YOUR STOMACH DISPUTES YOU, LIE DOWN AND PACIFY IT WITH COOL
        THOUGHTS.

    3.  KEEP THE JUICES FLOWING BY JANGLING AROUND GENTLY AS YOU MOVE.

    4.  GO VERY LIGHT ON THE VICES, SUCH AS CARRYING ON IN SOCIETY.
        THE SOCIAL RUMBLE AIN'T RESTFUL.

    5.  AVOID RUNNING AT ALL TIMES.

    6.  DON'T LOOK BACK.  SOMETHING MAY BE GAINING ON YOU.
 Job cpu time:  0 days  1 hours 36 minutes 52.1 seconds.
 File lengths (MBytes):  RWF=    131 Int=      0 D2E=      0 Chk=     18 Scr=      1
 Normal termination of Gaussian 09 at Thu Sep 30 23:50:45 2021.
