 Entering Gaussian System, Link 0=g09
 Input=C10H15OP_9a1c_conf_0.com
 Output=C10H15OP_9a1c_conf_0.log
 Initial command:
 /sw/target/amd/app/gaussian/Gaussian09RevA.02_gcc-4.9.2/g09/l1.exe /home/jschleinitz/gaussian/Gau-3052.inp -scrdir=/home/jschleinitz/gaussian/
 Entering Link 1 = /sw/target/amd/app/gaussian/Gaussian09RevA.02_gcc-4.9.2/g09/l1.exe PID=      3084.
  
 Copyright (c) 1988,1990,1992,1993,1995,1998,2003,2009, Gaussian, Inc.
                  All Rights Reserved.
  
 This is part of the Gaussian(R) 09 program.  It is based on
 the Gaussian(R) 03 system (copyright 2003, Gaussian, Inc.),
 the Gaussian(R) 98 system (copyright 1998, Gaussian, Inc.),
 the Gaussian(R) 94 system (copyright 1995, Gaussian, Inc.),
 the Gaussian 92(TM) system (copyright 1992, Gaussian, Inc.),
 the Gaussian 90(TM) system (copyright 1990, Gaussian, Inc.),
 the Gaussian 88(TM) system (copyright 1988, Gaussian, Inc.),
 the Gaussian 86(TM) system (copyright 1986, Carnegie Mellon
 University), and the Gaussian 82(TM) system (copyright 1983,
 Carnegie Mellon University). Gaussian is a federally registered
 trademark of Gaussian, Inc.
  
 This software contains proprietary and confidential information,
 including trade secrets, belonging to Gaussian, Inc.
  
 This software is provided under written license and may be
 used, copied, transmitted, or stored only in accord with that
 written license.
  
 The following legend is applicable only to US Government
 contracts under FAR:
  
                    RESTRICTED RIGHTS LEGEND
  
 Use, reproduction and disclosure by the US Government is
 subject to restrictions as set forth in subparagraphs (a)
 and (c) of the Commercial Computer Software - Restricted
 Rights clause in FAR 52.227-19.
  
 Gaussian, Inc.
 340 Quinnipiac St., Bldg. 40, Wallingford CT 06492
  
  
 ---------------------------------------------------------------
 Warning -- This program may not be used in any manner that
 competes with the business of Gaussian, Inc. or will provide
 assistance to any competitor of Gaussian, Inc.  The licensee
 of this program is prohibited from giving any competitor of
 Gaussian, Inc. access to this program.  By using this program,
 the user acknowledges that Gaussian, Inc. is engaged in the
 business of creating and licensing software in the field of
 computational chemistry and represents and warrants to the
 licensee that it is not a competitor of Gaussian, Inc. and that
 it will not use this program in any manner prohibited above.
 ---------------------------------------------------------------
  

 Cite this work as:
 Gaussian 09, Revision A.02,
 M. J. Frisch, G. W. Trucks, H. B. Schlegel, G. E. Scuseria, 
 M. A. Robb, J. R. Cheeseman, G. Scalmani, V. Barone, B. Mennucci, 
 G. A. Petersson, H. Nakatsuji, M. Caricato, X. Li, H. P. Hratchian, 
 A. F. Izmaylov, J. Bloino, G. Zheng, J. L. Sonnenberg, M. Hada, 
 M. Ehara, K. Toyota, R. Fukuda, J. Hasegawa, M. Ishida, T. Nakajima, 
 Y. Honda, O. Kitao, H. Nakai, T. Vreven, J. A. Montgomery, Jr., 
 J. E. Peralta, F. Ogliaro, M. Bearpark, J. J. Heyd, E. Brothers, 
 K. N. Kudin, V. N. Staroverov, R. Kobayashi, J. Normand, 
 K. Raghavachari, A. Rendell, J. C. Burant, S. S. Iyengar, J. Tomasi, 
 M. Cossi, N. Rega, J. M. Millam, M. Klene, J. E. Knox, J. B. Cross, 
 V. Bakken, C. Adamo, J. Jaramillo, R. Gomperts, R. E. Stratmann, 
 O. Yazyev, A. J. Austin, R. Cammi, C. Pomelli, J. W. Ochterski, 
 R. L. Martin, K. Morokuma, V. G. Zakrzewski, G. A. Voth, 
 P. Salvador, J. J. Dannenberg, S. Dapprich, A. D. Daniels, 
 O. Farkas, J. B. Foresman, J. V. Ortiz, J. Cioslowski, 
 and D. J. Fox, Gaussian, Inc., Wallingford CT, 2009.
 
 ******************************************
 Gaussian 09:  AM64L-G09RevA.02 11-Jun-2009
                 5-Oct-2021 
 ******************************************
 %nproc=4
 Will use up to    4 processors via shared memory.
 %mem=8gb
 %chk=C10H15OP_9a1c_conf_0.chk
 -----------------------------------
 #p opt b3lyp/6-31G* scf=(xqc,tight)
 -----------------------------------
 1/14=-1,18=20,19=15,26=3,38=1/1,3;
 2/9=110,12=2,17=6,18=5,40=1/2;
 3/5=1,6=6,7=1,11=2,16=1,25=1,30=1,71=1,74=-5/1,2,3;
 4//1;
 5/5=2,8=3,13=1,32=2,38=5/2,8;
 6/7=2,8=2,9=2,10=2,28=1/1;
 7//1,2,3,16;
 1/14=-1,18=20,19=15/3(2);
 2/9=110/2;
 99//99;
 2/9=110/2;
 3/5=1,6=6,7=1,11=2,16=1,25=1,30=1,71=1,74=-5/1,2,3;
 4/5=5,16=3/1;
 5/5=2,8=3,13=1,32=2,38=5/2,8;
 7//1,2,3,16;
 1/14=-1,18=20,19=15/3(-5);
 2/9=110/2;
 6/7=2,8=2,9=2,10=2,19=2,28=1/1;
 99/9=1/99;
 Leave Link    1 at Tue Oct  5 16:43:30 2021, MaxMem= 1073741824 cpu:       0.1
 (Enter /sw/target/amd/app/gaussian/Gaussian09RevA.02_gcc-4.9.2/g09/l101.exe)
 ----------------------------
 CC(P(=O)c1ccccc1)(C)C_conf_0
 ----------------------------
 Symbolic Z-matrix:
 Charge =  0 Multiplicity = 1
 C                     2.70005  -1.04483  -0.96972 
 C                     2.5044    0.06993   0.06976 
 P                     3.11441   1.6995   -0.49708 
 O                     2.12354   1.64934  -1.67908 
 C                     3.72441   3.32907  -1.06392 
 C                     3.40054   4.4861   -0.3461 
 C                     3.88675   5.72604  -0.76626 
 C                     4.69658   5.81408  -1.89872 
 C                     5.02311   4.66403  -2.61646 
 C                     4.54029   3.42403  -2.20013 
 C                     1.02407   0.13889   0.48669 
 C                     3.32414  -0.30144   1.32443 
 H                     2.07285  -0.88641  -1.85293 
 H                     2.4431   -2.02611  -0.55514 
 H                     3.74045  -1.07987  -1.30967 
 H                     4.41089   1.18222  -0.71011 
 H                     2.76123   4.42662   0.53015 
 H                     3.62742   6.62656  -0.21535 
 H                     5.0652    6.78169  -2.22923 
 H                     5.64385   4.73433  -3.50555 
 H                     4.77781   2.52947  -2.77072 
 H                     0.37444   0.3471   -0.36959 
 H                     0.86721   0.94176   1.21555 
 H                     0.68902  -0.80197   0.93669 
 H                     4.38885  -0.38796   1.08144 
 H                     2.99503  -1.25198   1.75791 
 H                     3.2296    0.47536   2.09141 
 
 NAtoms=     27 NQM=     27 NQMF=      0 NMic=      0 NMicF=      0 NTot=     27.
                    Isotopes and Nuclear Properties:
 (Nuclear quadrupole moments (NQMom) in fm**2, nuclear magnetic moments (NMagM)
  in nuclear magnetons)

  Atom         1           2           3           4           5           6           7           8           9          10
 IAtWgt=          12          12          31          16          12          12          12          12          12          12
 AtmWgt=  12.0000000  12.0000000  30.9737634  15.9949146  12.0000000  12.0000000  12.0000000  12.0000000  12.0000000  12.0000000
 NucSpn=           0           0           1           0           0           0           0           0           0           0
 AtZEff=   0.0000000   0.0000000   0.0000000   0.0000000   0.0000000   0.0000000   0.0000000   0.0000000   0.0000000   0.0000000
 NQMom=    0.0000000   0.0000000   0.0000000   0.0000000   0.0000000   0.0000000   0.0000000   0.0000000   0.0000000   0.0000000
 NMagM=    0.0000000   0.0000000   1.1316000   0.0000000   0.0000000   0.0000000   0.0000000   0.0000000   0.0000000   0.0000000

  Atom        11          12          13          14          15          16          17          18          19          20
 IAtWgt=          12          12           1           1           1           1           1           1           1           1
 AtmWgt=  12.0000000  12.0000000   1.0078250   1.0078250   1.0078250   1.0078250   1.0078250   1.0078250   1.0078250   1.0078250
 NucSpn=           0           0           1           1           1           1           1           1           1           1
 AtZEff=   0.0000000   0.0000000   0.0000000   0.0000000   0.0000000   0.0000000   0.0000000   0.0000000   0.0000000   0.0000000
 NQMom=    0.0000000   0.0000000   0.0000000   0.0000000   0.0000000   0.0000000   0.0000000   0.0000000   0.0000000   0.0000000
 NMagM=    0.0000000   0.0000000   2.7928460   2.7928460   2.7928460   2.7928460   2.7928460   2.7928460   2.7928460   2.7928460

  Atom        21          22          23          24          25          26          27
 IAtWgt=           1           1           1           1           1           1           1
 AtmWgt=   1.0078250   1.0078250   1.0078250   1.0078250   1.0078250   1.0078250   1.0078250
 NucSpn=           1           1           1           1           1           1           1
 AtZEff=   0.0000000   0.0000000   0.0000000   0.0000000   0.0000000   0.0000000   0.0000000
 NQMom=    0.0000000   0.0000000   0.0000000   0.0000000   0.0000000   0.0000000   0.0000000
 NMagM=    2.7928460   2.7928460   2.7928460   2.7928460   2.7928460   2.7928460   2.7928460
 Leave Link  101 at Tue Oct  5 16:43:30 2021, MaxMem= 1073741824 cpu:       0.1
 (Enter /sw/target/amd/app/gaussian/Gaussian09RevA.02_gcc-4.9.2/g09/l103.exe)

 GradGradGradGradGradGradGradGradGradGradGradGradGradGradGradGradGradGrad
 Berny optimization.
 Initialization pass.
                           ----------------------------
                           !    Initial Parameters    !
                           ! (Angstroms and Degrees)  !
 --------------------------                            --------------------------
 ! Name  Definition              Value          Derivative Info.                !
 --------------------------------------------------------------------------------
 ! R1    R(1,2)                  1.5367         estimate D2E/DX2                !
 ! R2    R(1,13)                 1.0948         estimate D2E/DX2                !
 ! R3    R(1,14)                 1.0958         estimate D2E/DX2                !
 ! R4    R(1,15)                 1.0951         estimate D2E/DX2                !
 ! R5    R(2,3)                  1.83           estimate D2E/DX2                !
 ! R6    R(2,11)                 1.5395         estimate D2E/DX2                !
 ! R7    R(2,12)                 1.544          estimate D2E/DX2                !
 ! R8    R(3,4)                  1.5432         estimate D2E/DX2                !
 ! R9    R(3,5)                  1.83           estimate D2E/DX2                !
 ! R10   R(3,16)                 1.412          estimate D2E/DX2                !
 ! R11   R(5,6)                  1.3996         estimate D2E/DX2                !
 ! R12   R(5,10)                 1.402          estimate D2E/DX2                !
 ! R13   R(6,7)                  1.3966         estimate D2E/DX2                !
 ! R14   R(6,17)                 1.0863         estimate D2E/DX2                !
 ! R15   R(7,8)                  1.395          estimate D2E/DX2                !
 ! R16   R(7,18)                 1.0871         estimate D2E/DX2                !
 ! R17   R(8,9)                  1.3944         estimate D2E/DX2                !
 ! R18   R(8,19)                 1.0869         estimate D2E/DX2                !
 ! R19   R(9,10)                 1.3943         estimate D2E/DX2                !
 ! R20   R(9,20)                 1.0866         estimate D2E/DX2                !
 ! R21   R(10,21)                1.0873         estimate D2E/DX2                !
 ! R22   R(11,22)                1.0948         estimate D2E/DX2                !
 ! R23   R(11,23)                1.0956         estimate D2E/DX2                !
 ! R24   R(11,24)                1.0954         estimate D2E/DX2                !
 ! R25   R(12,25)                1.0955         estimate D2E/DX2                !
 ! R26   R(12,26)                1.0953         estimate D2E/DX2                !
 ! R27   R(12,27)                1.0957         estimate D2E/DX2                !
 ! A1    A(2,1,13)             111.5798         estimate D2E/DX2                !
 ! A2    A(2,1,14)             111.3362         estimate D2E/DX2                !
 ! A3    A(2,1,15)             110.7412         estimate D2E/DX2                !
 ! A4    A(13,1,14)            107.4856         estimate D2E/DX2                !
 ! A5    A(13,1,15)            107.366          estimate D2E/DX2                !
 ! A6    A(14,1,15)            108.1536         estimate D2E/DX2                !
 ! A7    A(1,2,3)              113.2042         estimate D2E/DX2                !
 ! A8    A(1,2,11)             109.7619         estimate D2E/DX2                !
 ! A9    A(1,2,12)             107.9139         estimate D2E/DX2                !
 ! A10   A(3,2,11)             111.3787         estimate D2E/DX2                !
 ! A11   A(3,2,12)             106.7924         estimate D2E/DX2                !
 ! A12   A(11,2,12)            107.5302         estimate D2E/DX2                !
 ! A13   A(2,3,4)               89.6719         estimate D2E/DX2                !
 ! A14   A(2,3,16)              91.5227         estimate D2E/DX2                !
 ! A15   A(4,3,5)               90.3281         estimate D2E/DX2                !
 ! A16   A(4,3,16)             117.5217         estimate D2E/DX2                !
 ! A17   A(5,3,16)              88.4773         estimate D2E/DX2                !
 ! A18   A(3,5,6)              120.0097         estimate D2E/DX2                !
 ! A19   A(3,5,10)             120.3524         estimate D2E/DX2                !
 ! A20   A(6,5,10)             119.624          estimate D2E/DX2                !
 ! A21   A(5,6,7)              119.9413         estimate D2E/DX2                !
 ! A22   A(5,6,17)             120.3063         estimate D2E/DX2                !
 ! A23   A(7,6,17)             119.7475         estimate D2E/DX2                !
 ! A24   A(6,7,8)              120.1573         estimate D2E/DX2                !
 ! A25   A(6,7,18)             119.998          estimate D2E/DX2                !
 ! A26   A(8,7,18)             119.8427         estimate D2E/DX2                !
 ! A27   A(7,8,9)              120.1151         estimate D2E/DX2                !
 ! A28   A(7,8,19)             119.9948         estimate D2E/DX2                !
 ! A29   A(9,8,19)             119.8867         estimate D2E/DX2                !
 ! A30   A(8,9,10)             119.9144         estimate D2E/DX2                !
 ! A31   A(8,9,20)             120.1038         estimate D2E/DX2                !
 ! A32   A(10,9,20)            119.9782         estimate D2E/DX2                !
 ! A33   A(5,10,9)             120.2475         estimate D2E/DX2                !
 ! A34   A(5,10,21)            119.7808         estimate D2E/DX2                !
 ! A35   A(9,10,21)            119.9569         estimate D2E/DX2                !
 ! A36   A(2,11,22)            111.5478         estimate D2E/DX2                !
 ! A37   A(2,11,23)            110.5273         estimate D2E/DX2                !
 ! A38   A(2,11,24)            111.5236         estimate D2E/DX2                !
 ! A39   A(22,11,23)           107.217          estimate D2E/DX2                !
 ! A40   A(22,11,24)           107.6473         estimate D2E/DX2                !
 ! A41   A(23,11,24)           108.1991         estimate D2E/DX2                !
 ! A42   A(2,12,25)            110.7775         estimate D2E/DX2                !
 ! A43   A(2,12,26)            111.7647         estimate D2E/DX2                !
 ! A44   A(2,12,27)            110.639          estimate D2E/DX2                !
 ! A45   A(25,12,26)           108.1349         estimate D2E/DX2                !
 ! A46   A(25,12,27)           107.1632         estimate D2E/DX2                !
 ! A47   A(26,12,27)           108.1966         estimate D2E/DX2                !
 ! D1    D(13,1,2,3)           -67.0913         estimate D2E/DX2                !
 ! D2    D(13,1,2,11)           58.0398         estimate D2E/DX2                !
 ! D3    D(13,1,2,12)          174.9442         estimate D2E/DX2                !
 ! D4    D(14,1,2,3)           172.8171         estimate D2E/DX2                !
 ! D5    D(14,1,2,11)          -62.0518         estimate D2E/DX2                !
 ! D6    D(14,1,2,12)           54.8526         estimate D2E/DX2                !
 ! D7    D(15,1,2,3)            52.4464         estimate D2E/DX2                !
 ! D8    D(15,1,2,11)          177.5775         estimate D2E/DX2                !
 ! D9    D(15,1,2,12)          -65.5181         estimate D2E/DX2                !
 ! D10   D(1,2,3,4)             60.1341         estimate D2E/DX2                !
 ! D11   D(1,2,3,16)           -57.3888         estimate D2E/DX2                !
 ! D12   D(11,2,3,4)           -64.1205         estimate D2E/DX2                !
 ! D13   D(11,2,3,16)          178.3567         estimate D2E/DX2                !
 ! D14   D(12,2,3,4)           178.7498         estimate D2E/DX2                !
 ! D15   D(12,2,3,16)           61.2269         estimate D2E/DX2                !
 ! D16   D(1,2,5,6)            168.1809         estimate D2E/DX2                !
 ! D17   D(1,2,5,10)           -13.1799         estimate D2E/DX2                !
 ! D18   D(11,2,5,6)            43.9263         estimate D2E/DX2                !
 ! D19   D(11,2,5,10)         -137.4345         estimate D2E/DX2                !
 ! D20   D(12,2,5,6)           -73.2034         estimate D2E/DX2                !
 ! D21   D(12,2,5,10)          105.4358         estimate D2E/DX2                !
 ! D22   D(1,2,11,22)          -59.8439         estimate D2E/DX2                !
 ! D23   D(1,2,11,23)         -179.0307         estimate D2E/DX2                !
 ! D24   D(1,2,11,24)           60.5606         estimate D2E/DX2                !
 ! D25   D(3,2,11,22)           66.3306         estimate D2E/DX2                !
 ! D26   D(3,2,11,23)          -52.8563         estimate D2E/DX2                !
 ! D27   D(3,2,11,24)         -173.2649         estimate D2E/DX2                !
 ! D28   D(12,2,11,22)        -176.9887         estimate D2E/DX2                !
 ! D29   D(12,2,11,23)          63.8245         estimate D2E/DX2                !
 ! D30   D(12,2,11,24)         -56.5842         estimate D2E/DX2                !
 ! D31   D(1,2,12,25)           60.3449         estimate D2E/DX2                !
 ! D32   D(1,2,12,26)          -60.3152         estimate D2E/DX2                !
 ! D33   D(1,2,12,27)          179.0417         estimate D2E/DX2                !
 ! D34   D(3,2,12,25)          -61.6659         estimate D2E/DX2                !
 ! D35   D(3,2,12,26)          177.674          estimate D2E/DX2                !
 ! D36   D(3,2,12,27)           57.0309         estimate D2E/DX2                !
 ! D37   D(11,2,12,25)         178.6884         estimate D2E/DX2                !
 ! D38   D(11,2,12,26)          58.0283         estimate D2E/DX2                !
 ! D39   D(11,2,12,27)         -62.6148         estimate D2E/DX2                !
 ! D40   D(4,3,5,6)            108.0467         estimate D2E/DX2                !
 ! D41   D(4,3,5,10)           -73.314          estimate D2E/DX2                !
 ! D42   D(16,3,5,6)          -134.4304         estimate D2E/DX2                !
 ! D43   D(16,3,5,10)           44.2089         estimate D2E/DX2                !
 ! D44   D(3,5,6,7)            178.8465         estimate D2E/DX2                !
 ! D45   D(3,5,6,17)            -1.958          estimate D2E/DX2                !
 ! D46   D(10,5,6,7)             0.1973         estimate D2E/DX2                !
 ! D47   D(10,5,6,17)          179.3928         estimate D2E/DX2                !
 ! D48   D(3,5,10,9)          -178.87           estimate D2E/DX2                !
 ! D49   D(3,5,10,21)            2.5312         estimate D2E/DX2                !
 ! D50   D(6,5,10,9)            -0.2255         estimate D2E/DX2                !
 ! D51   D(6,5,10,21)         -178.8243         estimate D2E/DX2                !
 ! D52   D(5,6,7,8)             -0.1085         estimate D2E/DX2                !
 ! D53   D(5,6,7,18)           179.3718         estimate D2E/DX2                !
 ! D54   D(17,6,7,8)          -179.3085         estimate D2E/DX2                !
 ! D55   D(17,6,7,18)            0.1718         estimate D2E/DX2                !
 ! D56   D(6,7,8,9)              0.0459         estimate D2E/DX2                !
 ! D57   D(6,7,8,19)           179.3751         estimate D2E/DX2                !
 ! D58   D(18,7,8,9)          -179.4352         estimate D2E/DX2                !
 ! D59   D(18,7,8,19)           -0.1061         estimate D2E/DX2                !
 ! D60   D(7,8,9,10)            -0.0733         estimate D2E/DX2                !
 ! D61   D(7,8,9,20)           179.2465         estimate D2E/DX2                !
 ! D62   D(19,8,9,10)         -179.4032         estimate D2E/DX2                !
 ! D63   D(19,8,9,20)           -0.0834         estimate D2E/DX2                !
 ! D64   D(8,9,10,5)             0.1636         estimate D2E/DX2                !
 ! D65   D(8,9,10,21)          178.76           estimate D2E/DX2                !
 ! D66   D(20,9,10,5)         -179.157          estimate D2E/DX2                !
 ! D67   D(20,9,10,21)          -0.5607         estimate D2E/DX2                !
 --------------------------------------------------------------------------------
 Trust Radius=3.00D-01 FncErr=1.00D-07 GrdErr=1.00D-06
 Number of steps in this run= 151 maximum allowed number of steps= 162.
 GradGradGradGradGradGradGradGradGradGradGradGradGradGradGradGradGradGrad

 Leave Link  103 at Tue Oct  5 16:43:30 2021, MaxMem= 1073741824 cpu:       0.0
 (Enter /sw/target/amd/app/gaussian/Gaussian09RevA.02_gcc-4.9.2/g09/l202.exe)
                          Input orientation:                          
 ---------------------------------------------------------------------
 Center     Atomic      Atomic             Coordinates (Angstroms)
 Number     Number       Type             X           Y           Z
 ---------------------------------------------------------------------
      1          6           0        2.700048   -1.044831   -0.969715
      2          6           0        2.504404    0.069934    0.069757
      3         15           0        3.114408    1.699500   -0.497083
      4          8           0        2.123544    1.649338   -1.679078
      5          6           0        3.724411    3.329067   -1.063924
      6          6           0        3.400538    4.486101   -0.346104
      7          6           0        3.886752    5.726039   -0.766263
      8          6           0        4.696575    5.814082   -1.898715
      9          6           0        5.023107    4.664027   -2.616458
     10          6           0        4.540289    3.424028   -2.200129
     11          6           0        1.024066    0.138893    0.486690
     12          6           0        3.324136   -0.301436    1.324427
     13          1           0        2.072850   -0.886408   -1.852933
     14          1           0        2.443101   -2.026111   -0.555139
     15          1           0        3.740453   -1.079868   -1.309667
     16          1           0        4.410891    1.182219   -0.710108
     17          1           0        2.761231    4.426625    0.530148
     18          1           0        3.627419    6.626557   -0.215350
     19          1           0        5.065201    6.781686   -2.229225
     20          1           0        5.643852    4.734329   -3.505551
     21          1           0        4.777811    2.529466   -2.770723
     22          1           0        0.374440    0.347105   -0.369590
     23          1           0        0.867209    0.941759    1.215550
     24          1           0        0.689022   -0.801975    0.936689
     25          1           0        4.388850   -0.387959    1.081444
     26          1           0        2.995029   -1.251977    1.757912
     27          1           0        3.229603    0.475357    2.091406
 ---------------------------------------------------------------------
                    Distance matrix (angstroms):
                    1          2          3          4          5
     1  C    0.000000
     2  C    1.536711   0.000000
     3  P    2.815392   1.830000   0.000000
     4  O    2.845013   2.387047   1.543191   0.000000
     5  C    4.493237   3.660000   1.830000   2.400558   0.000000
     6  C    5.609883   4.525321   2.805318   3.384487   1.399602
     7  C    6.877088   5.882290   4.108769   4.534492   2.420832
     8  C    7.203739   6.455675   4.625755   4.900391   2.795940
     9  C    6.379610   5.887725   4.113794   4.286548   2.424684
    10  C    4.987095   4.532898   2.812028   3.043300   1.402012
    11  C    2.516194   1.539476   2.787979   2.860217   4.457967
    12  C    2.491026   1.544044   2.713969   3.777298   4.364056
    13  H    1.094782   2.190334   3.100015   2.542204   4.595696
    14  H    1.095812   2.188071   3.786053   3.856719   5.529787
    15  H    1.095097   2.180062   2.962619   3.193653   4.415807
    16  H    2.820307   2.340953   1.412030   2.527659   2.281534
    17  H    5.673638   4.388471   2.935498   3.605641   2.161808
    18  H    7.763973   6.658210   4.961697   5.401559   3.406307
    19  H    8.272526   7.542587   5.712664   5.941128   3.882811
    20  H    6.963845   6.662998   4.965798   5.024514   3.408893
    21  H    4.509583   4.391584   2.936868   3.001908   2.159207
    22  H    2.775984   2.192395   3.058211   2.543607   4.538338
    23  H    3.475805   2.180213   2.925267   3.233870   4.365643
    24  H    2.781651   2.192580   3.767702   3.861220   5.502867
    25  H    2.736930   2.187307   2.910917   4.111285   4.342851
    26  H    2.751340   2.199552   3.716244   4.581486   5.429615
    27  H    3.458593   2.185715   2.865672   4.100994   4.283060
                    6          7          8          9         10
     6  C    0.000000
     7  C    1.396561   0.000000
     8  C    2.419473   1.394996   0.000000
     9  C    2.796228   2.417104   1.394419   0.000000
    10  C    2.421661   2.789684   2.414049   1.394288   0.000000
    11  C    5.023881   6.401644   7.168351   6.789601   5.511346
    12  C    5.071195   6.404527   7.047822   6.562994   5.270731
    13  H    5.735603   6.942301   7.196013   6.332007   4.978821
    14  H    6.585536   7.888252   8.267525   7.460791   6.066977
    15  H    5.658975   6.829132   6.984819   6.028700   4.660229
    16  H    3.474039   4.574295   4.790466   4.016462   2.694924
    17  H    1.086310   2.153127   3.401467   3.882470   3.409496
    18  H    2.156414   1.087056   2.153353   3.400704   3.876708
    19  H    3.403962   2.154853   1.086912   2.153184   3.398565
    20  H    3.882805   3.402144   2.155254   1.086624   2.153802
    21  H    3.406476   3.876844   3.399367   2.154139   1.087306
    22  H    5.127291   6.436351   7.134909   6.730107   5.492962
    23  H    4.628053   5.994543   6.935577   6.768386   5.596431
    24  H    6.079607   7.465955   8.238459   7.828558   6.521579
    25  H    5.174081   6.406800   6.887769   6.292799   5.032187
    26  H    6.125101   7.473909   8.136054   7.631992   6.318144
    27  H    4.696460   6.013964   6.824592   6.551762   5.369342
                   11         12         13         14         15
    11  C    0.000000
    12  C    2.487170   0.000000
    13  H    2.761344   3.464610   0.000000
    14  H    2.790396   2.698795   1.766430   0.000000
    15  H    3.477216   2.778080   1.764501   1.774207   0.000000
    16  H    3.740513   2.742553   3.324410   3.766907   2.434336
    17  H    4.626475   4.827245   5.863553   6.551095   5.887720
    18  H    7.025673   7.103518   7.844935   8.739950   7.784554
    19  H    8.236119   8.113591   8.239868   9.341052   8.025246
    20  H    7.641886   7.353141   6.861186   8.040726   6.499977
    21  H    5.515086   5.186273   4.452792   5.577900   4.029651
    22  H    1.094797   3.462803   2.570302   3.153718   3.774922
    23  H    1.095644   2.755699   3.769794   3.798293   4.326572
    24  H    1.095439   2.710111   3.115140   2.607845   3.799285
    25  H    3.457321   1.095510   3.771323   3.024547   2.572270
    26  H    2.726760   1.095331   3.744630   2.500823   3.161538
    27  H    2.748221   1.095720   4.330161   3.725605   3.774519
                   16         17         18         19         20
    16  H    0.000000
    17  H    3.845229   0.000000
    18  H    5.522629   2.479063   0.000000
    19  H    5.838654   4.297527   2.479309   0.000000
    20  H    4.685315   4.969009   4.297900   2.481032   0.000000
    21  H    2.489145   4.308313   4.963817   4.296183   2.480205
    22  H    4.135977   4.811318   7.073696   8.177122   7.539807
    23  H    4.040255   4.025094   6.479441   7.974607   7.712891
    24  H    4.527833   5.638934   8.071211   9.310525   8.656471
    25  H    2.382352   5.112072   7.173903   7.926020   6.989519
    26  H    3.744475   5.814514   8.146470   9.204489   8.399771
    27  H    3.121470   4.274273   6.581537   7.861746   7.435950
                   21         22         23         24         25
    21  H    0.000000
    22  H    5.469719   0.000000
    23  H    5.805514   1.763265   0.000000
    24  H    6.446829   1.767968   1.774858   0.000000
    25  H    4.847871   4.331432   3.766708   3.725733   0.000000
    26  H    6.163291   3.735079   3.103909   2.488891   1.773942
    27  H    5.500601   3.771593   2.562335   3.069121   1.763290
                   26         27
    26  H    0.000000
    27  H    1.774803   0.000000
 Stoichiometry    C10H15OP
 Framework group  C1[X(C10H15OP)]
 Deg. of freedom    75
 Full point group                 C1      NOp   1
 Largest Abelian subgroup         C1      NOp   1
 Largest concise Abelian subgroup C1      NOp   1
                         Standard orientation:                         
 ---------------------------------------------------------------------
 Center     Atomic      Atomic             Coordinates (Angstroms)
 Number     Number       Type             X           Y           Z
 ---------------------------------------------------------------------
      1          6           0        3.042880    1.340032   -0.046918
      2          6           0        2.428568   -0.059191    0.115188
      3         15           0        0.598759   -0.050625    0.090127
      4          8           0        0.629873    0.550610   -1.330784
      5          6           0       -1.231049   -0.042059    0.065065
      6          6           0       -1.935220   -1.246339   -0.047807
      7          6           0       -3.331758   -1.240339   -0.042527
      8          6           0       -4.026958   -0.036862    0.077277
      9          6           0       -3.329889    1.165426    0.191314
     10          6           0       -1.935609    1.163905    0.187060
     11          6           0        3.000052   -1.005847   -0.955902
     12          6           0        2.853234   -0.607403    1.494751
     13          1           0        2.852855    1.750162   -1.044030
     14          1           0        4.128765    1.318020    0.098591
     15          1           0        2.615235    2.037998    0.680542
     16          1           0        0.550540    0.848238    1.178037
     17          1           0       -1.400641   -2.186167   -0.152773
     18          1           0       -3.879644   -2.174112   -0.140408
     19          1           0       -5.113848   -0.034235    0.070870
     20          1           0       -3.871576    2.103918    0.272316
     21          1           0       -1.391428    2.102735    0.255628
     22          1           0        2.781459   -0.647617   -1.967074
     23          1           0        2.557175   -2.003633   -0.862529
     24          1           0        4.087364   -1.104396   -0.866313
     25          1           0        2.492099    0.042664    2.299199
     26          1           0        3.942180   -0.686034    1.582864
     27          1           0        2.423583   -1.600985    1.664444
 ---------------------------------------------------------------------
 Rotational constants (GHZ):      2.1368412      0.4169785      0.3962833
 Leave Link  202 at Tue Oct  5 16:43:30 2021, MaxMem= 1073741824 cpu:       0.0
 (Enter /sw/target/amd/app/gaussian/Gaussian09RevA.02_gcc-4.9.2/g09/l301.exe)
 Standard basis: 6-31G(d) (6D, 7F)
 Ernie: Thresh=  0.10000D-02 Tol=  0.10000D-05 Strict=F.
 There are   214 symmetry adapted basis functions of A   symmetry.
 Integral buffers will be    131072 words long.
 Raffenetti 2 integral format.
 Two-electron integral symmetry is turned on.
   214 basis functions,   420 primitive gaussians,   214 cartesian basis functions
    49 alpha electrons       49 beta electrons
       nuclear repulsion energy       803.7162666902 Hartrees.
 IExCor=  402 DFT=T Ex+Corr=B3LYP ExCW=0 ScaHFX=  0.200000
 ScaDFX=  0.800000  0.720000  1.000000  0.810000 ScalE2=  1.000000  1.000000
 IRadAn=      0 IRanWt=     -1 IRanGd=            0 ICorTp=0
 NAtoms=   27 NActive=   27 NUniq=   27 SFac= 7.50D-01 NAtFMM=   80 NAOKFM=F Big=F
 Leave Link  301 at Tue Oct  5 16:43:30 2021, MaxMem= 1073741824 cpu:       0.1
 (Enter /sw/target/amd/app/gaussian/Gaussian09RevA.02_gcc-4.9.2/g09/l302.exe)
 NPDir=0 NMtPBC=     1 NCelOv=     1 NCel=       1 NClECP=     1 NCelD=      1
         NCelK=      1 NCelE2=     1 NClLst=     1 CellRange=     0.0.
 One-electron integrals computed using PRISM.
 NBasis=   214 RedAO= T  NBF=   214
 NBsUse=   214 1.00D-06 NBFU=   214
 Precomputing XC quadrature grid using
 IXCGrd= 2 IRadAn=           0 IRanWt=          -1 IRanGd=           0 AccXCQ= 1.00D-10.
 NRdTot=    1707 NPtTot=      217660 NUsed=      229973 NTot=      230005
 NSgBfM=   213   213   213   213   213 NAtAll=    27    27.
 Leave Link  302 at Tue Oct  5 16:43:31 2021, MaxMem= 1073741824 cpu:       1.7
 (Enter /sw/target/amd/app/gaussian/Gaussian09RevA.02_gcc-4.9.2/g09/l303.exe)
 DipDrv:  MaxL=1.
 Leave Link  303 at Tue Oct  5 16:43:31 2021, MaxMem= 1073741824 cpu:       0.1
 (Enter /sw/target/amd/app/gaussian/Gaussian09RevA.02_gcc-4.9.2/g09/l401.exe)
 Harris functional with IExCor=  402 diagonalized for initial guess.
 ExpMin= 9.98D-02 ExpMax= 1.94D+04 ExpMxC= 2.91D+03 IAcc=2 IRadAn=         0 AccDes= 0.00D+00
 HarFok:  IExCor=  402 AccDes= 0.00D+00 IRadAn=         0 IDoV= 1
 ScaDFX=  1.000000  1.000000  1.000000  1.000000
 FoFCou: FMM=F IPFlag=           0 FMFlag=      100000 FMFlg1=           0
         NFxFlg=           0 DoJE=T BraDBF=F KetDBF=T FulRan=T
         Omega=  0.000000  0.000000  1.000000  0.000000  0.000000 ICntrl=     500 IOpCl=  0
         NMat0=    1 NMatS0=    1 NMatT0=    0 NMatD0=    1 NMtDS0=    0 NMtDT0=    0
         I1Cent=           4 NGrid=           0.
 Petite list used in FoFCou.
 Harris En= -806.743757070944    
 Initial guess orbital symmetries:
       Occupied  (A) (A) (A) (A) (A) (A) (A) (A) (A) (A) (A) (A)
                 (A) (A) (A) (A) (A) (A) (A) (A) (A) (A) (A) (A)
                 (A) (A) (A) (A) (A) (A) (A) (A) (A) (A) (A) (A)
                 (A) (A) (A) (A) (A) (A) (A) (A) (A) (A) (A) (A)
                 (A)
       Virtual   (A) (A) (A) (A) (A) (A) (A) (A) (A) (A) (A) (A)
                 (A) (A) (A) (A) (A) (A) (A) (A) (A) (A) (A) (A)
                 (A) (A) (A) (A) (A) (A) (A) (A) (A) (A) (A) (A)
                 (A) (A) (A) (A) (A) (A) (A) (A) (A) (A) (A) (A)
                 (A) (A) (A) (A) (A) (A) (A) (A) (A) (A) (A) (A)
                 (A) (A) (A) (A) (A) (A) (A) (A) (A) (A) (A) (A)
                 (A) (A) (A) (A) (A) (A) (A) (A) (A) (A) (A) (A)
                 (A) (A) (A) (A) (A) (A) (A) (A) (A) (A) (A) (A)
                 (A) (A) (A) (A) (A) (A) (A) (A) (A) (A) (A) (A)
                 (A) (A) (A) (A) (A) (A) (A) (A) (A) (A) (A) (A)
                 (A) (A) (A) (A) (A) (A) (A) (A) (A) (A) (A) (A)
                 (A) (A) (A) (A) (A) (A) (A) (A) (A) (A) (A) (A)
                 (A) (A) (A) (A) (A) (A) (A) (A) (A) (A) (A) (A)
                 (A) (A) (A) (A) (A) (A) (A) (A) (A)
 The electronic state of the initial guess is 1-A.
 Leave Link  401 at Tue Oct  5 16:43:35 2021, MaxMem= 1073741824 cpu:      14.7
 (Enter /sw/target/amd/app/gaussian/Gaussian09RevA.02_gcc-4.9.2/g09/l502.exe)
 Closed shell SCF:
 Requested convergence on RMS density matrix=1.00D-08 within  64 cycles.
 Requested convergence on MAX density matrix=1.00D-06.
 Requested convergence on             energy=1.00D-06.
 No special actions if energy rises.
 Using DIIS extrapolation, IDIIS=  1040.
 Integral symmetry usage will be decided dynamically.
       229717 words used for storage of precomputed grid.
 Keep R1 ints in memory in canonical form, NReq=269971167.
 IEnd=      375558 IEndB=      375558 NGot=  1073741824 MDV=   808789958
 LenX=   808789958 LenY=   808743721
 Symmetry not used in FoFDir.
 MinBra= 0 MaxBra= 2 Meth= 1.
 IRaf=       0 NMat=   1 IRICut=       1 DoRegI=T DoRafI=F ISym2E= 0 JSym2E=0.
 Integral accuracy reduced to 1.0D-05 until final iterations.

 Cycle   1  Pass 0  IDiag  1:
 E= -806.010230753360    
 DIIS: error= 4.65D-02 at cycle   1 NSaved=   1.
 NSaved= 1 IEnMin= 1 EnMin= -806.010230753360     IErMin= 1 ErrMin= 4.65D-02
 ErrMax= 4.65D-02 EMaxC= 1.00D-01 BMatC= 5.33D-01 BMatP= 5.33D-01
 IDIUse=3 WtCom= 5.35D-01 WtEn= 4.65D-01
 Coeff-Com:  0.100D+01
 Coeff-En:   0.100D+01
 Coeff:      0.100D+01
 Gap=    -0.035 Goal=   None    Shift=    0.000
 GapD=   -0.035 DampG=0.250 DampE=0.500 DampFc=0.2500 IDamp=-1.
 Damping current iteration by 2.50D-01
 RMSDP=1.85D-02 MaxDP=1.15D+00              OVMax= 6.91D-01

 Cycle   2  Pass 0  IDiag  1:
 E= -806.147467508872     Delta-E=       -0.137236755512 Rises=F Damp=T
 DIIS: error= 2.52D-02 at cycle   2 NSaved=   2.
 NSaved= 2 IEnMin= 2 EnMin= -806.147467508872     IErMin= 2 ErrMin= 2.52D-02
 ErrMax= 2.52D-02 EMaxC= 1.00D-01 BMatC= 9.43D-02 BMatP= 5.33D-01
 IDIUse=3 WtCom= 7.48D-01 WtEn= 2.52D-01
 Coeff-Com: -0.194D+00 0.119D+01
 Coeff-En:   0.232D+00 0.768D+00
 Coeff:     -0.864D-01 0.109D+01
 Gap=    -0.049 Goal=   None    Shift=    0.000
 RMSDP=5.25D-03 MaxDP=2.23D-01 DE=-1.37D-01 OVMax= 4.76D-01

 Cycle   3  Pass 0  IDiag  1:
 E= -806.285209035500     Delta-E=       -0.137741526628 Rises=F Damp=F
 DIIS: error= 4.05D-02 at cycle   3 NSaved=   3.
 NSaved= 3 IEnMin= 3 EnMin= -806.285209035500     IErMin= 2 ErrMin= 2.52D-02
 ErrMax= 4.05D-02 EMaxC= 1.00D-01 BMatC= 2.83D-01 BMatP= 9.43D-02
 IDIUse=2 WtCom= 0.00D+00 WtEn= 1.00D+00
 Coeff-En:   0.000D+00 0.337D+00 0.663D+00
 Coeff:      0.000D+00 0.337D+00 0.663D+00
 Gap=     0.123 Goal=   None    Shift=    0.000
 RMSDP=1.02D-02 MaxDP=4.26D-01 DE=-1.38D-01 OVMax= 6.59D-01

 Cycle   4  Pass 0  IDiag  1:
 E= -805.020563401468     Delta-E=        1.264645634032 Rises=F Damp=F
 DIIS: error= 7.98D-02 at cycle   4 NSaved=   4.
 NSaved= 4 IEnMin= 3 EnMin= -806.285209035500     IErMin= 2 ErrMin= 2.52D-02
 ErrMax= 7.98D-02 EMaxC= 1.00D-01 BMatC= 1.35D+00 BMatP= 9.43D-02
 IDIUse=2 WtCom= 0.00D+00 WtEn= 1.00D+00
 EnCoef did     2 forward-backward iterations
 Coeff-En:   0.498D-01 0.000D+00 0.730D+00 0.220D+00
 Coeff:      0.498D-01 0.000D+00 0.730D+00 0.220D+00
 Gap=     0.003 Goal=   None    Shift=    0.000
 RMSDP=9.04D-03 MaxDP=4.72D-01 DE= 1.26D+00 OVMax= 7.73D-01

 Cycle   5  Pass 0  IDiag  1:
 E= -806.504910308522     Delta-E=       -1.484346907054 Rises=F Damp=F
 DIIS: error= 1.61D-02 at cycle   5 NSaved=   5.
 NSaved= 5 IEnMin= 5 EnMin= -806.504910308522     IErMin= 5 ErrMin= 1.61D-02
 ErrMax= 1.61D-02 EMaxC= 1.00D-01 BMatC= 6.27D-02 BMatP= 9.43D-02
 IDIUse=3 WtCom= 8.39D-01 WtEn= 1.61D-01
 Coeff-Com: -0.139D+00 0.290D+00 0.316D+00-0.201D-01 0.553D+00
 Coeff-En:   0.000D+00 0.000D+00 0.209D+00 0.000D+00 0.791D+00
 Coeff:     -0.116D+00 0.244D+00 0.299D+00-0.168D-01 0.591D+00
 Gap=     0.099 Goal=   None    Shift=    0.000
 RMSDP=1.59D-03 MaxDP=4.67D-02 DE=-1.48D+00 OVMax= 1.20D-01

 Cycle   6  Pass 0  IDiag  1:
 E= -806.561114794976     Delta-E=       -0.056204486454 Rises=F Damp=F
 DIIS: error= 4.12D-03 at cycle   6 NSaved=   6.
 NSaved= 6 IEnMin= 6 EnMin= -806.561114794976     IErMin= 6 ErrMin= 4.12D-03
 ErrMax= 4.12D-03 EMaxC= 1.00D-01 BMatC= 4.34D-03 BMatP= 6.27D-02
 IDIUse=3 WtCom= 9.59D-01 WtEn= 4.12D-02
 Coeff-Com: -0.724D-01 0.116D+00 0.105D+00-0.109D-01 0.305D+00 0.557D+00
 Coeff-En:   0.000D+00 0.000D+00 0.000D+00 0.000D+00 0.101D-01 0.990D+00
 Coeff:     -0.694D-01 0.111D+00 0.101D+00-0.104D-01 0.293D+00 0.575D+00
 Gap=     0.096 Goal=   None    Shift=    0.000
 RMSDP=4.20D-04 MaxDP=1.14D-02 DE=-5.62D-02 OVMax= 3.24D-02

 Cycle   7  Pass 0  IDiag  1:
 E= -806.564994062414     Delta-E=       -0.003879267437 Rises=F Damp=F
 DIIS: error= 1.94D-03 at cycle   7 NSaved=   7.
 NSaved= 7 IEnMin= 7 EnMin= -806.564994062414     IErMin= 7 ErrMin= 1.94D-03
 ErrMax= 1.94D-03 EMaxC= 1.00D-01 BMatC= 5.22D-04 BMatP= 4.34D-03
 IDIUse=3 WtCom= 9.81D-01 WtEn= 1.94D-02
 Coeff-Com: -0.203D-01 0.234D-01 0.203D-03-0.171D-02 0.696D-01 0.362D+00
 Coeff-Com:  0.567D+00
 Coeff-En:   0.000D+00 0.000D+00 0.000D+00 0.000D+00 0.000D+00 0.645D-01
 Coeff-En:   0.935D+00
 Coeff:     -0.199D-01 0.229D-01 0.199D-03-0.167D-02 0.682D-01 0.356D+00
 Coeff:      0.574D+00
 Gap=     0.098 Goal=   None    Shift=    0.000
 RMSDP=1.44D-04 MaxDP=4.89D-03 DE=-3.88D-03 OVMax= 1.05D-02

 Cycle   8  Pass 0  IDiag  1:
 E= -806.565545536817     Delta-E=       -0.000551474403 Rises=F Damp=F
 DIIS: error= 6.16D-04 at cycle   8 NSaved=   8.
 NSaved= 8 IEnMin= 8 EnMin= -806.565545536817     IErMin= 8 ErrMin= 6.16D-04
 ErrMax= 6.16D-04 EMaxC= 1.00D-01 BMatC= 4.55D-05 BMatP= 5.22D-04
 IDIUse=3 WtCom= 9.94D-01 WtEn= 6.16D-03
 Coeff-Com: -0.634D-02 0.732D-02-0.475D-02-0.288D-03 0.157D-01 0.145D+00
 Coeff-Com:  0.317D+00 0.526D+00
 Coeff-En:   0.000D+00 0.000D+00 0.000D+00 0.000D+00 0.000D+00 0.000D+00
 Coeff-En:   0.150D-01 0.985D+00
 Coeff:     -0.630D-02 0.728D-02-0.472D-02-0.286D-03 0.156D-01 0.144D+00
 Coeff:      0.316D+00 0.529D+00
 Gap=     0.099 Goal=   None    Shift=    0.000
 RMSDP=5.88D-05 MaxDP=1.52D-03 DE=-5.51D-04 OVMax= 4.29D-03

 Cycle   9  Pass 0  IDiag  1:
 E= -806.565593237034     Delta-E=       -0.000047700217 Rises=F Damp=F
 DIIS: error= 1.59D-04 at cycle   9 NSaved=   9.
 NSaved= 9 IEnMin= 9 EnMin= -806.565593237034     IErMin= 9 ErrMin= 1.59D-04
 ErrMax= 1.59D-04 EMaxC= 1.00D-01 BMatC= 8.79D-06 BMatP= 4.55D-05
 IDIUse=3 WtCom= 9.98D-01 WtEn= 1.59D-03
 Coeff-Com:  0.103D-02-0.172D-02-0.211D-02 0.168D-03-0.371D-02 0.109D-01
 Coeff-Com:  0.721D-01 0.333D+00 0.590D+00
 Coeff-En:   0.000D+00 0.000D+00 0.000D+00 0.000D+00 0.000D+00 0.000D+00
 Coeff-En:   0.000D+00 0.110D+00 0.890D+00
 Coeff:      0.103D-02-0.171D-02-0.211D-02 0.168D-03-0.371D-02 0.109D-01
 Coeff:      0.720D-01 0.333D+00 0.591D+00
 Gap=     0.099 Goal=   None    Shift=    0.000
 RMSDP=1.93D-05 MaxDP=4.84D-04 DE=-4.77D-05 OVMax= 9.22D-04

 Cycle  10  Pass 0  IDiag  1:
 E= -806.565602425321     Delta-E=       -0.000009188288 Rises=F Damp=F
 DIIS: error= 8.99D-05 at cycle  10 NSaved=  10.
 NSaved=10 IEnMin=10 EnMin= -806.565602425321     IErMin=10 ErrMin= 8.99D-05
 ErrMax= 8.99D-05 EMaxC= 1.00D-01 BMatC= 1.13D-06 BMatP= 8.79D-06
 IDIUse=1 WtCom= 1.00D+00 WtEn= 0.00D+00
 Coeff-Com:  0.117D-02-0.144D-02 0.203D-03-0.385D-04-0.179D-02-0.367D-02
 Coeff-Com:  0.989D-02 0.119D+00 0.233D+00 0.644D+00
 Coeff:      0.117D-02-0.144D-02 0.203D-03-0.385D-04-0.179D-02-0.367D-02
 Coeff:      0.989D-02 0.119D+00 0.233D+00 0.644D+00
 Gap=     0.100 Goal=   None    Shift=    0.000
 RMSDP=8.84D-06 MaxDP=3.63D-04 DE=-9.19D-06 OVMax= 9.64D-04

 Initial convergence to 1.0D-05 achieved.  Increase integral accuracy.
 Cycle  11  Pass 1  IDiag  1:
 E= -806.565606463903     Delta-E=       -0.000004038581 Rises=F Damp=F
 DIIS: error= 5.05D-05 at cycle   1 NSaved=   1.
 NSaved= 1 IEnMin= 1 EnMin= -806.565606463903     IErMin= 1 ErrMin= 5.05D-05
 ErrMax= 5.05D-05 EMaxC= 1.00D-01 BMatC= 4.79D-07 BMatP= 4.79D-07
 IDIUse=1 WtCom= 1.00D+00 WtEn= 0.00D+00
 Coeff-Com:  0.100D+01
 Coeff:      0.100D+01
 Gap=     0.100 Goal=   None    Shift=    0.000
 RMSDP=8.84D-06 MaxDP=3.63D-04 DE=-4.04D-06 OVMax= 8.28D-04

 Cycle  12  Pass 1  IDiag  1:
 E= -806.565604768763     Delta-E=        0.000001695140 Rises=F Damp=F
 DIIS: error= 1.29D-04 at cycle   2 NSaved=   2.
 NSaved= 2 IEnMin= 1 EnMin= -806.565606463903     IErMin= 1 ErrMin= 5.05D-05
 ErrMax= 1.29D-04 EMaxC= 1.00D-01 BMatC= 2.62D-06 BMatP= 4.79D-07
 IDIUse=3 WtCom= 4.68D-01 WtEn= 5.32D-01
 Coeff-Com:  0.715D+00 0.285D+00
 Coeff-En:   0.769D+00 0.231D+00
 Coeff:      0.743D+00 0.257D+00
 Gap=     0.100 Goal=   None    Shift=    0.000
 RMSDP=7.65D-06 MaxDP=3.41D-04 DE= 1.70D-06 OVMax= 6.85D-04

 Cycle  13  Pass 1  IDiag  1:
 E= -806.565607107388     Delta-E=       -0.000002338625 Rises=F Damp=F
 DIIS: error= 8.78D-06 at cycle   3 NSaved=   3.
 NSaved= 3 IEnMin= 3 EnMin= -806.565607107388     IErMin= 3 ErrMin= 8.78D-06
 ErrMax= 8.78D-06 EMaxC= 1.00D-01 BMatC= 2.07D-08 BMatP= 4.79D-07
 IDIUse=1 WtCom= 1.00D+00 WtEn= 0.00D+00
 Coeff-Com:  0.193D+00 0.648D-01 0.743D+00
 Coeff:      0.193D+00 0.648D-01 0.743D+00
 Gap=     0.100 Goal=   None    Shift=    0.000
 RMSDP=2.40D-06 MaxDP=9.00D-05 DE=-2.34D-06 OVMax= 2.67D-04

 Cycle  14  Pass 1  IDiag  1:
 E= -806.565607125648     Delta-E=       -0.000000018260 Rises=F Damp=F
 DIIS: error= 7.70D-06 at cycle   4 NSaved=   4.
 NSaved= 4 IEnMin= 4 EnMin= -806.565607125648     IErMin= 4 ErrMin= 7.70D-06
 ErrMax= 7.70D-06 EMaxC= 1.00D-01 BMatC= 2.56D-08 BMatP= 2.07D-08
 IDIUse=1 WtCom= 1.00D+00 WtEn= 0.00D+00
 Coeff-Com: -0.267D-01-0.105D-01 0.537D+00 0.501D+00
 Coeff:     -0.267D-01-0.105D-01 0.537D+00 0.501D+00
 Gap=     0.100 Goal=   None    Shift=    0.000
 RMSDP=1.08D-06 MaxDP=3.37D-05 DE=-1.83D-08 OVMax= 9.23D-05

 Cycle  15  Pass 1  IDiag  1:
 E= -806.565607155002     Delta-E=       -0.000000029353 Rises=F Damp=F
 DIIS: error= 3.17D-06 at cycle   5 NSaved=   5.
 NSaved= 5 IEnMin= 5 EnMin= -806.565607155002     IErMin= 5 ErrMin= 3.17D-06
 ErrMax= 3.17D-06 EMaxC= 1.00D-01 BMatC= 1.62D-09 BMatP= 2.07D-08
 IDIUse=1 WtCom= 1.00D+00 WtEn= 0.00D+00
 Coeff-Com: -0.301D-01-0.384D-02 0.228D+00 0.232D+00 0.574D+00
 Coeff:     -0.301D-01-0.384D-02 0.228D+00 0.232D+00 0.574D+00
 Gap=     0.100 Goal=   None    Shift=    0.000
 RMSDP=5.61D-07 MaxDP=2.36D-05 DE=-2.94D-08 OVMax= 6.37D-05

 Cycle  16  Pass 1  IDiag  1:
 E= -806.565607158000     Delta-E=       -0.000000002999 Rises=F Damp=F
 DIIS: error= 2.44D-06 at cycle   6 NSaved=   6.
 NSaved= 6 IEnMin= 6 EnMin= -806.565607158000     IErMin= 6 ErrMin= 2.44D-06
 ErrMax= 2.44D-06 EMaxC= 1.00D-01 BMatC= 5.88D-10 BMatP= 1.62D-09
 IDIUse=1 WtCom= 1.00D+00 WtEn= 0.00D+00
 Coeff-Com: -0.830D-02 0.561D-02-0.421D-01-0.798D-01 0.338D+00 0.787D+00
 Coeff:     -0.830D-02 0.561D-02-0.421D-01-0.798D-01 0.338D+00 0.787D+00
 Gap=     0.100 Goal=   None    Shift=    0.000
 RMSDP=4.92D-07 MaxDP=2.30D-05 DE=-3.00D-09 OVMax= 6.03D-05

 Cycle  17  Pass 1  IDiag  1:
 E= -806.565607159546     Delta-E=       -0.000000001546 Rises=F Damp=F
 DIIS: error= 8.19D-07 at cycle   7 NSaved=   7.
 NSaved= 7 IEnMin= 7 EnMin= -806.565607159546     IErMin= 7 ErrMin= 8.19D-07
 ErrMax= 8.19D-07 EMaxC= 1.00D-01 BMatC= 1.02D-10 BMatP= 5.88D-10
 IDIUse=1 WtCom= 1.00D+00 WtEn= 0.00D+00
 Coeff-Com:  0.285D-02 0.402D-02-0.790D-01-0.122D+00 0.733D-01 0.451D+00
 Coeff-Com:  0.670D+00
 Coeff:      0.285D-02 0.402D-02-0.790D-01-0.122D+00 0.733D-01 0.451D+00
 Coeff:      0.670D+00
 Gap=     0.100 Goal=   None    Shift=    0.000
 RMSDP=2.36D-07 MaxDP=1.11D-05 DE=-1.55D-09 OVMax= 2.93D-05

 Cycle  18  Pass 1  IDiag  1:
 E= -806.565607159799     Delta-E=       -0.000000000253 Rises=F Damp=F
 DIIS: error= 2.92D-07 at cycle   8 NSaved=   8.
 NSaved= 8 IEnMin= 8 EnMin= -806.565607159799     IErMin= 8 ErrMin= 2.92D-07
 ErrMax= 2.92D-07 EMaxC= 1.00D-01 BMatC= 1.64D-11 BMatP= 1.02D-10
 IDIUse=1 WtCom= 1.00D+00 WtEn= 0.00D+00
 Coeff-Com:  0.245D-02 0.117D-02-0.410D-01-0.656D-01 0.669D-02 0.172D+00
 Coeff-Com:  0.395D+00 0.529D+00
 Coeff:      0.245D-02 0.117D-02-0.410D-01-0.656D-01 0.669D-02 0.172D+00
 Coeff:      0.395D+00 0.529D+00
 Gap=     0.100 Goal=   None    Shift=    0.000
 RMSDP=4.97D-08 MaxDP=2.21D-06 DE=-2.53D-10 OVMax= 5.47D-06

 Cycle  19  Pass 1  IDiag  1:
 E= -806.565607159799     Delta-E=        0.000000000000 Rises=F Damp=F
 DIIS: error= 8.42D-08 at cycle   9 NSaved=   9.
 NSaved= 9 IEnMin= 8 EnMin= -806.565607159799     IErMin= 9 ErrMin= 8.42D-08
 ErrMax= 8.42D-08 EMaxC= 1.00D-01 BMatC= 1.25D-12 BMatP= 1.64D-11
 IDIUse=1 WtCom= 1.00D+00 WtEn= 0.00D+00
 Coeff-Com:  0.873D-03 0.507D-05-0.110D-01-0.198D-01-0.850D-03 0.433D-01
 Coeff-Com:  0.128D+00 0.259D+00 0.601D+00
 Coeff:      0.873D-03 0.507D-05-0.110D-01-0.198D-01-0.850D-03 0.433D-01
 Coeff:      0.128D+00 0.259D+00 0.601D+00
 Gap=     0.100 Goal=   None    Shift=    0.000
 RMSDP=8.54D-09 MaxDP=2.17D-07 DE= 2.27D-13 OVMax= 5.95D-07

 SCF Done:  E(RB3LYP) =  -806.565607160     A.U. after   19 cycles
             Convg  =    0.8543D-08             -V/T =  2.0068
 KE= 8.011207131725D+02 PE=-3.498361167119D+03 EE= 1.086958580096D+03
 Leave Link  502 at Tue Oct  5 16:44:43 2021, MaxMem= 1073741824 cpu:     161.5
 (Enter /sw/target/amd/app/gaussian/Gaussian09RevA.02_gcc-4.9.2/g09/l508.exe)
 QCSCF skips out because SCF is already converged.
 Leave Link  508 at Tue Oct  5 16:44:43 2021, MaxMem= 1073741824 cpu:       0.0
 (Enter /sw/target/amd/app/gaussian/Gaussian09RevA.02_gcc-4.9.2/g09/l601.exe)
 Copying SCF densities to generalized density rwf, IOpCl= 0 IROHF=0.

 **********************************************************************

            Population analysis using the SCF density.

 **********************************************************************

 Orbital symmetries:
       Occupied  (A) (A) (A) (A) (A) (A) (A) (A) (A) (A) (A) (A)
                 (A) (A) (A) (A) (A) (A) (A) (A) (A) (A) (A) (A)
                 (A) (A) (A) (A) (A) (A) (A) (A) (A) (A) (A) (A)
                 (A) (A) (A) (A) (A) (A) (A) (A) (A) (A) (A) (A)
                 (A)
       Virtual   (A) (A) (A) (A) (A) (A) (A) (A) (A) (A) (A) (A)
                 (A) (A) (A) (A) (A) (A) (A) (A) (A) (A) (A) (A)
                 (A) (A) (A) (A) (A) (A) (A) (A) (A) (A) (A) (A)
                 (A) (A) (A) (A) (A) (A) (A) (A) (A) (A) (A) (A)
                 (A) (A) (A) (A) (A) (A) (A) (A) (A) (A) (A) (A)
                 (A) (A) (A) (A) (A) (A) (A) (A) (A) (A) (A) (A)
                 (A) (A) (A) (A) (A) (A) (A) (A) (A) (A) (A) (A)
                 (A) (A) (A) (A) (A) (A) (A) (A) (A) (A) (A) (A)
                 (A) (A) (A) (A) (A) (A) (A) (A) (A) (A) (A) (A)
                 (A) (A) (A) (A) (A) (A) (A) (A) (A) (A) (A) (A)
                 (A) (A) (A) (A) (A) (A) (A) (A) (A) (A) (A) (A)
                 (A) (A) (A) (A) (A) (A) (A) (A) (A) (A) (A) (A)
                 (A) (A) (A) (A) (A) (A) (A) (A) (A) (A) (A) (A)
                 (A) (A) (A) (A) (A) (A) (A) (A) (A)
 The electronic state is 1-A.
 Alpha  occ. eigenvalues --  -77.13884 -19.07360 -10.22279 -10.20943 -10.19771
 Alpha  occ. eigenvalues --  -10.19521 -10.19494 -10.19266 -10.19158 -10.18430
 Alpha  occ. eigenvalues --  -10.18202 -10.17794  -6.60273  -4.76671  -4.76374
 Alpha  occ. eigenvalues --   -4.76274  -0.93453  -0.85475  -0.81629  -0.75208
 Alpha  occ. eigenvalues --   -0.74803  -0.69262  -0.69013  -0.63542  -0.60860
 Alpha  occ. eigenvalues --   -0.59540  -0.54449  -0.50706  -0.47119  -0.45934
 Alpha  occ. eigenvalues --   -0.44748  -0.44484  -0.43684  -0.42505  -0.40370
 Alpha  occ. eigenvalues --   -0.39964  -0.39175  -0.37874  -0.36696  -0.35913
 Alpha  occ. eigenvalues --   -0.34991  -0.34655  -0.34276  -0.33232  -0.30732
 Alpha  occ. eigenvalues --   -0.26311  -0.25535  -0.24070  -0.20840
 Alpha virt. eigenvalues --   -0.10883  -0.00800  -0.00182   0.06948   0.08518
 Alpha virt. eigenvalues --    0.10232   0.12832   0.13618   0.13932   0.14975
 Alpha virt. eigenvalues --    0.15065   0.15347   0.15886   0.16365   0.17182
 Alpha virt. eigenvalues --    0.18299   0.18636   0.18801   0.20325   0.21265
 Alpha virt. eigenvalues --    0.22076   0.23098   0.23945   0.26915   0.28398
 Alpha virt. eigenvalues --    0.29982   0.30405   0.33527   0.36080   0.37530
 Alpha virt. eigenvalues --    0.41016   0.43346   0.44459   0.50490   0.50642
 Alpha virt. eigenvalues --    0.52382   0.53877   0.54503   0.56047   0.56935
 Alpha virt. eigenvalues --    0.57498   0.58493   0.59458   0.59583   0.60831
 Alpha virt. eigenvalues --    0.61886   0.63289   0.64733   0.65475   0.67927
 Alpha virt. eigenvalues --    0.68618   0.70611   0.71423   0.72503   0.75696
 Alpha virt. eigenvalues --    0.77169   0.80776   0.81296   0.82461   0.83427
 Alpha virt. eigenvalues --    0.83533   0.84170   0.84431   0.84902   0.86289
 Alpha virt. eigenvalues --    0.87876   0.88417   0.89653   0.91129   0.91852
 Alpha virt. eigenvalues --    0.92189   0.93223   0.93921   0.94575   0.95234
 Alpha virt. eigenvalues --    0.96010   0.97086   0.98781   0.99278   1.00744
 Alpha virt. eigenvalues --    1.03777   1.06862   1.11527   1.12427   1.14458
 Alpha virt. eigenvalues --    1.14941   1.16980   1.21988   1.26311   1.28926
 Alpha virt. eigenvalues --    1.30385   1.30877   1.40766   1.42510   1.42877
 Alpha virt. eigenvalues --    1.43296   1.43761   1.45718   1.47733   1.48397
 Alpha virt. eigenvalues --    1.49838   1.50905   1.57823   1.63849   1.67328
 Alpha virt. eigenvalues --    1.72431   1.78036   1.79590   1.83309   1.85348
 Alpha virt. eigenvalues --    1.86106   1.88688   1.89714   1.91304   1.95736
 Alpha virt. eigenvalues --    1.97027   1.97468   1.98912   2.04681   2.05608
 Alpha virt. eigenvalues --    2.07064   2.08277   2.09586   2.11091   2.12782
 Alpha virt. eigenvalues --    2.14421   2.15205   2.15349   2.16300   2.18627
 Alpha virt. eigenvalues --    2.25050   2.25307   2.26880   2.29695   2.30266
 Alpha virt. eigenvalues --    2.30651   2.32450   2.44768   2.50212   2.51395
 Alpha virt. eigenvalues --    2.53662   2.57138   2.64753   2.67244   2.68740
 Alpha virt. eigenvalues --    2.70628   2.72323   2.74097   2.74528   2.76706
 Alpha virt. eigenvalues --    2.83075   3.02740   3.36764   3.57991   3.90810
 Alpha virt. eigenvalues --    4.09125   4.11366   4.16389   4.22862   4.28625
 Alpha virt. eigenvalues --    4.29284   4.32775   4.39122   4.62253   4.67537
          Condensed to atoms (all electrons):
              1          2          3          4          5          6
     1  C    5.123317   0.395122  -0.029008  -0.013743   0.000177  -0.000009
     2  C    0.395122   5.055542   0.304964  -0.054246  -0.000020   0.000199
     3  P   -0.029008   0.304964  13.298098   0.415711   0.307964  -0.039532
     4  O   -0.013743  -0.054246   0.415711   8.320905  -0.066612  -0.004338
     5  C    0.000177  -0.000020   0.307964  -0.066612   4.981188   0.520404
     6  C   -0.000009   0.000199  -0.039532  -0.004338   0.520404   4.952450
     7  C    0.000000  -0.000001   0.004706  -0.000209  -0.031261   0.507567
     8  C    0.000000   0.000000  -0.000115   0.000014  -0.038497  -0.032286
     9  C    0.000000  -0.000008   0.004132   0.000190  -0.030743  -0.046098
    10  C   -0.000020   0.000230  -0.033551  -0.003755   0.528756  -0.013670
    11  C   -0.046677   0.352949  -0.047631  -0.005044  -0.000877  -0.000028
    12  C   -0.072356   0.301080  -0.046396   0.004377   0.000479  -0.000033
    13  H    0.366103  -0.027122  -0.003290   0.011133   0.000080  -0.000000
    14  H    0.364586  -0.032524   0.006990   0.000606   0.000003   0.000000
    15  H    0.365044  -0.031577  -0.007169  -0.001337  -0.000111  -0.000001
    16  H   -0.010143  -0.065656   0.170891  -0.016145  -0.087670  -0.000948
    17  H   -0.000001   0.000101  -0.006876   0.000060  -0.053810   0.365849
    18  H   -0.000000  -0.000000  -0.000194   0.000002   0.005049  -0.040135
    19  H    0.000000  -0.000000   0.000007   0.000000   0.000625   0.004896
    20  H   -0.000000   0.000000  -0.000178  -0.000001   0.004972   0.000760
    21  H   -0.000017   0.000058  -0.003007   0.000220  -0.046939   0.005469
    22  H   -0.005566  -0.028132  -0.004810   0.012490   0.000076   0.000002
    23  H    0.005167  -0.033309  -0.001143  -0.000670  -0.000006  -0.000005
    24  H   -0.003949  -0.028297   0.006171   0.000377   0.000000  -0.000000
    25  H   -0.004575  -0.034116  -0.008933   0.000002  -0.000112  -0.000004
    26  H   -0.003158  -0.017925   0.004602  -0.000111  -0.000018   0.000000
    27  H    0.005836  -0.035046  -0.000679  -0.000018  -0.000062   0.000004
              7          8          9         10         11         12
     1  C    0.000000   0.000000   0.000000  -0.000020  -0.046677  -0.072356
     2  C   -0.000001   0.000000  -0.000008   0.000230   0.352949   0.301080
     3  P    0.004706  -0.000115   0.004132  -0.033551  -0.047631  -0.046396
     4  O   -0.000209   0.000014   0.000190  -0.003755  -0.005044   0.004377
     5  C   -0.031261  -0.038497  -0.030743   0.528756  -0.000877   0.000479
     6  C    0.507567  -0.032286  -0.046098  -0.013670  -0.000028  -0.000033
     7  C    4.882784   0.557486  -0.026989  -0.045709  -0.000001  -0.000000
     8  C    0.557486   4.851940   0.540634  -0.029552  -0.000000   0.000000
     9  C   -0.026989   0.540634   4.870737   0.533007   0.000000   0.000000
    10  C   -0.045709  -0.029552   0.533007   4.883841  -0.000015   0.000002
    11  C   -0.000001  -0.000000   0.000000  -0.000015   5.156621  -0.060209
    12  C   -0.000000   0.000000   0.000000   0.000002  -0.060209   5.262537
    13  H    0.000000  -0.000000   0.000000   0.000001  -0.005323   0.006052
    14  H   -0.000000   0.000000  -0.000000   0.000000  -0.006117  -0.005164
    15  H   -0.000000   0.000000   0.000000  -0.000003   0.005549  -0.003667
    16  H   -0.000400   0.000001  -0.000579  -0.001093   0.005777   0.002599
    17  H   -0.044269   0.004793   0.000493   0.005023  -0.000007  -0.000011
    18  H    0.355259  -0.043253   0.004667   0.000652   0.000000   0.000000
    19  H   -0.042511   0.358972  -0.043617   0.004888   0.000000  -0.000000
    20  H    0.004480  -0.042954   0.359010  -0.041422   0.000000   0.000000
    21  H    0.000300   0.004677  -0.043897   0.360135   0.000001  -0.000004
    22  H    0.000000  -0.000000   0.000000  -0.000000   0.367878   0.006386
    23  H    0.000000   0.000000   0.000000  -0.000000   0.366665  -0.004187
    24  H    0.000000   0.000000  -0.000000   0.000000   0.362187  -0.007205
    25  H   -0.000000  -0.000000   0.000000  -0.000004   0.006437   0.368575
    26  H   -0.000000   0.000000  -0.000000   0.000000  -0.006283   0.349188
    27  H    0.000000  -0.000000   0.000000  -0.000001  -0.003587   0.364981
             13         14         15         16         17         18
     1  C    0.366103   0.364586   0.365044  -0.010143  -0.000001  -0.000000
     2  C   -0.027122  -0.032524  -0.031577  -0.065656   0.000101  -0.000000
     3  P   -0.003290   0.006990  -0.007169   0.170891  -0.006876  -0.000194
     4  O    0.011133   0.000606  -0.001337  -0.016145   0.000060   0.000002
     5  C    0.000080   0.000003  -0.000111  -0.087670  -0.053810   0.005049
     6  C   -0.000000   0.000000  -0.000001  -0.000948   0.365849  -0.040135
     7  C    0.000000  -0.000000  -0.000000  -0.000400  -0.044269   0.355259
     8  C   -0.000000   0.000000   0.000000   0.000001   0.004793  -0.043253
     9  C    0.000000  -0.000000   0.000000  -0.000579   0.000493   0.004667
    10  C    0.000001   0.000000  -0.000003  -0.001093   0.005023   0.000652
    11  C   -0.005323  -0.006117   0.005549   0.005777  -0.000007   0.000000
    12  C    0.006052  -0.005164  -0.003667   0.002599  -0.000011   0.000000
    13  H    0.515455  -0.029507  -0.025522  -0.000087  -0.000000  -0.000000
    14  H   -0.029507   0.577463  -0.032689  -0.000791   0.000000   0.000000
    15  H   -0.025522  -0.032689   0.568869   0.009709  -0.000000   0.000000
    16  H   -0.000087  -0.000791   0.009709   1.098658   0.000147   0.000004
    17  H   -0.000000   0.000000  -0.000000   0.000147   0.606275  -0.005673
    18  H   -0.000000   0.000000   0.000000   0.000004  -0.005673   0.598007
    19  H    0.000000  -0.000000  -0.000000  -0.000000  -0.000178  -0.005740
    20  H   -0.000000   0.000000  -0.000000   0.000032   0.000015  -0.000185
    21  H   -0.000012   0.000000   0.000047   0.004433  -0.000155   0.000017
    22  H    0.004077  -0.000194  -0.000005   0.000093  -0.000005  -0.000000
    23  H   -0.000005   0.000012  -0.000204  -0.000018   0.000032  -0.000000
    24  H   -0.000112   0.002614  -0.000051  -0.000112   0.000000   0.000000
    25  H   -0.000036  -0.000550   0.004041   0.009354  -0.000001   0.000000
    26  H   -0.000104   0.003920  -0.000290  -0.000176   0.000000   0.000000
    27  H   -0.000193   0.000070  -0.000062  -0.000474   0.000003  -0.000000
             19         20         21         22         23         24
     1  C    0.000000  -0.000000  -0.000017  -0.005566   0.005167  -0.003949
     2  C   -0.000000   0.000000   0.000058  -0.028132  -0.033309  -0.028297
     3  P    0.000007  -0.000178  -0.003007  -0.004810  -0.001143   0.006171
     4  O    0.000000  -0.000001   0.000220   0.012490  -0.000670   0.000377
     5  C    0.000625   0.004972  -0.046939   0.000076  -0.000006   0.000000
     6  C    0.004896   0.000760   0.005469   0.000002  -0.000005  -0.000000
     7  C   -0.042511   0.004480   0.000300   0.000000   0.000000   0.000000
     8  C    0.358972  -0.042954   0.004677  -0.000000   0.000000   0.000000
     9  C   -0.043617   0.359010  -0.043897   0.000000   0.000000  -0.000000
    10  C    0.004888  -0.041422   0.360135  -0.000000  -0.000000   0.000000
    11  C    0.000000   0.000000   0.000001   0.367878   0.366665   0.362187
    12  C   -0.000000   0.000000  -0.000004   0.006386  -0.004187  -0.007205
    13  H    0.000000  -0.000000  -0.000012   0.004077  -0.000005  -0.000112
    14  H   -0.000000   0.000000   0.000000  -0.000194   0.000012   0.002614
    15  H   -0.000000  -0.000000   0.000047  -0.000005  -0.000204  -0.000051
    16  H   -0.000000   0.000032   0.004433   0.000093  -0.000018  -0.000112
    17  H   -0.000178   0.000015  -0.000155  -0.000005   0.000032   0.000000
    18  H   -0.005740  -0.000185   0.000017  -0.000000  -0.000000   0.000000
    19  H    0.596156  -0.005527  -0.000172   0.000000  -0.000000  -0.000000
    20  H   -0.005527   0.588366  -0.005687  -0.000000  -0.000000   0.000000
    21  H   -0.000172  -0.005687   0.575912  -0.000001  -0.000000   0.000000
    22  H    0.000000  -0.000000  -0.000001   0.518458  -0.027722  -0.029115
    23  H   -0.000000  -0.000000  -0.000000  -0.027722   0.587015  -0.030652
    24  H   -0.000000   0.000000   0.000000  -0.029115  -0.030652   0.579033
    25  H   -0.000000   0.000000   0.000000  -0.000186  -0.000076   0.000007
    26  H   -0.000000   0.000000   0.000000  -0.000107  -0.000172   0.004858
    27  H   -0.000000  -0.000000  -0.000000  -0.000058   0.004034  -0.000283
             25         26         27
     1  C   -0.004575  -0.003158   0.005836
     2  C   -0.034116  -0.017925  -0.035046
     3  P   -0.008933   0.004602  -0.000679
     4  O    0.000002  -0.000111  -0.000018
     5  C   -0.000112  -0.000018  -0.000062
     6  C   -0.000004   0.000000   0.000004
     7  C   -0.000000  -0.000000   0.000000
     8  C   -0.000000   0.000000  -0.000000
     9  C    0.000000  -0.000000   0.000000
    10  C   -0.000004   0.000000  -0.000001
    11  C    0.006437  -0.006283  -0.003587
    12  C    0.368575   0.349188   0.364981
    13  H   -0.000036  -0.000104  -0.000193
    14  H   -0.000550   0.003920   0.000070
    15  H    0.004041  -0.000290  -0.000062
    16  H    0.009354  -0.000176  -0.000474
    17  H   -0.000001   0.000000   0.000003
    18  H    0.000000   0.000000  -0.000000
    19  H   -0.000000  -0.000000  -0.000000
    20  H    0.000000   0.000000  -0.000000
    21  H    0.000000   0.000000  -0.000000
    22  H   -0.000186  -0.000107  -0.000058
    23  H   -0.000076  -0.000172   0.004034
    24  H    0.000007   0.004858  -0.000283
    25  H    0.570298  -0.028820  -0.032511
    26  H   -0.028820   0.574000  -0.027876
    27  H   -0.032511  -0.027876   0.587779
 Mulliken atomic charges:
              1
     1  C   -0.436132
     2  C   -0.022264
     3  P    0.708275
     4  O   -0.599858
     5  C    0.006963
     6  C   -0.180513
     7  C   -0.121234
     8  C   -0.131860
     9  C   -0.120938
    10  C   -0.147743
    11  C   -0.442266
    12  C   -0.467024
    13  H    0.188410
    14  H    0.151272
    15  H    0.149428
    16  H   -0.117407
    17  H    0.128193
    18  H    0.131524
    19  H    0.132200
    20  H    0.138320
    21  H    0.148621
    22  H    0.186442
    23  H    0.135243
    24  H    0.144526
    25  H    0.151209
    26  H    0.148472
    27  H    0.138142
 Sum of Mulliken atomic charges =  -0.00000
 Mulliken charges with hydrogens summed into heavy atoms:
              1
     1  C    0.052979
     2  C   -0.022264
     3  P    0.590868
     4  O   -0.599858
     5  C    0.006963
     6  C   -0.052319
     7  C    0.010290
     8  C    0.000340
     9  C    0.017382
    10  C    0.000878
    11  C    0.023945
    12  C   -0.029201
 Sum of Mulliken charges with hydrogens summed into heavy atoms =  -0.00000
 Electronic spatial extent (au):  <R**2>=           2970.1435
 Charge=             -0.0000 electrons
 Dipole moment (field-independent basis, Debye):
    X=              0.3599    Y=             -1.3321    Z=              2.5102  Tot=              2.8644
 Quadrupole moment (field-independent basis, Debye-Ang):
   XX=            -68.2936   YY=            -74.8364   ZZ=            -87.0702
   XY=             -0.7432   XZ=              1.0262   YZ=              2.1332
 Traceless Quadrupole moment (field-independent basis, Debye-Ang):
   XX=              8.4398   YY=              1.8970   ZZ=            -10.3368
   XY=             -0.7432   XZ=              1.0262   YZ=              2.1332
 Octapole moment (field-independent basis, Debye-Ang**2):
  XXX=             -8.8714  YYY=              1.9684  ZZZ=             -2.4786  XYY=             -8.1373
  XXY=              5.7499  XXZ=             -4.3754  XZZ=              8.9663  YZZ=             -1.5943
  YYZ=             -1.1527  XYZ=             -1.1968
 Hexadecapole moment (field-independent basis, Debye-Ang**3):
 XXXX=          -2941.7821 YYYY=           -503.2482 ZZZZ=           -344.5439 XXXY=              6.7192
 XXXZ=             -9.8918 YYYX=              2.2821 YYYZ=              0.9198 ZZZX=             -5.5694
 ZZZY=             -0.1747 XXYY=           -589.0748 XXZZ=           -625.7683 YYZZ=           -150.7269
 XXYZ=              5.8877 YYXZ=             -1.9435 ZZXY=              0.9105
 N-N= 8.037162666902D+02 E-N=-3.498361172496D+03  KE= 8.011207131725D+02
 No NMR shielding tensors so no spin-rotation constants.
 Leave Link  601 at Tue Oct  5 16:44:44 2021, MaxMem= 1073741824 cpu:       0.8
 (Enter /sw/target/amd/app/gaussian/Gaussian09RevA.02_gcc-4.9.2/g09/l701.exe)
 Compute integral first derivatives.
 ... and contract with generalized density number  0.
 Leave Link  701 at Tue Oct  5 16:44:44 2021, MaxMem= 1073741824 cpu:       0.8
 (Enter /sw/target/amd/app/gaussian/Gaussian09RevA.02_gcc-4.9.2/g09/l702.exe)
 L702 exits ... SP integral derivatives will be done elsewhere.
 Leave Link  702 at Tue Oct  5 16:44:44 2021, MaxMem= 1073741824 cpu:       0.0
 (Enter /sw/target/amd/app/gaussian/Gaussian09RevA.02_gcc-4.9.2/g09/l703.exe)
 Compute integral first derivatives, UseDBF=F ICtDFT=           0.
 Integral derivatives from FoFDir, PRISM(SPDF).
 Calling FoFJK, ICntrl=      2127 FMM=F ISym2X=0 I1Cent= 0 IOpClX= 0 NMat=1 NMatS=1 NMatT=0.
 FoFCou: FMM=F IPFlag=           0 FMFlag=      100000 FMFlg1=         800
         NFxFlg=           0 DoJE=F BraDBF=F KetDBF=F FulRan=T
         Omega=  0.000000  0.000000  1.000000  0.000000  0.000000 ICntrl=    2127 IOpCl=  0
         NMat0=    1 NMatS0=    1 NMatT0=    0 NMatD0=    1 NMtDS0=    0 NMtDT0=    0
         I1Cent=           0 NGrid=           0.
 Symmetry not used in FoFCou.
 Leave Link  703 at Tue Oct  5 16:44:57 2021, MaxMem= 1073741824 cpu:      48.6
 (Enter /sw/target/amd/app/gaussian/Gaussian09RevA.02_gcc-4.9.2/g09/l716.exe)
 Dipole        = 1.41614375D-01-5.24083851D-01 9.87583415D-01
 ***** Axes restored to original set *****
 -------------------------------------------------------------------
 Center     Atomic                   Forces (Hartrees/Bohr)
 Number     Number              X              Y              Z
 -------------------------------------------------------------------
      1        6           0.004854263    0.013519964   -0.018861724
      2        6          -0.017579207   -0.043606722    0.076482081
      3       15          -0.001940147   -0.013386264   -0.109011502
      4        8          -0.012036184    0.007433755   -0.007639044
      5        6           0.006472056    0.041009536    0.041947176
      6        6           0.003074932    0.004638495   -0.004435018
      7        6          -0.001725083    0.003106784   -0.002340137
      8        6          -0.000856550    0.004697505    0.002188068
      9        6          -0.004764942   -0.002650318    0.001512149
     10        6           0.002571026   -0.010453346   -0.000324479
     11        6          -0.004270320    0.009287665   -0.005962877
     12        6           0.003917976   -0.000928456    0.003438349
     13        1           0.000762833    0.002473532    0.002307297
     14        1           0.000991106    0.002232428    0.007374150
     15        1           0.001338742   -0.002266669   -0.000145784
     16        1           0.011576794   -0.008905368    0.003306843
     17        1           0.000881620    0.000326953    0.000973541
     18        1           0.000201787   -0.000085986    0.000435280
     19        1           0.000583140   -0.000099260    0.000674205
     20        1          -0.000460912   -0.001274028   -0.000264413
     21        1           0.001471719    0.000098411    0.001356179
     22        1           0.002708060    0.000912830   -0.000365179
     23        1          -0.001605920   -0.001094826    0.002509342
     24        1           0.003144121   -0.001604052    0.000605936
     25        1           0.001199546   -0.001536795    0.000668551
     26        1           0.000436932   -0.000844327    0.000273079
     27        1          -0.000947389   -0.001001443    0.003297931
 -------------------------------------------------------------------
 Cartesian Forces:  Max     0.109011502 RMS     0.017639878
 Leave Link  716 at Tue Oct  5 16:44:57 2021, MaxMem= 1073741824 cpu:       0.0
 (Enter /sw/target/amd/app/gaussian/Gaussian09RevA.02_gcc-4.9.2/g09/l103.exe)

 GradGradGradGradGradGradGradGradGradGradGradGradGradGradGradGradGradGrad
 Berny optimization.
 Internal  Forces:  Max     0.115055752 RMS     0.020550756
 Search for a local minimum.
 Step number   1 out of a maximum of  151
 All quantities printed in internal units (Hartrees-Bohrs-Radians)
 RMS Force = .20551D-01 SwitMx=.10000D-02 MixMth= 1
 Mixed Optimization -- RFO/linear search
 Second derivative matrix not updated -- first step.
     Eigenvalues ---    0.00230   0.00244   0.00280   0.00384   0.00767
     Eigenvalues ---    0.01208   0.02085   0.02112   0.02117   0.02135
     Eigenvalues ---    0.02144   0.02158   0.02159   0.02164   0.03748
     Eigenvalues ---    0.04610   0.05116   0.05217   0.05333   0.05344
     Eigenvalues ---    0.05391   0.05460   0.05464   0.05506   0.12178
     Eigenvalues ---    0.13343   0.14640   0.15995   0.15998   0.15999
     Eigenvalues ---    0.15999   0.16000   0.16000   0.16000   0.16000
     Eigenvalues ---    0.16000   0.16000   0.16000   0.16000   0.16000
     Eigenvalues ---    0.16000   0.16000   0.16973   0.21406   0.22000
     Eigenvalues ---    0.22000   0.23478   0.23889   0.23889   0.24993
     Eigenvalues ---    0.24997   0.28164   0.28565   0.28812   0.34150
     Eigenvalues ---    0.34160   0.34169   0.34184   0.34192   0.34204
     Eigenvalues ---    0.34230   0.34264   0.34266   0.35126   0.35155
     Eigenvalues ---    0.35172   0.35206   0.35243   0.41819   0.41994
     Eigenvalues ---    0.45630   0.46078   0.46355   0.46538   0.63983
     Eigenvalues --- 1000.000001000.000001000.000001000.000001000.00000
     Eigenvalues --- 1000.000001000.000001000.000001000.000001000.00000
     Eigenvalues --- 1000.000001000.000001000.000001000.000001000.00000
     Eigenvalues --- 1000.000001000.000001000.000001000.000001000.00000
     Eigenvalues --- 1000.000001000.000001000.000001000.000001000.00000
     Eigenvalues --- 1000.000001000.000001000.000001000.000001000.00000
     Eigenvalues --- 1000.000001000.000001000.000001000.000001000.00000
     Eigenvalues --- 1000.000001000.000001000.000001000.000001000.00000
     Eigenvalues --- 1000.000001000.000001000.000001000.000001000.00000
     Eigenvalues --- 1000.000001000.000001000.000001000.000001000.00000
     Eigenvalues --- 1000.000001000.000001000.000001000.000001000.00000
     Eigenvalues --- 1000.000001000.000001000.000001000.000001000.00000
     Eigenvalues --- 1000.000001000.000001000.000001000.000001000.00000
     Eigenvalues --- 1000.00000
 RFO step:  Lambda=-1.76081348D-01 EMin= 2.30000000D-03
 Linear search not attempted -- first point.
 Maximum step size (   0.300) exceeded in Quadratic search.
    -- Step size scaled by   0.414
 Iteration  1 RMS(Cart)=  0.16474161 RMS(Int)=  0.01383745
 Iteration  2 RMS(Cart)=  0.16379180 RMS(Int)=  0.00694274
 Iteration  3 RMS(Cart)=  0.01805791 RMS(Int)=  0.00290536
 Iteration  4 RMS(Cart)=  0.00017817 RMS(Int)=  0.00290532
 Iteration  5 RMS(Cart)=  0.00000743 RMS(Int)=  0.00290532
 Iteration  6 RMS(Cart)=  0.00000029 RMS(Int)=  0.00290532
 Variable       Old X    -DE/DX   Delta X   Delta X   Delta X     New X
                                 (Linear)    (Quad)   (Total)
    R1        2.90396  -0.00425   0.00000  -0.00379  -0.00379   2.90017
    R2        2.06884  -0.00193   0.00000  -0.00154  -0.00154   2.06729
    R3        2.07078   0.00056   0.00000   0.00045   0.00045   2.07123
    R4        2.06943   0.00139   0.00000   0.00111   0.00111   2.07054
    R5        3.45820   0.04565   0.00000   0.04555   0.04522   3.50342
    R6        2.90919  -0.00051   0.00000  -0.00046  -0.00046   2.90873
    R7        2.91782   0.00972   0.00000   0.00879   0.00879   2.92661
    R8        2.91621   0.01334   0.00000   0.00677   0.00677   2.92298
    R9        3.45820   0.02457   0.00000   0.02451   0.02485   3.48305
   R10        2.66835   0.01339   0.00000   0.01421   0.01421   2.68256
   R11        2.64487   0.00390   0.00000   0.00257   0.00255   2.64742
   R12        2.64942  -0.00361   0.00000  -0.00240  -0.00242   2.64700
   R13        2.63912   0.00126   0.00000   0.00086   0.00086   2.63998
   R14        2.05283   0.00025   0.00000   0.00020   0.00020   2.05302
   R15        2.63616  -0.00207   0.00000  -0.00132  -0.00130   2.63487
   R16        2.05424   0.00010   0.00000   0.00008   0.00008   2.05432
   R17        2.63507   0.00472   0.00000   0.00302   0.00305   2.63812
   R18        2.05397  -0.00010   0.00000  -0.00008  -0.00008   2.05389
   R19        2.63482  -0.00107   0.00000  -0.00073  -0.00073   2.63409
   R20        2.05342  -0.00013   0.00000  -0.00010  -0.00010   2.05332
   R21        2.05471  -0.00047   0.00000  -0.00037  -0.00037   2.05434
   R22        2.06887  -0.00115   0.00000  -0.00092  -0.00092   2.06795
   R23        2.07047   0.00110   0.00000   0.00088   0.00088   2.07134
   R24        2.07008   0.00067   0.00000   0.00053   0.00053   2.07061
   R25        2.07021   0.00114   0.00000   0.00091   0.00091   2.07113
   R26        2.06987   0.00071   0.00000   0.00057   0.00057   2.07044
   R27        2.07061   0.00167   0.00000   0.00134   0.00134   2.07195
    A1        1.94743  -0.00194   0.00000  -0.00203  -0.00204   1.94539
    A2        1.94318  -0.01052   0.00000  -0.01339  -0.01340   1.92978
    A3        1.93280   0.00434   0.00000   0.00541   0.00541   1.93821
    A4        1.87598   0.00642   0.00000   0.00780   0.00777   1.88375
    A5        1.87389   0.00056   0.00000   0.00150   0.00150   1.87539
    A6        1.88764   0.00167   0.00000   0.00137   0.00138   1.88901
    A7        1.97579  -0.01181   0.00000  -0.02143  -0.02229   1.95349
    A8        1.91571  -0.00661   0.00000  -0.00321  -0.00070   1.91501
    A9        1.88345  -0.00798   0.00000  -0.00581  -0.00344   1.88001
   A10        1.94393  -0.00032   0.00000   0.00021   0.00028   1.94420
   A11        1.86388   0.00893   0.00000   0.01429   0.01535   1.87923
   A12        1.87676   0.01977   0.00000   0.01840   0.01257   1.88933
   A13        1.56507   0.11506   0.00000   0.13846   0.13573   1.70080
   A14        1.59737   0.08463   0.00000   0.10759   0.11055   1.70792
   A15        1.57652   0.10022   0.00000   0.12398   0.12577   1.70230
   A16        2.05114   0.00396   0.00000   0.00775  -0.01030   2.04084
   A17        1.54422   0.09915   0.00000   0.12546   0.12543   1.66965
   A18        2.09456   0.01723   0.00000   0.01688   0.01754   2.11210
   A19        2.10055  -0.01785   0.00000  -0.01721  -0.01821   2.08234
   A20        2.08783   0.00105   0.00000   0.00084   0.00091   2.08874
   A21        2.09337   0.00159   0.00000   0.00182   0.00176   2.09514
   A22        2.09974  -0.00024   0.00000  -0.00024  -0.00021   2.09953
   A23        2.08999  -0.00135   0.00000  -0.00157  -0.00155   2.08844
   A24        2.09714  -0.00199   0.00000  -0.00193  -0.00193   2.09521
   A25        2.09436   0.00078   0.00000   0.00070   0.00070   2.09506
   A26        2.09165   0.00120   0.00000   0.00123   0.00123   2.09288
   A27        2.09640  -0.00143   0.00000  -0.00145  -0.00143   2.09497
   A28        2.09430   0.00050   0.00000   0.00046   0.00045   2.09475
   A29        2.09242   0.00092   0.00000   0.00097   0.00096   2.09338
   A30        2.09290   0.00389   0.00000   0.00402   0.00401   2.09691
   A31        2.09621  -0.00062   0.00000  -0.00036  -0.00035   2.09585
   A32        2.09402  -0.00328   0.00000  -0.00367  -0.00366   2.09035
   A33        2.09871  -0.00309   0.00000  -0.00328  -0.00333   2.09539
   A34        2.09057   0.00160   0.00000   0.00167   0.00169   2.09226
   A35        2.09364   0.00150   0.00000   0.00162   0.00164   2.09528
   A36        1.94688  -0.00273   0.00000  -0.00321  -0.00322   1.94366
   A37        1.92906   0.00410   0.00000   0.00516   0.00517   1.93423
   A38        1.94645  -0.00513   0.00000  -0.00659  -0.00660   1.93986
   A39        1.87129   0.00044   0.00000   0.00106   0.00106   1.87235
   A40        1.87880   0.00375   0.00000   0.00440   0.00438   1.88318
   A41        1.88843  -0.00016   0.00000  -0.00050  -0.00049   1.88794
   A42        1.93343   0.00151   0.00000   0.00200   0.00200   1.93543
   A43        1.95066  -0.00074   0.00000  -0.00127  -0.00127   1.94940
   A44        1.93102   0.00277   0.00000   0.00361   0.00360   1.93462
   A45        1.88731  -0.00128   0.00000  -0.00195  -0.00195   1.88536
   A46        1.87035  -0.00064   0.00000  -0.00010  -0.00011   1.87024
   A47        1.88839  -0.00176   0.00000  -0.00245  -0.00245   1.88594
    D1       -1.17096   0.00340   0.00000   0.00464   0.00486  -1.16610
    D2        1.01299  -0.01090   0.00000  -0.01346  -0.01144   1.00154
    D3        3.05335   0.00458   0.00000   0.00346   0.00123   3.05458
    D4        3.01623   0.00374   0.00000   0.00525   0.00545   3.02168
    D5       -1.08301  -0.01056   0.00000  -0.01286  -0.01085  -1.09386
    D6        0.95736   0.00492   0.00000   0.00407   0.00183   0.95918
    D7        0.91536   0.00572   0.00000   0.00881   0.00903   0.92439
    D8        3.09931  -0.00858   0.00000  -0.00929  -0.00727   3.09204
    D9       -1.14351   0.00691   0.00000   0.00763   0.00540  -1.13811
   D10        1.04954   0.00222   0.00000   0.00464   0.01106   1.06060
   D11       -1.00162  -0.00547   0.00000  -0.00764  -0.00826  -1.00989
[...]
    27  H    0.203132
 Sum of Mulliken atomic charges =  -0.00000
 Mulliken charges with hydrogens summed into heavy atoms:
              1
     1  C    0.035490
     2  C   -0.113153
     3  P    0.777297
     4  O   -0.384110
     5  C   -0.159785
     6  C   -0.066579
     7  C   -0.019573
     8  C   -0.095009
     9  C   -0.008539
    10  C   -0.098746
    11  C    0.062530
    12  C    0.070176
 Sum of Mulliken charges with hydrogens summed into heavy atoms =  -0.00000
 Electronic spatial extent (au):  <R**2>=           2559.6970
 Charge=              0.0000 electrons
 Dipole moment (field-independent basis, Debye):
    X=              5.8532    Y=              1.8715    Z=              0.3566  Tot=              6.1554
 Quadrupole moment (field-independent basis, Debye-Ang):
   XX=            -81.2732   YY=            -81.6918   ZZ=            -79.1087
   XY=              2.9412   XZ=              0.2444   YZ=             -2.6653
 Traceless Quadrupole moment (field-independent basis, Debye-Ang):
   XX=             -0.5820   YY=             -1.0006   ZZ=              1.5826
   XY=              2.9412   XZ=              0.2444   YZ=             -2.6653
 Octapole moment (field-independent basis, Debye-Ang**2):
  XXX=             49.1954  YYY=              4.3566  ZZZ=             -2.9221  XYY=              3.6806
  XXY=              5.4903  XXZ=              7.3909  XZZ=             14.9604  YZZ=             -1.4527
  YYZ=              3.5310  XYZ=              4.9065
 Hexadecapole moment (field-independent basis, Debye-Ang**3):
 XXXX=          -2410.6154 YYYY=           -656.2050 ZZZZ=           -434.7962 XXXY=            -10.9264
 XXXZ=            -13.2343 YYYX=              7.1638 YYYZ=             -7.2065 ZZZX=             -1.1926
 ZZZY=              7.9027 XXYY=           -500.5888 XXZZ=           -478.7034 YYZZ=           -176.2920
 XXYZ=            -11.9498 YYXZ=              9.2585 ZZXY=              6.5174
 N-N= 8.185798584349D+02 E-N=-3.526781875911D+03  KE= 8.010114982774D+02
 No NMR shielding tensors so no spin-rotation constants.
 Leave Link  601 at Tue Oct  5 17:31:19 2021, MaxMem= 1073741824 cpu:       0.8
 (Enter /sw/target/amd/app/gaussian/Gaussian09RevA.02_gcc-4.9.2/g09/l604.exe)
 Evaluate density.
 Using the total density.
 Monte-Carlo method of calculating molar volume:
 based on  0.001 e/bohr**3 density envelope.
 Number of points per bohr**3 =   20 CutOff= 1.00D-04
 Using the CI density.
 There are       446 points.  Will hold       446 in memory.
 LenV=  1073598586 MDV=  1073741824.
 Box volume =11141.416 fraction occupied=0.137
 Integrated density= 1.3866387095291896D+02 error= 4.0663870952918955D+01
 Molar volume = 1523.826 bohr**3/mol (135.985 cm**3/mol)
 Recommended a0 for SCRF calculation =  4.66 angstrom (  8.80 bohr)
 Leave Link  604 at Tue Oct  5 17:31:20 2021, MaxMem= 1073741824 cpu:       0.2
 (Enter /sw/target/amd/app/gaussian/Gaussian09RevA.02_gcc-4.9.2/g09/l607.exe)
 ******************************Gaussian NBO Version 3.1******************************
             N A T U R A L   A T O M I C   O R B I T A L   A N D
          N A T U R A L   B O N D   O R B I T A L   A N A L Y S I S
 ******************************Gaussian NBO Version 3.1******************************
       /RESON  / : Allow strongly delocalized NBO set

 Analyzing the CI density

 Job title: CC(P(=O)c1ccccc1)(C)C_conf_0                                    

 Storage needed:    139816 in NPA (1073737909 available)


 NATURAL POPULATIONS:  Natural atomic orbital occupancies 
                                                          
   NAO  Atom  No  lang   Type(AO)    Occupancy
 --------------------------------------------
     1    C    1  S      Cor( 1S)     1.99937
     2    C    1  S      Val( 2S)     1.09637
     3    C    1  S      Ryd( 3S)     0.00077
     4    C    1  S      Ryd( 4S)     0.00002
     5    C    1  px     Val( 2p)     1.08609
     6    C    1  px     Ryd( 3p)     0.00193
     7    C    1  py     Val( 2p)     1.25747
     8    C    1  py     Ryd( 3p)     0.00262
     9    C    1  pz     Val( 2p)     1.23835
    10    C    1  pz     Ryd( 3p)     0.00258
    11    C    1  dxy    Ryd( 3d)     0.00056
    12    C    1  dxz    Ryd( 3d)     0.00063
    13    C    1  dyz    Ryd( 3d)     0.00044
    14    C    1  dx2y2  Ryd( 3d)     0.00089
    15    C    1  dz2    Ryd( 3d)     0.00093

    16    C    2  S      Cor( 1S)     1.99915
    17    C    2  S      Val( 2S)     1.01768
    18    C    2  S      Ryd( 3S)     0.00286
    19    C    2  S      Ryd( 4S)     0.00002
    20    C    2  px     Val( 2p)     1.09139
    21    C    2  px     Ryd( 3p)     0.00354
    22    C    2  py     Val( 2p)     1.10662
    23    C    2  py     Ryd( 3p)     0.00538
    24    C    2  pz     Val( 2p)     1.10839
    25    C    2  pz     Ryd( 3p)     0.00266
    26    C    2  dxy    Ryd( 3d)     0.00074
    27    C    2  dxz    Ryd( 3d)     0.00077
    28    C    2  dyz    Ryd( 3d)     0.00080
    29    C    2  dx2y2  Ryd( 3d)     0.00074
    30    C    2  dz2    Ryd( 3d)     0.00065

    31    P    3  S      Cor( 1S)     2.00000
    32    P    3  S      Cor( 2S)     1.99844
    33    P    3  S      Val( 3S)     1.01053
    34    P    3  S      Ryd( 4S)     0.00761
    35    P    3  S      Ryd( 5S)     0.00003
    36    P    3  px     Cor( 2p)     1.99981
    37    P    3  px     Val( 3p)     0.75247
    38    P    3  px     Ryd( 4p)     0.00006
    39    P    3  py     Cor( 2p)     1.99985
    40    P    3  py     Val( 3p)     0.54358
    41    P    3  py     Ryd( 4p)     0.00960
    42    P    3  pz     Cor( 2p)     1.99985
    43    P    3  pz     Val( 3p)     0.87868
    44    P    3  pz     Ryd( 4p)     0.00409
    45    P    3  dxy    Ryd( 3d)     0.01349
    46    P    3  dxz    Ryd( 3d)     0.01009
    47    P    3  dyz    Ryd( 3d)     0.02497
    48    P    3  dx2y2  Ryd( 3d)     0.01847
    49    P    3  dz2    Ryd( 3d)     0.00974

    50    O    4  S      Cor( 1S)     1.99992
    51    O    4  S      Val( 2S)     1.81833
    52    O    4  S      Ryd( 3S)     0.00137
    53    O    4  S      Ryd( 4S)     0.00001
    54    O    4  px     Val( 2p)     1.40101
    55    O    4  px     Ryd( 3p)     0.00069
    56    O    4  py     Val( 2p)     1.66592
    57    O    4  py     Ryd( 3p)     0.00021
    58    O    4  pz     Val( 2p)     1.79769
    59    O    4  pz     Ryd( 3p)     0.00099
    60    O    4  dxy    Ryd( 3d)     0.00180
    61    O    4  dxz    Ryd( 3d)     0.00009
    62    O    4  dyz    Ryd( 3d)     0.00225
    63    O    4  dx2y2  Ryd( 3d)     0.00118
    64    O    4  dz2    Ryd( 3d)     0.00035

    65    C    5  S      Cor( 1S)     1.99884
    66    C    5  S      Val( 2S)     0.95234
    67    C    5  S      Ryd( 3S)     0.00225
    68    C    5  S      Ryd( 4S)     0.00005
    69    C    5  px     Val( 2p)     1.13983
    70    C    5  px     Ryd( 3p)     0.00637
    71    C    5  py     Val( 2p)     1.19067
    72    C    5  py     Ryd( 3p)     0.00508
    73    C    5  pz     Val( 2p)     1.28015
    74    C    5  pz     Ryd( 3p)     0.00531
    75    C    5  dxy    Ryd( 3d)     0.00048
    76    C    5  dxz    Ryd( 3d)     0.00040
    77    C    5  dyz    Ryd( 3d)     0.00051
    78    C    5  dx2y2  Ryd( 3d)     0.00065
    79    C    5  dz2    Ryd( 3d)     0.00055

    80    C    6  S      Cor( 1S)     1.99903
    81    C    6  S      Val( 2S)     0.94019
    82    C    6  S      Ryd( 3S)     0.00084
    83    C    6  S      Ryd( 4S)     0.00004
    84    C    6  px     Val( 2p)     1.09331
    85    C    6  px     Ryd( 3p)     0.00500
    86    C    6  py     Val( 2p)     1.13763
    87    C    6  py     Ryd( 3p)     0.00469
    88    C    6  pz     Val( 2p)     1.06468
    89    C    6  pz     Ryd( 3p)     0.00381
    90    C    6  dxy    Ryd( 3d)     0.00090
    91    C    6  dxz    Ryd( 3d)     0.00063
    92    C    6  dyz    Ryd( 3d)     0.00045
    93    C    6  dx2y2  Ryd( 3d)     0.00048
    94    C    6  dz2    Ryd( 3d)     0.00068

    95    C    7  S      Cor( 1S)     1.99910
    96    C    7  S      Val( 2S)     0.95467
    97    C    7  S      Ryd( 3S)     0.00061
    98    C    7  S      Ryd( 4S)     0.00003
    99    C    7  px     Val( 2p)     1.08471
   100    C    7  px     Ryd( 3p)     0.00453
   101    C    7  py     Val( 2p)     1.10973
   102    C    7  py     Ryd( 3p)     0.00439
   103    C    7  pz     Val( 2p)     1.07498
   104    C    7  pz     Ryd( 3p)     0.00303
   105    C    7  dxy    Ryd( 3d)     0.00061
   106    C    7  dxz    Ryd( 3d)     0.00079
   107    C    7  dyz    Ryd( 3d)     0.00069
   108    C    7  dx2y2  Ryd( 3d)     0.00070
   109    C    7  dz2    Ryd( 3d)     0.00032

   110    C    8  S      Cor( 1S)     1.99911
   111    C    8  S      Val( 2S)     0.94736
   112    C    8  S      Ryd( 3S)     0.00056
   113    C    8  S      Ryd( 4S)     0.00003
   114    C    8  px     Val( 2p)     1.18030
   115    C    8  px     Ryd( 3p)     0.00459
   116    C    8  py     Val( 2p)     1.07937
   117    C    8  py     Ryd( 3p)     0.00511
   118    C    8  pz     Val( 2p)     1.12178
   119    C    8  pz     Ryd( 3p)     0.00500
   120    C    8  dxy    Ryd( 3d)     0.00056
   121    C    8  dxz    Ryd( 3d)     0.00047
   122    C    8  dyz    Ryd( 3d)     0.00041
   123    C    8  dx2y2  Ryd( 3d)     0.00068
   124    C    8  dz2    Ryd( 3d)     0.00045

   125    C    9  S      Cor( 1S)     1.99909
   126    C    9  S      Val( 2S)     0.95579
   127    C    9  S      Ryd( 3S)     0.00061
   128    C    9  S      Ryd( 4S)     0.00003
   129    C    9  px     Val( 2p)     1.06526
   130    C    9  px     Ryd( 3p)     0.00445
   131    C    9  py     Val( 2p)     1.13822
   132    C    9  py     Ryd( 3p)     0.00432
   133    C    9  pz     Val( 2p)     1.04752
   134    C    9  pz     Ryd( 3p)     0.00279
   135    C    9  dxy    Ryd( 3d)     0.00085
   136    C    9  dxz    Ryd( 3d)     0.00060
   137    C    9  dyz    Ryd( 3d)     0.00050
   138    C    9  dx2y2  Ryd( 3d)     0.00055
   139    C    9  dz2    Ryd( 3d)     0.00071

   140    C   10  S      Cor( 1S)     1.99901
   141    C   10  S      Val( 2S)     0.93569
   142    C   10  S      Ryd( 3S)     0.00084
   143    C   10  S      Ryd( 4S)     0.00004
   144    C   10  px     Val( 2p)     1.10618
   145    C   10  px     Ryd( 3p)     0.00470
   146    C   10  py     Val( 2p)     1.10712
   147    C   10  py     Ryd( 3p)     0.00484
   148    C   10  pz     Val( 2p)     1.11789
   149    C   10  pz     Ryd( 3p)     0.00469
   150    C   10  dxy    Ryd( 3d)     0.00065
   151    C   10  dxz    Ryd( 3d)     0.00079
   152    C   10  dyz    Ryd( 3d)     0.00065
   153    C   10  dx2y2  Ryd( 3d)     0.00063
   154    C   10  dz2    Ryd( 3d)     0.00029

   155    C   11  S      Cor( 1S)     1.99936
   156    C   11  S      Val( 2S)     1.09527
   157    C   11  S      Ryd( 3S)     0.00080
   158    C   11  S      Ryd( 4S)     0.00002
   159    C   11  px     Val( 2p)     1.26839
   160    C   11  px     Ryd( 3p)     0.00290
   161    C   11  py     Val( 2p)     1.24091
   162    C   11  py     Ryd( 3p)     0.00300
   163    C   11  pz     Val( 2p)     1.07453
   164    C   11  pz     Ryd( 3p)     0.00201
   165    C   11  dxy    Ryd( 3d)     0.00043
   166    C   11  dxz    Ryd( 3d)     0.00077
   167    C   11  dyz    Ryd( 3d)     0.00044
   168    C   11  dx2y2  Ryd( 3d)     0.00100
   169    C   11  dz2    Ryd( 3d)     0.00073

   170    C   12  S      Cor( 1S)     1.99935
   171    C   12  S      Val( 2S)     1.09561
   172    C   12  S      Ryd( 3S)     0.00070
   173    C   12  S      Ryd( 4S)     0.00002
   174    C   12  px     Val( 2p)     1.26805
   175    C   12  px     Ryd( 3p)     0.00307
   176    C   12  py     Val( 2p)     1.05721
   177    C   12  py     Ryd( 3p)     0.00163
   178    C   12  pz     Val( 2p)     1.25681
   179    C   12  pz     Ryd( 3p)     0.00330
   180    C   12  dxy    Ryd( 3d)     0.00056
   181    C   12  dxz    Ryd( 3d)     0.00061
   182    C   12  dyz    Ryd( 3d)     0.00058
   183    C   12  dx2y2  Ryd( 3d)     0.00079
   184    C   12  dz2    Ryd( 3d)     0.00080

   185    H   13  S      Val( 1S)     0.75174
   186    H   13  S      Ryd( 2S)     0.00116

   187    H   14  S      Val( 1S)     0.75140
   188    H   14  S      Ryd( 2S)     0.00167

   189    H   15  S      Val( 1S)     0.75930
   190    H   15  S      Ryd( 2S)     0.00105

   191    H   16  S      Val( 1S)     1.05808
   192    H   16  S      Ryd( 2S)     0.00246

   193    H   17  S      Val( 1S)     0.77327
   194    H   17  S      Ryd( 2S)     0.00086

   195    H   18  S      Val( 1S)     0.77335
   196    H   18  S      Ryd( 2S)     0.00084

   197    H   19  S      Val( 1S)     0.77935
   198    H   19  S      Ryd( 2S)     0.00072

   199    H   20  S      Val( 1S)     0.77206
   200    H   20  S      Ryd( 2S)     0.00083

   201    H   21  S      Val( 1S)     0.78354
   202    H   21  S      Ryd( 2S)     0.00122

   203    H   22  S      Val( 1S)     0.75251
   204    H   22  S      Ryd( 2S)     0.00122

   205    H   23  S      Val( 1S)     0.73639
   206    H   23  S      Ryd( 2S)     0.00100

   207    H   24  S      Val( 1S)     0.74994
   208    H   24  S      Ryd( 2S)     0.00105

   209    H   25  S      Val( 1S)     0.75796
   210    H   25  S      Ryd( 2S)     0.00119

   211    H   26  S      Val( 1S)     0.74343
   212    H   26  S      Ryd( 2S)     0.00105

   213    H   27  S      Val( 1S)     0.73143
   214    H   27  S      Ryd( 2S)     0.00095

 WARNING:  1 low occupancy (<1.9990e) core orbital  found on  P    3
           1 low occupancy (<1.9990e) core orbital  found on  C    5


 Summary of Natural Population Analysis:                  
                                                          
                                       Natural Population 
                Natural  -----------------------------------------------
    Atom  No    Charge         Core      Valence    Rydberg      Total
 -----------------------------------------------------------------------
      C    1   -0.68902      1.99937     4.67828    0.01138     6.68902
      C    2   -0.34139      1.99915     4.32408    0.01816     6.34139
      P    3    1.71864      9.99795     3.18526    0.09815    13.28136
      O    4   -0.69179      1.99992     6.68295    0.00892     8.69179
      C    5   -0.58347      1.99884     4.56299    0.02164     6.58347
      C    6   -0.25234      1.99903     4.23580    0.01751     6.25234
      C    7   -0.23888      1.99910     4.22409    0.01569     6.23888
      C    8   -0.34579      1.99911     4.32881    0.01787     6.34579
      C    9   -0.22127      1.99909     4.20679    0.01539     6.22127
      C   10   -0.28402      1.99901     4.26688    0.01813     6.28402
      C   11   -0.69057      1.99936     4.67910    0.01211     6.69057
      C   12   -0.68909      1.99935     4.67769    0.01205     6.68909
      H   13    0.24710      0.00000     0.75174    0.00116     0.75290
      H   14    0.24692      0.00000     0.75140    0.00167     0.75308
      H   15    0.23966      0.00000     0.75930    0.00105     0.76034
      H   16   -0.06054      0.00000     1.05808    0.00246     1.06054
      H   17    0.22588      0.00000     0.77327    0.00086     0.77412
      H   18    0.22581      0.00000     0.77335    0.00084     0.77419
      H   19    0.21993      0.00000     0.77935    0.00072     0.78007
      H   20    0.22711      0.00000     0.77206    0.00083     0.77289
      H   21    0.21524      0.00000     0.78354    0.00122     0.78476
      H   22    0.24626      0.00000     0.75251    0.00122     0.75374
      H   23    0.26261      0.00000     0.73639    0.00100     0.73739
      H   24    0.24901      0.00000     0.74994    0.00105     0.75099
      H   25    0.24085      0.00000     0.75796    0.00119     0.75915
      H   26    0.25553      0.00000     0.74343    0.00105     0.74447
      H   27    0.26763      0.00000     0.73143    0.00095     0.73237
 =======================================================================
   * Total *   -0.00000     31.98927    65.72645    0.28428    98.00000

                                 Natural Population      
 --------------------------------------------------------
   Core                      31.98927 ( 99.9665% of  32)
   Valence                   65.72645 ( 99.5855% of  66)
   Natural Minimal Basis     97.71572 ( 99.7099% of  98)
   Natural Rydberg Basis      0.28428 (  0.2901% of  98)
 --------------------------------------------------------

    Atom  No          Natural Electron Configuration
 ----------------------------------------------------------------------------
      C    1      [core]2S( 1.10)2p( 3.58)3p( 0.01)
      C    2      [core]2S( 1.02)2p( 3.31)3p( 0.01)
      P    3      [core]3S( 1.01)3p( 2.17)4S( 0.01)3d( 0.08)4p( 0.01)
      O    4      [core]2S( 1.82)2p( 4.86)3d( 0.01)
      C    5      [core]2S( 0.95)2p( 3.61)3p( 0.02)
      C    6      [core]2S( 0.94)2p( 3.30)3p( 0.01)
      C    7      [core]2S( 0.95)2p( 3.27)3p( 0.01)
      C    8      [core]2S( 0.95)2p( 3.38)3p( 0.01)
      C    9      [core]2S( 0.96)2p( 3.25)3p( 0.01)
      C   10      [core]2S( 0.94)2p( 3.33)3p( 0.01)
      C   11      [core]2S( 1.10)2p( 3.58)3p( 0.01)
      C   12      [core]2S( 1.10)2p( 3.58)3p( 0.01)
      H   13            1S( 0.75)
      H   14            1S( 0.75)
      H   15            1S( 0.76)
      H   16            1S( 1.06)
      H   17            1S( 0.77)
      H   18            1S( 0.77)
      H   19            1S( 0.78)
      H   20            1S( 0.77)
      H   21            1S( 0.78)
      H   22            1S( 0.75)
      H   23            1S( 0.74)
      H   24            1S( 0.75)
      H   25            1S( 0.76)
      H   26            1S( 0.74)
      H   27            1S( 0.73)


 NBO analysis skipped by request.
 Leave Link  607 at Tue Oct  5 17:31:22 2021, MaxMem= 1073741824 cpu:       9.2
 (Enter /sw/target/amd/app/gaussian/Gaussian09RevA.02_gcc-4.9.2/g09/l9999.exe)
 1\1\GINC-HERMITE\SP\RTD-B3LYP-FC\6-31G(d)\C10H15O1P1\JSCHLEINITZ\05-Oc
 t-2021\0\\#p TD(NStates=10, Root=1) b3lyp/6-31G* volume pop=NPA densit
 y=current Geom=AllCheck Guess=Read\\CC(P(=O)c1ccccc1)(C)C_conf_0\\0,1\
 C,0,2.3133000246,-1.1632776794,-0.5733233802\C,0,2.7550668247,0.264042
 2174,-0.1885480862\P,0,2.7555073079,1.2497437329,-1.772126403\O,0,1.42
 99463205,1.2626100257,-2.4783912493\C,0,3.4205184959,2.9160690764,-1.4
 35916624\C,0,2.5140918918,3.9755806227,-1.2875013198\C,0,2.9793118087,
 5.266196949,-1.0342479878\C,0,4.3511393947,5.5088119083,-0.9360187619\
 C,0,5.2602726628,4.4611825334,-1.0993283961\C,0,4.7969547661,3.1695448
 916,-1.3517250826\C,0,1.731972779,0.890249199,0.7773908913\C,0,4.15605
 71413,0.2339744587,0.4451745222\H,0,1.3354877446,-1.1563995279,-1.0639
 188191\H,0,2.2464200732,-1.7860299677,0.3277565738\H,0,3.0317999773,-1
 .6386378826,-1.2527737578\H,0,3.8368997008,0.6458808545,-2.4780256246\
 H,0,1.450720085,3.7820314636,-1.3955139715\H,0,2.2724376046,6.08387727
 59,-0.9223238645\H,0,4.712686967,6.5153716154,-0.7431478373\H,0,6.3284
 73657,4.6513546005,-1.0388748759\H,0,5.5116027608,2.3622773133,-1.4944
 775669\H,0,0.7362760037,0.9304508617,0.3240087347\H,0,2.0194882021,1.9
 076308107,1.0661287815\H,0,1.6668919616,0.2878309421,1.6922759293\H,0,
 4.9075075012,-0.1732857524,-0.243003226\H,0,4.1441429711,-0.4109501301
 ,1.3329197214\H,0,4.4842647972,1.2294176156,0.7617991364\\Version=AM64
 L-G09RevA.02\State=1-A\HF=-806.6954983\RMSD=2.353e-09\Dipole=-0.164489
 ,-2.2860588,0.7821045\Quadrupole=0.0873686,0.6522224,-0.7395911,-2.276
 8046,-1.8847508,-0.7600262\PG=C01 [X(C10H15O1P1)]\\@


 I SUPPOSE A BABY LLAMA HAS A MMAMA AND A PPOPA.
     -- RICHARD AMOUR
 Job cpu time:  0 days  0 hours 49 minutes 44.8 seconds.
 File lengths (MBytes):  RWF=    152 Int=      0 D2E=      0 Chk=     21 Scr=      1
 Normal termination of Gaussian 09 at Tue Oct  5 17:31:23 2021.
