 Entering Gaussian System, Link 0=g09
 Input=C10H16Li2Zn_8616_conf_0.com
 Output=C10H16Li2Zn_8616_conf_0.log
 Initial command:
 /sw/target/amd/app/gaussian/Gaussian09RevA.02_gcc-4.9.2/g09/l1.exe /home/jschleinitz/gaussian/Gau-2442026.inp -scrdir=/home/jschleinitz/gaussian/
 Entering Link 1 = /sw/target/amd/app/gaussian/Gaussian09RevA.02_gcc-4.9.2/g09/l1.exe PID=   2442043.
  
 Copyright (c) 1988,1990,1992,1993,1995,1998,2003,2009, Gaussian, Inc.
                  All Rights Reserved.
  
 This is part of the Gaussian(R) 09 program.  It is based on
 the Gaussian(R) 03 system (copyright 2003, Gaussian, Inc.),
 the Gaussian(R) 98 system (copyright 1998, Gaussian, Inc.),
 the Gaussian(R) 94 system (copyright 1995, Gaussian, Inc.),
 the Gaussian 92(TM) system (copyright 1992, Gaussian, Inc.),
 the Gaussian 90(TM) system (copyright 1990, Gaussian, Inc.),
 the Gaussian 88(TM) system (copyright 1988, Gaussian, Inc.),
 the Gaussian 86(TM) system (copyright 1986, Carnegie Mellon
 University), and the Gaussian 82(TM) system (copyright 1983,
 Carnegie Mellon University). Gaussian is a federally registered
 trademark of Gaussian, Inc.
  
 This software contains proprietary and confidential information,
 including trade secrets, belonging to Gaussian, Inc.
  
 This software is provided under written license and may be
 used, copied, transmitted, or stored only in accord with that
 written license.
  
 The following legend is applicable only to US Government
 contracts under FAR:
  
                    RESTRICTED RIGHTS LEGEND
  
 Use, reproduction and disclosure by the US Government is
 subject to restrictions as set forth in subparagraphs (a)
 and (c) of the Commercial Computer Software - Restricted
 Rights clause in FAR 52.227-19.
  
 Gaussian, Inc.
 340 Quinnipiac St., Bldg. 40, Wallingford CT 06492
  
  
 ---------------------------------------------------------------
 Warning -- This program may not be used in any manner that
 competes with the business of Gaussian, Inc. or will provide
 assistance to any competitor of Gaussian, Inc.  The licensee
 of this program is prohibited from giving any competitor of
 Gaussian, Inc. access to this program.  By using this program,
 the user acknowledges that Gaussian, Inc. is engaged in the
 business of creating and licensing software in the field of
 computational chemistry and represents and warrants to the
 licensee that it is not a competitor of Gaussian, Inc. and that
 it will not use this program in any manner prohibited above.
 ---------------------------------------------------------------
  

 Cite this work as:
 Gaussian 09, Revision A.02,
 M. J. Frisch, G. W. Trucks, H. B. Schlegel, G. E. Scuseria, 
 M. A. Robb, J. R. Cheeseman, G. Scalmani, V. Barone, B. Mennucci, 
 G. A. Petersson, H. Nakatsuji, M. Caricato, X. Li, H. P. Hratchian, 
 A. F. Izmaylov, J. Bloino, G. Zheng, J. L. Sonnenberg, M. Hada, 
 M. Ehara, K. Toyota, R. Fukuda, J. Hasegawa, M. Ishida, T. Nakajima, 
 Y. Honda, O. Kitao, H. Nakai, T. Vreven, J. A. Montgomery, Jr., 
 J. E. Peralta, F. Ogliaro, M. Bearpark, J. J. Heyd, E. Brothers, 
 K. N. Kudin, V. N. Staroverov, R. Kobayashi, J. Normand, 
 K. Raghavachari, A. Rendell, J. C. Burant, S. S. Iyengar, J. Tomasi, 
 M. Cossi, N. Rega, J. M. Millam, M. Klene, J. E. Knox, J. B. Cross, 
 V. Bakken, C. Adamo, J. Jaramillo, R. Gomperts, R. E. Stratmann, 
 O. Yazyev, A. J. Austin, R. Cammi, C. Pomelli, J. W. Ochterski, 
 R. L. Martin, K. Morokuma, V. G. Zakrzewski, G. A. Voth, 
 P. Salvador, J. J. Dannenberg, S. Dapprich, A. D. Daniels, 
 O. Farkas, J. B. Foresman, J. V. Ortiz, J. Cioslowski, 
 and D. J. Fox, Gaussian, Inc., Wallingford CT, 2009.
 
 ******************************************
 Gaussian 09:  AM64L-G09RevA.02 11-Jun-2009
                 3-Oct-2021 
 ******************************************
 %nproc=4
 Will use up to    4 processors via shared memory.
 %mem=8gb
 %chk=C10H16Li2Zn_8616_conf_0.chk
 -----------------------------------
 #p opt b3lyp/6-31G* scf=(xqc,tight)
 -----------------------------------
 1/14=-1,18=20,19=15,26=3,38=1/1,3;
 2/9=110,12=2,17=6,18=5,40=1/2;
 3/5=1,6=6,7=1,11=2,16=1,25=1,30=1,71=1,74=-5/1,2,3;
 4//1;
 5/5=2,8=3,13=1,32=2,38=5/2,8;
 6/7=2,8=2,9=2,10=2,28=1/1;
 7//1,2,3,16;
 1/14=-1,18=20,19=15/3(2);
 2/9=110/2;
 99//99;
 2/9=110/2;
 3/5=1,6=6,7=1,11=2,16=1,25=1,30=1,71=1,74=-5/1,2,3;
 4/5=5,16=3/1;
 5/5=2,8=3,13=1,32=2,38=5/2,8;
 7//1,2,3,16;
 1/14=-1,18=20,19=15/3(-5);
 2/9=110/2;
 6/7=2,8=2,9=2,10=2,19=2,28=1/1;
 99/9=1/99;
 Leave Link    1 at Sun Oct  3 02:21:41 2021, MaxMem= 1073741824 cpu:       0.1
 (Enter /sw/target/amd/app/gaussian/Gaussian09RevA.02_gcc-4.9.2/g09/l101.exe)
 -----------------------------------------
 Cc1ccc(cc1)[Zn](C)(C)(C)([Li])[Li]_conf_0
 -----------------------------------------
 Symbolic Z-matrix:
 Charge =  0 Multiplicity = 1
 C                    -0.9319   -2.55615  -2.15986 
 C                    -0.65519  -1.08494  -2.27062 
 C                     0.49774  -0.71208  -2.99335 
 C                     0.84081   0.62551  -3.15933 
 C                     0.04263   1.61565  -2.60606 
 C                    -1.09905   1.26918  -1.88695 
 C                    -1.48495  -0.06865  -1.69665 
 Zn                   -3.22484  -0.02911  -0.58864 
 C                    -4.26938  -0.03867  -2.27623 
 C                    -3.427    -2.00228  -0.38326 
 C                    -4.88317   0.19187   0.47773 
 Li                   -1.89277   0.03376   1.50631 
 Li                   -3.32022   2.49702  -0.56514 
 H                    -1.89305  -2.79899  -2.64868 
 H                    -0.90348  -2.8748   -1.10246 
 H                    -0.16     -3.16326  -2.67967 
 H                     1.14148  -1.46193  -3.43721 
 H                     1.72797   0.89372  -3.71864 
 H                     0.30648   2.65753  -2.73451 
 H                    -1.69042   2.06151  -1.47407 
 H                    -3.7738   -0.66654  -3.04536 
 H                    -4.30928   1.00561  -2.64905 
 H                    -5.30699  -0.40878  -2.15108 
 H                    -4.3066   -2.2822    0.23024 
 H                    -2.55801  -2.38851   0.17923 
 H                    -3.57149  -2.53131  -1.34138 
 H                    -5.73986  -0.42676   0.13866 
 H                    -5.18066   1.25917   0.42682 
 H                    -4.657    -0.05878   1.53478 
 
 NAtoms=     29 NQM=     29 NQMF=      0 NMic=      0 NMicF=      0 NTot=     29.
                    Isotopes and Nuclear Properties:
 (Nuclear quadrupole moments (NQMom) in fm**2, nuclear magnetic moments (NMagM)
  in nuclear magnetons)

  Atom         1           2           3           4           5           6           7           8           9          10
 IAtWgt=          12          12          12          12          12          12          12          64          12          12
 AtmWgt=  12.0000000  12.0000000  12.0000000  12.0000000  12.0000000  12.0000000  12.0000000  63.9291454  12.0000000  12.0000000
 NucSpn=           0           0           0           0           0           0           0           0           0           0
 AtZEff=   0.0000000   0.0000000   0.0000000   0.0000000   0.0000000   0.0000000   0.0000000   0.0000000   0.0000000   0.0000000
 NQMom=    0.0000000   0.0000000   0.0000000   0.0000000   0.0000000   0.0000000   0.0000000   0.0000000   0.0000000   0.0000000
 NMagM=    0.0000000   0.0000000   0.0000000   0.0000000   0.0000000   0.0000000   0.0000000   0.0000000   0.0000000   0.0000000

  Atom        11          12          13          14          15          16          17          18          19          20
 IAtWgt=          12           7           7           1           1           1           1           1           1           1
 AtmWgt=  12.0000000   7.0160045   7.0160045   1.0078250   1.0078250   1.0078250   1.0078250   1.0078250   1.0078250   1.0078250
 NucSpn=           0           3           3           1           1           1           1           1           1           1
 AtZEff=   0.0000000   0.0000000   0.0000000   0.0000000   0.0000000   0.0000000   0.0000000   0.0000000   0.0000000   0.0000000
 NQMom=    0.0000000  -4.0100000  -4.0100000   0.0000000   0.0000000   0.0000000   0.0000000   0.0000000   0.0000000   0.0000000
 NMagM=    0.0000000   3.2564240   3.2564240   2.7928460   2.7928460   2.7928460   2.7928460   2.7928460   2.7928460   2.7928460

  Atom        21          22          23          24          25          26          27          28          29
 IAtWgt=           1           1           1           1           1           1           1           1           1
 AtmWgt=   1.0078250   1.0078250   1.0078250   1.0078250   1.0078250   1.0078250   1.0078250   1.0078250   1.0078250
 NucSpn=           1           1           1           1           1           1           1           1           1
 AtZEff=   0.0000000   0.0000000   0.0000000   0.0000000   0.0000000   0.0000000   0.0000000   0.0000000   0.0000000
 NQMom=    0.0000000   0.0000000   0.0000000   0.0000000   0.0000000   0.0000000   0.0000000   0.0000000   0.0000000
 NMagM=    2.7928460   2.7928460   2.7928460   2.7928460   2.7928460   2.7928460   2.7928460   2.7928460   2.7928460
 Leave Link  101 at Sun Oct  3 02:21:43 2021, MaxMem= 1073741824 cpu:       0.2
 (Enter /sw/target/amd/app/gaussian/Gaussian09RevA.02_gcc-4.9.2/g09/l103.exe)

 GradGradGradGradGradGradGradGradGradGradGradGradGradGradGradGradGradGrad
 Berny optimization.
 Initialization pass.
                           ----------------------------
                           !    Initial Parameters    !
                           ! (Angstroms and Degrees)  !
 --------------------------                            --------------------------
 ! Name  Definition              Value          Derivative Info.                !
 --------------------------------------------------------------------------------
 ! R1    R(1,2)                  1.5011         estimate D2E/DX2                !
 ! R2    R(1,14)                 1.1053         estimate D2E/DX2                !
 ! R3    R(1,15)                 1.1047         estimate D2E/DX2                !
 ! R4    R(1,16)                 1.1111         estimate D2E/DX2                !
 ! R5    R(2,3)                  1.4109         estimate D2E/DX2                !
 ! R6    R(2,7)                  1.432          estimate D2E/DX2                !
 ! R7    R(3,4)                  1.3908         estimate D2E/DX2                !
 ! R8    R(3,17)                 1.0834         estimate D2E/DX2                !
 ! R9    R(4,5)                  1.3869         estimate D2E/DX2                !
 ! R10   R(4,18)                 1.0825         estimate D2E/DX2                !
 ! R11   R(5,6)                  1.393          estimate D2E/DX2                !
 ! R12   R(5,19)                 1.0824         estimate D2E/DX2                !
 ! R13   R(6,7)                  1.4053         estimate D2E/DX2                !
 ! R14   R(6,20)                 1.0714         estimate D2E/DX2                !
 ! R15   R(7,8)                  2.0631         estimate D2E/DX2                !
 ! R16   R(8,9)                  1.9847         estimate D2E/DX2                !
 ! R17   R(8,10)                 1.9941         estimate D2E/DX2                !
 ! R18   R(8,11)                 1.984          estimate D2E/DX2                !
 ! R19   R(8,12)                 2.4834         estimate D2E/DX2                !
 ! R20   R(8,13)                 2.528          estimate D2E/DX2                !
 ! R21   R(9,21)                 1.1097         estimate D2E/DX2                !
 ! R22   R(9,22)                 1.1096         estimate D2E/DX2                !
 ! R23   R(9,23)                 1.1087         estimate D2E/DX2                !
 ! R24   R(10,24)                1.1083         estimate D2E/DX2                !
 ! R25   R(10,25)                1.1049         estimate D2E/DX2                !
 ! R26   R(10,26)                1.104          estimate D2E/DX2                !
 ! R27   R(11,27)                1.1098         estimate D2E/DX2                !
 ! R28   R(11,28)                1.1092         estimate D2E/DX2                !
 ! R29   R(11,29)                1.1097         estimate D2E/DX2                !
 ! R30   R(13,20)                1.9163         estimate D2E/DX2                !
 ! A1    A(2,1,14)             110.0592         estimate D2E/DX2                !
 ! A2    A(2,1,15)             110.4003         estimate D2E/DX2                !
 ! A3    A(2,1,16)             111.8963         estimate D2E/DX2                !
 ! A4    A(14,1,15)            112.4763         estimate D2E/DX2                !
 ! A5    A(14,1,16)            106.0906         estimate D2E/DX2                !
 ! A6    A(15,1,16)            105.801          estimate D2E/DX2                !
 ! A7    A(1,2,3)              116.58           estimate D2E/DX2                !
 ! A8    A(1,2,7)              123.9978         estimate D2E/DX2                !
 ! A9    A(3,2,7)              119.422          estimate D2E/DX2                !
 ! A10   A(2,3,4)              121.1218         estimate D2E/DX2                !
 ! A11   A(2,3,17)             120.8311         estimate D2E/DX2                !
 ! A12   A(4,3,17)             118.047          estimate D2E/DX2                !
 ! A13   A(3,4,5)              119.803          estimate D2E/DX2                !
 ! A14   A(3,4,18)             120.1387         estimate D2E/DX2                !
 ! A15   A(5,4,18)             120.0583         estimate D2E/DX2                !
 ! A16   A(4,5,6)              120.0014         estimate D2E/DX2                !
 ! A17   A(4,5,19)             119.9698         estimate D2E/DX2                !
 ! A18   A(6,5,19)             120.0288         estimate D2E/DX2                !
 ! A19   A(5,6,7)              122.1214         estimate D2E/DX2                !
 ! A20   A(5,6,20)             117.8622         estimate D2E/DX2                !
 ! A21   A(7,6,20)             120.0163         estimate D2E/DX2                !
 ! A22   A(2,7,6)              117.5302         estimate D2E/DX2                !
 ! A23   A(2,7,8)              135.8477         estimate D2E/DX2                !
 ! A24   A(6,7,8)              106.6218         estimate D2E/DX2                !
 ! A25   A(7,8,9)               89.2603         estimate D2E/DX2                !
 ! A26   A(7,8,10)              96.9988         estimate D2E/DX2                !
 ! A27   A(7,8,12)              90.0677         estimate D2E/DX2                !
 ! A28   A(7,8,13)              93.208          estimate D2E/DX2                !
 ! A29   A(9,8,10)              91.688          estimate D2E/DX2                !
 ! A30   A(9,8,11)              91.0114         estimate D2E/DX2                !
 ! A31   A(9,8,13)              89.5907         estimate D2E/DX2                !
 ! A32   A(10,8,11)             88.2874         estimate D2E/DX2                !
 ! A33   A(10,8,12)             89.5731         estimate D2E/DX2                !
 ! A34   A(10,8,13)            169.7279         estimate D2E/DX2                !
 ! A35   A(11,8,12)             89.548          estimate D2E/DX2                !
 ! A36   A(11,8,13)             81.4986         estimate D2E/DX2                !
 ! A37   A(12,8,13)             89.2606         estimate D2E/DX2                !
 ! A38   A(8,9,21)             110.9177         estimate D2E/DX2                !
 ! A39   A(8,9,22)             107.4634         estimate D2E/DX2                !
 ! A40   A(8,9,23)             113.4633         estimate D2E/DX2                !
 ! A41   A(21,9,22)            108.403          estimate D2E/DX2                !
 ! A42   A(21,9,23)            107.8973         estimate D2E/DX2                !
 ! A43   A(22,9,23)            108.5695         estimate D2E/DX2                !
 ! A44   A(8,10,24)            112.7912         estimate D2E/DX2                !
 ! A45   A(8,10,25)            108.5783         estimate D2E/DX2                !
 ! A46   A(8,10,26)            113.4568         estimate D2E/DX2                !
 ! A47   A(24,10,25)           104.72           estimate D2E/DX2                !
 ! A48   A(24,10,26)           104.8034         estimate D2E/DX2                !
 ! A49   A(25,10,26)           112.1648         estimate D2E/DX2                !
 ! A50   A(8,11,27)            114.7679         estimate D2E/DX2                !
 ! A51   A(8,11,28)            107.8606         estimate D2E/DX2                !
 ! A52   A(8,11,29)            108.4507         estimate D2E/DX2                !
 ! A53   A(27,11,28)           108.3812         estimate D2E/DX2                !
 ! A54   A(27,11,29)           108.8128         estimate D2E/DX2                !
 ! A55   A(28,11,29)           108.4056         estimate D2E/DX2                !
 ! A56   A(8,13,20)             74.7163         estimate D2E/DX2                !
 ! A57   A(6,20,13)            145.1131         estimate D2E/DX2                !
 ! D1    D(14,1,2,3)          -117.5565         estimate D2E/DX2                !
 ! D2    D(14,1,2,7)            62.2619         estimate D2E/DX2                !
 ! D3    D(15,1,2,3)           117.6917         estimate D2E/DX2                !
 ! D4    D(15,1,2,7)           -62.4899         estimate D2E/DX2                !
 ! D5    D(16,1,2,3)             0.1378         estimate D2E/DX2                !
 ! D6    D(16,1,2,7)           179.9562         estimate D2E/DX2                !
 ! D7    D(1,2,3,4)            179.7332         estimate D2E/DX2                !
 ! D8    D(1,2,3,17)            -0.1631         estimate D2E/DX2                !
 ! D9    D(7,2,3,4)             -0.0939         estimate D2E/DX2                !
 ! D10   D(7,2,3,17)          -179.9903         estimate D2E/DX2                !
 ! D11   D(1,2,7,6)           -179.8439         estimate D2E/DX2                !
 ! D12   D(1,2,7,8)             -0.0783         estimate D2E/DX2                !
 ! D13   D(3,2,7,6)             -0.0303         estimate D2E/DX2                !
 ! D14   D(3,2,7,8)            179.7353         estimate D2E/DX2                !
 ! D15   D(2,3,4,5)              0.1198         estimate D2E/DX2                !
 ! D16   D(2,3,4,18)          -179.8746         estimate D2E/DX2                !
 ! D17   D(17,3,4,5)          -179.9811         estimate D2E/DX2                !
 ! D18   D(17,3,4,18)            0.0245         estimate D2E/DX2                !
 ! D19   D(3,4,5,6)             -0.0188         estimate D2E/DX2                !
 ! D20   D(3,4,5,19)          -179.9314         estimate D2E/DX2                !
 ! D21   D(18,4,5,6)           179.9756         estimate D2E/DX2                !
 ! D22   D(18,4,5,19)            0.0629         estimate D2E/DX2                !
 ! D23   D(4,5,6,7)             -0.1099         estimate D2E/DX2                !
 ! D24   D(4,5,6,20)           179.9719         estimate D2E/DX2                !
 ! D25   D(19,5,6,7)           179.8027         estimate D2E/DX2                !
 ! D26   D(19,5,6,20)           -0.1155         estimate D2E/DX2                !
 ! D27   D(5,6,7,2)              0.1321         estimate D2E/DX2                !
 ! D28   D(5,6,7,8)           -179.6975         estimate D2E/DX2                !
 ! D29   D(20,6,7,2)          -179.9514         estimate D2E/DX2                !
 ! D30   D(20,6,7,8)             0.219          estimate D2E/DX2                !
 ! D31   D(5,6,20,13)          173.114          estimate D2E/DX2                !
 ! D32   D(7,6,20,13)           -6.8059         estimate D2E/DX2                !
 ! D33   D(2,7,8,9)            -87.5309         estimate D2E/DX2                !
 ! D34   D(2,7,8,10)             4.0791         estimate D2E/DX2                !
 ! D35   D(2,7,8,12)            93.6572         estimate D2E/DX2                !
 ! D36   D(2,7,8,13)          -177.0795         estimate D2E/DX2                !
 ! D37   D(6,7,8,9)             92.2522         estimate D2E/DX2                !
 ! D38   D(6,7,8,10)          -176.1378         estimate D2E/DX2                !
 ! D39   D(6,7,8,12)           -86.5597         estimate D2E/DX2                !
 ! D40   D(6,7,8,13)             2.7036         estimate D2E/DX2                !
 ! D41   D(2,7,11,27)          -46.7074         estimate D2E/DX2                !
 ! D42   D(2,7,11,28)         -166.8665         estimate D2E/DX2                !
 ! D43   D(2,7,11,29)           77.0119         estimate D2E/DX2                !
 ! D44   D(6,7,11,27)          133.1101         estimate D2E/DX2                !
 ! D45   D(6,7,11,28)           12.9509         estimate D2E/DX2                !
 ! D46   D(6,7,11,29)         -103.1706         estimate D2E/DX2                !
 ! D47   D(7,8,9,21)            36.0553         estimate D2E/DX2                !
 ! D48   D(7,8,9,22)           -82.2746         estimate D2E/DX2                !
 ! D49   D(7,8,9,23)           157.6933         estimate D2E/DX2                !
 ! D50   D(10,8,9,21)          -60.9252         estimate D2E/DX2                !
 ! D51   D(10,8,9,22)         -179.2551         estimate D2E/DX2                !
 ! D52   D(10,8,9,23)           60.7128         estimate D2E/DX2                !
 ! D53   D(11,8,9,21)         -149.2414         estimate D2E/DX2                !
 ! D54   D(11,8,9,22)           92.4287         estimate D2E/DX2                !
 ! D55   D(11,8,9,23)          -27.6034         estimate D2E/DX2                !
 ! D56   D(13,8,9,21)          129.2689         estimate D2E/DX2                !
 ! D57   D(13,8,9,22)           10.939          estimate D2E/DX2                !
 ! D58   D(13,8,9,23)         -109.0931         estimate D2E/DX2                !
 ! D59   D(7,8,10,24)          178.0279         estimate D2E/DX2                !
 ! D60   D(7,8,10,25)           62.4335         estimate D2E/DX2                !
 ! D61   D(7,8,10,26)          -62.9969         estimate D2E/DX2                !
 ! D62   D(9,8,10,24)          -92.5103         estimate D2E/DX2                !
 ! D63   D(9,8,10,25)          151.8953         estimate D2E/DX2                !
 ! D64   D(9,8,10,26)           26.4649         estimate D2E/DX2                !
 ! D65   D(11,8,10,24)          -1.5485         estimate D2E/DX2                !
 ! D66   D(11,8,10,25)        -117.1429         estimate D2E/DX2                !
 ! D67   D(11,8,10,26)         117.4267         estimate D2E/DX2                !
 ! D68   D(12,8,10,24)          88.0121         estimate D2E/DX2                !
 ! D69   D(12,8,10,25)         -27.5823         estimate D2E/DX2                !
 ! D70   D(12,8,10,26)        -153.0127         estimate D2E/DX2                !
 ! D71   D(13,8,10,24)           4.5283         estimate D2E/DX2                !
 ! D72   D(13,8,10,25)        -111.066          estimate D2E/DX2                !
 ! D73   D(13,8,10,26)         123.5036         estimate D2E/DX2                !
 ! D74   D(9,8,11,27)           41.8619         estimate D2E/DX2                !
 ! D75   D(9,8,11,28)          -79.0381         estimate D2E/DX2                !
 ! D76   D(9,8,11,29)          163.7544         estimate D2E/DX2                !
 ! D77   D(10,8,11,27)         -49.7969         estimate D2E/DX2                !
 ! D78   D(10,8,11,28)        -170.6969         estimate D2E/DX2                !
 ! D79   D(10,8,11,29)          72.0956         estimate D2E/DX2                !
 ! D80   D(12,8,11,27)        -139.3832         estimate D2E/DX2                !
 ! D81   D(12,8,11,28)          99.7168         estimate D2E/DX2                !
 ! D82   D(12,8,11,29)         -17.4907         estimate D2E/DX2                !
 ! D83   D(13,8,11,27)         131.2968         estimate D2E/DX2                !
 ! D84   D(13,8,11,28)          10.3968         estimate D2E/DX2                !
 ! D85   D(13,8,11,29)        -106.8107         estimate D2E/DX2                !
 ! D86   D(7,8,13,20)           -3.2191         estimate D2E/DX2                !
 ! D87   D(9,8,13,20)          -92.4554         estimate D2E/DX2                !
 ! D88   D(10,8,13,20)         170.3189         estimate D2E/DX2                !
 ! D89   D(11,8,13,20)         176.4608         estimate D2E/DX2                !
 ! D90   D(12,8,13,20)          86.8072         estimate D2E/DX2                !
 ! D91   D(8,13,20,6)            7.4088         estimate D2E/DX2                !
 --------------------------------------------------------------------------------
 Trust Radius=3.00D-01 FncErr=1.00D-07 GrdErr=1.00D-06
 Number of steps in this run= 174 maximum allowed number of steps= 174.
 GradGradGradGradGradGradGradGradGradGradGradGradGradGradGradGradGradGrad

 Leave Link  103 at Sun Oct  3 02:21:43 2021, MaxMem= 1073741824 cpu:       0.0
 (Enter /sw/target/amd/app/gaussian/Gaussian09RevA.02_gcc-4.9.2/g09/l202.exe)
                          Input orientation:                          
 ---------------------------------------------------------------------
 Center     Atomic      Atomic             Coordinates (Angstroms)
 Number     Number       Type             X           Y           Z
 ---------------------------------------------------------------------
      1          6           0       -0.931905   -2.556147   -2.159859
      2          6           0       -0.655194   -1.084942   -2.270617
      3          6           0        0.497740   -0.712076   -2.993347
      4          6           0        0.840805    0.625509   -3.159329
      5          6           0        0.042627    1.615650   -2.606056
      6          6           0       -1.099052    1.269181   -1.886951
      7          6           0       -1.484947   -0.068654   -1.696655
      8         30           0       -3.224838   -0.029115   -0.588642
      9          6           0       -4.269379   -0.038667   -2.276231
     10          6           0       -3.427003   -2.002279   -0.383260
     11          6           0       -4.883175    0.191868    0.477729
     12          3           0       -1.892766    0.033762    1.506305
     13          3           0       -3.320218    2.497018   -0.565142
     14          1           0       -1.893052   -2.798987   -2.648681
     15          1           0       -0.903479   -2.874798   -1.102455
     16          1           0       -0.159999   -3.163256   -2.679666
     17          1           0        1.141479   -1.461934   -3.437209
     18          1           0        1.727969    0.893715   -3.718640
     19          1           0        0.306480    2.657535   -2.734513
     20          1           0       -1.690422    2.061506   -1.474072
     21          1           0       -3.773798   -0.666536   -3.045358
     22          1           0       -4.309275    1.005613   -2.649047
     23          1           0       -5.306995   -0.408780   -2.151082
     24          1           0       -4.306603   -2.282200    0.230243
     25          1           0       -2.558015   -2.388509    0.179231
     26          1           0       -3.571494   -2.531311   -1.341383
     27          1           0       -5.739859   -0.426755    0.138661
     28          1           0       -5.180658    1.259167    0.426823
     29          1           0       -4.657000   -0.058778    1.534785
 ---------------------------------------------------------------------
                    Distance matrix (angstroms):
                    1          2          3          4          5
     1  C    0.000000
     2  C    1.501093   0.000000
     3  C    2.477738   1.410894   0.000000
     4  C    3.776822   2.439972   1.390819   0.000000
     5  C    4.307284   2.809390   2.403213   1.386932   0.000000
     6  C    3.838692   2.426130   2.774750   2.407552   1.393048
     7  C    2.589987   1.432049   2.454883   2.833797   2.448954
     8  Zn   3.756615   3.247597   4.484041   4.854526   4.177503
     9  C    4.182103   3.762587   4.867562   5.228286   4.630220
    10  C    3.112650   3.476572   4.886797   5.729400   5.483481
    11  C    5.488259   5.201872   6.466817   6.795600   5.983343
    12  Li   4.590386   4.128950   5.149530   5.439736   4.812445
    13  Li   5.812198   4.779272   5.547185   5.248473   4.031236
    14  H    1.105315   2.147830   3.192158   4.411565   4.820548
    15  H    1.104739   2.151705   3.196287   4.418757   4.829084
    16  H    1.111134   2.175300   2.557206   3.947965   4.783767
    17  H    2.669803   2.175107   1.083375   2.127214   3.371916
    18  H    4.626692   3.419257   2.148972   1.082507   2.144624
    19  H    5.389463   3.891805   3.384945   2.143618   1.082425
    20  H    4.729522   3.406805   3.845648   3.362929   2.117459
    21  H    3.525776   3.240521   4.272097   4.793426   4.468384
    22  H    4.932755   4.226813   5.116287   5.189239   4.394661
    23  H    4.873672   4.702205   5.873358   6.315201   5.737923
    24  H    4.144420   4.584813   5.994875   6.814674   6.492582
    25  H    2.853713   3.364784   4.713100   5.637576   5.527608
    26  H    2.763684   3.385302   4.753658   5.721785   5.644338
    27  H    5.738808   5.664949   6.985593   7.435666   6.718781
    28  H    6.268927   5.766356   6.915747   7.037047   6.050465
    29  H    5.810643   5.616810   6.892178   7.261461   6.483576
                    6          7          8          9         10
     6  C    0.000000
     7  C    1.405323   0.000000
     8  Zn   2.808940   2.063123   0.000000
     9  C    3.451518   2.844269   1.984720   0.000000
    10  C    4.287528   3.038995   1.994099   2.854594   0.000000
    11  C    4.590414   4.042742   1.983951   2.830934   2.770563
    12  Li   3.697355   3.230443   2.483380   4.467786   3.173295
    13  Li   2.861528   3.351300   2.528042   3.202879   4.504238
    14  H    4.214339   2.920208   3.699946   3.661286   2.849540
    15  H    4.222114   2.926708   3.708184   4.555291   2.765268
    16  H    4.599643   3.506902   4.856795   5.178110   4.158686
    17  H    3.857754   3.445123   5.406665   5.714100   5.521739
    18  H    3.389410   3.916300   5.931171   6.238434   6.788614
    19  H    2.149746   3.423225   4.928799   5.330855   6.417255
    20  H    1.071432   2.151592   2.740276   3.421287   4.551915
    21  H    3.499024   2.723104   2.596751   1.109674   2.998540
    22  H    3.309953   3.168269   2.547927   1.109551   3.867765
    23  H    4.537852   3.863966   2.630729   1.108734   3.032952
    24  H    5.232896   4.071174   2.630053   3.364110   1.108348
    25  H    4.447064   3.170512   2.569245   3.805236   1.104858
    26  H    4.566657   3.247241   2.635863   2.752137   1.103971
    27  H    5.340074   4.647676   2.648097   2.853879   2.846748
    28  H    4.691818   4.464364   2.552660   3.133896   3.790590
    29  H    5.111824   4.528158   2.561427   3.830730   2.994826
                   11         12         13         14         15
    11  C    0.000000
    12  Li   3.166308   0.000000
    13  Li   2.973908   3.520816   0.000000
    14  H    5.259324   5.028755   5.867334   0.000000
    15  H    5.266821   4.030390   5.914875   1.837339   0.000000
    16  H    6.598060   5.544886   6.818864   1.771193   1.767361
    17  H    7.372805   5.990165   6.620333   3.408499   3.410148
    18  H    7.861890   6.414771   6.164358   5.281349   5.288727
    19  H    6.582593   5.450267   4.229051   5.883786   5.893583
    20  H    4.183149   3.610448   1.916261   5.004513   5.012432
    21  H    3.792060   4.974569   4.045403   2.870872   4.109747
    22  H    3.281504   4.904178   2.746850   4.507007   5.389711
    23  H    2.729660   5.022875   3.860848   4.197106   5.154785
    24  H    2.552391   3.580310   4.944342   3.792162   3.702500
    25  H    3.486232   2.840964   5.000342   2.933898   2.148648
    26  H    3.527801   4.184143   5.094093   2.144259   2.700625
    27  H    1.109761   4.108850   3.859852   5.309866   5.560922
    28  H    1.109150   3.671121   2.444894   6.060997   6.141874
    29  H    1.109660   2.765929   3.567741   5.713977   5.382743
                   16         17         18         19         20
    16  H    0.000000
    17  H    2.272050   0.000000
    18  H    4.593790   2.443820   0.000000
    19  H    5.839711   4.261576   2.469857   0.000000
    20  H    5.576181   4.928306   4.252907   2.435484   0.000000
    21  H    4.407594   4.994612   5.758222   5.272072   3.775130
    22  H    5.881913   6.034957   6.132281   4.903198   3.058409
    23  H    5.861579   6.659284   7.324236   6.422910   4.431732
    24  H    5.141804   6.618506   7.880111   7.380467   5.349473
    25  H    3.811038   5.255800   6.658532   6.492903   4.825843
    26  H    3.718690   5.267653   6.742882   6.625981   4.964877
    27  H    6.823946   7.823761   8.508281   7.370630   5.018993
    28  H    7.376660   7.893323   8.065205   6.485226   4.054490
    29  H    6.900898   7.766075   8.323072   7.088117   4.727516
                   21         22         23         24         25
    21  H    0.000000
    22  H    1.799967   0.000000
    23  H    1.793561   1.801089   0.000000
    24  H    3.691044   4.370358   3.190798   0.000000
    25  H    3.852440   4.752487   4.111761   1.752559   0.000000
    26  H    2.534135   3.842413   2.858795   1.752840   1.832976
    27  H    3.749782   3.445223   2.330368   2.346334   3.738215
    28  H    4.212319   3.206957   3.073044   3.652930   4.499455
    29  H    4.703948   4.331084   3.759070   2.601579   3.416271
                   26         27         28         29
    26  H    0.000000
    27  H    3.364742   0.000000
    28  H    4.481482   1.799466   0.000000
    29  H    3.945134   1.804758   1.799661   0.000000
 Stoichiometry    C10H16Li2Zn
 Framework group  C1[X(C10H16Li2Zn)]
 Deg. of freedom    81
 Full point group                 C1      NOp   1
 Largest Abelian subgroup         C1      NOp   1
 Largest concise Abelian subgroup C1      NOp   1
                         Standard orientation:                         
 ---------------------------------------------------------------------
 Center     Atomic      Atomic             Coordinates (Angstroms)
 Number     Number       Type             X           Y           Z
 ---------------------------------------------------------------------
      1          6           0        1.423038    2.408496    0.013393
      2          6           0        1.757624    0.945510   -0.018304
      3          6           0        3.127690    0.610349    0.016452
      4          6           0        3.543851   -0.716606   -0.003088
      5          6           0        2.602458   -1.733515   -0.060126
      6          6           0        1.244635   -1.424451   -0.097262
      7          6           0        0.779247   -0.098584   -0.076699
      8         30           0       -1.280702   -0.195159   -0.138021
      9          6           0       -1.315443   -0.166686    1.846190
     10          6           0       -1.613368    1.768806   -0.230784
     11          6           0       -3.244340   -0.470660   -0.203478
     12          3           0       -1.205775   -0.280852   -2.618791
     13          3           0       -1.305506   -2.722505   -0.084126
     14          1           0        0.840679    2.644598    0.922698
     15          1           0        0.898138    2.703636   -0.912793
     16          1           0        2.335237    3.041297    0.058956
     17          1           0        3.887060    1.381763    0.060915
     18          1           0        4.599209   -0.955735    0.026202
     19          1           0        2.923297   -2.767200   -0.074337
     20          1           0        0.547252   -2.236650   -0.141476
     21          1           0       -0.513710    0.487418    2.247126
     22          1           0       -1.130530   -1.202830    2.197355
     23          1           0       -2.280864    0.181352    2.265862
     24          1           0       -2.690255    2.018559   -0.310620
     25          1           0       -1.165054    2.158145   -1.162524
     26          1           0       -1.262126    2.316610    0.661007
     27          1           0       -3.823813    0.139604    0.519958
     28          1           0       -3.444640   -1.541828    0.003147
     29          1           0       -3.597336   -0.239850   -1.229863
 ---------------------------------------------------------------------
 Rotational constants (GHZ):      1.2153187      0.5247513      0.4374048
 Leave Link  202 at Sun Oct  3 02:21:44 2021, MaxMem= 1073741824 cpu:       0.0
 (Enter /sw/target/amd/app/gaussian/Gaussian09RevA.02_gcc-4.9.2/g09/l301.exe)
 Standard basis: 6-31G(d) (6D, 7F)
 Ernie: Thresh=  0.10000D-02 Tol=  0.10000D-05 Strict=F.
 There are   248 symmetry adapted basis functions of A   symmetry.
 Integral buffers will be    131072 words long.
 Raffenetti 2 integral format.
 Two-electron integral symmetry is turned on.
   248 basis functions,   504 primitive gaussians,   251 cartesian basis functions
    56 alpha electrons       56 beta electrons
       nuclear repulsion energy      1005.8465719306 Hartrees.
 IExCor=  402 DFT=T Ex+Corr=B3LYP ExCW=0 ScaHFX=  0.200000
 ScaDFX=  0.800000  0.720000  1.000000  0.810000 ScalE2=  1.000000  1.000000
 IRadAn=      0 IRanWt=     -1 IRanGd=            0 ICorTp=0
 NAtoms=   29 NActive=   29 NUniq=   29 SFac= 7.50D-01 NAtFMM=   80 NAOKFM=F Big=F
 Leave Link  301 at Sun Oct  3 02:21:45 2021, MaxMem= 1073741824 cpu:       0.1
 (Enter /sw/target/amd/app/gaussian/Gaussian09RevA.02_gcc-4.9.2/g09/l302.exe)
 NPDir=0 NMtPBC=     1 NCelOv=     1 NCel=       1 NClECP=     1 NCelD=      1
         NCelK=      1 NCelE2=     1 NClLst=     1 CellRange=     0.0.
 One-electron integrals computed using PRISM.
 NBasis=   248 RedAO= T  NBF=   248
 NBsUse=   248 1.00D-06 NBFU=   248
 Precomputing XC quadrature grid using
 IXCGrd= 2 IRadAn=           0 IRanWt=          -1 IRanGd=           0 AccXCQ= 1.00D-10.
 NRdTot=    1859 NPtTot=      240480 NUsed=      253883 NTot=      253915
 NSgBfM=   250   250   250   250   250 NAtAll=    29    29.
 Leave Link  302 at Sun Oct  3 02:21:51 2021, MaxMem= 1073741824 cpu:       2.6
 (Enter /sw/target/amd/app/gaussian/Gaussian09RevA.02_gcc-4.9.2/g09/l303.exe)
 DipDrv:  MaxL=1.
 Leave Link  303 at Sun Oct  3 02:21:53 2021, MaxMem= 1073741824 cpu:       0.3
 (Enter /sw/target/amd/app/gaussian/Gaussian09RevA.02_gcc-4.9.2/g09/l401.exe)
 Harris functional with IExCor=  402 diagonalized for initial guess.
 ExpMin= 3.60D-02 ExpMax= 8.24D+04 ExpMxC= 1.24D+04 IAcc=3 IRadAn=         0 AccDes= 0.00D+00
 HarFok:  IExCor=  402 AccDes= 0.00D+00 IRadAn=         0 IDoV= 1
 ScaDFX=  1.000000  1.000000  1.000000  1.000000
 FoFCou: FMM=F IPFlag=           0 FMFlag=      100000 FMFlg1=           0
         NFxFlg=           0 DoJE=T BraDBF=F KetDBF=T FulRan=T
         Omega=  0.000000  0.000000  1.000000  0.000000  0.000000 ICntrl=     500 IOpCl=  0
         NMat0=    1 NMatS0=    1 NMatT0=    0 NMatD0=    1 NMtDS0=    0 NMtDT0=    0
         I1Cent=           4 NGrid=           0.
 Petite list used in FoFCou.
 Harris En= -2185.00902224447    
 Initial guess orbital symmetries:
       Occupied  (A) (A) (A) (A) (A) (A) (A) (A) (A) (A) (A) (A)
                 (A) (A) (A) (A) (A) (A) (A) (A) (A) (A) (A) (A)
                 (A) (A) (A) (A) (A) (A) (A) (A) (A) (A) (A) (A)
                 (A) (A) (A) (A) (A) (A) (A) (A) (A) (A) (A) (A)
                 (A) (A) (A) (A) (A) (A) (A) (A)
       Virtual   (A) (A) (A) (A) (A) (A) (A) (A) (A) (A) (A) (A)
                 (A) (A) (A) (A) (A) (A) (A) (A) (A) (A) (A) (A)
                 (A) (A) (A) (A) (A) (A) (A) (A) (A) (A) (A) (A)
                 (A) (A) (A) (A) (A) (A) (A) (A) (A) (A) (A) (A)
                 (A) (A) (A) (A) (A) (A) (A) (A) (A) (A) (A) (A)
                 (A) (A) (A) (A) (A) (A) (A) (A) (A) (A) (A) (A)
                 (A) (A) (A) (A) (A) (A) (A) (A) (A) (A) (A) (A)
                 (A) (A) (A) (A) (A) (A) (A) (A) (A) (A) (A) (A)
                 (A) (A) (A) (A) (A) (A) (A) (A) (A) (A) (A) (A)
                 (A) (A) (A) (A) (A) (A) (A) (A) (A) (A) (A) (A)
                 (A) (A) (A) (A) (A) (A) (A) (A) (A) (A) (A) (A)
                 (A) (A) (A) (A) (A) (A) (A) (A) (A) (A) (A) (A)
                 (A) (A) (A) (A) (A) (A) (A) (A) (A) (A) (A) (A)
                 (A) (A) (A) (A) (A) (A) (A) (A) (A) (A) (A) (A)
                 (A) (A) (A) (A) (A) (A) (A) (A) (A) (A) (A) (A)
                 (A) (A) (A) (A) (A) (A) (A) (A) (A) (A) (A) (A)
 The electronic state of the initial guess is 1-A.
 Leave Link  401 at Sun Oct  3 02:22:44 2021, MaxMem= 1073741824 cpu:      24.9
 (Enter /sw/target/amd/app/gaussian/Gaussian09RevA.02_gcc-4.9.2/g09/l502.exe)
 Closed shell SCF:
 Requested convergence on RMS density matrix=1.00D-08 within  64 cycles.
 Requested convergence on MAX density matrix=1.00D-06.
 Requested convergence on             energy=1.00D-06.
 No special actions if energy rises.
 Using DIIS extrapolation, IDIIS=  1040.
 Integral symmetry usage will be decided dynamically.
       253609 words used for storage of precomputed grid.
 Keep R1 ints in memory in canonical form, NReq=508570699.
 IEnd=      451556 IEndB=      451556 NGot=  1073741824 MDV=   573239966
 LenX=   573239966 LenY=   573176524
 Symmetry not used in FoFDir.
 MinBra= 0 MaxBra= 3 Meth= 1.
 IRaf=       0 NMat=   1 IRICut=       1 DoRegI=T DoRafI=F ISym2E= 0 JSym2E=0.

 Cycle   1  Pass 1  IDiag  1:
 E= -2183.70779432240    
 DIIS: error= 7.60D-02 at cycle   1 NSaved=   1.
 NSaved= 1 IEnMin= 1 EnMin= -2183.70779432240     IErMin= 1 ErrMin= 7.60D-02
 ErrMax= 7.60D-02 EMaxC= 1.00D-01 BMatC= 1.27D+00 BMatP= 1.27D+00
 IDIUse=3 WtCom= 2.40D-01 WtEn= 7.60D-01
 Coeff-Com:  0.100D+01
 Coeff-En:   0.100D+01
 Coeff:      0.100D+01
 Gap=     0.291 Goal=   None    Shift=    0.000
 GapD=    0.291 DampG=1.000 DampE=0.250 DampFc=0.2500 IDamp=-1.
 Damping current iteration by 2.50D-01
 RMSDP=1.55D-02 MaxDP=1.26D+00              OVMax= 9.19D-01

 Cycle   2  Pass 1  IDiag  1:
 E= -2183.96297862088     Delta-E=       -0.255184298472 Rises=F Damp=T
 DIIS: error= 2.63D-02 at cycle   2 NSaved=   2.
 NSaved= 2 IEnMin= 2 EnMin= -2183.96297862088     IErMin= 2 ErrMin= 2.63D-02
 ErrMax= 2.63D-02 EMaxC= 1.00D-01 BMatC= 1.86D-01 BMatP= 1.27D+00
 IDIUse=3 WtCom= 7.37D-01 WtEn= 2.63D-01
 Coeff-Com: -0.371D+00 0.137D+01
 Coeff-En:   0.257D+00 0.743D+00
 Coeff:     -0.206D+00 0.121D+01
 Gap=    -0.112 Goal=   None    Shift=    0.000
 RMSDP=5.05D-03 MaxDP=3.05D-01 DE=-2.55D-01 OVMax= 8.95D-01

 Cycle   3  Pass 1  IDiag  1:
 E= -2184.23159872480     Delta-E=       -0.268620103921 Rises=F Damp=F
 DIIS: error= 4.88D-02 at cycle   3 NSaved=   3.
 NSaved= 3 IEnMin= 3 EnMin= -2184.23159872480     IErMin= 2 ErrMin= 2.63D-02
 ErrMax= 4.88D-02 EMaxC= 1.00D-01 BMatC= 4.63D-01 BMatP= 1.86D-01
 IDIUse=2 WtCom= 0.00D+00 WtEn= 1.00D+00
 Coeff-En:   0.000D+00 0.289D+00 0.711D+00
 Coeff:      0.000D+00 0.289D+00 0.711D+00
 Gap=     0.043 Goal=   None    Shift=    0.000
 RMSDP=9.64D-03 MaxDP=3.30D-01 DE=-2.69D-01 OVMax= 9.30D-01

 Cycle   4  Pass 1  IDiag  1:
 E= -2181.51906563945     Delta-E=        2.712533085344 Rises=F Damp=F
 DIIS: error= 1.09D-01 at cycle   4 NSaved=   4.
 NSaved= 4 IEnMin= 3 EnMin= -2184.23159872480     IErMin= 2 ErrMin= 2.63D-02
 ErrMax= 1.09D-01 EMaxC= 1.00D-01 BMatC= 2.98D+00 BMatP= 1.86D-01
 IDIUse=2 WtCom= 0.00D+00 WtEn= 1.00D+00
 Coeff-En:   0.000D+00 0.000D+00 0.787D+00 0.213D+00
 Coeff:      0.000D+00 0.000D+00 0.787D+00 0.213D+00
 Gap=     0.011 Goal=   None    Shift=    0.000
 RMSDP=6.79D-03 MaxDP=3.05D-01 DE= 2.71D+00 OVMax= 9.68D-01

 Cycle   5  Pass 1  IDiag  1:
 E= -2184.52347246097     Delta-E=       -3.004406821518 Rises=F Damp=F
 DIIS: error= 3.54D-02 at cycle   5 NSaved=   5.
 NSaved= 5 IEnMin= 5 EnMin= -2184.52347246097     IErMin= 2 ErrMin= 2.63D-02
 ErrMax= 3.54D-02 EMaxC= 1.00D-01 BMatC= 2.20D-01 BMatP= 1.86D-01
 IDIUse=2 WtCom= 0.00D+00 WtEn= 1.00D+00
 Coeff-En:   0.000D+00 0.000D+00 0.301D+00 0.000D+00 0.699D+00
 Coeff:      0.000D+00 0.000D+00 0.301D+00 0.000D+00 0.699D+00
 Gap=     0.031 Goal=   None    Shift=    0.000
 RMSDP=3.17D-03 MaxDP=9.69D-02 DE=-3.00D+00 OVMax= 1.95D-01

 Cycle   6  Pass 1  IDiag  1:
 E= -2184.57755767503     Delta-E=       -0.054085214064 Rises=F Damp=F
 DIIS: error= 1.45D-02 at cycle   6 NSaved=   6.
 NSaved= 6 IEnMin= 6 EnMin= -2184.57755767503     IErMin= 6 ErrMin= 1.45D-02
 ErrMax= 1.45D-02 EMaxC= 1.00D-01 BMatC= 1.05D-01 BMatP= 1.86D-01
 IDIUse=3 WtCom= 8.55D-01 WtEn= 1.45D-01
 EnCoef did     6 forward-backward iterations
 Coeff-Com: -0.224D-01 0.800D-01 0.212D+00-0.172D-01 0.456D+00 0.292D+00
 Coeff-En:   0.000D+00 0.000D+00 0.556D-01 0.000D+00 0.417D+00 0.527D+00
 Coeff:     -0.191D-01 0.684D-01 0.189D+00-0.147D-01 0.450D+00 0.326D+00
 Gap=     0.053 Goal=   None    Shift=    0.000
 RMSDP=1.81D-03 MaxDP=5.22D-02 DE=-5.41D-02 OVMax= 1.59D-01

 Cycle   7  Pass 1  IDiag  1:
 E= -2184.67884829349     Delta-E=       -0.101290618461 Rises=F Damp=F
 DIIS: error= 2.30D-03 at cycle   7 NSaved=   7.
 NSaved= 7 IEnMin= 7 EnMin= -2184.67884829349     IErMin= 7 ErrMin= 2.30D-03
 ErrMax= 2.30D-03 EMaxC= 1.00D-01 BMatC= 3.91D-03 BMatP= 1.05D-01
 IDIUse=3 WtCom= 9.77D-01 WtEn= 2.30D-02
 Coeff-Com: -0.367D-02 0.126D-01 0.440D-01-0.109D-01 0.179D+00 0.199D+00
 Coeff-Com:  0.580D+00
 Coeff-En:   0.000D+00 0.000D+00 0.000D+00 0.000D+00 0.000D+00 0.679D-03
 Coeff-En:   0.999D+00
 Coeff:     -0.358D-02 0.123D-01 0.430D-01-0.107D-01 0.175D+00 0.194D+00
 Coeff:      0.590D+00
 Gap=     0.057 Goal=   None    Shift=    0.000
 RMSDP=5.51D-04 MaxDP=2.00D-02 DE=-1.01D-01 OVMax= 6.93D-02

 Cycle   8  Pass 1  IDiag  1:
 E= -2184.68273219388     Delta-E=       -0.003883900385 Rises=F Damp=F
 DIIS: error= 1.53D-03 at cycle   8 NSaved=   8.
 NSaved= 8 IEnMin= 8 EnMin= -2184.68273219388     IErMin= 8 ErrMin= 1.53D-03
 ErrMax= 1.53D-03 EMaxC= 1.00D-01 BMatC= 1.04D-03 BMatP= 3.91D-03
 IDIUse=3 WtCom= 9.85D-01 WtEn= 1.53D-02
 Coeff-Com:  0.730D-03 0.219D-02 0.709D-02-0.349D-02 0.263D-01 0.412D-01
 Coeff-Com:  0.361D+00 0.565D+00
 Coeff-En:   0.000D+00 0.000D+00 0.000D+00 0.000D+00 0.000D+00 0.000D+00
 Coeff-En:   0.249D+00 0.751D+00
 Coeff:      0.719D-03 0.216D-02 0.698D-02-0.344D-02 0.259D-01 0.406D-01
 Coeff:      0.359D+00 0.568D+00
 Gap=     0.058 Goal=   None    Shift=    0.000
 RMSDP=1.85D-04 MaxDP=6.91D-03 DE=-3.88D-03 OVMax= 2.09D-02

 Cycle   9  Pass 1  IDiag  1:
 E= -2184.68396751073     Delta-E=       -0.001235316855 Rises=F Damp=F
 DIIS: error= 4.28D-04 at cycle   9 NSaved=   9.
 NSaved= 9 IEnMin= 9 EnMin= -2184.68396751073     IErMin= 9 ErrMin= 4.28D-04
 ErrMax= 4.28D-04 EMaxC= 1.00D-01 BMatC= 8.36D-05 BMatP= 1.04D-03
 IDIUse=3 WtCom= 9.96D-01 WtEn= 4.28D-03
 Coeff-Com:  0.259D-02-0.313D-02 0.113D-02-0.263D-03-0.624D-02-0.366D-02
 Coeff-Com:  0.143D+00 0.335D+00 0.532D+00
 Coeff-En:   0.000D+00 0.000D+00 0.000D+00 0.000D+00 0.000D+00 0.000D+00
 Coeff-En:   0.000D+00 0.000D+00 0.100D+01
 Coeff:      0.258D-02-0.311D-02 0.113D-02-0.262D-03-0.621D-02-0.364D-02
 Coeff:      0.142D+00 0.334D+00 0.534D+00
 Gap=     0.058 Goal=   None    Shift=    0.000
 RMSDP=5.35D-05 MaxDP=1.42D-03 DE=-1.24D-03 OVMax= 3.37D-03

 Cycle  10  Pass 1  IDiag  1:
 E= -2184.68406272243     Delta-E=       -0.000095211692 Rises=F Damp=F
 DIIS: error= 1.66D-04 at cycle  10 NSaved=  10.
 NSaved=10 IEnMin=10 EnMin= -2184.68406272243     IErMin=10 ErrMin= 1.66D-04
 ErrMax= 1.66D-04 EMaxC= 1.00D-01 BMatC= 5.27D-06 BMatP= 8.36D-05
 IDIUse=3 WtCom= 9.98D-01 WtEn= 1.66D-03
 Coeff-Com:  0.146D-02-0.194D-02 0.546D-03 0.344D-04-0.495D-02-0.530D-02
 Coeff-Com:  0.476D-01 0.129D+00 0.277D+00 0.556D+00
 Coeff-En:   0.000D+00 0.000D+00 0.000D+00 0.000D+00 0.000D+00 0.000D+00
 Coeff-En:   0.000D+00 0.000D+00 0.000D+00 0.100D+01
 Coeff:      0.145D-02-0.193D-02 0.545D-03 0.343D-04-0.495D-02-0.529D-02
 Coeff:      0.476D-01 0.128D+00 0.277D+00 0.557D+00
 Gap=     0.058 Goal=   None    Shift=    0.000
 RMSDP=1.44D-05 MaxDP=4.42D-04 DE=-9.52D-05 OVMax= 1.21D-03

 Cycle  11  Pass 1  IDiag  1:
 E= -2184.68406774232     Delta-E=       -0.000005019892 Rises=F Damp=F
 DIIS: error= 4.87D-05 at cycle  11 NSaved=  11.
 NSaved=11 IEnMin=11 EnMin= -2184.68406774232     IErMin=11 ErrMin= 4.87D-05
 ErrMax= 4.87D-05 EMaxC= 1.00D-01 BMatC= 1.18D-06 BMatP= 5.27D-06
 IDIUse=1 WtCom= 1.00D+00 WtEn= 0.00D+00
 Coeff-Com:  0.235D-03-0.276D-03 0.369D-03 0.594D-05-0.186D-02-0.293D-02
 Coeff-Com: -0.164D-02 0.466D-02 0.543D-01 0.332D+00 0.615D+00
 Coeff:      0.235D-03-0.276D-03 0.369D-03 0.594D-05-0.186D-02-0.293D-02
 Coeff:     -0.164D-02 0.466D-02 0.543D-01 0.332D+00 0.615D+00
 Gap=     0.058 Goal=   None    Shift=    0.000
 RMSDP=7.09D-06 MaxDP=1.88D-04 DE=-5.02D-06 OVMax= 5.05D-04

 Cycle  12  Pass 1  IDiag  1:
 E= -2184.68406903934     Delta-E=       -0.000001297017 Rises=F Damp=F
 DIIS: error= 9.73D-06 at cycle  12 NSaved=  12.
 NSaved=12 IEnMin=12 EnMin= -2184.68406903934     IErMin=12 ErrMin= 9.73D-06
 ErrMax= 9.73D-06 EMaxC= 1.00D-01 BMatC= 7.58D-08 BMatP= 1.18D-06
 IDIUse=1 WtCom= 1.00D+00 WtEn= 0.00D+00
 Coeff-Com:  0.641D-04-0.101D-03 0.203D-03 0.487D-05-0.589D-03-0.102D-02
 Coeff-Com: -0.363D-02-0.686D-02 0.866D-02 0.121D+00 0.296D+00 0.586D+00
 Coeff:      0.641D-04-0.101D-03 0.203D-03 0.487D-05-0.589D-03-0.102D-02
 Coeff:     -0.363D-02-0.686D-02 0.866D-02 0.121D+00 0.296D+00 0.586D+00
 Gap=     0.058 Goal=   None    Shift=    0.000
 RMSDP=2.11D-06 MaxDP=6.72D-05 DE=-1.30D-06 OVMax= 2.67D-04

 Cycle  13  Pass 1  IDiag  1:
 E= -2184.68406912839     Delta-E=       -0.000000089055 Rises=F Damp=F
 DIIS: error= 4.69D-06 at cycle  13 NSaved=  13.
 NSaved=13 IEnMin=13 EnMin= -2184.68406912839     IErMin=13 ErrMin= 4.69D-06
 ErrMax= 4.69D-06 EMaxC= 1.00D-01 BMatC= 1.79D-08 BMatP= 7.58D-08
 IDIUse=1 WtCom= 1.00D+00 WtEn= 0.00D+00
 Coeff-Com: -0.145D-05-0.579D-05 0.429D-04 0.314D-05-0.117D-03-0.162D-03
 Coeff-Com: -0.211D-02-0.558D-02-0.526D-02 0.113D-01 0.674D-01 0.358D+00
 Coeff-Com:  0.577D+00
 Coeff:     -0.145D-05-0.579D-05 0.429D-04 0.314D-05-0.117D-03-0.162D-03
 Coeff:     -0.211D-02-0.558D-02-0.526D-02 0.113D-01 0.674D-01 0.358D+00
 Coeff:      0.577D+00
 Gap=     0.058 Goal=   None    Shift=    0.000
 RMSDP=9.91D-07 MaxDP=3.33D-05 DE=-8.91D-08 OVMax= 1.26D-04

 Cycle  14  Pass 1  IDiag  1:
 E= -2184.68406915038     Delta-E=       -0.000000021990 Rises=F Damp=F
 DIIS: error= 2.26D-06 at cycle  14 NSaved=  14.
 NSaved=14 IEnMin=14 EnMin= -2184.68406915038     IErMin=14 ErrMin= 2.26D-06
 ErrMax= 2.26D-06 EMaxC= 1.00D-01 BMatC= 1.78D-09 BMatP= 1.79D-08
 IDIUse=1 WtCom= 1.00D+00 WtEn= 0.00D+00
 Coeff-Com: -0.718D-05 0.118D-04-0.298D-05-0.705D-07 0.736D-05 0.572D-04
 Coeff-Com: -0.635D-03-0.213D-02-0.376D-02-0.616D-02 0.723D-02 0.141D+00
 Coeff-Com:  0.298D+00 0.566D+00
 Coeff:     -0.718D-05 0.118D-04-0.298D-05-0.705D-07 0.736D-05 0.572D-04
 Coeff:     -0.635D-03-0.213D-02-0.376D-02-0.616D-02 0.723D-02 0.141D+00
 Coeff:      0.298D+00 0.566D+00
 Gap=     0.058 Goal=   None    Shift=    0.000
 RMSDP=4.55D-07 MaxDP=1.46D-05 DE=-2.20D-08 OVMax= 7.09D-05

 Cycle  15  Pass 1  IDiag  1:
 E= -2184.68406915283     Delta-E=       -0.000000002453 Rises=F Damp=F
 DIIS: error= 1.32D-06 at cycle  15 NSaved=  15.
 NSaved=15 IEnMin=15 EnMin= -2184.68406915283     IErMin=15 ErrMin= 1.32D-06
 ErrMax= 1.32D-06 EMaxC= 1.00D-01 BMatC= 6.26D-10 BMatP= 1.78D-09
 IDIUse=1 WtCom= 1.00D+00 WtEn= 0.00D+00
 Coeff-Com: -0.159D-05 0.238D-05-0.133D-04 0.106D-05 0.216D-04 0.614D-04
 Coeff-Com:  0.132D-05-0.133D-03-0.103D-02-0.424D-02-0.573D-02 0.225D-01
 Coeff-Com:  0.377D-01 0.362D+00 0.589D+00
 Coeff:     -0.159D-05 0.238D-05-0.133D-04 0.106D-05 0.216D-04 0.614D-04
 Coeff:      0.132D-05-0.133D-03-0.103D-02-0.424D-02-0.573D-02 0.225D-01
 Coeff:      0.377D-01 0.362D+00 0.589D+00
 Gap=     0.058 Goal=   None    Shift=    0.000
 RMSDP=1.83D-07 MaxDP=4.30D-06 DE=-2.45D-09 OVMax= 2.43D-05

 Cycle  16  Pass 1  IDiag  1:
 E= -2184.68406915374     Delta-E=       -0.000000000904 Rises=F Damp=F
 DIIS: error= 4.60D-07 at cycle  16 NSaved=  16.
 NSaved=16 IEnMin=16 EnMin= -2184.68406915374     IErMin=16 ErrMin= 4.60D-07
 ErrMax= 4.60D-07 EMaxC= 1.00D-01 BMatC= 6.62D-11 BMatP= 6.26D-10
 IDIUse=1 WtCom= 1.00D+00 WtEn= 0.00D+00
 Coeff-Com:  0.111D-05-0.254D-05-0.663D-05 0.693D-06 0.119D-04 0.249D-04
 Coeff-Com:  0.560D-04 0.207D-03-0.124D-04-0.854D-03-0.301D-02-0.689D-02
 Coeff-Com: -0.410D-01 0.126D+00 0.246D+00 0.680D+00
 Coeff:      0.111D-05-0.254D-05-0.663D-05 0.693D-06 0.119D-04 0.249D-04
 Coeff:      0.560D-04 0.207D-03-0.124D-04-0.854D-03-0.301D-02-0.689D-02
 Coeff:     -0.410D-01 0.126D+00 0.246D+00 0.680D+00
 Gap=     0.058 Goal=   None    Shift=    0.000
 RMSDP=9.33D-08 MaxDP=2.49D-06 DE=-9.04D-10 OVMax= 1.68D-05

 Cycle  17  Pass 1  IDiag  1:
 E= -2184.68406915382     Delta-E=       -0.000000000087 Rises=F Damp=F
 DIIS: error= 2.09D-07 at cycle  17 NSaved=  17.
 NSaved=17 IEnMin=17 EnMin= -2184.68406915382     IErMin=17 ErrMin= 2.09D-07
 ErrMax= 2.09D-07 EMaxC= 1.00D-01 BMatC= 1.96D-11 BMatP= 6.62D-11
 IDIUse=1 WtCom= 1.00D+00 WtEn= 0.00D+00
 Coeff-Com:  0.282D-06-0.280D-06-0.360D-06 0.277D-08 0.238D-05-0.367D-06
 Coeff-Com: -0.273D-04 0.277D-04 0.647D-05-0.299D-04-0.700D-03-0.653D-02
 Coeff-Com: -0.302D-01 0.602D-02-0.424D-01 0.368D+00 0.705D+00
 Coeff:      0.282D-06-0.280D-06-0.360D-06 0.277D-08 0.238D-05-0.367D-06
 Coeff:     -0.273D-04 0.277D-04 0.647D-05-0.299D-04-0.700D-03-0.653D-02
 Coeff:     -0.302D-01 0.602D-02-0.424D-01 0.368D+00 0.705D+00
 Gap=     0.058 Goal=   None    Shift=    0.000
 RMSDP=4.69D-08 MaxDP=1.38D-06 DE=-8.69D-11 OVMax= 7.66D-06

 Cycle  18  Pass 1  IDiag  1:
 E= -2184.68406915383     Delta-E=       -0.000000000009 Rises=F Damp=F
 DIIS: error= 3.56D-08 at cycle  18 NSaved=  18.
 NSaved=18 IEnMin=18 EnMin= -2184.68406915383     IErMin=18 ErrMin= 3.56D-08
 ErrMax= 3.56D-08 EMaxC= 1.00D-01 BMatC= 8.44D-13 BMatP= 1.96D-11
 IDIUse=1 WtCom= 1.00D+00 WtEn= 0.00D+00
 Coeff-Com:  0.265D-06-0.354D-06 0.253D-06-0.239D-07 0.549D-06-0.126D-05
 Coeff-Com: -0.176D-04 0.585D-06 0.515D-05 0.287D-04-0.133D-03-0.223D-02
 Coeff-Com: -0.111D-01 0.547D-03-0.386D-01 0.130D+00 0.305D+00 0.616D+00
 Coeff:      0.265D-06-0.354D-06 0.253D-06-0.239D-07 0.549D-06-0.126D-05
 Coeff:     -0.176D-04 0.585D-06 0.515D-05 0.287D-04-0.133D-03-0.223D-02
 Coeff:     -0.111D-01 0.547D-03-0.386D-01 0.130D+00 0.305D+00 0.616D+00
 Gap=     0.058 Goal=   None    Shift=    0.000
 RMSDP=7.74D-09 MaxDP=1.87D-07 DE=-8.64D-12 OVMax= 1.20D-06

 SCF Done:  E(RB3LYP) =  -2184.68406915     A.U. after   18 cycles
             Convg  =    0.7738D-08             -V/T =  2.0033
 KE= 2.177484873246D+03 PE=-7.209693828140D+03 EE= 1.841678313809D+03
 Leave Link  502 at Sun Oct  3 02:44:14 2021, MaxMem= 1073741824 cpu:     467.0
 (Enter /sw/target/amd/app/gaussian/Gaussian09RevA.02_gcc-4.9.2/g09/l508.exe)
 QCSCF skips out because SCF is already converged.
 Leave Link  508 at Sun Oct  3 02:44:17 2021, MaxMem= 1073741824 cpu:       0.0
 (Enter /sw/target/amd/app/gaussian/Gaussian09RevA.02_gcc-4.9.2/g09/l601.exe)
 Copying SCF densities to generalized density rwf, IOpCl= 0 IROHF=0.

 **********************************************************************

            Population analysis using the SCF density.

 **********************************************************************

 Orbital symmetries:
       Occupied  (A) (A) (A) (A) (A) (A) (A) (A) (A) (A) (A) (A)
                 (A) (A) (A) (A) (A) (A) (A) (A) (A) (A) (A) (A)
                 (A) (A) (A) (A) (A) (A) (A) (A) (A) (A) (A) (A)
                 (A) (A) (A) (A) (A) (A) (A) (A) (A) (A) (A) (A)
                 (A) (A) (A) (A) (A) (A) (A) (A)
       Virtual   (A) (A) (A) (A) (A) (A) (A) (A) (A) (A) (A) (A)
                 (A) (A) (A) (A) (A) (A) (A) (A) (A) (A) (A) (A)
                 (A) (A) (A) (A) (A) (A) (A) (A) (A) (A) (A) (A)
                 (A) (A) (A) (A) (A) (A) (A) (A) (A) (A) (A) (A)
                 (A) (A) (A) (A) (A) (A) (A) (A) (A) (A) (A) (A)
                 (A) (A) (A) (A) (A) (A) (A) (A) (A) (A) (A) (A)
                 (A) (A) (A) (A) (A) (A) (A) (A) (A) (A) (A) (A)
                 (A) (A) (A) (A) (A) (A) (A) (A) (A) (A) (A) (A)
                 (A) (A) (A) (A) (A) (A) (A) (A) (A) (A) (A) (A)
                 (A) (A) (A) (A) (A) (A) (A) (A) (A) (A) (A) (A)
                 (A) (A) (A) (A) (A) (A) (A) (A) (A) (A) (A) (A)
                 (A) (A) (A) (A) (A) (A) (A) (A) (A) (A) (A) (A)
                 (A) (A) (A) (A) (A) (A) (A) (A) (A) (A) (A) (A)
                 (A) (A) (A) (A) (A) (A) (A) (A) (A) (A) (A) (A)
                 (A) (A) (A) (A) (A) (A) (A) (A) (A) (A) (A) (A)
                 (A) (A) (A) (A) (A) (A) (A) (A) (A) (A) (A) (A)
 The electronic state is 1-A.
 Alpha  occ. eigenvalues -- -347.23704 -42.21450 -37.19969 -37.19705 -37.19567
 Alpha  occ. eigenvalues --  -10.17238 -10.17089 -10.16618 -10.16286 -10.16214
 Alpha  occ. eigenvalues --  -10.16200 -10.15943 -10.15202 -10.09956 -10.08833
 Alpha  occ. eigenvalues --   -4.77282  -3.16464  -3.16025  -3.15838  -2.06281
 Alpha  occ. eigenvalues --   -2.04071  -0.82479  -0.74301  -0.71556  -0.65514
 Alpha  occ. eigenvalues --   -0.65170  -0.60939  -0.59634  -0.57588  -0.55329
 Alpha  occ. eigenvalues --   -0.48078  -0.44045  -0.43621  -0.42798  -0.42344
 Alpha  occ. eigenvalues --   -0.42126  -0.41999  -0.41735  -0.39494  -0.38910
 Alpha  occ. eigenvalues --   -0.37219  -0.36826  -0.36304  -0.33891  -0.33355
 Alpha  occ. eigenvalues --   -0.32962  -0.32120  -0.31882  -0.31751  -0.30467
 Alpha  occ. eigenvalues --   -0.29513  -0.22829  -0.21417  -0.20733  -0.14083
 Alpha  occ. eigenvalues --   -0.13881
 Alpha virt. eigenvalues --   -0.08072  -0.05920  -0.02510  -0.00807   0.00109
 Alpha virt. eigenvalues --    0.01426   0.01853   0.02688   0.03060   0.05618
 Alpha virt. eigenvalues --    0.06519   0.08664   0.09756   0.10220   0.10941
 Alpha virt. eigenvalues --    0.11909   0.12163   0.13018   0.14222   0.14726
 Alpha virt. eigenvalues --    0.16073   0.16400   0.17181   0.18721   0.19505
 Alpha virt. eigenvalues --    0.19773   0.20607   0.22561   0.22877   0.23376
 Alpha virt. eigenvalues --    0.23996   0.25104   0.25842   0.27367   0.28745
 Alpha virt. eigenvalues --    0.30354   0.30739   0.31968   0.33161   0.34818
 Alpha virt. eigenvalues --    0.36656   0.38191   0.39570   0.41359   0.42397
 Alpha virt. eigenvalues --    0.43468   0.43855   0.46905   0.47428   0.48109
 Alpha virt. eigenvalues --    0.48791   0.51743   0.52468   0.53570   0.56083
 Alpha virt. eigenvalues --    0.57447   0.58117   0.59167   0.60256   0.60395
 Alpha virt. eigenvalues --    0.62408   0.63153   0.64004   0.64914   0.66131
 Alpha virt. eigenvalues --    0.66464   0.67050   0.67839   0.69694   0.71118
 Alpha virt. eigenvalues --    0.72246   0.73260   0.75610   0.76876   0.79100
 Alpha virt. eigenvalues --    0.80547   0.81577   0.83161   0.85409   0.86307
 Alpha virt. eigenvalues --    0.87556   0.88064   0.90589   0.91240   0.93363
 Alpha virt. eigenvalues --    0.93923   0.94985   0.96085   0.96503   0.97237
 Alpha virt. eigenvalues --    0.97618   0.98816   0.99803   1.00251   1.01722
 Alpha virt. eigenvalues --    1.02902   1.04813   1.06516   1.09651   1.12763
 Alpha virt. eigenvalues --    1.12980   1.13949   1.16703   1.17228   1.18667
 Alpha virt. eigenvalues --    1.20497   1.21637   1.24164   1.27738   1.29199
 Alpha virt. eigenvalues --    1.33468   1.37682   1.38334   1.42244   1.45443
 Alpha virt. eigenvalues --    1.47202   1.47711   1.51903   1.52356   1.54511
 Alpha virt. eigenvalues --    1.55417   1.59479   1.67005   1.69224   1.72267
 Alpha virt. eigenvalues --    1.73448   1.75227   1.76170   1.78344   1.81581
 Alpha virt. eigenvalues --    1.83635   1.84461   1.84736   1.90391   1.93564
 Alpha virt. eigenvalues --    1.93883   1.95812   1.98347   2.02977   2.05860
 Alpha virt. eigenvalues --    2.08174   2.10168   2.14797   2.15459   2.16405
 Alpha virt. eigenvalues --    2.18265   2.23709   2.24868   2.25848   2.26591
 Alpha virt. eigenvalues --    2.27904   2.29600   2.30554   2.32950   2.34502
 Alpha virt. eigenvalues --    2.34692   2.35492   2.36829   2.37541   2.41114
 Alpha virt. eigenvalues --    2.43160   2.44401   2.46487   2.50654   2.55670
 Alpha virt. eigenvalues --    2.56477   2.57316   2.57852   2.65288   2.67928
 Alpha virt. eigenvalues --    2.71618   2.75804   2.79018   2.80037   2.82617
 Alpha virt. eigenvalues --    2.84720   2.88194   2.89297   2.97900   3.13529
 Alpha virt. eigenvalues --    3.40842   4.14279   4.15882   4.25245   4.28317
 Alpha virt. eigenvalues --    4.34048   4.35964   4.38839   4.44082   4.45137
 Alpha virt. eigenvalues --    4.73705  47.53587
          Condensed to atoms (all electrons):
              1          2          3          4          5          6
     1  C    5.224516   0.344624  -0.064730   0.007664   0.000616   0.006054
     2  C    0.344624   4.854573   0.519062  -0.020614  -0.039768  -0.035879
     3  C   -0.064730   0.519062   4.997206   0.520190  -0.034322  -0.053767
     4  C    0.007664  -0.020614   0.520190   4.887710   0.547667  -0.013544
     5  C    0.000616  -0.039768  -0.034322   0.547667   4.921860   0.493411
     6  C    0.006054  -0.035879  -0.053767  -0.013544   0.493411   5.114683
     7  C   -0.068812   0.471432  -0.035374  -0.051004  -0.019807   0.399347
     8  Zn  -0.001911  -0.018578   0.000549  -0.001099  -0.000780  -0.055169
     9  C   -0.000346  -0.002600  -0.000070   0.000022  -0.000089  -0.004621
    10  C   -0.003538  -0.003533  -0.000039   0.000002  -0.000042   0.000554
    11  C    0.000014  -0.000028  -0.000002  -0.000000  -0.000005   0.000329
    12  Li  -0.003437  -0.002948   0.002343   0.002003   0.004258  -0.006345
    13  Li  -0.000397  -0.001777  -0.000517  -0.002483   0.013559  -0.003241
    14  H    0.365204  -0.025513   0.000512  -0.000237   0.000024  -0.000052
    15  H    0.361370  -0.027765   0.001283  -0.000230   0.000028  -0.000042
    16  H    0.352172  -0.033063  -0.004798   0.000565  -0.000015  -0.000120
    17  H   -0.011603  -0.039929   0.348930  -0.053049   0.005744   0.000391
    18  H   -0.000247   0.004515  -0.042016   0.352732  -0.046829   0.005399
    19  H    0.000014   0.000624   0.005605  -0.045072   0.344183  -0.048387
    20  H   -0.000177   0.005199   0.000863   0.006129  -0.055646   0.309684
    21  H   -0.000181   0.001400  -0.000053  -0.000017  -0.000058  -0.000647
    22  H    0.000031   0.000079   0.000001  -0.000006  -0.000146   0.000652
    23  H   -0.000002   0.000058   0.000001  -0.000000   0.000003   0.000099
    24  H    0.000157  -0.000032  -0.000000   0.000000  -0.000000   0.000005
    25  H   -0.004170  -0.000460  -0.000057  -0.000001   0.000003   0.000122
    26  H   -0.002876  -0.000793  -0.000019  -0.000000   0.000002   0.000033
    27  H   -0.000001  -0.000006   0.000000   0.000000   0.000000   0.000000
    28  H    0.000000   0.000010   0.000000  -0.000000  -0.000001  -0.000010
    29  H   -0.000000  -0.000001   0.000000   0.000000   0.000000  -0.000002
              7          8          9         10         11         12
     1  C   -0.068812  -0.001911  -0.000346  -0.003538   0.000014  -0.003437
     2  C    0.471432  -0.018578  -0.002600  -0.003533  -0.000028  -0.002948
     3  C   -0.035374   0.000549  -0.000070  -0.000039  -0.000002   0.002343
     4  C   -0.051004  -0.001099   0.000022   0.000002  -0.000000   0.002003
     5  C   -0.019807  -0.000780  -0.000089  -0.000042  -0.000005   0.004258
     6  C    0.399347  -0.055169  -0.004621   0.000554   0.000329  -0.006345
     7  C    5.121379   0.266886  -0.017093  -0.013552  -0.003417   0.057331
     8  Zn   0.266886  28.654340   0.383789   0.345507   0.284837  -0.004380
     9  C   -0.017093   0.383789   5.370423  -0.047483  -0.023616  -0.028551
    10  C   -0.013552   0.345507  -0.047483   5.400853  -0.020319  -0.019232
    11  C   -0.003417   0.284837  -0.023616  -0.020319   5.195979   0.036612
    12  Li   0.057331  -0.004380  -0.028551  -0.019232   0.036612   2.652984
    13  Li   0.009577   0.007481  -0.007053  -0.021681   0.049530   0.161171
    14  H   -0.003726   0.002611   0.000490  -0.002338  -0.000001   0.000049
    15  H   -0.003422  -0.001113  -0.000083  -0.001576   0.000002   0.003319
    16  H    0.003674  -0.000809  -0.000001   0.000495  -0.000000  -0.000075
    17  H    0.006429  -0.000106   0.000001   0.000001   0.000000   0.000236
    18  H    0.000562   0.000048   0.000000  -0.000000  -0.000000   0.000007
    19  H    0.005735  -0.000332  -0.000001   0.000000   0.000000  -0.001007
    20  H   -0.078593  -0.034784  -0.000341   0.000192   0.000570  -0.007917
    21  H   -0.007680   0.005661   0.349103  -0.003883   0.001335   0.002383
    22  H   -0.002678  -0.052671   0.304391   0.002962  -0.000948   0.000765
    23  H    0.001252   0.003888   0.339963  -0.002792  -0.007768   0.003739
    24  H    0.000738  -0.000320  -0.000261   0.336363  -0.009531   0.012999
    25  H   -0.002783  -0.053122   0.002218   0.319462   0.000507   0.019939
    26  H   -0.001741   0.002213  -0.007204   0.356265   0.001010  -0.002319
    27  H    0.000111  -0.001199  -0.011326  -0.011714   0.369264   0.005869
    28  H    0.000339  -0.050979  -0.003621   0.004306   0.323069  -0.017964
    29  H    0.000118  -0.028118   0.002711  -0.005819   0.345103   0.000212
             13         14         15         16         17         18
     1  C   -0.000397   0.365204   0.361370   0.352172  -0.011603  -0.000247
     2  C   -0.001777  -0.025513  -0.027765  -0.033063  -0.039929   0.004515
     3  C   -0.000517   0.000512   0.001283  -0.004798   0.348930  -0.042016
     4  C   -0.002483  -0.000237  -0.000230   0.000565  -0.053049   0.352732
     5  C    0.013559   0.000024   0.000028  -0.000015   0.005744  -0.046829
     6  C   -0.003241  -0.000052  -0.000042  -0.000120   0.000391   0.005399
     7  C    0.009577  -0.003726  -0.003422   0.003674   0.006429   0.000562
     8  Zn   0.007481   0.002611  -0.001113  -0.000809  -0.000106   0.000048
     9  C   -0.007053   0.000490  -0.000083  -0.000001   0.000001   0.000000
    10  C   -0.021681  -0.002338  -0.001576   0.000495   0.000001  -0.000000
    11  C    0.049530  -0.000001   0.000002  -0.000000   0.000000  -0.000000
    12  Li   0.161171   0.000049   0.003319  -0.000075   0.000236   0.000007
    13  Li   2.479533  -0.000280   0.000400   0.000014  -0.000197   0.000304
    14  H   -0.000280   0.543521  -0.025054  -0.032028   0.000266   0.000004
    15  H    0.000400  -0.025054   0.567223  -0.033688   0.000181   0.000004
    16  H    0.000014  -0.032028  -0.033688   0.613857   0.007256  -0.000018
    17  H   -0.000197   0.000266   0.000181   0.007256   0.629396  -0.006422
    18  H    0.000304   0.000004   0.000004  -0.000018  -0.006422   0.626384
    19  H    0.003195  -0.000000  -0.000000  -0.000000  -0.000190  -0.007068
    20  H    0.031380   0.000001  -0.000001   0.000004   0.000028  -0.000260
    21  H   -0.001139   0.000396  -0.000013  -0.000008   0.000002  -0.000000
    22  H    0.030340  -0.000011   0.000000   0.000000   0.000000  -0.000000
    23  H    0.004747  -0.000050   0.000005  -0.000000  -0.000000   0.000000
    24  H    0.002777   0.000042   0.000007  -0.000014  -0.000000   0.000000
    25  H    0.000392  -0.000098   0.002811   0.000136   0.000002  -0.000000
    26  H    0.001904   0.002401  -0.000279   0.000201   0.000001   0.000000
    27  H    0.004511   0.000000   0.000001   0.000000  -0.000000   0.000000
    28  H    0.013049   0.000000   0.000000  -0.000000  -0.000000  -0.000000
    29  H   -0.010863   0.000000  -0.000001  -0.000000  -0.000000   0.000000
             19         20         21         22         23         24
     1  C    0.000014  -0.000177  -0.000181   0.000031  -0.000002   0.000157
     2  C    0.000624   0.005199   0.001400   0.000079   0.000058  -0.000032
     3  C    0.005605   0.000863  -0.000053   0.000001   0.000001  -0.000000
     4  C   -0.045072   0.006129  -0.000017  -0.000006  -0.000000   0.000000
     5  C    0.344183  -0.055646  -0.000058  -0.000146   0.000003  -0.000000
     6  C   -0.048387   0.309684  -0.000647   0.000652   0.000099   0.000005
     7  C    0.005735  -0.078593  -0.007680  -0.002678   0.001252   0.000738
     8  Zn  -0.000332  -0.034784   0.005661  -0.052671   0.003888  -0.000320
     9  C   -0.000001  -0.000341   0.349103   0.304391   0.339963  -0.000261
    10  C    0.000000   0.000192  -0.003883   0.002962  -0.002792   0.336363
    11  C    0.000000   0.000570   0.001335  -0.000948  -0.007768  -0.009531
    12  Li  -0.001007  -0.007917   0.002383   0.000765   0.003739   0.012999
    13  Li   0.003195   0.031380  -0.001139   0.030340   0.004747   0.002777
    14  H   -0.000000   0.000001   0.000396  -0.000011  -0.000050   0.000042
    15  H   -0.000000  -0.000001  -0.000013   0.000000   0.000005   0.000007
    16  H   -0.000000   0.000004  -0.000008   0.000000  -0.000000  -0.000014
    17  H   -0.000190   0.000028   0.000002   0.000000  -0.000000  -0.000000
    18  H   -0.007068  -0.000260  -0.000000  -0.000000   0.000000   0.000000
    19  H    0.642175  -0.006347   0.000002   0.000002  -0.000000  -0.000000
    20  H   -0.006347   0.768046   0.000126  -0.000356  -0.000008  -0.000001
    21  H    0.000002   0.000126   0.561112  -0.030081  -0.040364  -0.000050
    22  H    0.000002  -0.000356  -0.030081   0.690746  -0.037035  -0.000035
    23  H   -0.000000  -0.000008  -0.040364  -0.037035   0.590151  -0.000495
    24  H   -0.000000  -0.000001  -0.000050  -0.000035  -0.000495   0.624380
    25  H    0.000000  -0.000005   0.000086  -0.000037   0.000019  -0.044571
    26  H    0.000000  -0.000007   0.000098   0.000056   0.000028  -0.046311
    27  H   -0.000000  -0.000010   0.000132   0.000155   0.000698   0.000157
    28  H    0.000000  -0.000036   0.000038   0.000645   0.000094   0.000135
    29  H   -0.000000  -0.000001  -0.000026  -0.000056  -0.000063   0.000113
             25         26         27         28         29
     1  C   -0.004170  -0.002876  -0.000001   0.000000  -0.000000
     2  C   -0.000460  -0.000793  -0.000006   0.000010  -0.000001
     3  C   -0.000057  -0.000019   0.000000   0.000000   0.000000
     4  C   -0.000001  -0.000000   0.000000  -0.000000   0.000000
     5  C    0.000003   0.000002   0.000000  -0.000001   0.000000
     6  C    0.000122   0.000033   0.000000  -0.000010  -0.000002
     7  C   -0.002783  -0.001741   0.000111   0.000339   0.000118
     8  Zn  -0.053122   0.002213  -0.001199  -0.050979  -0.028118
     9  C    0.002218  -0.007204  -0.011326  -0.003621   0.002711
    10  C    0.319462   0.356265  -0.011714   0.004306  -0.005819
    11  C    0.000507   0.001010   0.369264   0.323069   0.345103
    12  Li   0.019939  -0.002319   0.005869  -0.017964   0.000212
    13  Li   0.000392   0.001904   0.004511   0.013049  -0.010863
    14  H   -0.000098   0.002401   0.000000   0.000000   0.000000
    15  H    0.002811  -0.000279   0.000001   0.000000  -0.000001
    16  H    0.000136   0.000201   0.000000  -0.000000  -0.000000
    17  H    0.000002   0.000001  -0.000000  -0.000000  -0.000000
    18  H   -0.000000   0.000000   0.000000  -0.000000   0.000000
    19  H    0.000000   0.000000  -0.000000   0.000000  -0.000000
    20  H   -0.000005  -0.000007  -0.000010  -0.000036  -0.000001
    21  H    0.000086   0.000098   0.000132   0.000038  -0.000026
    22  H   -0.000037   0.000056   0.000155   0.000645  -0.000056
    23  H    0.000019   0.000028   0.000698   0.000094  -0.000063
    24  H   -0.044571  -0.046311   0.000157   0.000135   0.000113
    25  H    0.704585  -0.027782   0.000212  -0.000106   0.000374
    26  H   -0.027782   0.579124   0.000343  -0.000081   0.000058
    27  H    0.000212   0.000343   0.526126  -0.039392  -0.037376
    28  H   -0.000106  -0.000081  -0.039392   0.678569  -0.032161
    29  H    0.000374   0.000058  -0.037376  -0.032161   0.622159
 Mulliken atomic charges:
              1
     1  C   -0.500010
     2  C    0.051710
     3  C   -0.160782
     4  C   -0.137326
     5  C   -0.133851
     6  C   -0.108937
     7  C   -0.035226
     8  Zn   0.347660
     9  C   -0.598751
    10  C   -0.609420
    11  C   -0.542529
    12  Li   0.127952
    13  Li   0.235762
    14  H    0.173866
    15  H    0.156631
    16  H    0.126262
    17  H    0.112633
    18  H    0.112903
    19  H    0.106868
    20  H    0.062269
    21  H    0.162324
    22  H    0.093235
    23  H    0.143831
    24  H    0.123746
    25  H    0.082325
    26  H    0.145675
    27  H    0.193444
    28  H    0.124098
    29  H    0.143638
 Sum of Mulliken atomic charges =  -0.00000
 Mulliken charges with hydrogens summed into heavy atoms:
              1
     1  C   -0.043251
     2  C    0.051710
     3  C   -0.048148
     4  C   -0.024424
     5  C   -0.026983
     6  C   -0.046669
     7  C   -0.035226
     8  Zn   0.347660
     9  C   -0.199361
    10  C   -0.257674
    11  C   -0.081349
    12  Li   0.127952
    13  Li   0.235762
 Sum of Mulliken charges with hydrogens summed into heavy atoms =  -0.00000
 Electronic spatial extent (au):  <R**2>=           2728.1790
 Charge=             -0.0000 electrons
 Dipole moment (field-independent basis, Debye):
    X=             -1.0081    Y=             -5.9905    Z=             -5.2957  Tot=              8.0589
 Quadrupole moment (field-independent basis, Debye-Ang):
   XX=            -90.8938   YY=            -70.5255   ZZ=            -77.5444
   XY=             10.4709   XZ=              6.6506   YZ=             -1.4921
 Traceless Quadrupole moment (field-independent basis, Debye-Ang):
   XX=            -11.2393   YY=              9.1290   ZZ=              2.1102
   XY=             10.4709   XZ=              6.6506   YZ=             -1.4921
 Octapole moment (field-independent basis, Debye-Ang**2):
  XXX=             -2.1820  YYY=            -78.3191  ZZZ=            -61.6301  XYY=            -23.8243
  XXY=             -6.6305  XXZ=             -1.0848  XZZ=            -31.0911  YZZ=             12.8576
  YYZ=             14.4374  XYZ=              2.6340
 Hexadecapole moment (field-independent basis, Debye-Ang**3):
 XXXX=          -2427.1520 YYYY=           -839.6670 ZZZZ=           -346.8234 XXXY=             -0.9835
 XXXZ=             -6.8906 YYYX=            108.0986 YYYZ=            -23.7054 ZZZX=             77.1742
 ZZZY=            -15.2675 XXYY=           -548.1908 XXZZ=           -492.9369 YYZZ=           -273.9570
 XXYZ=             -6.9750 YYXZ=            -18.9446 ZZXY=             -6.8536
 N-N= 1.005846571931D+03 E-N=-7.209693817852D+03  KE= 2.177484873246D+03
 No NMR shielding tensors so no spin-rotation constants.
 Leave Link  601 at Sun Oct  3 02:44:23 2021, MaxMem= 1073741824 cpu:       1.6
 (Enter /sw/target/amd/app/gaussian/Gaussian09RevA.02_gcc-4.9.2/g09/l701.exe)
 Compute integral first derivatives.
 ... and contract with generalized density number  0.
 Leave Link  701 at Sun Oct  3 02:44:27 2021, MaxMem= 1073741824 cpu:       1.6
 (Enter /sw/target/amd/app/gaussian/Gaussian09RevA.02_gcc-4.9.2/g09/l702.exe)
 L702 exits ... SP integral derivatives will be done elsewhere.
 Leave Link  702 at Sun Oct  3 02:44:28 2021, MaxMem= 1073741824 cpu:       0.0
 (Enter /sw/target/amd/app/gaussian/Gaussian09RevA.02_gcc-4.9.2/g09/l703.exe)
 Compute integral first derivatives, UseDBF=F ICtDFT=           0.
 Integral derivatives from FoFDir, PRISM(SPDF).
 Calling FoFJK, ICntrl=      2127 FMM=F ISym2X=0 I1Cent= 0 IOpClX= 0 NMat=1 NMatS=1 NMatT=0.
 FoFCou: FMM=F IPFlag=           0 FMFlag=      100000 FMFlg1=         800
         NFxFlg=           0 DoJE=F BraDBF=F KetDBF=F FulRan=T
         Omega=  0.000000  0.000000  1.000000  0.000000  0.000000 ICntrl=    2127 IOpCl=  0
         NMat0=    1 NMatS0=    1 NMatT0=    0 NMatD0=    1 NMtDS0=    0 NMtDT0=    0
         I1Cent=           0 NGrid=           0.
 Symmetry not used in FoFCou.
 Leave Link  703 at Sun Oct  3 02:51:00 2021, MaxMem= 1073741824 cpu:     191.2
 (Enter /sw/target/amd/app/gaussian/Gaussian09RevA.02_gcc-4.9.2/g09/l716.exe)
 Dipole        =-3.96629945D-01-2.35683891D+00-2.08348244D+00
 ***** Axes restored to original set *****
 -------------------------------------------------------------------
 Center     Atomic                   Forces (Hartrees/Bohr)
 Number     Number              X              Y              Z
 -------------------------------------------------------------------
      1        6           0.003907132   -0.011813736   -0.002399440
      2        6           0.002377154    0.012254746    0.000048117
      3        6          -0.009384719    0.007777858    0.003784364
      4        6           0.002558267    0.000444255   -0.000583181
      5        6          -0.001500071    0.007836867   -0.002205192
      6        6           0.022555700   -0.016377980   -0.018818030
      7        6           0.002395789    0.011432066    0.021759851
      8       30           0.003544181   -0.030124636   -0.016540488
      9        6          -0.013422742    0.019251943   -0.030795728
     10        6          -0.001791953   -0.033402219    0.031406674
     11        6          -0.004188225    0.025422240    0.027663703
     12        3          -0.005532751   -0.002505420   -0.012839524
     13        3          -0.003382946   -0.016224888   -0.000055169
     14        1           0.004494806   -0.002128537    0.011089181
     15        1          -0.008814649   -0.001628472   -0.008429890
     16        1          -0.003959374    0.008259897    0.002559693
     17        1          -0.000873002   -0.005140862   -0.000131825
     18        1           0.003151319    0.000794074   -0.001452207
     19        1           0.001862668    0.004693035   -0.000679349
     20        1          -0.002171246    0.012401052    0.003434742
     21        1          -0.001581725    0.008358400    0.006210320
     22        1          -0.006659375   -0.002926063   -0.011649163
     23        1           0.006907894    0.004571867    0.002795726
     24        1           0.003147929    0.003799832   -0.001087271
     25        1          -0.001913598   -0.013098629   -0.005535554
     26        1           0.008655345    0.005650357    0.004877154
     27        1           0.018166532    0.003351386   -0.005530536
     28        1          -0.008733331   -0.006932485    0.009095513
     29        1          -0.009815010    0.006004053   -0.005992492
 -------------------------------------------------------------------
 Cartesian Forces:  Max     0.033402219 RMS     0.011300772
 Leave Link  716 at Sun Oct  3 02:51:01 2021, MaxMem= 1073741824 cpu:       0.1
 (Enter /sw/target/amd/app/gaussian/Gaussian09RevA.02_gcc-4.9.2/g09/l103.exe)

 GradGradGradGradGradGradGradGradGradGradGradGradGradGradGradGradGradGrad
 Berny optimization.
 Internal  Forces:  Max     0.038893661 RMS     0.008416455
 Search for a local minimum.
 Step number   1 out of a maximum of  174
 All quantities printed in internal units (Hartrees-Bohrs-Radians)
 RMS Force = .84165D-02 SwitMx=.10000D-02 MixMth= 1
 Mixed Optimization -- RFO/linear search
 Second derivative matrix not updated -- first step.
     Eigenvalues ---    0.00661   0.00751   0.01159   0.01288   0.01401
     Eigenvalues ---    0.01747   0.01964   0.02068   0.02203   0.02215
     Eigenvalues ---    0.02238   0.02280   0.02409   0.02566   0.02691
     Eigenvalues ---    0.04388   0.04978   0.05192   0.05371   0.05373
     Eigenvalues ---    0.05714   0.06109   0.06209   0.06539   0.06878
     Eigenvalues ---    0.07187   0.07341   0.08727   0.09862   0.11517
     Eigenvalues ---    0.11859   0.12763   0.13074   0.14330   0.14667
     Eigenvalues ---    0.14695   0.15428   0.15969   0.15980   0.15998
     Eigenvalues ---    0.16000   0.16000   0.16000   0.16000   0.16000
     Eigenvalues ---    0.16000   0.16000   0.16000   0.16000   0.16000
     Eigenvalues ---    0.16000   0.16000   0.18899   0.20130   0.22047
[...]
 (Enter /sw/target/amd/app/gaussian/Gaussian09RevA.02_gcc-4.9.2/g09/l604.exe)
 Evaluate density.
 Using the total density.
 Monte-Carlo method of calculating molar volume:
 based on  0.001 e/bohr**3 density envelope.
 Number of points per bohr**3 =   20 CutOff= 1.00D-04
 Using the CI density.
 There are       527 points.  Will hold       527 in memory.
 LenV=  1073544937 MDV=  1073741824.
 Box volume =18345.200 fraction occupied=0.123
 Integrated density= 6.3843520342665947D+01 error=-4.8156479657334053D+01
 Molar volume = 2262.691 bohr**3/mol (201.920 cm**3/mol)
 Recommended a0 for SCRF calculation =  5.24 angstrom (  9.91 bohr)
 Leave Link  604 at Mon Oct  4 03:37:16 2021, MaxMem= 1073741824 cpu:       0.4
 (Enter /sw/target/amd/app/gaussian/Gaussian09RevA.02_gcc-4.9.2/g09/l607.exe)
 ******************************Gaussian NBO Version 3.1******************************
             N A T U R A L   A T O M I C   O R B I T A L   A N D
          N A T U R A L   B O N D   O R B I T A L   A N A L Y S I S
 ******************************Gaussian NBO Version 3.1******************************
       /RESON  / : Allow strongly delocalized NBO set

 Analyzing the CI density

 Job title: Cc1ccc(cc1)[Zn](C)(C)(C)([Li])[Li]_conf_0                       

 Storage needed:    187312 in NPA (1073737213 available)


 NATURAL POPULATIONS:  Natural atomic orbital occupancies 
                                                          
   NAO  Atom  No  lang   Type(AO)    Occupancy
 --------------------------------------------
     1    C    1  S      Cor( 1S)     1.99940
     2    C    1  S      Val( 2S)     1.09051
     3    C    1  S      Ryd( 3S)     0.00034
     4    C    1  S      Ryd( 4S)     0.00001
     5    C    1  px     Val( 2p)     1.23251
     6    C    1  px     Ryd( 3p)     0.00330
     7    C    1  py     Val( 2p)     1.12323
     8    C    1  py     Ryd( 3p)     0.00245
     9    C    1  pz     Val( 2p)     1.24313
    10    C    1  pz     Ryd( 3p)     0.00019
    11    C    1  dxy    Ryd( 3d)     0.00088
    12    C    1  dxz    Ryd( 3d)     0.00111
    13    C    1  dyz    Ryd( 3d)     0.00030
    14    C    1  dx2y2  Ryd( 3d)     0.00046
    15    C    1  dz2    Ryd( 3d)     0.00061

    16    C    2  S      Cor( 1S)     1.99898
    17    C    2  S      Val( 2S)     0.87968
    18    C    2  S      Ryd( 3S)     0.00113
    19    C    2  S      Ryd( 4S)     0.00007
    20    C    2  px     Val( 2p)     1.08773
    21    C    2  px     Ryd( 3p)     0.00471
    22    C    2  py     Val( 2p)     1.06650
    23    C    2  py     Ryd( 3p)     0.00639
    24    C    2  pz     Val( 2p)     0.96696
    25    C    2  pz     Ryd( 3p)     0.00169
    26    C    2  dxy    Ryd( 3d)     0.00081
    27    C    2  dxz    Ryd( 3d)     0.00054
    28    C    2  dyz    Ryd( 3d)     0.00045
    29    C    2  dx2y2  Ryd( 3d)     0.00097
    30    C    2  dz2    Ryd( 3d)     0.00035

    31    C    3  S      Cor( 1S)     1.99900
    32    C    3  S      Val( 2S)     0.95462
    33    C    3  S      Ryd( 3S)     0.00083
    34    C    3  S      Ryd( 4S)     0.00006
    35    C    3  px     Val( 2p)     1.10814
    36    C    3  px     Ryd( 3p)     0.00435
    37    C    3  py     Val( 2p)     1.15347
    38    C    3  py     Ryd( 3p)     0.00431
    39    C    3  pz     Val( 2p)     0.98901
    40    C    3  pz     Ryd( 3p)     0.00041
    41    C    3  dxy    Ryd( 3d)     0.00092
    42    C    3  dxz    Ryd( 3d)     0.00045
    43    C    3  dyz    Ryd( 3d)     0.00038
    44    C    3  dx2y2  Ryd( 3d)     0.00064
    45    C    3  dz2    Ryd( 3d)     0.00043

    46    C    4  S      Cor( 1S)     1.99907
    47    C    4  S      Val( 2S)     0.96092
    48    C    4  S      Ryd( 3S)     0.00060
    49    C    4  S      Ryd( 4S)     0.00005
    50    C    4  px     Val( 2p)     1.19873
    51    C    4  px     Ryd( 3p)     0.00536
    52    C    4  py     Val( 2p)     1.06177
    53    C    4  py     Ryd( 3p)     0.00460
    54    C    4  pz     Val( 2p)     0.98099
    55    C    4  pz     Ryd( 3p)     0.00058
    56    C    4  dxy    Ryd( 3d)     0.00062
    57    C    4  dxz    Ryd( 3d)     0.00034
    58    C    4  dyz    Ryd( 3d)     0.00052
    59    C    4  dx2y2  Ryd( 3d)     0.00089
    60    C    4  dz2    Ryd( 3d)     0.00044

    61    C    5  S      Cor( 1S)     1.99904
    62    C    5  S      Val( 2S)     0.95817
    63    C    5  S      Ryd( 3S)     0.00113
    64    C    5  S      Ryd( 4S)     0.00004
    65    C    5  px     Val( 2p)     1.08114
    66    C    5  px     Ryd( 3p)     0.00503
    67    C    5  py     Val( 2p)     1.18078
    68    C    5  py     Ryd( 3p)     0.00561
    69    C    5  pz     Val( 2p)     0.98164
    70    C    5  pz     Ryd( 3p)     0.00093
    71    C    5  dxy    Ryd( 3d)     0.00077
    72    C    5  dxz    Ryd( 3d)     0.00040
    73    C    5  dyz    Ryd( 3d)     0.00039
    74    C    5  dx2y2  Ryd( 3d)     0.00075
    75    C    5  dz2    Ryd( 3d)     0.00045

    76    C    6  S      Cor( 1S)     1.99910
    77    C    6  S      Val( 2S)     0.93326
    78    C    6  S      Ryd( 3S)     0.00148
    79    C    6  S      Ryd( 4S)     0.00005
    80    C    6  px     Val( 2p)     1.12111
    81    C    6  px     Ryd( 3p)     0.00586
    82    C    6  py     Val( 2p)     1.15520
    83    C    6  py     Ryd( 3p)     0.00650
    84    C    6  pz     Val( 2p)     1.06559
    85    C    6  pz     Ryd( 3p)     0.00092
    86    C    6  dxy    Ryd( 3d)     0.00110
    87    C    6  dxz    Ryd( 3d)     0.00052
    88    C    6  dyz    Ryd( 3d)     0.00034
    89    C    6  dx2y2  Ryd( 3d)     0.00078
    90    C    6  dz2    Ryd( 3d)     0.00052

    91    C    7  S      Cor( 1S)     1.99905
    92    C    7  S      Val( 2S)     1.04684
    93    C    7  S      Ryd( 3S)     0.00264
    94    C    7  S      Ryd( 4S)     0.00003
    95    C    7  px     Val( 2p)     1.40610
    96    C    7  px     Ryd( 3p)     0.01373
    97    C    7  py     Val( 2p)     1.05304
    98    C    7  py     Ryd( 3p)     0.01017
    99    C    7  pz     Val( 2p)     0.98342
   100    C    7  pz     Ryd( 3p)     0.00239
   101    C    7  dxy    Ryd( 3d)     0.00089
   102    C    7  dxz    Ryd( 3d)     0.00054
   103    C    7  dyz    Ryd( 3d)     0.00055
   104    C    7  dx2y2  Ryd( 3d)     0.00048
   105    C    7  dz2    Ryd( 3d)     0.00049

   106   Zn    8  S      Cor( 1S)     2.00000
   107   Zn    8  S      Cor( 2S)     2.00000
   108   Zn    8  S      Cor( 3S)     1.99282
   109   Zn    8  S      Val( 4S)     0.62241
   110   Zn    8  S      Ryd( 5S)     0.00137
   111   Zn    8  S      Ryd( 6S)     0.00078
   112   Zn    8  S      Ryd( 7S)     0.00000
   113   Zn    8  px     Cor( 2p)     2.00000
   114   Zn    8  px     Cor( 3p)     1.99944
   115   Zn    8  px     Val( 4p)     0.16537
   116   Zn    8  px     Ryd( 5p)     0.00180
   117   Zn    8  py     Cor( 2p)     2.00000
   118   Zn    8  py     Cor( 3p)     1.99869
   119   Zn    8  py     Val( 4p)     0.06490
   120   Zn    8  py     Ryd( 5p)     0.00248
   121   Zn    8  pz     Cor( 2p)     2.00000
   122   Zn    8  pz     Cor( 3p)     1.99919
   123   Zn    8  pz     Val( 4p)     0.20462
   124   Zn    8  pz     Ryd( 5p)     0.00159
   125   Zn    8  dxy    Val( 3d)     1.98632
   126   Zn    8  dxy    Ryd( 4d)     0.00004
   127   Zn    8  dxz    Val( 3d)     1.97091
   128   Zn    8  dxz    Ryd( 4d)     0.00008
   129   Zn    8  dyz    Val( 3d)     1.98009
   130   Zn    8  dyz    Ryd( 4d)     0.00008
   131   Zn    8  dx2y2  Val( 3d)     1.97086
   132   Zn    8  dx2y2  Ryd( 4d)     0.00004
   133   Zn    8  dz2    Val( 3d)     1.94845
   134   Zn    8  dz2    Ryd( 4d)     0.00013
   135   Zn    8  f(0)   Ryd( 4f)     0.00005
   136   Zn    8  f(C1)  Ryd( 4f)     0.00006
   137   Zn    8  f(S1)  Ryd( 4f)     0.00004
   138   Zn    8  f(C2)  Ryd( 4f)     0.00003
   139   Zn    8  f(S2)  Ryd( 4f)     0.00003
   140   Zn    8  f(C3)  Ryd( 4f)     0.00001
   141   Zn    8  f(S3)  Ryd( 4f)     0.00001

   142    C    9  S      Cor( 1S)     1.99949
   143    C    9  S      Val( 2S)     1.24467
   144    C    9  S      Ryd( 3S)     0.00393
   145    C    9  S      Ryd( 4S)     0.00006
   146    C    9  px     Val( 2p)     1.28003
   147    C    9  px     Ryd( 3p)     0.00410
   148    C    9  py     Val( 2p)     1.27972
   149    C    9  py     Ryd( 3p)     0.00382
   150    C    9  pz     Val( 2p)     1.45211
   151    C    9  pz     Ryd( 3p)     0.00601
   152    C    9  dxy    Ryd( 3d)     0.00050
   153    C    9  dxz    Ryd( 3d)     0.00085
   154    C    9  dyz    Ryd( 3d)     0.00061
   155    C    9  dx2y2  Ryd( 3d)     0.00072
   156    C    9  dz2    Ryd( 3d)     0.00068

   157    C   10  S      Cor( 1S)     1.99949
   158    C   10  S      Val( 2S)     1.24475
   159    C   10  S      Ryd( 3S)     0.00394
   160    C   10  S      Ryd( 4S)     0.00006
   161    C   10  px     Val( 2p)     1.28039
   162    C   10  px     Ryd( 3p)     0.00411
   163    C   10  py     Val( 2p)     1.28002
   164    C   10  py     Ryd( 3p)     0.00383
   165    C   10  pz     Val( 2p)     1.45160
   166    C   10  pz     Ryd( 3p)     0.00600
   167    C   10  dxy    Ryd( 3d)     0.00051
   168    C   10  dxz    Ryd( 3d)     0.00085
   169    C   10  dyz    Ryd( 3d)     0.00060
   170    C   10  dx2y2  Ryd( 3d)     0.00072
   171    C   10  dz2    Ryd( 3d)     0.00069

   172    C   11  S      Cor( 1S)     1.99905
   173    C   11  S      Val( 2S)     1.27633
   174    C   11  S      Ryd( 3S)     0.00136
   175    C   11  S      Ryd( 4S)     0.00001
   176    C   11  px     Val( 2p)     1.13069
   177    C   11  px     Ryd( 3p)     0.00128
   178    C   11  py     Val( 2p)     1.06133
   179    C   11  py     Ryd( 3p)     0.00232
   180    C   11  pz     Val( 2p)     1.25676
   181    C   11  pz     Ryd( 3p)     0.00030
   182    C   11  dxy    Ryd( 3d)     0.00005
   183    C   11  dxz    Ryd( 3d)     0.00007
   184    C   11  dyz    Ryd( 3d)     0.00115
   185    C   11  dx2y2  Ryd( 3d)     0.00084
   186    C   11  dz2    Ryd( 3d)     0.00038

   187   Li   12  S      Cor( 1S)     1.98848
   188   Li   12  S      Val( 2S)     0.37933
   189   Li   12  S      Ryd( 3S)     0.00204
   190   Li   12  S      Ryd( 4S)     0.00019
   191   Li   12  px     Val( 2p)     0.06532
   192   Li   12  px     Ryd( 3p)     0.00171
   193   Li   12  py     Val( 2p)     0.12782
   194   Li   12  py     Ryd( 3p)     0.00310
   195   Li   12  pz     Val( 2p)     0.18747
   196   Li   12  pz     Ryd( 3p)     0.00257
   197   Li   12  dxy    Ryd( 3d)     0.00081
   198   Li   12  dxz    Ryd( 3d)     0.00082
   199   Li   12  dyz    Ryd( 3d)     0.00103
   200   Li   12  dx2y2  Ryd( 3d)     0.00136
   201   Li   12  dz2    Ryd( 3d)     0.00052

   202   Li   13  S      Cor( 1S)     1.98848
   203   Li   13  S      Val( 2S)     0.37927
   204   Li   13  S      Ryd( 3S)     0.00204
   205   Li   13  S      Ryd( 4S)     0.00019
   206   Li   13  px     Val( 2p)     0.06537
   207   Li   13  px     Ryd( 3p)     0.00171
   208   Li   13  py     Val( 2p)     0.12864
   209   Li   13  py     Ryd( 3p)     0.00313
   210   Li   13  pz     Val( 2p)     0.18710
   211   Li   13  pz     Ryd( 3p)     0.00256
   212   Li   13  dxy    Ryd( 3d)     0.00081
   213   Li   13  dxz    Ryd( 3d)     0.00082
   214   Li   13  dyz    Ryd( 3d)     0.00102
   215   Li   13  dx2y2  Ryd( 3d)     0.00136
   216   Li   13  dz2    Ryd( 3d)     0.00052

   217    H   14  S      Val( 1S)     0.75549
   218    H   14  S      Ryd( 2S)     0.00139

   219    H   15  S      Val( 1S)     0.75547
   220    H   15  S      Ryd( 2S)     0.00139

   221    H   16  S      Val( 1S)     0.75298
   222    H   16  S      Ryd( 2S)     0.00088

   223    H   17  S      Val( 1S)     0.76341
   224    H   17  S      Ryd( 2S)     0.00123

   225    H   18  S      Val( 1S)     0.75836
   226    H   18  S      Ryd( 2S)     0.00085

   227    H   19  S      Val( 1S)     0.75563
   228    H   19  S      Ryd( 2S)     0.00130

   229    H   20  S      Val( 1S)     0.78396
   230    H   20  S      Ryd( 2S)     0.00144

   231    H   21  S      Val( 1S)     0.73608
   232    H   21  S      Ryd( 2S)     0.00101

   233    H   22  S      Val( 1S)     0.76978
   234    H   22  S      Ryd( 2S)     0.00138

   235    H   23  S      Val( 1S)     0.75517
   236    H   23  S      Ryd( 2S)     0.00159

   237    H   24  S      Val( 1S)     0.75523
   238    H   24  S      Ryd( 2S)     0.00159

   239    H   25  S      Val( 1S)     0.76964
   240    H   25  S      Ryd( 2S)     0.00138

   241    H   26  S      Val( 1S)     0.73604
   242    H   26  S      Ryd( 2S)     0.00100

   243    H   27  S      Val( 1S)     0.74589
   244    H   27  S      Ryd( 2S)     0.00000

   245    H   28  S      Val( 1S)     0.74578
   246    H   28  S      Ryd( 2S)     0.00000

   247    H   29  S      Val( 1S)     0.74585
   248    H   29  S      Ryd( 2S)     0.00000

 WARNING:  1 low occupancy (<1.9990e) core orbital  found on  C    2
           1 low occupancy (<1.9990e) core orbital  found on  C    3
           2 low occupancy (<1.9990e) core orbitals found on Zn    8
           1 low occupancy (<1.9990e) core orbital  found on Li   12
           1 low occupancy (<1.9990e) core orbital  found on Li   13


 Summary of Natural Population Analysis:                  
                                                          
                                       Natural Population 
                Natural  -----------------------------------------------
    Atom  No    Charge         Core      Valence    Rydberg      Total
 -----------------------------------------------------------------------
      C    1   -0.69842      1.99940     4.68937    0.00964     6.69842
      C    2   -0.01697      1.99898     4.00087    0.01712     6.01697
      C    3   -0.21703      1.99900     4.20524    0.01279     6.21703
      C    4   -0.21548      1.99907     4.20241    0.01399     6.21548
      C    5   -0.21626      1.99904     4.20172    0.01550     6.21626
      C    6   -0.29232      1.99910     4.27515    0.01807     6.29232
      C    7   -0.52036      1.99905     4.48939    0.03192     6.52036
     Zn    8    1.08731     17.99013    10.91394    0.00862    28.91269
      C    9   -1.27732      1.99949     5.25652    0.02130     7.27732
      C   10   -1.27756      1.99949     5.25676    0.02131     7.27756
      C   11   -0.73194      1.99905     4.72512    0.00778     6.73194
     Li   12    0.23743      1.98848     0.75994    0.01414     2.76257
     Li   13    0.23697      1.98848     0.76038    0.01416     2.76303
      H   14    0.24312      0.00000     0.75549    0.00139     0.75688
      H   15    0.24313      0.00000     0.75547    0.00139     0.75687
      H   16    0.24614      0.00000     0.75298    0.00088     0.75386
      H   17    0.23537      0.00000     0.76341    0.00123     0.76463
      H   18    0.24079      0.00000     0.75836    0.00085     0.75921
      H   19    0.24307      0.00000     0.75563    0.00130     0.75693
      H   20    0.21461      0.00000     0.78396    0.00144     0.78539
      H   21    0.26292      0.00000     0.73608    0.00101     0.73708
      H   22    0.22884      0.00000     0.76978    0.00138     0.77116
      H   23    0.24324      0.00000     0.75517    0.00159     0.75676
      H   24    0.24318      0.00000     0.75523    0.00159     0.75682
      H   25    0.22897      0.00000     0.76964    0.00138     0.77103
      H   26    0.26296      0.00000     0.73604    0.00100     0.73704
      H   27    0.25411      0.00000     0.74589    0.00000     0.74589
      H   28    0.25422      0.00000     0.74578    0.00000     0.74578
      H   29    0.25415      0.00000     0.74585    0.00000     0.74585
 =======================================================================
   * Total *   -0.00310     41.95876    69.82157    0.22277   112.00310

                                 Natural Population      
 --------------------------------------------------------
   Core                      41.95876 ( 99.9018% of  42)
   Valence                   69.82157 ( 99.7451% of  70)
   Natural Minimal Basis    111.78033 ( 99.8039% of 112)
   Natural Rydberg Basis      0.22277 (  0.1989% of 112)
 --------------------------------------------------------

    Atom  No          Natural Electron Configuration
 ----------------------------------------------------------------------------
      C    1      [core]2S( 1.09)2p( 3.60)3p( 0.01)
      C    2      [core]2S( 0.88)2p( 3.12)3p( 0.01)
      C    3      [core]2S( 0.95)2p( 3.25)3p( 0.01)
      C    4      [core]2S( 0.96)2p( 3.24)3p( 0.01)
      C    5      [core]2S( 0.96)2p( 3.24)3p( 0.01)
      C    6      [core]2S( 0.93)2p( 3.34)3p( 0.01)
      C    7      [core]2S( 1.05)2p( 3.44)3p( 0.03)
     Zn    8      [core]4S( 0.62)3d( 9.86)4p( 0.43)5p( 0.01)
      C    9      [core]2S( 1.24)2p( 4.01)3p( 0.01)
      C   10      [core]2S( 1.24)2p( 4.01)3p( 0.01)
      C   11      [core]2S( 1.28)2p( 3.45)
     Li   12      [core]2S( 0.38)2p( 0.38)3p( 0.01)
     Li   13      [core]2S( 0.38)2p( 0.38)3p( 0.01)
      H   14            1S( 0.76)
      H   15            1S( 0.76)
      H   16            1S( 0.75)
      H   17            1S( 0.76)
      H   18            1S( 0.76)
      H   19            1S( 0.76)
      H   20            1S( 0.78)
      H   21            1S( 0.74)
      H   22            1S( 0.77)
      H   23            1S( 0.76)
      H   24            1S( 0.76)
      H   25            1S( 0.77)
      H   26            1S( 0.74)
      H   27            1S( 0.75)
      H   28            1S( 0.75)
      H   29            1S( 0.75)


 NBO analysis skipped by request.
 Leave Link  607 at Mon Oct  4 03:37:50 2021, MaxMem= 1073741824 cpu:      17.2
 (Enter /sw/target/amd/app/gaussian/Gaussian09RevA.02_gcc-4.9.2/g09/l9999.exe)
 1\1\GINC-HERMITE\SP\RTD-B3LYP-FC\6-31G(d)\C10H16Li2Zn1\JSCHLEINITZ\04-
 Oct-2021\0\\#p TD(NStates=10, Root=1) b3lyp/6-31G* volume pop=NPA dens
 ity=current Geom=AllCheck Guess=Read\\Cc1ccc(cc1)[Zn](C)(C)(C)([Li])[L
 i]_conf_0\\0,1\C,0,-1.1481466361,-2.2690968588,-3.012407295\C,0,-0.698
 8528761,-0.9261436822,-2.4718106229\C,0,0.5792143705,-0.4637076658,-2.
 7943311737\C,0,1.0504674331,0.7686216777,-2.3252060457\C,0,0.228376654
 7,1.5462378325,-1.5222646737\C,0,-1.0563368864,1.0729777923,-1.2026913
 976\C,0,-1.5795920382,-0.16226071,-1.6500215872\Zn,0,-3.4990807664,-1.
 2436464973,-1.3837248452\C,0,-4.7832938695,-0.642403921,-2.8132192992\
 C,0,-3.3844759222,-2.3642500273,0.2852050113\C,0,-4.1426044879,1.19887
 10019,0.2657982436\Li,0,-2.5202213015,-0.1509348864,0.413604877\Li,0,-
 3.4952546704,1.0486705781,-1.7429226724\H,0,-2.0431486098,-2.168924006
 ,-3.6412326395\H,0,-1.3943081383,-2.9661873064,-2.2000605451\H,0,-0.37
 37628097,-2.7441757305,-3.6239215747\H,0,1.2246196675,-1.0735006655,-3
 .4242302307\H,0,2.0490445624,1.1070222029,-2.5898979503\H,0,0.56897877
 26,2.507470155,-1.1439887493\H,0,-1.667541335,1.7251493238,-0.56437890
 43\H,0,-4.8883911452,-1.4443401772,-3.5561310564\H,0,-4.5145359536,0.2
 373861798,-3.4326220589\H,0,-5.7886461269,-0.4532264138,-2.4157743984\
 H,0,-4.2916984969,-2.2903581051,0.8984054206\H,0,-2.5243079771,-2.2123
 853799,0.9685349374\H,0,-3.2883792985,-3.4199331462,-0.0017460879\H,0,
 -5.1082609664,0.6943334292,0.4254623188\H,0,-4.4136162881,2.2097319854
 ,-0.1072176828\H,0,-3.7782704601,1.4358051799,1.288373549\\Version=AM6
 4L-G09RevA.02\State=1-A\HF=-2184.9086083\RMSD=3.496e-09\Dipole=-0.1165
 959,0.0204331,0.0650331\Quadrupole=4.9065957,0.1578539,-5.0644496,-0.9
 464403,-8.8847328,8.0710258\PG=C01 [X(C10H16Li2Zn1)]\\@


 The mind is not a vessel to be filled but a fire to be kindled.
                                  -- Plutarch
 Job cpu time:  0 days  3 hours  3 minutes 21.9 seconds.
 File lengths (MBytes):  RWF=    164 Int=      0 D2E=      0 Chk=     27 Scr=      1
 Normal termination of Gaussian 09 at Mon Oct  4 03:37:59 2021.
