 Entering Gaussian System, Link 0=g09
 Input=C10H10O4_fc49_conf_0.com
 Output=C10H10O4_fc49_conf_0.log
 Initial command:
 /sw/target/amd/app/gaussian/Gaussian09RevA.02_gcc-4.9.2/g09/l1.exe /home/jschleinitz/gaussian/Gau-831332.inp -scrdir=/home/jschleinitz/gaussian/
 Entering Link 1 = /sw/target/amd/app/gaussian/Gaussian09RevA.02_gcc-4.9.2/g09/l1.exe PID=    831349.
  
 Copyright (c) 1988,1990,1992,1993,1995,1998,2003,2009, Gaussian, Inc.
                  All Rights Reserved.
  
 This is part of the Gaussian(R) 09 program.  It is based on
 the Gaussian(R) 03 system (copyright 2003, Gaussian, Inc.),
 the Gaussian(R) 98 system (copyright 1998, Gaussian, Inc.),
 the Gaussian(R) 94 system (copyright 1995, Gaussian, Inc.),
 the Gaussian 92(TM) system (copyright 1992, Gaussian, Inc.),
 the Gaussian 90(TM) system (copyright 1990, Gaussian, Inc.),
 the Gaussian 88(TM) system (copyright 1988, Gaussian, Inc.),
 the Gaussian 86(TM) system (copyright 1986, Carnegie Mellon
 University), and the Gaussian 82(TM) system (copyright 1983,
 Carnegie Mellon University). Gaussian is a federally registered
 trademark of Gaussian, Inc.
  
 This software contains proprietary and confidential information,
 including trade secrets, belonging to Gaussian, Inc.
  
 This software is provided under written license and may be
 used, copied, transmitted, or stored only in accord with that
 written license.
  
 The following legend is applicable only to US Government
 contracts under FAR:
  
                    RESTRICTED RIGHTS LEGEND
  
 Use, reproduction and disclosure by the US Government is
 subject to restrictions as set forth in subparagraphs (a)
 and (c) of the Commercial Computer Software - Restricted
 Rights clause in FAR 52.227-19.
  
 Gaussian, Inc.
 340 Quinnipiac St., Bldg. 40, Wallingford CT 06492
  
  
 ---------------------------------------------------------------
 Warning -- This program may not be used in any manner that
 competes with the business of Gaussian, Inc. or will provide
 assistance to any competitor of Gaussian, Inc.  The licensee
 of this program is prohibited from giving any competitor of
 Gaussian, Inc. access to this program.  By using this program,
 the user acknowledges that Gaussian, Inc. is engaged in the
 business of creating and licensing software in the field of
 computational chemistry and represents and warrants to the
 licensee that it is not a competitor of Gaussian, Inc. and that
 it will not use this program in any manner prohibited above.
 ---------------------------------------------------------------
  

 Cite this work as:
 Gaussian 09, Revision A.02,
 M. J. Frisch, G. W. Trucks, H. B. Schlegel, G. E. Scuseria, 
 M. A. Robb, J. R. Cheeseman, G. Scalmani, V. Barone, B. Mennucci, 
 G. A. Petersson, H. Nakatsuji, M. Caricato, X. Li, H. P. Hratchian, 
 A. F. Izmaylov, J. Bloino, G. Zheng, J. L. Sonnenberg, M. Hada, 
 M. Ehara, K. Toyota, R. Fukuda, J. Hasegawa, M. Ishida, T. Nakajima, 
 Y. Honda, O. Kitao, H. Nakai, T. Vreven, J. A. Montgomery, Jr., 
 J. E. Peralta, F. Ogliaro, M. Bearpark, J. J. Heyd, E. Brothers, 
 K. N. Kudin, V. N. Staroverov, R. Kobayashi, J. Normand, 
 K. Raghavachari, A. Rendell, J. C. Burant, S. S. Iyengar, J. Tomasi, 
 M. Cossi, N. Rega, J. M. Millam, M. Klene, J. E. Knox, J. B. Cross, 
 V. Bakken, C. Adamo, J. Jaramillo, R. Gomperts, R. E. Stratmann, 
 O. Yazyev, A. J. Austin, R. Cammi, C. Pomelli, J. W. Ochterski, 
 R. L. Martin, K. Morokuma, V. G. Zakrzewski, G. A. Voth, 
 P. Salvador, J. J. Dannenberg, S. Dapprich, A. D. Daniels, 
 O. Farkas, J. B. Foresman, J. V. Ortiz, J. Cioslowski, 
 and D. J. Fox, Gaussian, Inc., Wallingford CT, 2009.
 
 ******************************************
 Gaussian 09:  AM64L-G09RevA.02 11-Jun-2009
                30-Sep-2021 
 ******************************************
 %nproc=4
 Will use up to    4 processors via shared memory.
 %mem=8gb
 %chk=C10H10O4_fc49_conf_0.chk
 -----------------------------------
 #p opt b3lyp/6-31G* scf=(xqc,tight)
 -----------------------------------
 1/14=-1,18=20,19=15,26=3,38=1/1,3;
 2/9=110,12=2,17=6,18=5,40=1/2;
 3/5=1,6=6,7=1,11=2,16=1,25=1,30=1,71=1,74=-5/1,2,3;
 4//1;
 5/5=2,8=3,13=1,32=2,38=5/2,8;
 6/7=2,8=2,9=2,10=2,28=1/1;
 7//1,2,3,16;
 1/14=-1,18=20,19=15/3(2);
 2/9=110/2;
 99//99;
 2/9=110/2;
 3/5=1,6=6,7=1,11=2,16=1,25=1,30=1,71=1,74=-5/1,2,3;
 4/5=5,16=3/1;
 5/5=2,8=3,13=1,32=2,38=5/2,8;
 7//1,2,3,16;
 1/14=-1,18=20,19=15/3(-5);
 2/9=110/2;
 6/7=2,8=2,9=2,10=2,19=2,28=1/1;
 99/9=1/99;
 Leave Link    1 at Thu Sep 30 23:21:08 2021, MaxMem= 1073741824 cpu:       0.1
 (Enter /sw/target/amd/app/gaussian/Gaussian09RevA.02_gcc-4.9.2/g09/l101.exe)
 -------------------------------
 COC(=O)c1ccc(cc1)OC(=O)C_conf_0
 -------------------------------
 Symbolic Z-matrix:
 Charge =  0 Multiplicity = 1
 C                     1.57154   3.24445  -1.06261 
 O                     2.91027   2.74908  -1.09074 
 C                     3.02004   1.42073  -0.83913 
 O                     2.09815   0.66005  -0.59153 
 C                     4.44644   0.99814  -0.91088 
 C                     4.7521   -0.35415  -0.69864 
 C                     6.07593  -0.79884  -0.76176 
 C                     7.09108   0.10933  -1.05599 
 C                     6.80534   1.46113  -1.24706 
 C                     5.48304   1.90549  -1.17755 
 O                     8.45359  -0.24294  -1.08008 
 C                     8.86432  -1.4688   -1.59926 
 O                     8.16405  -2.30598  -2.15325 
 C                     10.34937  -1.59824  -1.42505 
 H                     1.59859   4.30093  -1.34377 
 H                     1.1574    3.16348  -0.05329 
 H                     0.94573   2.71046  -1.78448 
 H                     3.96033  -1.06887  -0.4802 
 H                     6.29136  -1.8479   -0.58019 
 H                     7.60483   2.16908  -1.44769 
 H                     5.27606   2.9619   -1.32983 
 H                     10.68614  -1.01513  -0.56256 
 H                     10.85513  -1.24906  -2.32782 
 H                     10.59838  -2.645    -1.23249 
 
 NAtoms=     24 NQM=     24 NQMF=      0 NMic=      0 NMicF=      0 NTot=     24.
                    Isotopes and Nuclear Properties:
 (Nuclear quadrupole moments (NQMom) in fm**2, nuclear magnetic moments (NMagM)
  in nuclear magnetons)

  Atom         1           2           3           4           5           6           7           8           9          10
 IAtWgt=          12          16          12          16          12          12          12          12          12          12
 AtmWgt=  12.0000000  15.9949146  12.0000000  15.9949146  12.0000000  12.0000000  12.0000000  12.0000000  12.0000000  12.0000000
 NucSpn=           0           0           0           0           0           0           0           0           0           0
 AtZEff=   0.0000000   0.0000000   0.0000000   0.0000000   0.0000000   0.0000000   0.0000000   0.0000000   0.0000000   0.0000000
 NQMom=    0.0000000   0.0000000   0.0000000   0.0000000   0.0000000   0.0000000   0.0000000   0.0000000   0.0000000   0.0000000
 NMagM=    0.0000000   0.0000000   0.0000000   0.0000000   0.0000000   0.0000000   0.0000000   0.0000000   0.0000000   0.0000000

  Atom        11          12          13          14          15          16          17          18          19          20
 IAtWgt=          16          12          16          12           1           1           1           1           1           1
 AtmWgt=  15.9949146  12.0000000  15.9949146  12.0000000   1.0078250   1.0078250   1.0078250   1.0078250   1.0078250   1.0078250
 NucSpn=           0           0           0           0           1           1           1           1           1           1
 AtZEff=   0.0000000   0.0000000   0.0000000   0.0000000   0.0000000   0.0000000   0.0000000   0.0000000   0.0000000   0.0000000
 NQMom=    0.0000000   0.0000000   0.0000000   0.0000000   0.0000000   0.0000000   0.0000000   0.0000000   0.0000000   0.0000000
 NMagM=    0.0000000   0.0000000   0.0000000   0.0000000   2.7928460   2.7928460   2.7928460   2.7928460   2.7928460   2.7928460

  Atom        21          22          23          24
 IAtWgt=           1           1           1           1
 AtmWgt=   1.0078250   1.0078250   1.0078250   1.0078250
 NucSpn=           1           1           1           1
 AtZEff=   0.0000000   0.0000000   0.0000000   0.0000000
 NQMom=    0.0000000   0.0000000   0.0000000   0.0000000
 NMagM=    2.7928460   2.7928460   2.7928460   2.7928460
 Leave Link  101 at Thu Sep 30 23:21:09 2021, MaxMem= 1073741824 cpu:       0.2
 (Enter /sw/target/amd/app/gaussian/Gaussian09RevA.02_gcc-4.9.2/g09/l103.exe)

 GradGradGradGradGradGradGradGradGradGradGradGradGradGradGradGradGradGrad
 Berny optimization.
 Initialization pass.
                           ----------------------------
                           !    Initial Parameters    !
                           ! (Angstroms and Degrees)  !
 --------------------------                            --------------------------
 ! Name  Definition              Value          Derivative Info.                !
 --------------------------------------------------------------------------------
 ! R1    R(1,2)                  1.4277         estimate D2E/DX2                !
 ! R2    R(1,15)                 1.0936         estimate D2E/DX2                !
 ! R3    R(1,16)                 1.094          estimate D2E/DX2                !
 ! R4    R(1,17)                 1.0945         estimate D2E/DX2                !
 ! R5    R(2,3)                  1.3564         estimate D2E/DX2                !
 ! R6    R(3,4)                  1.2206         estimate D2E/DX2                !
 ! R7    R(3,5)                  1.4894         estimate D2E/DX2                !
 ! R8    R(5,6)                  1.4026         estimate D2E/DX2                !
 ! R9    R(5,10)                 1.4032         estimate D2E/DX2                !
 ! R10   R(6,7)                  1.3979         estimate D2E/DX2                !
 ! R11   R(6,18)                 1.0888         estimate D2E/DX2                !
 ! R12   R(7,8)                  1.3935         estimate D2E/DX2                !
 ! R13   R(7,19)                 1.0862         estimate D2E/DX2                !
 ! R14   R(8,9)                  1.3948         estimate D2E/DX2                !
 ! R15   R(8,11)                 1.4075         estimate D2E/DX2                !
 ! R16   R(9,10)                 1.3967         estimate D2E/DX2                !
 ! R17   R(9,20)                 1.0866         estimate D2E/DX2                !
 ! R18   R(10,21)                1.0872         estimate D2E/DX2                !
 ! R19   R(11,12)                1.3932         estimate D2E/DX2                !
 ! R20   R(12,13)                1.224          estimate D2E/DX2                !
 ! R21   R(12,14)                1.5008         estimate D2E/DX2                !
 ! R22   R(14,22)                1.0942         estimate D2E/DX2                !
 ! R23   R(14,23)                1.0921         estimate D2E/DX2                !
 ! R24   R(14,24)                1.0931         estimate D2E/DX2                !
 ! A1    A(2,1,15)             107.8747         estimate D2E/DX2                !
 ! A2    A(2,1,16)             110.3323         estimate D2E/DX2                !
 ! A3    A(2,1,17)             110.7241         estimate D2E/DX2                !
 ! A4    A(15,1,16)            108.5465         estimate D2E/DX2                !
 ! A5    A(15,1,17)            108.4157         estimate D2E/DX2                !
 ! A6    A(16,1,17)            110.8513         estimate D2E/DX2                !
 ! A7    A(1,2,3)              114.3316         estimate D2E/DX2                !
 ! A8    A(2,3,4)              125.9316         estimate D2E/DX2                !
 ! A9    A(2,3,5)              110.2688         estimate D2E/DX2                !
 ! A10   A(4,3,5)              123.7992         estimate D2E/DX2                !
 ! A11   A(3,5,6)              118.358          estimate D2E/DX2                !
 ! A12   A(3,5,10)             122.2206         estimate D2E/DX2                !
 ! A13   A(6,5,10)             119.4211         estimate D2E/DX2                !
 ! A14   A(5,6,7)              120.4135         estimate D2E/DX2                !
 ! A15   A(5,6,18)             120.3176         estimate D2E/DX2                !
 ! A16   A(7,6,18)             119.2686         estimate D2E/DX2                !
 ! A17   A(6,7,8)              119.4782         estimate D2E/DX2                !
 ! A18   A(6,7,19)             119.175          estimate D2E/DX2                !
 ! A19   A(8,7,19)             121.3468         estimate D2E/DX2                !
 ! A20   A(7,8,9)              120.7503         estimate D2E/DX2                !
 ! A21   A(7,8,11)             123.0724         estimate D2E/DX2                !
 ! A22   A(9,8,11)             116.0095         estimate D2E/DX2                !
 ! A23   A(8,9,10)             119.7005         estimate D2E/DX2                !
 ! A24   A(8,9,20)             120.3988         estimate D2E/DX2                !
 ! A25   A(10,9,20)            119.9007         estimate D2E/DX2                !
 ! A26   A(5,10,9)             120.2072         estimate D2E/DX2                !
 ! A27   A(5,10,21)            120.9499         estimate D2E/DX2                !
 ! A28   A(9,10,21)            118.8426         estimate D2E/DX2                !
 ! A29   A(8,11,12)            120.7955         estimate D2E/DX2                !
 ! A30   A(11,12,13)           127.0012         estimate D2E/DX2                !
 ! A31   A(11,12,14)           108.9256         estimate D2E/DX2                !
 ! A32   A(13,12,14)           124.0317         estimate D2E/DX2                !
 ! A33   A(12,14,22)           110.4914         estimate D2E/DX2                !
 ! A34   A(12,14,23)           109.5548         estimate D2E/DX2                !
 ! A35   A(12,14,24)           109.1751         estimate D2E/DX2                !
 ! A36   A(22,14,23)           109.7945         estimate D2E/DX2                !
 ! A37   A(22,14,24)           107.539          estimate D2E/DX2                !
 ! A38   A(23,14,24)           110.2619         estimate D2E/DX2                !
 ! D1    D(15,1,2,3)          -176.2161         estimate D2E/DX2                !
 ! D2    D(16,1,2,3)            65.3648         estimate D2E/DX2                !
 ! D3    D(17,1,2,3)           -57.732          estimate D2E/DX2                !
 ! D4    D(1,2,3,4)             -0.6212         estimate D2E/DX2                !
 ! D5    D(1,2,3,5)            179.1576         estimate D2E/DX2                !
 ! D6    D(2,3,5,6)           -178.9697         estimate D2E/DX2                !
 ! D7    D(2,3,5,10)             1.2454         estimate D2E/DX2                !
 ! D8    D(4,3,5,6)              0.8148         estimate D2E/DX2                !
 ! D9    D(4,3,5,10)          -178.9701         estimate D2E/DX2                !
 ! D10   D(3,5,6,7)            179.7207         estimate D2E/DX2                !
 ! D11   D(3,5,6,18)            -0.4393         estimate D2E/DX2                !
 ! D12   D(10,5,6,7)            -0.4882         estimate D2E/DX2                !
 ! D13   D(10,5,6,18)          179.3518         estimate D2E/DX2                !
 ! D14   D(3,5,10,9)          -179.4284         estimate D2E/DX2                !
 ! D15   D(3,5,10,21)            0.7877         estimate D2E/DX2                !
 ! D16   D(6,5,10,9)             0.7889         estimate D2E/DX2                !
 ! D17   D(6,5,10,21)         -178.9951         estimate D2E/DX2                !
 ! D18   D(5,6,7,8)             -0.8824         estimate D2E/DX2                !
 ! D19   D(5,6,7,19)           179.1385         estimate D2E/DX2                !
 ! D20   D(18,6,7,8)           179.276          estimate D2E/DX2                !
 ! D21   D(18,6,7,19)           -0.7032         estimate D2E/DX2                !
 ! D22   D(6,7,8,9)              1.9787         estimate D2E/DX2                !
 ! D23   D(6,7,8,11)           177.0797         estimate D2E/DX2                !
 ! D24   D(19,7,8,9)          -178.0426         estimate D2E/DX2                !
 ! D25   D(19,7,8,11)           -2.9417         estimate D2E/DX2                !
 ! D26   D(7,8,9,10)            -1.683          estimate D2E/DX2                !
 ! D27   D(7,8,9,20)           178.2172         estimate D2E/DX2                !
 ! D28   D(11,8,9,10)         -177.1158         estimate D2E/DX2                !
 ! D29   D(11,8,9,20)            2.7843         estimate D2E/DX2                !
 ! D30   D(7,8,11,12)           39.0047         estimate D2E/DX2                !
 ! D31   D(9,8,11,12)         -145.6795         estimate D2E/DX2                !
 ! D32   D(8,9,10,5)             0.2833         estimate D2E/DX2                !
 ! D33   D(8,9,10,21)         -179.9282         estimate D2E/DX2                !
 ! D34   D(20,9,10,5)         -179.6174         estimate D2E/DX2                !
 ! D35   D(20,9,10,21)           0.1711         estimate D2E/DX2                !
 ! D36   D(8,11,12,13)           5.36           estimate D2E/DX2                !
 ! D37   D(8,11,12,14)        -176.9245         estimate D2E/DX2                !
 ! D38   D(11,12,14,22)         27.5737         estimate D2E/DX2                !
 ! D39   D(11,12,14,23)        -93.5169         estimate D2E/DX2                !
 ! D40   D(11,12,14,24)        145.6448         estimate D2E/DX2                !
 ! D41   D(13,12,14,22)       -154.6278         estimate D2E/DX2                !
 ! D42   D(13,12,14,23)         84.2816         estimate D2E/DX2                !
 ! D43   D(13,12,14,24)        -36.5567         estimate D2E/DX2                !
 --------------------------------------------------------------------------------
 Trust Radius=3.00D-01 FncErr=1.00D-07 GrdErr=1.00D-06
 Number of steps in this run= 115 maximum allowed number of steps= 144.
 GradGradGradGradGradGradGradGradGradGradGradGradGradGradGradGradGradGrad

 Leave Link  103 at Thu Sep 30 23:21:09 2021, MaxMem= 1073741824 cpu:       0.0
 (Enter /sw/target/amd/app/gaussian/Gaussian09RevA.02_gcc-4.9.2/g09/l202.exe)
                          Input orientation:                          
 ---------------------------------------------------------------------
 Center     Atomic      Atomic             Coordinates (Angstroms)
 Number     Number       Type             X           Y           Z
 ---------------------------------------------------------------------
      1          6           0        1.571542    3.244455   -1.062606
      2          8           0        2.910269    2.749082   -1.090738
      3          6           0        3.020042    1.420730   -0.839128
      4          8           0        2.098155    0.660053   -0.591532
      5          6           0        4.446441    0.998142   -0.910876
      6          6           0        4.752098   -0.354154   -0.698639
      7          6           0        6.075926   -0.798835   -0.761764
      8          6           0        7.091082    0.109330   -1.055993
      9          6           0        6.805343    1.461134   -1.247057
     10          6           0        5.483044    1.905493   -1.177548
     11          8           0        8.453593   -0.242939   -1.080082
     12          6           0        8.864316   -1.468800   -1.599263
     13          8           0        8.164048   -2.305982   -2.153246
     14          6           0       10.349371   -1.598242   -1.425052
     15          1           0        1.598592    4.300926   -1.343770
     16          1           0        1.157405    3.163484   -0.053293
     17          1           0        0.945726    2.710458   -1.784482
     18          1           0        3.960326   -1.068872   -0.480205
     19          1           0        6.291363   -1.847900   -0.580186
     20          1           0        7.604826    2.169082   -1.447689
     21          1           0        5.276060    2.961897   -1.329833
     22          1           0       10.686138   -1.015129   -0.562558
     23          1           0       10.855131   -1.249055   -2.327817
     24          1           0       10.598381   -2.645000   -1.232493
 ---------------------------------------------------------------------
                    Distance matrix (angstroms):
                    1          2          3          4          5
     1  C    0.000000
     2  O    1.427717   0.000000
     3  C    2.339672   1.356420   0.000000
     4  O    2.679247   2.296253   1.220577   0.000000
     5  C    3.651573   2.336228   1.489410   2.393895   0.000000
     6  C    4.816472   3.629897   2.483943   2.843151   1.402561
     7  C    6.060378   4.766269   3.777683   4.240283   2.430347
     8  C    6.347785   4.944561   4.282542   5.044635   2.793774
     9  C    5.532353   4.105465   3.807433   4.819654   2.427303
    10  C    4.135926   2.708939   2.532964   3.654041   1.403191
    11  O    7.715234   6.299264   5.687647   6.437831   4.198354
    12  C    8.699846   7.314355   6.563743   7.164389   5.106594
    13  O    8.686656   7.367821   6.486609   6.930468   5.126532
    14  C   10.031618   8.622715   7.948368   8.595186   6.469170
    15  H    1.093579   2.047619   3.251263   3.751184   4.382468
    16  H    1.093974   2.078594   2.669109   2.727981   4.030125
    17  H    1.094487   2.083795   2.619137   2.637306   3.993772
    18  H    4.964904   4.006512   2.685345   2.543473   2.166641
    19  H    6.959994   5.729284   4.631688   4.885995   3.407792
    20  H    6.140459   4.743699   4.685150   5.773526   3.410963
    21  H    3.724876   2.387346   2.775898   3.992826   2.172585
    22  H   10.073230   8.655194   8.048536   8.749888   6.565699
    23  H   10.391218   8.979771   8.410266   9.129294   6.937501
    24  H   10.779535   9.392725   8.609072   9.142651   7.156975
                    6          7          8          9         10
     6  C    0.000000
     7  C    1.397944   0.000000
     8  C    2.411092   1.393512   0.000000
     9  C    2.794969   2.423844   1.394821   0.000000
    10  C    2.422734   2.799603   2.413868   1.396696   0.000000
    11  O    3.722758   2.462447   1.407519   2.376652   3.667344
    12  C    4.354755   2.987536   2.435158   3.598324   4.795486
    13  O    4.191291   2.927109   2.861635   4.105902   5.086874
    14  C    5.779696   4.397878   3.697087   4.685253   6.001545
    15  H    5.659556   6.811227   6.915182   5.931613   4.566695
    16  H    5.070707   6.355608   6.748465   6.018494   4.643022
    17  H    5.005934   6.299210   6.712821   6.015376   4.647967
    18  H    1.088779   2.151270   3.394308   3.883699   3.413474
    19  H    2.148171   1.086241   2.167185   3.414469   3.885637
    20  H    3.881476   3.408308   2.158688   1.086562   2.155090
    21  H    3.416012   3.886592   3.392113   2.144259   1.087209
    22  H    5.972289   4.619580   3.798989   4.654137   5.998369
    23  H    6.379818   5.049358   4.198906   4.991388   6.335109
    24  H    6.301746   4.907393   4.463030   5.589963   6.846654
                   11         12         13         14         15
    11  O    0.000000
    12  C    1.393190   0.000000
    13  O    2.343431   1.223988   0.000000
    14  C    2.355807   1.500831   2.409730   0.000000
    15  H    8.228443   9.281474   9.349423  10.553811   0.000000
    16  H    8.117411   9.123845   9.133341  10.442604   1.775880
    17  H    8.098567   8.955700   8.798002  10.350006   1.774837
    18  H    4.607761   5.045924   4.690500   6.480190   5.929440
    19  H    2.738801   2.793263   2.488234   4.152536   7.772594
    20  H    2.583289   3.852723   4.564728   4.661091   6.374199
    21  H    4.519963   5.707823   6.063748   6.822200   3.913690
    22  H    2.418340   2.144670   3.249235   1.094225  10.557189
    23  H    2.887300   2.131296   2.896462   1.092112  10.837627
    24  H    3.223856   2.127193   2.624633   1.093064  11.369014
                   16         17         18         19         20
    16  H    0.000000
    17  H    1.801958   0.000000
    18  H    5.094257   5.007224   0.000000
    19  H    7.193685   7.127748   2.459800   0.000000
    20  H    6.671013   6.689554   4.970187   4.314382   0.000000
    21  H    4.316655   4.361390   4.324364   4.972620   2.462843
    22  H   10.417145  10.499940   6.726531   4.473016   4.518533
    23  H   10.894487  10.685002   7.140341   4.923495   4.798205
    24  H   11.147243  11.052574   6.863956   4.428463   5.673012
                   21         22         23         24
    21  H    0.000000
    22  H    6.758283   0.000000
    23  H    7.060745   1.788691   0.000000
    24  H    7.731357   1.764368   1.792851   0.000000
 Stoichiometry    C10H10O4
 Framework group  C1[X(C10H10O4)]
 Deg. of freedom    66
 Full point group                 C1      NOp   1
 Largest Abelian subgroup         C1      NOp   1
 Largest concise Abelian subgroup C1      NOp   1
                         Standard orientation:                         
 ---------------------------------------------------------------------
 Center     Atomic      Atomic             Coordinates (Angstroms)
 Number     Number       Type             X           Y           Z
 ---------------------------------------------------------------------
      1          6           0       -4.971998   -0.532531    0.269934
      2          8           0       -3.560556   -0.725565    0.175349
      3          6           0       -2.854176    0.411985   -0.041177
      4          8           0       -3.321602    1.532631   -0.165572
      5          6           0       -1.396973    0.110399   -0.103997
      6          6           0       -0.504386    1.174199   -0.300962
      7          6           0        0.872624    0.940761   -0.360930
      8          6           0        1.355571   -0.357040   -0.204884
      9          6           0        0.479092   -1.428060   -0.031022
     10          6           0       -0.896907   -1.194550    0.022453
     11          8           0        2.719801   -0.686834   -0.310811
     12          6           0        3.700093    0.158709    0.204031
     13          8           0        3.524075    1.179589    0.855925
     14          6           0        5.051303   -0.408899   -0.119305
     15          1           0       -5.427317   -1.497196    0.510806
     16          1           0       -5.373485   -0.187623   -0.687472
     17          1           0       -5.213562    0.173397    1.070693
     18          1           0       -0.877197    2.191174   -0.411470
     19          1           0        1.544753    1.777510   -0.528302
     20          1           0        0.860527   -2.441280    0.061218
     21          1           0       -1.567314   -2.039401    0.159580
     22          1           0        5.005323   -1.011612   -1.031419
     23          1           0        5.398090   -1.024338    0.713570
     24          1           0        5.750969    0.410968   -0.301165
 ---------------------------------------------------------------------
 Rotational constants (GHZ):      2.5295821      0.2754465      0.2541523
 Leave Link  202 at Thu Sep 30 23:21:09 2021, MaxMem= 1073741824 cpu:       0.0
 (Enter /sw/target/amd/app/gaussian/Gaussian09RevA.02_gcc-4.9.2/g09/l301.exe)
 Standard basis: 6-31G(d) (6D, 7F)
 Ernie: Thresh=  0.10000D-02 Tol=  0.10000D-05 Strict=F.
 There are   230 symmetry adapted basis functions of A   symmetry.
 Integral buffers will be    131072 words long.
 Raffenetti 2 integral format.
 Two-electron integral symmetry is turned on.
   230 basis functions,   432 primitive gaussians,   230 cartesian basis functions
    51 alpha electrons       51 beta electrons
       nuclear repulsion energy       834.1367233208 Hartrees.
 IExCor=  402 DFT=T Ex+Corr=B3LYP ExCW=0 ScaHFX=  0.200000
 ScaDFX=  0.800000  0.720000  1.000000  0.810000 ScalE2=  1.000000  1.000000
 IRadAn=      0 IRanWt=     -1 IRanGd=            0 ICorTp=0
 NAtoms=   24 NActive=   24 NUniq=   24 SFac= 7.50D-01 NAtFMM=   80 NAOKFM=F Big=F
 Leave Link  301 at Thu Sep 30 23:21:10 2021, MaxMem= 1073741824 cpu:       0.1
 (Enter /sw/target/amd/app/gaussian/Gaussian09RevA.02_gcc-4.9.2/g09/l302.exe)
 NPDir=0 NMtPBC=     1 NCelOv=     1 NCel=       1 NClECP=     1 NCelD=      1
         NCelK=      1 NCelE2=     1 NClLst=     1 CellRange=     0.0.
 One-electron integrals computed using PRISM.
 NBasis=   230 RedAO= T  NBF=   230
 NBsUse=   230 1.00D-06 NBFU=   230
 Precomputing XC quadrature grid using
 IXCGrd= 2 IRadAn=           0 IRanWt=          -1 IRanGd=           0 AccXCQ= 1.00D-10.
 NRdTot=    1527 NPtTot=      194762 NUsed=      205776 NTot=      205808
 NSgBfM=   228   228   228   228   228 NAtAll=    24    24.
 Leave Link  302 at Thu Sep 30 23:21:13 2021, MaxMem= 1073741824 cpu:       1.8
 (Enter /sw/target/amd/app/gaussian/Gaussian09RevA.02_gcc-4.9.2/g09/l303.exe)
 DipDrv:  MaxL=1.
 Leave Link  303 at Thu Sep 30 23:21:14 2021, MaxMem= 1073741824 cpu:       0.2
 (Enter /sw/target/amd/app/gaussian/Gaussian09RevA.02_gcc-4.9.2/g09/l401.exe)
 Harris functional with IExCor=  402 diagonalized for initial guess.
 ExpMin= 1.61D-01 ExpMax= 5.48D+03 ExpMxC= 8.25D+02 IAcc=1 IRadAn=         1 AccDes= 0.00D+00
 HarFok:  IExCor=  402 AccDes= 0.00D+00 IRadAn=         1 IDoV= 1
 ScaDFX=  1.000000  1.000000  1.000000  1.000000
 FoFCou: FMM=F IPFlag=           0 FMFlag=      100000 FMFlg1=           0
         NFxFlg=           0 DoJE=T BraDBF=F KetDBF=T FulRan=T
         Omega=  0.000000  0.000000  1.000000  0.000000  0.000000 ICntrl=     500 IOpCl=  0
         NMat0=    1 NMatS0=    1 NMatT0=    0 NMatD0=    1 NMtDS0=    0 NMtDT0=    0
         I1Cent=           4 NGrid=           0.
 Petite list used in FoFCou.
 Harris En= -688.089608878098    
 Initial guess orbital symmetries:
       Occupied  (A) (A) (A) (A) (A) (A) (A) (A) (A) (A) (A) (A)
                 (A) (A) (A) (A) (A) (A) (A) (A) (A) (A) (A) (A)
                 (A) (A) (A) (A) (A) (A) (A) (A) (A) (A) (A) (A)
                 (A) (A) (A) (A) (A) (A) (A) (A) (A) (A) (A) (A)
                 (A) (A) (A)
       Virtual   (A) (A) (A) (A) (A) (A) (A) (A) (A) (A) (A) (A)
                 (A) (A) (A) (A) (A) (A) (A) (A) (A) (A) (A) (A)
                 (A) (A) (A) (A) (A) (A) (A) (A) (A) (A) (A) (A)
                 (A) (A) (A) (A) (A) (A) (A) (A) (A) (A) (A) (A)
                 (A) (A) (A) (A) (A) (A) (A) (A) (A) (A) (A) (A)
                 (A) (A) (A) (A) (A) (A) (A) (A) (A) (A) (A) (A)
                 (A) (A) (A) (A) (A) (A) (A) (A) (A) (A) (A) (A)
                 (A) (A) (A) (A) (A) (A) (A) (A) (A) (A) (A) (A)
                 (A) (A) (A) (A) (A) (A) (A) (A) (A) (A) (A) (A)
                 (A) (A) (A) (A) (A) (A) (A) (A) (A) (A) (A) (A)
                 (A) (A) (A) (A) (A) (A) (A) (A) (A) (A) (A) (A)
                 (A) (A) (A) (A) (A) (A) (A) (A) (A) (A) (A) (A)
                 (A) (A) (A) (A) (A) (A) (A) (A) (A) (A) (A) (A)
                 (A) (A) (A) (A) (A) (A) (A) (A) (A) (A) (A) (A)
                 (A) (A) (A) (A) (A) (A) (A) (A) (A) (A) (A)
 The electronic state of the initial guess is 1-A.
 Leave Link  401 at Thu Sep 30 23:21:24 2021, MaxMem= 1073741824 cpu:       7.4
 (Enter /sw/target/amd/app/gaussian/Gaussian09RevA.02_gcc-4.9.2/g09/l502.exe)
 Closed shell SCF:
 Requested convergence on RMS density matrix=1.00D-08 within  64 cycles.
 Requested convergence on MAX density matrix=1.00D-06.
 Requested convergence on             energy=1.00D-06.
 No special actions if energy rises.
 Using DIIS extrapolation, IDIIS=  1040.
 Integral symmetry usage will be decided dynamically.
       205547 words used for storage of precomputed grid.
 Keep R1 ints in memory in canonical form, NReq=359398888.
 IEnd=      372899 IEndB=      372899 NGot=  1073741824 MDV=   720563357
 LenX=   720563357 LenY=   720510016
 Symmetry not used in FoFDir.
 MinBra= 0 MaxBra= 2 Meth= 1.
 IRaf=       0 NMat=   1 IRICut=       1 DoRegI=T DoRafI=F ISym2E= 0 JSym2E=0.
 Integral accuracy reduced to 1.0D-05 until final iterations.

 Cycle   1  Pass 0  IDiag  1:
 E= -687.627595786682    
 DIIS: error= 3.05D-02 at cycle   1 NSaved=   1.
 NSaved= 1 IEnMin= 1 EnMin= -687.627595786682     IErMin= 1 ErrMin= 3.05D-02
 ErrMax= 3.05D-02 EMaxC= 1.00D-01 BMatC= 4.22D-01 BMatP= 4.22D-01
 IDIUse=3 WtCom= 6.95D-01 WtEn= 3.05D-01
 Coeff-Com:  0.100D+01
 Coeff-En:   0.100D+01
 Coeff:      0.100D+01
 Gap=     0.199 Goal=   None    Shift=    0.000
 GapD=    0.199 DampG=1.000 DampE=0.500 DampFc=0.5000 IDamp=-1.
 Damping current iteration by 5.00D-01
 RMSDP=6.21D-03 MaxDP=2.17D-01              OVMax= 2.34D-01

 Cycle   2  Pass 0  IDiag  1:
 E= -687.710909016205     Delta-E=       -0.083313229523 Rises=F Damp=T
 DIIS: error= 1.41D-02 at cycle   2 NSaved=   2.
 NSaved= 2 IEnMin= 2 EnMin= -687.710909016205     IErMin= 2 ErrMin= 1.41D-02
 ErrMax= 1.41D-02 EMaxC= 1.00D-01 BMatC= 8.63D-02 BMatP= 4.22D-01
 IDIUse=3 WtCom= 8.59D-01 WtEn= 1.41D-01
 Coeff-Com:  0.254D+00 0.746D+00
 Coeff-En:   0.382D+00 0.618D+00
 Coeff:      0.272D+00 0.728D+00
 Gap=     0.234 Goal=   None    Shift=    0.000
 RMSDP=2.10D-03 MaxDP=6.10D-02 DE=-8.33D-02 OVMax= 1.72D-01

 Cycle   3  Pass 0  IDiag  1:
 E= -687.933785152190     Delta-E=       -0.222876135985 Rises=F Damp=F
 DIIS: error= 1.40D-02 at cycle   3 NSaved=   3.
 NSaved= 3 IEnMin= 3 EnMin= -687.933785152190     IErMin= 3 ErrMin= 1.40D-02
 ErrMax= 1.40D-02 EMaxC= 1.00D-01 BMatC= 7.86D-02 BMatP= 8.63D-02
 IDIUse=3 WtCom= 8.60D-01 WtEn= 1.40D-01
 Coeff-Com:  0.946D-01 0.475D+00 0.430D+00
 Coeff-En:   0.000D+00 0.000D+00 0.100D+01
 Coeff:      0.813D-01 0.408D+00 0.510D+00
 Gap=     0.209 Goal=   None    Shift=    0.000
 RMSDP=1.48D-03 MaxDP=5.07D-02 DE=-2.23D-01 OVMax= 1.00D-01

 Cycle   4  Pass 0  IDiag  1:
 E= -687.988878659004     Delta-E=       -0.055093506813 Rises=F Damp=F
 DIIS: error= 6.49D-03 at cycle   4 NSaved=   4.
 NSaved= 4 IEnMin= 4 EnMin= -687.988878659004     IErMin= 4 ErrMin= 6.49D-03
 ErrMax= 6.49D-03 EMaxC= 1.00D-01 BMatC= 1.61D-02 BMatP= 7.86D-02
 IDIUse=3 WtCom= 9.35D-01 WtEn= 6.49D-02
 Coeff-Com:  0.263D-01 0.101D+00 0.316D+00 0.557D+00
 Coeff-En:   0.000D+00 0.000D+00 0.192D+00 0.808D+00
 Coeff:      0.246D-01 0.946D-01 0.308D+00 0.573D+00
 Gap=     0.202 Goal=   None    Shift=    0.000
 RMSDP=5.02D-04 MaxDP=1.83D-02 DE=-5.51D-02 OVMax= 3.15D-02

 Cycle   5  Pass 0  IDiag  1:
 E= -688.000762050565     Delta-E=       -0.011883391561 Rises=F Damp=F
 DIIS: error= 1.09D-03 at cycle   5 NSaved=   5.
 NSaved= 5 IEnMin= 5 EnMin= -688.000762050565     IErMin= 5 ErrMin= 1.09D-03
 ErrMax= 1.09D-03 EMaxC= 1.00D-01 BMatC= 8.89D-04 BMatP= 1.61D-02
 IDIUse=3 WtCom= 9.89D-01 WtEn= 1.09D-02
 Coeff-Com:  0.621D-02 0.802D-02 0.128D+00 0.327D+00 0.531D+00
 Coeff-En:   0.000D+00 0.000D+00 0.000D+00 0.000D+00 0.100D+01
 Coeff:      0.614D-02 0.794D-02 0.126D+00 0.323D+00 0.536D+00
 Gap=     0.202 Goal=   None    Shift=    0.000
 RMSDP=1.37D-04 MaxDP=4.19D-03 DE=-1.19D-02 OVMax= 7.86D-03

 Cycle   6  Pass 0  IDiag  1:
 E= -688.001447180516     Delta-E=       -0.000685129951 Rises=F Damp=F
 DIIS: error= 3.61D-04 at cycle   6 NSaved=   6.
 NSaved= 6 IEnMin= 6 EnMin= -688.001447180516     IErMin= 6 ErrMin= 3.61D-04
 ErrMax= 3.61D-04 EMaxC= 1.00D-01 BMatC= 7.54D-05 BMatP= 8.89D-04
 IDIUse=3 WtCom= 9.96D-01 WtEn= 3.61D-03
 Coeff-Com:  0.142D-02-0.367D-02 0.433D-01 0.124D+00 0.299D+00 0.536D+00
 Coeff-En:   0.000D+00 0.000D+00 0.000D+00 0.000D+00 0.214D-01 0.979D+00
 Coeff:      0.142D-02-0.366D-02 0.432D-01 0.124D+00 0.298D+00 0.537D+00
 Gap=     0.202 Goal=   None    Shift=    0.000
 RMSDP=4.56D-05 MaxDP=1.51D-03 DE=-6.85D-04 OVMax= 3.06D-03

 Cycle   7  Pass 0  IDiag  1:
 E= -688.001505770616     Delta-E=       -0.000058590100 Rises=F Damp=F
 DIIS: error= 1.89D-04 at cycle   7 NSaved=   7.
 NSaved= 7 IEnMin= 7 EnMin= -688.001505770616     IErMin= 7 ErrMin= 1.89D-04
 ErrMax= 1.89D-04 EMaxC= 1.00D-01 BMatC= 9.95D-06 BMatP= 7.54D-05
 IDIUse=3 WtCom= 9.98D-01 WtEn= 1.89D-03
 Coeff-Com:  0.439D-03-0.298D-02 0.157D-01 0.468D-01 0.140D+00 0.335D+00
 Coeff-Com:  0.465D+00
 Coeff-En:   0.000D+00 0.000D+00 0.000D+00 0.000D+00 0.000D+00 0.560D-01
 Coeff-En:   0.944D+00
 Coeff:      0.438D-03-0.297D-02 0.157D-01 0.468D-01 0.140D+00 0.335D+00
 Coeff:      0.466D+00
 Gap=     0.202 Goal=   None    Shift=    0.000
 RMSDP=1.52D-05 MaxDP=5.74D-04 DE=-5.86D-05 OVMax= 1.01D-03

 Cycle   8  Pass 0  IDiag  1:
 E= -688.001513437771     Delta-E=       -0.000007667154 Rises=F Damp=F
 DIIS: error= 5.98D-05 at cycle   8 NSaved=   8.
 NSaved= 8 IEnMin= 8 EnMin= -688.001513437771     IErMin= 8 ErrMin= 5.98D-05
 ErrMax= 5.98D-05 EMaxC= 1.00D-01 BMatC= 1.21D-06 BMatP= 9.95D-06
 IDIUse=1 WtCom= 1.00D+00 WtEn= 0.00D+00
 Coeff-Com:  0.137D-03-0.139D-02 0.396D-02 0.116D-01 0.482D-01 0.140D+00
 Coeff-Com:  0.295D+00 0.503D+00
 Coeff:      0.137D-03-0.139D-02 0.396D-02 0.116D-01 0.482D-01 0.140D+00
 Coeff:      0.295D+00 0.503D+00
 Gap=     0.202 Goal=   None    Shift=    0.000
 RMSDP=5.03D-06 MaxDP=1.61D-04 DE=-7.67D-06 OVMax= 2.70D-04

 Initial convergence to 1.0D-05 achieved.  Increase integral accuracy.
 Cycle   9  Pass 1  IDiag  1:
 E= -688.001516402719     Delta-E=       -0.000002964948 Rises=F Damp=F
 DIIS: error= 1.74D-05 at cycle   1 NSaved=   1.
 NSaved= 1 IEnMin= 1 EnMin= -688.001516402719     IErMin= 1 ErrMin= 1.74D-05
 ErrMax= 1.74D-05 EMaxC= 1.00D-01 BMatC= 1.34D-07 BMatP= 1.34D-07
 IDIUse=1 WtCom= 1.00D+00 WtEn= 0.00D+00
 Coeff-Com:  0.100D+01
 Coeff:      0.100D+01
 Gap=     0.202 Goal=   None    Shift=    0.000
 RMSDP=5.03D-06 MaxDP=1.61D-04 DE=-2.96D-06 OVMax= 2.85D-04

 Cycle  10  Pass 1  IDiag  1:
 E= -688.001516216008     Delta-E=        0.000000186711 Rises=F Damp=F
 DIIS: error= 3.73D-05 at cycle   2 NSaved=   2.
 NSaved= 2 IEnMin= 1 EnMin= -688.001516402719     IErMin= 1 ErrMin= 1.74D-05
 ErrMax= 3.73D-05 EMaxC= 1.00D-01 BMatC= 3.61D-07 BMatP= 1.34D-07
 IDIUse=1 WtCom= 1.00D+00 WtEn= 0.00D+00
 Coeff-Com:  0.637D+00 0.363D+00
 Coeff:      0.637D+00 0.363D+00
 Gap=     0.202 Goal=   None    Shift=    0.000
 RMSDP=2.79D-06 MaxDP=1.03D-04 DE= 1.87D-07 OVMax= 1.97D-04

 Cycle  11  Pass 1  IDiag  1:
 E= -688.001516545169     Delta-E=       -0.000000329161 Rises=F Damp=F
 DIIS: error= 8.17D-06 at cycle   3 NSaved=   3.
 NSaved= 3 IEnMin= 3 EnMin= -688.001516545169     IErMin= 3 ErrMin= 8.17D-06
 ErrMax= 8.17D-06 EMaxC= 1.00D-01 BMatC= 1.42D-08 BMatP= 1.34D-07
 IDIUse=1 WtCom= 1.00D+00 WtEn= 0.00D+00
 Coeff-Com:  0.109D+00 0.173D+00 0.718D+00
 Coeff:      0.109D+00 0.173D+00 0.718D+00
 Gap=     0.202 Goal=   None    Shift=    0.000
 RMSDP=7.06D-07 MaxDP=3.69D-05 DE=-3.29D-07 OVMax= 5.45D-05

 Cycle  12  Pass 1  IDiag  1:
 E= -688.001516551859     Delta-E=       -0.000000006690 Rises=F Damp=F
 DIIS: error= 3.57D-06 at cycle   4 NSaved=   4.
 NSaved= 4 IEnMin= 4 EnMin= -688.001516551859     IErMin= 4 ErrMin= 3.57D-06
 ErrMax= 3.57D-06 EMaxC= 1.00D-01 BMatC= 5.73D-09 BMatP= 1.42D-08
 IDIUse=1 WtCom= 1.00D+00 WtEn= 0.00D+00
 Coeff-Com: -0.472D-02 0.712D-01 0.480D+00 0.454D+00
 Coeff:     -0.472D-02 0.712D-01 0.480D+00 0.454D+00
 Gap=     0.202 Goal=   None    Shift=    0.000
 RMSDP=3.56D-07 MaxDP=1.51D-05 DE=-6.69D-09 OVMax= 2.38D-05

 Cycle  13  Pass 1  IDiag  1:
 E= -688.001516556755     Delta-E=       -0.000000004896 Rises=F Damp=F
 DIIS: error= 8.18D-07 at cycle   5 NSaved=   5.
 NSaved= 5 IEnMin= 5 EnMin= -688.001516556755     IErMin= 5 ErrMin= 8.18D-07
 ErrMax= 8.18D-07 EMaxC= 1.00D-01 BMatC= 2.38D-10 BMatP= 5.73D-09
 IDIUse=1 WtCom= 1.00D+00 WtEn= 0.00D+00
 Coeff-Com: -0.938D-02 0.291D-01 0.226D+00 0.257D+00 0.498D+00
 Coeff:     -0.938D-02 0.291D-01 0.226D+00 0.257D+00 0.498D+00
 Gap=     0.202 Goal=   None    Shift=    0.000
 RMSDP=7.90D-08 MaxDP=2.75D-06 DE=-4.90D-09 OVMax= 5.90D-06

 Cycle  14  Pass 1  IDiag  1:
 E= -688.001516556990     Delta-E=       -0.000000000235 Rises=F Damp=F
 DIIS: error= 1.84D-07 at cycle   6 NSaved=   6.
 NSaved= 6 IEnMin= 6 EnMin= -688.001516556990     IErMin= 6 ErrMin= 1.84D-07
 ErrMax= 1.84D-07 EMaxC= 1.00D-01 BMatC= 1.24D-11 BMatP= 2.38D-10
 IDIUse=1 WtCom= 1.00D+00 WtEn= 0.00D+00
 Coeff-Com: -0.458D-02 0.101D-01 0.826D-01 0.101D+00 0.258D+00 0.553D+00
 Coeff:     -0.458D-02 0.101D-01 0.826D-01 0.101D+00 0.258D+00 0.553D+00
 Gap=     0.202 Goal=   None    Shift=    0.000
 RMSDP=1.78D-08 MaxDP=7.41D-07 DE=-2.35D-10 OVMax= 1.27D-06

 Cycle  15  Pass 1  IDiag  1:
 E= -688.001516556975     Delta-E=        0.000000000015 Rises=F Damp=F
 DIIS: error= 5.72D-08 at cycle   7 NSaved=   7.
 NSaved= 7 IEnMin= 6 EnMin= -688.001516556990     IErMin= 7 ErrMin= 5.72D-08
 ErrMax= 5.72D-08 EMaxC= 1.00D-01 BMatC= 6.67D-13 BMatP= 1.24D-11
 IDIUse=1 WtCom= 1.00D+00 WtEn= 0.00D+00
 Coeff-Com: -0.124D-02 0.209D-02 0.175D-01 0.236D-01 0.731D-01 0.240D+00
 Coeff-Com:  0.645D+00
 Coeff:     -0.124D-02 0.209D-02 0.175D-01 0.236D-01 0.731D-01 0.240D+00
 Coeff:      0.645D+00
 Gap=     0.202 Goal=   None    Shift=    0.000
 RMSDP=5.08D-09 MaxDP=1.99D-07 DE= 1.48D-11 OVMax= 4.14D-07

 SCF Done:  E(RB3LYP) =  -688.001516557     A.U. after   15 cycles
             Convg  =    0.5078D-08             -V/T =  2.0094
 KE= 6.815687258743D+02 PE=-3.273794777274D+03 EE= 1.070087811522D+03
 Leave Link  502 at Thu Sep 30 23:27:27 2021, MaxMem= 1073741824 cpu:     185.4
 (Enter /sw/target/amd/app/gaussian/Gaussian09RevA.02_gcc-4.9.2/g09/l508.exe)
 QCSCF skips out because SCF is already converged.
 Leave Link  508 at Thu Sep 30 23:27:27 2021, MaxMem= 1073741824 cpu:       0.0
 (Enter /sw/target/amd/app/gaussian/Gaussian09RevA.02_gcc-4.9.2/g09/l601.exe)
 Copying SCF densities to generalized density rwf, IOpCl= 0 IROHF=0.

 **********************************************************************

            Population analysis using the SCF density.

 **********************************************************************

 Orbital symmetries:
       Occupied  (A) (A) (A) (A) (A) (A) (A) (A) (A) (A) (A) (A)
                 (A) (A) (A) (A) (A) (A) (A) (A) (A) (A) (A) (A)
                 (A) (A) (A) (A) (A) (A) (A) (A) (A) (A) (A) (A)
                 (A) (A) (A) (A) (A) (A) (A) (A) (A) (A) (A) (A)
                 (A) (A) (A)
       Virtual   (A) (A) (A) (A) (A) (A) (A) (A) (A) (A) (A) (A)
                 (A) (A) (A) (A) (A) (A) (A) (A) (A) (A) (A) (A)
                 (A) (A) (A) (A) (A) (A) (A) (A) (A) (A) (A) (A)
                 (A) (A) (A) (A) (A) (A) (A) (A) (A) (A) (A) (A)
                 (A) (A) (A) (A) (A) (A) (A) (A) (A) (A) (A) (A)
                 (A) (A) (A) (A) (A) (A) (A) (A) (A) (A) (A) (A)
                 (A) (A) (A) (A) (A) (A) (A) (A) (A) (A) (A) (A)
                 (A) (A) (A) (A) (A) (A) (A) (A) (A) (A) (A) (A)
                 (A) (A) (A) (A) (A) (A) (A) (A) (A) (A) (A) (A)
                 (A) (A) (A) (A) (A) (A) (A) (A) (A) (A) (A) (A)
                 (A) (A) (A) (A) (A) (A) (A) (A) (A) (A) (A) (A)
                 (A) (A) (A) (A) (A) (A) (A) (A) (A) (A) (A) (A)
                 (A) (A) (A) (A) (A) (A) (A) (A) (A) (A) (A) (A)
                 (A) (A) (A) (A) (A) (A) (A) (A) (A) (A) (A) (A)
                 (A) (A) (A) (A) (A) (A) (A) (A) (A) (A) (A)
 The electronic state is 1-A.
 Alpha  occ. eigenvalues --  -19.21446 -19.19705 -19.15225 -19.13626 -10.33594
 Alpha  occ. eigenvalues --  -10.31693 -10.26667 -10.24203 -10.20679 -10.20627
 Alpha  occ. eigenvalues --  -10.20480 -10.20401 -10.20352 -10.20125  -1.10646
 Alpha  occ. eigenvalues --   -1.10200  -1.02905  -1.01425  -0.86805  -0.79003
 Alpha  occ. eigenvalues --   -0.76076  -0.75589  -0.72036  -0.65580  -0.62255
 Alpha  occ. eigenvalues --   -0.58899  -0.56799  -0.53302  -0.50019  -0.49326
 Alpha  occ. eigenvalues --   -0.48466  -0.48311  -0.46986  -0.45755  -0.44589
 Alpha  occ. eigenvalues --   -0.44032  -0.43144  -0.41882  -0.40855  -0.40367
 Alpha  occ. eigenvalues --   -0.39945  -0.37546  -0.36928  -0.36120  -0.35230
 Alpha  occ. eigenvalues --   -0.32833  -0.30462  -0.28512  -0.27505  -0.26096
 Alpha  occ. eigenvalues --   -0.25005
 Alpha virt. eigenvalues --   -0.04793  -0.01248  -0.00653   0.05949   0.08704
 Alpha virt. eigenvalues --    0.10441   0.11330   0.13002   0.13777   0.14233
 Alpha virt. eigenvalues --    0.15394   0.16052   0.16832   0.17017   0.17308
 Alpha virt. eigenvalues --    0.18090   0.19737   0.22504   0.24033   0.26227
 Alpha virt. eigenvalues --    0.27821   0.29034   0.31665   0.32576   0.34306
 Alpha virt. eigenvalues --    0.37614   0.40415   0.48497   0.49920   0.50248
 Alpha virt. eigenvalues --    0.51007   0.51576   0.53266   0.54172   0.54895
 Alpha virt. eigenvalues --    0.55043   0.56253   0.56944   0.57986   0.58208
 Alpha virt. eigenvalues --    0.58544   0.59295   0.61039   0.61309   0.63153
 Alpha virt. eigenvalues --    0.63829   0.65708   0.67475   0.68700   0.71078
 Alpha virt. eigenvalues --    0.72564   0.75025   0.76971   0.77587   0.80275
 Alpha virt. eigenvalues --    0.81831   0.83094   0.83615   0.84146   0.85012
 Alpha virt. eigenvalues --    0.85092   0.85881   0.88566   0.89708   0.91177
 Alpha virt. eigenvalues --    0.91702   0.92689   0.94221   0.95513   0.96255
 Alpha virt. eigenvalues --    0.97695   0.98392   0.99558   1.01728   1.05980
 Alpha virt. eigenvalues --    1.07166   1.08553   1.09646   1.10050   1.13184
 Alpha virt. eigenvalues --    1.16900   1.20004   1.22057   1.23988   1.26136
 Alpha virt. eigenvalues --    1.27839   1.30662   1.30723   1.35380   1.37994
 Alpha virt. eigenvalues --    1.39016   1.39655   1.42338   1.43170   1.44224
 Alpha virt. eigenvalues --    1.47592   1.49642   1.50120   1.50948   1.53364
 Alpha virt. eigenvalues --    1.62040   1.64393   1.66792   1.68909   1.70786
 Alpha virt. eigenvalues --    1.74949   1.75698   1.76494   1.79299   1.79506
 Alpha virt. eigenvalues --    1.80788   1.82325   1.85854   1.87300   1.88719
 Alpha virt. eigenvalues --    1.92202   1.93694   1.94386   1.94532   1.97883
 Alpha virt. eigenvalues --    1.98744   2.00423   2.03335   2.03699   2.05415
 Alpha virt. eigenvalues --    2.08643   2.09245   2.10844   2.13591   2.14072
 Alpha virt. eigenvalues --    2.18106   2.19851   2.20493   2.23364   2.26953
 Alpha virt. eigenvalues --    2.28919   2.29075   2.32100   2.34986   2.37709
 Alpha virt. eigenvalues --    2.38781   2.40642   2.47115   2.47835   2.48826
 Alpha virt. eigenvalues --    2.56426   2.58970   2.60450   2.63390   2.67531
 Alpha virt. eigenvalues --    2.69547   2.71590   2.72744   2.74967   2.78446
 Alpha virt. eigenvalues --    2.82096   2.85729   2.92890   2.93892   2.97131
 Alpha virt. eigenvalues --    3.03725   3.12768   3.15114   3.24836   3.43016
 Alpha virt. eigenvalues --    3.96747   3.99498   4.07789   4.09004   4.10745
 Alpha virt. eigenvalues --    4.14402   4.24883   4.26264   4.31434   4.32727
 Alpha virt. eigenvalues --    4.40818   4.47537   4.57202   4.76051
          Condensed to atoms (all electrons):
              1          2          3          4          5          6
     1  C    4.893104   0.210472  -0.021547   0.003695   0.008620  -0.000221
     2  O    0.210472   8.252205   0.253765  -0.079634  -0.096711   0.004722
     3  C   -0.021547   0.253765   4.376034   0.538223   0.348579  -0.041719
     4  O    0.003695  -0.079634   0.538223   8.081791  -0.085245   0.002217
     5  C    0.008620  -0.096711   0.348579  -0.085245   4.917100   0.510093
     6  C   -0.000221   0.004722  -0.041719   0.002217   0.510093   5.023113
     7  C    0.000001  -0.000044   0.006054   0.000840  -0.025824   0.458990
     8  C    0.000000  -0.000006   0.000422  -0.000009  -0.031687  -0.009329
     9  C   -0.000001   0.000577   0.004418  -0.000057  -0.021655  -0.039655
    10  C   -0.000348   0.002131  -0.039977   0.004269   0.493987  -0.068876
    11  O   -0.000000  -0.000000   0.000000  -0.000000   0.000063   0.003466
    12  C   -0.000000   0.000000   0.000000   0.000000   0.000015   0.000298
    13  O    0.000000  -0.000000   0.000000  -0.000000   0.000001   0.000027
    14  C   -0.000000   0.000000   0.000000   0.000000   0.000000   0.000002
    15  H    0.376662  -0.030869   0.004208   0.000572   0.000112   0.000001
    16  H    0.376195  -0.032641  -0.004682   0.004581  -0.000240  -0.000001
    17  H    0.374251  -0.032054  -0.005238   0.006698  -0.000186  -0.000005
    18  H   -0.000021   0.000274  -0.008820   0.012770  -0.037259   0.355074
    19  H   -0.000000   0.000000  -0.000138   0.000001   0.003278  -0.036786
    20  H   -0.000000  -0.000002  -0.000125   0.000000   0.003487   0.000297
    21  H   -0.000402   0.011208  -0.010061   0.000101  -0.033652   0.005530
    22  H   -0.000000   0.000000   0.000000  -0.000000   0.000000  -0.000001
    23  H    0.000000   0.000000  -0.000000   0.000000  -0.000000   0.000000
    24  H    0.000000  -0.000000  -0.000000  -0.000000   0.000000  -0.000000
              7          8          9         10         11         12
     1  C    0.000001   0.000000  -0.000001  -0.000348  -0.000000  -0.000000
     2  O   -0.000044  -0.000006   0.000577   0.002131  -0.000000   0.000000
     3  C    0.006054   0.000422   0.004418  -0.039977   0.000000   0.000000
     4  O    0.000840  -0.000009  -0.000057   0.004269  -0.000000   0.000000
     5  C   -0.025824  -0.031687  -0.021655   0.493987   0.000063   0.000015
     6  C    0.458990  -0.009329  -0.039655  -0.068876   0.003466   0.000298
     7  C    5.036580   0.502592  -0.062704  -0.037738  -0.047895  -0.001970
     8  C    0.502592   4.530656   0.534211  -0.018414   0.201023  -0.009749
     9  C   -0.062704   0.534211   5.016939   0.480786  -0.048772   0.001099
    10  C   -0.037738  -0.018414   0.480786   5.018759   0.003251  -0.000046
    11  O   -0.047895   0.201023  -0.048772   0.003251   8.340798   0.230648
    12  C   -0.001970  -0.009749   0.001099  -0.000046   0.230648   4.332199
    13  O    0.000469  -0.000806   0.000183   0.000002  -0.063464   0.548109
    14  C    0.000468   0.004560  -0.000490   0.000005  -0.097098   0.360245
    15  H   -0.000000   0.000000  -0.000001  -0.000081  -0.000000   0.000000
    16  H   -0.000000  -0.000000   0.000001   0.000055  -0.000000  -0.000000
    17  H    0.000000  -0.000000   0.000001   0.000067   0.000000   0.000000
    18  H   -0.038405   0.003160   0.000386   0.005399  -0.000041  -0.000009
    19  H    0.353940  -0.035091   0.005053   0.000523  -0.006781   0.002679
    20  H    0.006331  -0.037907   0.349807  -0.037627  -0.000995   0.000003
    21  H    0.000143   0.003751  -0.042481   0.356900  -0.000051   0.000000
    22  H   -0.000027   0.000025   0.000002  -0.000000   0.006431  -0.023521
    23  H    0.000000  -0.000174   0.000026  -0.000000   0.000915  -0.019178
    24  H    0.000002  -0.000076   0.000002  -0.000000   0.002782  -0.024145
             13         14         15         16         17         18
     1  C    0.000000  -0.000000   0.376662   0.376195   0.374251  -0.000021
     2  O   -0.000000   0.000000  -0.030869  -0.032641  -0.032054   0.000274
     3  C    0.000000   0.000000   0.004208  -0.004682  -0.005238  -0.008820
     4  O   -0.000000   0.000000   0.000572   0.004581   0.006698   0.012770
     5  C    0.000001   0.000000   0.000112  -0.000240  -0.000186  -0.037259
     6  C    0.000027   0.000002   0.000001  -0.000001  -0.000005   0.355074
     7  C    0.000469   0.000468  -0.000000  -0.000000   0.000000  -0.038405
     8  C   -0.000806   0.004560   0.000000  -0.000000  -0.000000   0.003160
     9  C    0.000183  -0.000490  -0.000001   0.000001   0.000001   0.000386
    10  C    0.000002   0.000005  -0.000081   0.000055   0.000067   0.005399
    11  O   -0.063464  -0.097098  -0.000000  -0.000000   0.000000  -0.000041
    12  C    0.548109   0.360245   0.000000  -0.000000   0.000000  -0.000009
    13  O    8.022367  -0.074798  -0.000000  -0.000000   0.000000  -0.000005
    14  C   -0.074798   5.260761  -0.000000   0.000000   0.000000  -0.000000
    15  H   -0.000000  -0.000000   0.553875  -0.034492  -0.033372  -0.000000
    16  H   -0.000000   0.000000  -0.034492   0.555485  -0.034331  -0.000001
    17  H    0.000000   0.000000  -0.033372  -0.034331   0.551218  -0.000002
    18  H   -0.000005  -0.000000  -0.000000  -0.000001  -0.000002   0.542347
    19  H    0.007681  -0.000075   0.000000   0.000000   0.000000  -0.004727
    20  H    0.000009  -0.000011  -0.000000  -0.000000  -0.000000   0.000015
    21  H   -0.000000  -0.000000  -0.000008   0.000022   0.000025  -0.000150
    22  H    0.002853   0.348230   0.000000   0.000000  -0.000000   0.000000
    23  H   -0.000357   0.362765   0.000000   0.000000  -0.000000  -0.000000
    24  H    0.000957   0.364152   0.000000  -0.000000   0.000000   0.000000
             19         20         21         22         23         24
     1  C   -0.000000  -0.000000  -0.000402  -0.000000   0.000000   0.000000
     2  O    0.000000  -0.000002   0.011208   0.000000   0.000000  -0.000000
     3  C   -0.000138  -0.000125  -0.010061   0.000000  -0.000000  -0.000000
     4  O    0.000001   0.000000   0.000101  -0.000000   0.000000  -0.000000
     5  C    0.003278   0.003487  -0.033652   0.000000  -0.000000   0.000000
     6  C   -0.036786   0.000297   0.005530  -0.000001   0.000000  -0.000000
     7  C    0.353940   0.006331   0.000143  -0.000027   0.000000   0.000002
     8  C   -0.035091  -0.037907   0.003751   0.000025  -0.000174  -0.000076
     9  C    0.005053   0.349807  -0.042481   0.000002   0.000026   0.000002
    10  C    0.000523  -0.037627   0.356900  -0.000000  -0.000000  -0.000000
    11  O   -0.006781  -0.000995  -0.000051   0.006431   0.000915   0.002782
    12  C    0.002679   0.000003   0.000000  -0.023521  -0.019178  -0.024145
    13  O    0.007681   0.000009  -0.000000   0.002853  -0.000357   0.000957
    14  C   -0.000075  -0.000011  -0.000000   0.348230   0.362765   0.364152
    15  H    0.000000  -0.000000  -0.000008   0.000000   0.000000   0.000000
    16  H    0.000000  -0.000000   0.000022   0.000000   0.000000  -0.000000
    17  H    0.000000  -0.000000   0.000025  -0.000000  -0.000000   0.000000
    18  H   -0.004727   0.000015  -0.000150   0.000000  -0.000000   0.000000
    19  H    0.544657  -0.000136   0.000012  -0.000021   0.000004   0.000015
    20  H   -0.000136   0.575208  -0.005631   0.000006   0.000001   0.000001
    21  H    0.000012  -0.005631   0.553499   0.000000   0.000000   0.000000
    22  H   -0.000021   0.000006   0.000000   0.533308  -0.021273  -0.027024
    23  H    0.000004   0.000001   0.000000  -0.021273   0.501202  -0.019201
    24  H    0.000015   0.000001   0.000000  -0.027024  -0.019201   0.512891
 Mulliken atomic charges:
              1
     1  C   -0.220461
     2  O   -0.463396
     3  C    0.600605
     4  O   -0.490814
     5  C    0.047124
     6  C   -0.167239
     7  C   -0.151802
     8  C    0.362850
     9  C   -0.177676
    10  C   -0.163028
    11  O   -0.524278
    12  C    0.603324
    13  O   -0.443227
    14  C   -0.528717
    15  H    0.163393
    16  H    0.170049
    17  H    0.172928
    18  H    0.170016
    19  H    0.165911
    20  H    0.147268
    21  H    0.161244
    22  H    0.181013
    23  H    0.195271
    24  H    0.189644
 Sum of Mulliken atomic charges =  -0.00000
 Mulliken charges with hydrogens summed into heavy atoms:
              1
     1  C    0.285909
     2  O   -0.463396
     3  C    0.600605
     4  O   -0.490814
     5  C    0.047124
     6  C    0.002776
     7  C    0.014109
     8  C    0.362850
     9  C   -0.030407
    10  C   -0.001784
    11  O   -0.524278
    12  C    0.603324
    13  O   -0.443227
    14  C    0.037211
 Sum of Mulliken charges with hydrogens summed into heavy atoms =  -0.00000
 Electronic spatial extent (au):  <R**2>=           4123.6203
 Charge=             -0.0000 electrons
 Dipole moment (field-independent basis, Debye):
    X=              0.7154    Y=             -3.1209    Z=             -0.7062  Tot=              3.2788
 Quadrupole moment (field-independent basis, Debye-Ang):
   XX=            -62.3215   YY=            -80.9451   ZZ=            -81.1754
   XY=              2.3490   XZ=             -5.4355   YZ=             -3.1255
 Traceless Quadrupole moment (field-independent basis, Debye-Ang):
   XX=             12.4925   YY=             -6.1311   ZZ=             -6.3614
   XY=              2.3490   XZ=             -5.4355   YZ=             -3.1255
 Octapole moment (field-independent basis, Debye-Ang**2):
  XXX=             -1.4406  YYY=             -7.8961  ZZZ=              2.6769  XYY=              5.3650
  XXY=            -53.0829  XXZ=             -3.6176  XZZ=             -5.8824  YZZ=              0.1658
  YYZ=             -1.1160  XYZ=            -11.5449
 Hexadecapole moment (field-independent basis, Debye-Ang**3):
 XXXX=          -3748.5190 YYYY=           -497.9048 ZZZZ=           -132.8625 XXXY=             54.5079
 XXXZ=            -80.6383 YYYX=             20.2967 YYYZ=             -6.4177 ZZZX=              2.8388
 ZZZY=              2.5470 XXYY=           -910.2756 XXZZ=           -771.4044 YYZZ=           -112.8456
 XXYZ=            -34.6113 YYXZ=            -12.2364 ZZXY=            -11.5938
 N-N= 8.341367233208D+02 E-N=-3.273794786607D+03  KE= 6.815687258743D+02
 No NMR shielding tensors so no spin-rotation constants.
 Leave Link  601 at Thu Sep 30 23:27:30 2021, MaxMem= 1073741824 cpu:       1.2
 (Enter /sw/target/amd/app/gaussian/Gaussian09RevA.02_gcc-4.9.2/g09/l701.exe)
 Compute integral first derivatives.
 ... and contract with generalized density number  0.
 Leave Link  701 at Thu Sep 30 23:27:32 2021, MaxMem= 1073741824 cpu:       1.2
 (Enter /sw/target/amd/app/gaussian/Gaussian09RevA.02_gcc-4.9.2/g09/l702.exe)
 L702 exits ... SP integral derivatives will be done elsewhere.
 Leave Link  702 at Thu Sep 30 23:27:32 2021, MaxMem= 1073741824 cpu:       0.1
 (Enter /sw/target/amd/app/gaussian/Gaussian09RevA.02_gcc-4.9.2/g09/l703.exe)
 Compute integral first derivatives, UseDBF=F ICtDFT=           0.
 Integral derivatives from FoFDir, PRISM(SPDF).
 Calling FoFJK, ICntrl=      2127 FMM=F ISym2X=0 I1Cent= 0 IOpClX= 0 NMat=1 NMatS=1 NMatT=0.
 FoFCou: FMM=F IPFlag=           0 FMFlag=      100000 FMFlg1=         800
         NFxFlg=           0 DoJE=F BraDBF=F KetDBF=F FulRan=T
         Omega=  0.000000  0.000000  1.000000  0.000000  0.000000 ICntrl=    2127 IOpCl=  0
         NMat0=    1 NMatS0=    1 NMatT0=    0 NMatD0=    1 NMtDS0=    0 NMtDT0=    0
         I1Cent=           0 NGrid=           0.
 Symmetry not used in FoFCou.
 Leave Link  703 at Thu Sep 30 23:28:41 2021, MaxMem= 1073741824 cpu:      59.7
 (Enter /sw/target/amd/app/gaussian/Gaussian09RevA.02_gcc-4.9.2/g09/l716.exe)
 Dipole        = 2.81477173D-01-1.22784165D+00-2.77857953D-01
 ***** Axes restored to original set *****
 -------------------------------------------------------------------
 Center     Atomic                   Forces (Hartrees/Bohr)
 Number     Number              X              Y              Z
 -------------------------------------------------------------------
      1        6          -0.007183078    0.007033571   -0.000995570
      2        8          -0.008616388   -0.003541278    0.000774765
      3        6           0.007648625   -0.008961711    0.000982775
      4        8           0.003122955    0.013951111   -0.003114155
      5        6          -0.000434558   -0.001770663    0.000390210
      6        6           0.006664951   -0.000726486   -0.000350641
      7        6          -0.006913013   -0.005768164    0.002030400
      8        6           0.008156795   -0.000624663    0.000369917
      9        6          -0.003527062    0.003452644   -0.001056953
     10        6           0.006175361   -0.001295660   -0.000093085
     11        8          -0.012081054   -0.012978490   -0.006025771
     12        6          -0.013172475   -0.012127208   -0.012097215
     13        8           0.010874993    0.027119481    0.017075725
     14        6           0.002287149   -0.000864652    0.012013278
     15        1           0.005174092   -0.001181789    0.000020126
     16        1          -0.001956577   -0.002935787   -0.001282248
     17        1          -0.000525832   -0.002020526    0.003325052
     18        1           0.000458445    0.004084842   -0.000599672
     19        1           0.001305486    0.003087559   -0.001931185
     20        1           0.000813573   -0.002446508   -0.000075007
     21        1          -0.001598573   -0.003169036    0.000497267
     22        1           0.001240108    0.002604743   -0.003408267
     23        1           0.002104232   -0.000439619   -0.000988403
     24        1          -0.000018153   -0.000481711   -0.005461343
 -------------------------------------------------------------------
 Cartesian Forces:  Max     0.027119481 RMS     0.006548567
 Leave Link  716 at Thu Sep 30 23:28:41 2021, MaxMem= 1073741824 cpu:       0.0
 (Enter /sw/target/amd/app/gaussian/Gaussian09RevA.02_gcc-4.9.2/g09/l103.exe)

 GradGradGradGradGradGradGradGradGradGradGradGradGradGradGradGradGradGrad
 Berny optimization.
 Internal  Forces:  Max     0.032497854 RMS     0.005061994
 Search for a local minimum.
 Step number   1 out of a maximum of  115
 All quantities printed in internal units (Hartrees-Bohrs-Radians)
 RMS Force = .50620D-02 SwitMx=.10000D-02 MixMth= 1
 Mixed Optimization -- RFO/linear search
 Second derivative matrix not updated -- first step.
     Eigenvalues ---    0.00755   0.00906   0.01032   0.01325   0.01376
     Eigenvalues ---    0.01592   0.01700   0.01782   0.02058   0.02077
     Eigenvalues ---    0.02084   0.02093   0.02118   0.02143   0.02146
     Eigenvalues ---    0.02162   0.02268   0.07402   0.07550   0.10108
     Eigenvalues ---    0.10518   0.16000   0.16000   0.16000   0.16000
     Eigenvalues ---    0.16000   0.16000   0.16000   0.16000   0.16000
     Eigenvalues ---    0.16000   0.21997   0.22975   0.23989   0.24916
     Eigenvalues ---    0.24986   0.25000   0.25000   0.25000   0.25000
     Eigenvalues ---    0.25000   0.25000   0.32290   0.33514   0.34299
     Eigenvalues ---    0.34329   0.34357   0.34402   0.34461   0.34570
     Eigenvalues ---    0.34954   0.35137   0.35213   0.35251   0.41319
     Eigenvalues ---    0.41718   0.41905   0.44397   0.45342   0.45968
     Eigenvalues ---    0.46069   0.46526   0.46768   0.53678   0.93638
     Eigenvalues ---    0.951281000.000001000.000001000.000001000.00000
     Eigenvalues --- 1000.000001000.000001000.000001000.000001000.00000
     Eigenvalues --- 1000.000001000.000001000.000001000.000001000.00000
     Eigenvalues --- 1000.000001000.000001000.000001000.000001000.00000
     Eigenvalues --- 1000.000001000.000001000.000001000.000001000.00000
     Eigenvalues --- 1000.000001000.000001000.000001000.000001000.00000
     Eigenvalues --- 1000.000001000.000001000.000001000.000001000.00000
     Eigenvalues --- 1000.000001000.000001000.000001000.000001000.00000
 RFO step:  Lambda=-7.29000745D-03 EMin= 7.54957900D-03
 Linear search not attempted -- first point.
 Iteration  1 RMS(Cart)=  0.04708578 RMS(Int)=  0.00079005
 Iteration  2 RMS(Cart)=  0.00146826 RMS(Int)=  0.00008594
 Iteration  3 RMS(Cart)=  0.00000091 RMS(Int)=  0.00008593
 Variable       Old X    -DE/DX   Delta X   Delta X   Delta X     New X
                                 (Linear)    (Quad)   (Total)
    R1        2.69799   0.00454   0.00000   0.01080   0.01080   2.70879
    R2        2.06657  -0.00102   0.00000  -0.00289  -0.00289   2.06367
    R3        2.06731  -0.00023   0.00000  -0.00064  -0.00064   2.06667
    R4        2.06828  -0.00091   0.00000  -0.00259  -0.00259   2.06569
    R5        2.56326  -0.00186   0.00000  -0.00342  -0.00342   2.55984
    R6        2.30656  -0.01169   0.00000  -0.01219  -0.01219   2.29436
    R7        2.81458   0.00289   0.00000   0.00843   0.00843   2.82300
    R8        2.65046  -0.00161   0.00000  -0.00374  -0.00373   2.64673
    R9        2.65165  -0.00110   0.00000  -0.00267  -0.00266   2.64898
   R10        2.64173  -0.00456   0.00000  -0.00975  -0.00974   2.63199
   R11        2.05749  -0.00314   0.00000  -0.00879  -0.00879   2.04871
   R12        2.63336   0.00106   0.00000   0.00249   0.00248   2.63584
   R13        2.05270  -0.00305   0.00000  -0.00847  -0.00847   2.04423
   R14        2.63583  -0.00088   0.00000  -0.00162  -0.00163   2.63420
   R15        2.65982  -0.00922   0.00000  -0.02042  -0.02042   2.63940
   R16        2.63937  -0.00409   0.00000  -0.00873  -0.00874   2.63063
   R17        2.05330  -0.00098   0.00000  -0.00273  -0.00273   2.05057
   R18        2.05453  -0.00284   0.00000  -0.00793  -0.00793   2.04660
   R19        2.63275  -0.01558   0.00000  -0.03281  -0.03281   2.59994
   R20        2.31300  -0.03250   0.00000  -0.03444  -0.03444   2.27856
   R21        2.83616   0.00573   0.00000   0.01735   0.01735   2.85351
   R22        2.06779  -0.00092   0.00000  -0.00262  -0.00262   2.06517
   R23        2.06379   0.00165   0.00000   0.00467   0.00467   2.06847
   R24        2.06559  -0.00050   0.00000  -0.00143  -0.00143   2.06416
    A1        1.88277  -0.00685   0.00000  -0.03811  -0.03806   1.84471
    A2        1.92566   0.00178   0.00000   0.00917   0.00921   1.93487
    A3        1.93250   0.00058   0.00000   0.00204   0.00206   1.93456
    A4        1.89449   0.00362   0.00000   0.02440   0.02448   1.91897
    A5        1.89221   0.00425   0.00000   0.02825   0.02828   1.92049
    A6        1.93472  -0.00336   0.00000  -0.02522  -0.02519   1.90953
    A7        1.99546   0.00459   0.00000   0.01785   0.01785   2.01331
    A8        2.19792  -0.01666   0.00000  -0.06473  -0.06475   2.13317
    A9        1.92455   0.01300   0.00000   0.05055   0.05053   1.97508
   A10        2.16070   0.00366   0.00000   0.01422   0.01421   2.17491
   A11        2.06574  -0.00183   0.00000  -0.00667  -0.00667   2.05907
   A12        2.13315   0.00285   0.00000   0.01152   0.01152   2.14468
   A13        2.08429  -0.00102   0.00000  -0.00485  -0.00485   2.07944
   A14        2.10161   0.00271   0.00000   0.01152   0.01152   2.11313
   A15        2.09994  -0.00415   0.00000  -0.02248  -0.02248   2.07746
   A16        2.08163   0.00144   0.00000   0.01096   0.01096   2.09259
   A17        2.08529  -0.00289   0.00000  -0.01206  -0.01210   2.07319
   A18        2.08000   0.00359   0.00000   0.01886   0.01886   2.09886
   A19        2.11790  -0.00070   0.00000  -0.00679  -0.00678   2.11112
   A20        2.10749   0.00132   0.00000   0.00641   0.00634   2.11383
   A21        2.14802   0.00155   0.00000   0.00584   0.00585   2.15386
   A22        2.02475  -0.00284   0.00000  -0.01128  -0.01129   2.01345
   A23        2.08917  -0.00053   0.00000  -0.00179  -0.00184   2.08733
   A24        2.10136  -0.00216   0.00000  -0.01356  -0.01354   2.08781
   A25        2.09266   0.00268   0.00000   0.01535   0.01537   2.10804
   A26        2.09801   0.00043   0.00000   0.00138   0.00136   2.09937
   A27        2.11097  -0.00244   0.00000  -0.01401  -0.01400   2.09698
   A28        2.07419   0.00201   0.00000   0.01263   0.01264   2.08684
   A29        2.10828   0.00174   0.00000   0.00675   0.00675   2.11503
   A30        2.21659  -0.01389   0.00000  -0.05391  -0.05393   2.16266
   A31        1.90111   0.00615   0.00000   0.02400   0.02398   1.92509
   A32        2.16476   0.00775   0.00000   0.03025   0.03024   2.19500
   A33        1.92844   0.00231   0.00000   0.02060   0.02041   1.94885
   A34        1.91209   0.00053   0.00000  -0.00634  -0.00641   1.90568
   A35        1.90547  -0.00078   0.00000  -0.00206  -0.00237   1.90310
   A36        1.91628  -0.00247   0.00000  -0.01967  -0.01963   1.89664
   A37        1.87691   0.00315   0.00000   0.03803   0.03762   1.91453
   A38        1.92443  -0.00271   0.00000  -0.02999  -0.03018   1.89426
    D1       -3.07555  -0.00010   0.00000  -0.00446  -0.00450  -3.08005
    D2        1.14083  -0.00140   0.00000  -0.01642  -0.01637   1.12446
    D3       -1.00761   0.00123   0.00000   0.00790   0.00789  -0.99972
    D4       -0.01084   0.00012   0.00000   0.00310   0.00328  -0.00756
    D5        3.12689   0.00037   0.00000   0.01318   0.01300   3.13989
    D6       -3.12361  -0.00012   0.00000  -0.00727  -0.00737  -3.13098
    D7        0.02174  -0.00018   0.00000  -0.00947  -0.00955   0.01219
    D8        0.01422   0.00006   0.00000   0.00234   0.00242   0.01664
    D9       -3.12362   0.00001   0.00000   0.00014   0.00024  -3.12338
   D10        3.13672   0.00004   0.00000   0.00120   0.00120   3.13792
   D11       -0.00767   0.00011   0.00000   0.00369   0.00369  -0.00398
   D12       -0.00852   0.00011   0.00000   0.00337   0.00334  -0.00518
   D13        3.13028   0.00017   0.00000   0.00586   0.00582   3.13610
   D14       -3.13162  -0.00010   0.00000  -0.00405  -0.00408  -3.13570
   D15        0.01375  -0.00020   0.00000  -0.00654  -0.00651   0.00724
   D16        0.01377  -0.00016   0.00000  -0.00627  -0.00628   0.00748
   D17       -3.12405  -0.00026   0.00000  -0.00876  -0.00871  -3.13276
   D18       -0.01540   0.00029   0.00000   0.01030   0.01027  -0.00513
   D19        3.12656   0.00044   0.00000   0.01616   0.01622  -3.14041
   D20        3.12896   0.00024   0.00000   0.00789   0.00782   3.13678
   D21       -0.01227   0.00038   0.00000   0.01374   0.01377   0.00150
   D22        0.03453  -0.00059   0.00000  -0.02112  -0.02112   0.01342
   D23        3.09062  -0.00033   0.00000  -0.00755  -0.00745   3.08318
   D24       -3.10743  -0.00074   0.00000  -0.02710  -0.02710  -3.13453
   D25       -0.05134  -0.00047   0.00000  -0.01353  -0.01343  -0.06477
   D26       -0.02937   0.00050   0.00000   0.01810   0.01816  -0.01121
   D27        3.11048   0.00047   0.00000   0.01662   0.01668   3.12715
   D28       -3.09125   0.00006   0.00000   0.00470   0.00480  -3.08645
   D29        0.04860   0.00003   0.00000   0.00323   0.00332   0.05191
   D30        0.68076   0.00001   0.00000   0.00300   0.00302   0.68378
   D31       -2.54259   0.00045   0.00000   0.01674   0.01672  -2.52587
   D32        0.00494  -0.00016   0.00000  -0.00444  -0.00438   0.00056
   D33       -3.14034  -0.00007   0.00000  -0.00206  -0.00203   3.14082
   D34       -3.13491  -0.00013   0.00000  -0.00294  -0.00285  -3.13776
   D35        0.00299  -0.00004   0.00000  -0.00056  -0.00050   0.00249
   D36        0.09355  -0.00175   0.00000  -0.06246  -0.06224   0.03132
   D37       -3.08792  -0.00113   0.00000  -0.05196  -0.05219  -3.14010
   D38        0.48125  -0.00183   0.00000  -0.01695  -0.01720   0.46405
   D39       -1.63218  -0.00057   0.00000  -0.00153  -0.00152  -1.63369
   D40        2.54198   0.00291   0.00000   0.04047   0.04048   2.58246
   D41       -2.69876  -0.00184   0.00000  -0.00918  -0.00928  -2.70805
   D42        1.47099  -0.00058   0.00000   0.00624   0.00640   1.47739
   D43       -0.63803   0.00291   0.00000   0.04824   0.04840  -0.58964
         Item               Value     Threshold  Converged?
 Maximum Force            0.032498     0.000450     NO 
 RMS     Force            0.005062     0.000300     NO 
 Maximum Displacement     0.187808     0.001800     NO 
 RMS     Displacement     0.046908     0.001200     NO 
 Predicted change in Energy=-3.791313D-03
 GradGradGradGradGradGradGradGradGradGradGradGradGradGradGradGradGradGrad

 Leave Link  103 at Thu Sep 30 23:28:50 2021, MaxMem= 1073741824 cpu:       4.8
 (Enter /sw/target/amd/app/gaussian/Gaussian09RevA.02_gcc-4.9.2/g09/l202.exe)
                          Input orientation:                          
 ---------------------------------------------------------------------
 Center     Atomic      Atomic             Coordinates (Angstroms)
 Number     Number       Type             X           Y           Z
 ---------------------------------------------------------------------
      1          6           0        1.518754    3.237090   -1.052296
      2          8           0        2.873993    2.772418   -1.098500
      3          6           0        3.041575    1.448595   -0.865316
      4          8           0        2.108036    0.710173   -0.625861
      5          6           0        4.470458    1.017229   -0.927465
      6          6           0        4.757862   -0.336836   -0.714040
      7          6           0        6.066941   -0.810034   -0.761544
      8          6           0        7.097103    0.090244   -1.033205
      9          6           0        6.835188    1.443809   -1.239078
     10          6           0        5.523120    1.905947   -1.186450
     11          8           0        8.447848   -0.265105   -1.037121
     12          6           0        8.865734   -1.470878   -1.551305
     13          8           0        8.126701   -2.280281   -2.053863
     14          6           0       10.365203   -1.600893   -1.429515
     15          1           0        1.559685    4.294534   -1.321935
     16          1           0        1.102380    3.124116   -0.047357
     17          1           0        0.896215    2.692233   -1.766772
     18          1           0        3.942845   -1.021641   -0.508794
     19          1           0        6.273759   -1.858821   -0.595773
     20          1           0        7.656512    2.125237   -1.435446
     21          1           0        5.320222    2.957788   -1.345751
     22          1           0       10.755390   -1.007595   -0.598824
     23          1           0       10.832771   -1.255319   -2.356917
     24          1           0       10.620924   -2.652651   -1.282722
 ---------------------------------------------------------------------
                    Distance matrix (angstroms):
                    1          2          3          4          5
     1  C    0.000000
     2  O    1.433432   0.000000
     3  C    2.356409   1.354610   0.000000
     4  O    2.629527   2.250096   1.214126   0.000000
     5  C    3.695392   2.378790   1.493869   2.401309   0.000000
     6  C    4.835203   3.655713   2.481187   2.850541   1.400587
     7  C    6.095060   4.810657   3.776905   4.242920   2.432114
     8  C    6.404762   5.003297   4.280258   5.043910   2.787427
     9  C    5.613842   4.180434   3.811984   4.822885   2.423019
    10  C    4.221953   2.788617   2.543691   3.661548   1.401781
    11  O    7.763888   6.348084   5.673982   6.427559   4.180435
    12  C    8.740257   7.356056   6.550934   7.161000   5.089038
    13  O    8.666573   7.350743   6.416827   6.870686   5.050788
    14  C   10.089997   8.680648   7.953190   8.612067   6.469516
    15  H    1.092048   2.023405   3.240968   3.692270   4.401015
    16  H    1.093633   2.089785   2.690150   2.678270   4.069092
    17  H    1.093115   2.089168   2.638528   2.588194   4.035503
    18  H    4.930355   3.985609   2.653575   2.525749   2.147242
    19  H    6.984755   5.767107   4.632350   4.894270   3.410803
    20  H    6.249408   4.837858   4.698993   5.783029   3.411256
    21  H    3.822994   2.465671   2.775016   3.985995   2.159359
    22  H   10.175384   8.755261   8.099804   8.816359   6.611225
    23  H   10.422796   9.008242   8.380856   9.109375   6.905565
    24  H   10.843969   9.459401   8.627919   9.176564   7.170946
                    6          7          8          9         10
     6  C    0.000000
     7  C    1.392789   0.000000
     8  C    2.399231   1.394824   0.000000
     9  C    2.785972   2.428590   1.393958   0.000000
    10  C    2.416375   2.802292   2.407838   1.392072   0.000000
    11  O    3.704797   2.457968   1.396711   2.358357   3.645518
    12  C    4.343003   2.982227   2.415282   3.565950   4.765410
    13  O    4.113536   2.841536   2.778706   4.025012   5.005551
    14  C    5.792410   4.421165   3.701012   4.665564   5.983542
    15  H    5.661048   6.832717   6.958622   5.997035   4.629527
    16  H    5.077913   6.374517   6.790653   6.091692   4.724871
    17  H    5.019544   6.325565   6.764575   6.091668   4.728982
    18  H    1.084129   2.149521   3.385356   3.870065   3.395181
    19  H    2.151364   1.081761   2.160578   3.411218   3.884049
    20  H    3.870969   3.405392   2.148472   1.085117   2.159039
    21  H    3.401449   3.885277   3.387890   2.144443   1.083012
    22  H    6.036019   4.695430   3.844087   4.667686   6.017531
    23  H    6.359809   5.045456   4.185447   4.951315   6.289355
    24  H    6.329447   4.940205   4.472477   5.578054   6.839422
                   11         12         13         14         15
    11  O    0.000000
    12  C    1.375828   0.000000
    13  O    2.279875   1.205764   0.000000
    14  C    2.369505   1.510014   2.421212   0.000000
    15  H    8.265484   9.309723   9.321460  10.597396   0.000000
    16  H    8.149991   9.145791   9.087060  10.489803   1.789848
    17  H    8.142813   8.993951   8.779991  10.402231   1.790375
    18  H    4.598535   5.052077   4.634227   6.513827   5.882378
    19  H    2.731553   2.789602   2.395214   4.183488   7.785473
    20  H    2.549237   3.795745   4.473489   4.606635   6.472252
    21  H    4.501593   5.676794   5.984573   6.800032   3.991127
    22  H    2.463361   2.166253   3.262955   1.092839  10.639382
    23  H    2.900042   2.136518   2.909501   1.094585  10.856435
    24  H    3.237740   2.132937   2.637132   1.092308  11.418012
                   16         17         18         19         20
    16  H    0.000000
    17  H    1.784774   0.000000
    18  H    5.046629   4.965614   0.000000
    19  H    7.202331   7.141520   2.478224   0.000000
    20  H    6.773566   6.792119   4.955082   4.299974   0.000000
    21  H    4.416297   4.451923   4.293427   4.967034   2.481822
    22  H   10.514549  10.595101   6.813154   4.561756   4.485266
    23  H   10.917601  10.708248   7.137313   4.924473   4.729259
    24  H   11.202672  11.107298   6.917796   4.472126   5.624880
                   21         22         23         24
    21  H    0.000000
    22  H    6.769285   0.000000
    23  H    7.011485   1.777146   0.000000
    24  H    7.718708   1.786619   1.775193   0.000000
 Stoichiometry    C10H10O4
 Framework group  C1[X(C10H10O4)]
 Deg. of freedom    66
 Full point group                 C1      NOp   1
 Largest Abelian subgroup         C1      NOp   1
 Largest concise Abelian subgroup C1      NOp   1
                         Standard orientation:                         
 ---------------------------------------------------------------------
 Center     Atomic      Atomic             Coordinates (Angstroms)
 Number     Number       Type             X           Y           Z
 ---------------------------------------------------------------------
      1          6           0       -5.013600   -0.494287    0.242291
      2          8           0       -3.600463   -0.724154    0.172052
      3          6           0       -2.842386    0.380355   -0.028815
      4          8           0       -3.328772    1.486290   -0.148969
      5          6           0       -1.379267    0.085424   -0.091608
      6          6           0       -0.500297    1.158847   -0.283486
      7          6           0        0.876444    0.958015   -0.347600
      8          6           0        1.373215   -0.338137   -0.210691
      9          6           0        0.516336   -1.422477   -0.028804
     10          6           0       -0.858146   -1.210113    0.030903
     11          8           0        2.727679   -0.658799   -0.326465
     12          6           0        3.701485    0.166288    0.187183
     13          8           0        3.471022    1.185706    0.788466
     14          6           0        5.071036   -0.412559   -0.076270
     15          1           0       -5.459891   -1.464962    0.468525
     16          1           0       -5.395419   -0.121432   -0.712292
     17          1           0       -5.252397    0.221239    1.033428
     18          1           0       -0.905654    2.159390   -0.383159
     19          1           0        1.543352    1.796868   -0.495131
[...]
    13  O   -0.450660
    14  C    0.017961
 Sum of Mulliken charges with hydrogens summed into heavy atoms =  -0.00000
 Electronic spatial extent (au):  <R**2>=           4112.2255
 Charge=             -0.0000 electrons
 Dipole moment (field-independent basis, Debye):
    X=             -4.2646    Y=             -1.7947    Z=             -0.6926  Tot=              4.6784
 Quadrupole moment (field-independent basis, Debye-Ang):
   XX=            -49.2508   YY=            -79.5776   ZZ=            -82.5971
   XY=             -2.4930   XZ=             -5.2828   YZ=             -3.3681
 Traceless Quadrupole moment (field-independent basis, Debye-Ang):
   XX=             21.2243   YY=             -9.1025   ZZ=            -12.1219
   XY=             -2.4930   XZ=             -5.2828   YZ=             -3.3681
 Octapole moment (field-independent basis, Debye-Ang**2):
  XXX=            -96.0197  YYY=             -4.0365  ZZZ=              2.2282  XYY=             -6.9933
  XXY=            -39.6138  XXZ=             -5.4249  XZZ=             -6.0046  YZZ=              0.5978
  YYZ=             -0.8502  XYZ=             -8.8383
 Hexadecapole moment (field-independent basis, Debye-Ang**3):
 XXXX=          -3526.0656 YYYY=           -489.2593 ZZZZ=           -132.0569 XXXY=             12.9955
 XXXZ=            -81.7361 YYYX=              4.0356 YYYZ=             -7.8548 ZZZX=             -2.8233
 ZZZY=              3.1964 XXYY=           -867.4305 XXZZ=           -777.1737 YYZZ=           -113.9779
 XXYZ=            -32.6158 YYXZ=             -8.9878 ZZXY=             -8.1842
 N-N= 8.361908586408D+02 E-N=-3.278053689915D+03  KE= 6.819088420236D+02
 No NMR shielding tensors so no spin-rotation constants.
 Leave Link  601 at Fri Oct  1 04:23:56 2021, MaxMem= 1073741824 cpu:       1.2
 (Enter /sw/target/amd/app/gaussian/Gaussian09RevA.02_gcc-4.9.2/g09/l604.exe)
 Evaluate density.
 Using the total density.
 Monte-Carlo method of calculating molar volume:
 based on  0.001 e/bohr**3 density envelope.
 Number of points per bohr**3 =   20 CutOff= 1.00D-04
 Using the CI density.
 There are       401 points.  Will hold       401 in memory.
 LenV=  1073594860 MDV=  1073741824.
 Box volume = 8104.862 fraction occupied=0.182
 Integrated density= 1.0237042968533267D+02 error= 3.7042968533266674D-01
 Molar volume = 1475.449 bohr**3/mol (131.667 cm**3/mol)
 Recommended a0 for SCRF calculation =  4.61 angstrom (  8.72 bohr)
 Leave Link  604 at Fri Oct  1 04:23:56 2021, MaxMem= 1073741824 cpu:       0.3
 (Enter /sw/target/amd/app/gaussian/Gaussian09RevA.02_gcc-4.9.2/g09/l607.exe)
 ******************************Gaussian NBO Version 3.1******************************
             N A T U R A L   A T O M I C   O R B I T A L   A N D
          N A T U R A L   B O N D   O R B I T A L   A N A L Y S I S
 ******************************Gaussian NBO Version 3.1******************************
       /RESON  / : Allow strongly delocalized NBO set

 Analyzing the CI density

 Job title: COC(=O)c1ccc(cc1)OC(=O)C_conf_0                                 

 Storage needed:    160682 in NPA (1073738704 available)


 NATURAL POPULATIONS:  Natural atomic orbital occupancies 
                                                          
   NAO  Atom  No  lang   Type(AO)    Occupancy
 --------------------------------------------
     1    C    1  S      Cor( 1S)     1.99943
     2    C    1  S      Val( 2S)     1.11402
     3    C    1  S      Ryd( 3S)     0.00142
     4    C    1  S      Ryd( 4S)     0.00002
     5    C    1  px     Val( 2p)     0.72005
     6    C    1  px     Ryd( 3p)     0.00272
     7    C    1  py     Val( 2p)     1.24384
     8    C    1  py     Ryd( 3p)     0.00322
     9    C    1  pz     Val( 2p)     1.23629
    10    C    1  pz     Ryd( 3p)     0.00047
    11    C    1  dxy    Ryd( 3d)     0.00117
    12    C    1  dxz    Ryd( 3d)     0.00143
    13    C    1  dyz    Ryd( 3d)     0.00097
    14    C    1  dx2y2  Ryd( 3d)     0.00172
    15    C    1  dz2    Ryd( 3d)     0.00106

    16    O    2  S      Cor( 1S)     1.99977
    17    O    2  S      Val( 2S)     1.62541
    18    O    2  S      Ryd( 3S)     0.00062
    19    O    2  S      Ryd( 4S)     0.00005
    20    O    2  px     Val( 2p)     1.42958
    21    O    2  px     Ryd( 3p)     0.00044
    22    O    2  py     Val( 2p)     1.58673
    23    O    2  py     Ryd( 3p)     0.00171
    24    O    2  pz     Val( 2p)     1.82432
    25    O    2  pz     Ryd( 3p)     0.00165
    26    O    2  dxy    Ryd( 3d)     0.00150
    27    O    2  dxz    Ryd( 3d)     0.00050
    28    O    2  dyz    Ryd( 3d)     0.00192
    29    O    2  dx2y2  Ryd( 3d)     0.00138
    30    O    2  dz2    Ryd( 3d)     0.00085

    31    C    3  S      Cor( 1S)     1.99931
    32    C    3  S      Val( 2S)     0.77055
    33    C    3  S      Ryd( 3S)     0.00398
    34    C    3  S      Ryd( 4S)     0.00047
    35    C    3  px     Val( 2p)     0.91070
    36    C    3  px     Ryd( 3p)     0.00458
    37    C    3  py     Val( 2p)     0.67200
    38    C    3  py     Ryd( 3p)     0.01753
    39    C    3  pz     Val( 2p)     0.93239
    40    C    3  pz     Ryd( 3p)     0.00199
    41    C    3  dxy    Ryd( 3d)     0.00225
    42    C    3  dxz    Ryd( 3d)     0.00202
    43    C    3  dyz    Ryd( 3d)     0.00257
    44    C    3  dx2y2  Ryd( 3d)     0.00207
    45    C    3  dz2    Ryd( 3d)     0.00057

    46    O    4  S      Cor( 1S)     1.99981
    47    O    4  S      Val( 2S)     1.71632
    48    O    4  S      Ryd( 3S)     0.00029
    49    O    4  S      Ryd( 4S)     0.00000
    50    O    4  px     Val( 2p)     1.18390
    51    O    4  px     Ryd( 3p)     0.00056
    52    O    4  py     Val( 2p)     1.52099
    53    O    4  py     Ryd( 3p)     0.00037
    54    O    4  pz     Val( 2p)     1.80777
    55    O    4  pz     Ryd( 3p)     0.00266
    56    O    4  dxy    Ryd( 3d)     0.00389
    57    O    4  dxz    Ryd( 3d)     0.00084
    58    O    4  dyz    Ryd( 3d)     0.00448
    59    O    4  dx2y2  Ryd( 3d)     0.00381
    60    O    4  dz2    Ryd( 3d)     0.00161

    61    C    5  S      Cor( 1S)     1.99888
    62    C    5  S      Val( 2S)     0.88603
    63    C    5  S      Ryd( 3S)     0.00049
    64    C    5  S      Ryd( 4S)     0.00004
    65    C    5  px     Val( 2p)     1.01657
    66    C    5  px     Ryd( 3p)     0.00475
    67    C    5  py     Val( 2p)     1.11980
    68    C    5  py     Ryd( 3p)     0.00563
    69    C    5  pz     Val( 2p)     1.18259
    70    C    5  pz     Ryd( 3p)     0.00200
    71    C    5  dxy    Ryd( 3d)     0.00056
    72    C    5  dxz    Ryd( 3d)     0.00083
    73    C    5  dyz    Ryd( 3d)     0.00059
    74    C    5  dx2y2  Ryd( 3d)     0.00080
    75    C    5  dz2    Ryd( 3d)     0.00042

    76    C    6  S      Cor( 1S)     1.99907
    77    C    6  S      Val( 2S)     0.94066
    78    C    6  S      Ryd( 3S)     0.00060
    79    C    6  S      Ryd( 4S)     0.00004
    80    C    6  px     Val( 2p)     1.08028
    81    C    6  px     Ryd( 3p)     0.00346
    82    C    6  py     Val( 2p)     1.16150
    83    C    6  py     Ryd( 3p)     0.00467
    84    C    6  pz     Val( 2p)     1.03682
    85    C    6  pz     Ryd( 3p)     0.00229
    86    C    6  dxy    Ryd( 3d)     0.00081
    87    C    6  dxz    Ryd( 3d)     0.00067
    88    C    6  dyz    Ryd( 3d)     0.00030
    89    C    6  dx2y2  Ryd( 3d)     0.00059
    90    C    6  dz2    Ryd( 3d)     0.00045

    91    C    7  S      Cor( 1S)     1.99902
    92    C    7  S      Val( 2S)     0.96010
    93    C    7  S      Ryd( 3S)     0.00074
    94    C    7  S      Ryd( 4S)     0.00005
    95    C    7  px     Val( 2p)     1.12100
    96    C    7  px     Ryd( 3p)     0.00433
    97    C    7  py     Val( 2p)     1.15190
    98    C    7  py     Ryd( 3p)     0.00456
    99    C    7  pz     Val( 2p)     1.01709
   100    C    7  pz     Ryd( 3p)     0.00110
   101    C    7  dxy    Ryd( 3d)     0.00076
   102    C    7  dxz    Ryd( 3d)     0.00064
   103    C    7  dyz    Ryd( 3d)     0.00056
   104    C    7  dx2y2  Ryd( 3d)     0.00060
   105    C    7  dz2    Ryd( 3d)     0.00044

   106    C    8  S      Cor( 1S)     1.99872
   107    C    8  S      Val( 2S)     0.83020
   108    C    8  S      Ryd( 3S)     0.00120
   109    C    8  S      Ryd( 4S)     0.00011
   110    C    8  px     Val( 2p)     0.74534
   111    C    8  px     Ryd( 3p)     0.00642
   112    C    8  py     Val( 2p)     1.07409
   113    C    8  py     Ryd( 3p)     0.00607
   114    C    8  pz     Val( 2p)     1.08296
   115    C    8  pz     Ryd( 3p)     0.00271
   116    C    8  dxy    Ryd( 3d)     0.00135
   117    C    8  dxz    Ryd( 3d)     0.00135
   118    C    8  dyz    Ryd( 3d)     0.00063
   119    C    8  dx2y2  Ryd( 3d)     0.00156
   120    C    8  dz2    Ryd( 3d)     0.00052

   121    C    9  S      Cor( 1S)     1.99902
   122    C    9  S      Val( 2S)     0.95970
   123    C    9  S      Ryd( 3S)     0.00076
   124    C    9  S      Ryd( 4S)     0.00005
   125    C    9  px     Val( 2p)     1.08039
   126    C    9  px     Ryd( 3p)     0.00484
   127    C    9  py     Val( 2p)     1.17754
   128    C    9  py     Ryd( 3p)     0.00461
   129    C    9  pz     Val( 2p)     1.02631
   130    C    9  pz     Ryd( 3p)     0.00102
   131    C    9  dxy    Ryd( 3d)     0.00080
   132    C    9  dxz    Ryd( 3d)     0.00073
   133    C    9  dyz    Ryd( 3d)     0.00042
   134    C    9  dx2y2  Ryd( 3d)     0.00056
   135    C    9  dz2    Ryd( 3d)     0.00046

   136    C   10  S      Cor( 1S)     1.99904
   137    C   10  S      Val( 2S)     0.94177
   138    C   10  S      Ryd( 3S)     0.00054
   139    C   10  S      Ryd( 4S)     0.00004
   140    C   10  px     Val( 2p)     1.10965
   141    C   10  px     Ryd( 3p)     0.00418
   142    C   10  py     Val( 2p)     1.13146
   143    C   10  py     Ryd( 3p)     0.00447
   144    C   10  pz     Val( 2p)     1.03937
   145    C   10  pz     Ryd( 3p)     0.00218
   146    C   10  dxy    Ryd( 3d)     0.00083
   147    C   10  dxz    Ryd( 3d)     0.00060
   148    C   10  dyz    Ryd( 3d)     0.00040
   149    C   10  dx2y2  Ryd( 3d)     0.00055
   150    C   10  dz2    Ryd( 3d)     0.00043

   151    O   11  S      Cor( 1S)     1.99970
   152    O   11  S      Val( 2S)     1.59663
   153    O   11  S      Ryd( 3S)     0.00149
   154    O   11  S      Ryd( 4S)     0.00009
   155    O   11  px     Val( 2p)     1.42228
   156    O   11  px     Ryd( 3p)     0.00103
   157    O   11  py     Val( 2p)     1.76783
   158    O   11  py     Ryd( 3p)     0.00223
   159    O   11  pz     Val( 2p)     1.74848
   160    O   11  pz     Ryd( 3p)     0.00135
   161    O   11  dxy    Ryd( 3d)     0.00102
   162    O   11  dxz    Ryd( 3d)     0.00072
   163    O   11  dyz    Ryd( 3d)     0.00119
   164    O   11  dx2y2  Ryd( 3d)     0.00113
   165    O   11  dz2    Ryd( 3d)     0.00111

   166    C   12  S      Cor( 1S)     1.99945
   167    C   12  S      Val( 2S)     0.78550
   168    C   12  S      Ryd( 3S)     0.00369
   169    C   12  S      Ryd( 4S)     0.00035
   170    C   12  px     Val( 2p)     0.85047
   171    C   12  px     Ryd( 3p)     0.00470
   172    C   12  py     Val( 2p)     0.74704
   173    C   12  py     Ryd( 3p)     0.01701
   174    C   12  pz     Val( 2p)     0.75397
   175    C   12  pz     Ryd( 3p)     0.00783
   176    C   12  dxy    Ryd( 3d)     0.00310
   177    C   12  dxz    Ryd( 3d)     0.00187
   178    C   12  dyz    Ryd( 3d)     0.00117
   179    C   12  dx2y2  Ryd( 3d)     0.00186
   180    C   12  dz2    Ryd( 3d)     0.00168

   181    O   13  S      Cor( 1S)     1.99978
   182    O   13  S      Val( 2S)     1.69801
   183    O   13  S      Ryd( 3S)     0.00061
   184    O   13  S      Ryd( 4S)     0.00009
   185    O   13  px     Val( 2p)     1.82554
   186    O   13  px     Ryd( 3p)     0.00169
   187    O   13  py     Val( 2p)     1.55739
   188    O   13  py     Ryd( 3p)     0.00052
   189    O   13  pz     Val( 2p)     1.48304
   190    O   13  pz     Ryd( 3p)     0.00068
   191    O   13  dxy    Ryd( 3d)     0.00350
   192    O   13  dxz    Ryd( 3d)     0.00158
   193    O   13  dyz    Ryd( 3d)     0.00471
   194    O   13  dx2y2  Ryd( 3d)     0.00370
   195    O   13  dz2    Ryd( 3d)     0.00307

   196    C   14  S      Cor( 1S)     1.99934
   197    C   14  S      Val( 2S)     1.13697
   198    C   14  S      Ryd( 3S)     0.00031
   199    C   14  S      Ryd( 4S)     0.00001
   200    C   14  px     Val( 2p)     1.13820
   201    C   14  px     Ryd( 3p)     0.00124
   202    C   14  py     Val( 2p)     1.24046
   203    C   14  py     Ryd( 3p)     0.00120
   204    C   14  pz     Val( 2p)     1.25239
   205    C   14  pz     Ryd( 3p)     0.00068
   206    C   14  dxy    Ryd( 3d)     0.00070
   207    C   14  dxz    Ryd( 3d)     0.00035
   208    C   14  dyz    Ryd( 3d)     0.00045
   209    C   14  dx2y2  Ryd( 3d)     0.00071
   210    C   14  dz2    Ryd( 3d)     0.00095

   211    H   15  S      Val( 1S)     0.76300
   212    H   15  S      Ryd( 2S)     0.00033

   213    H   16  S      Val( 1S)     0.78054
   214    H   16  S      Ryd( 2S)     0.00130

   215    H   17  S      Val( 1S)     0.78003
   216    H   17  S      Ryd( 2S)     0.00130

   217    H   18  S      Val( 1S)     0.76605
   218    H   18  S      Ryd( 2S)     0.00045

   219    H   19  S      Val( 1S)     0.74186
   220    H   19  S      Ryd( 2S)     0.00108

   221    H   20  S      Val( 1S)     0.75369
   222    H   20  S      Ryd( 2S)     0.00115

   223    H   21  S      Val( 1S)     0.75589
   224    H   21  S      Ryd( 2S)     0.00084

   225    H   22  S      Val( 1S)     0.74276
   226    H   22  S      Ryd( 2S)     0.00087

   227    H   23  S      Val( 1S)     0.74300
   228    H   23  S      Ryd( 2S)     0.00090

   229    H   24  S      Val( 1S)     0.74450
   230    H   24  S      Ryd( 2S)     0.00097

 WARNING:  1 low occupancy (<1.9990e) core orbital  found on  C    5
           1 low occupancy (<1.9990e) core orbital  found on  C    8


 Summary of Natural Population Analysis:                  
                                                          
                                       Natural Population 
                Natural  -----------------------------------------------
    Atom  No    Charge         Core      Valence    Rydberg      Total
 -----------------------------------------------------------------------
      C    1   -0.32784      1.99943     4.31420    0.01421     6.32784
      O    2   -0.47644      1.99977     6.46605    0.01063     8.47644
      C    3    0.67702      1.99931     3.28564    0.03803     5.32298
      O    4   -0.24730      1.99981     6.22897    0.01852     8.24730
      C    5   -0.22000      1.99888     4.20499    0.01613     6.22000
      C    6   -0.23222      1.99907     4.21927    0.01389     6.23222
      C    7   -0.26287      1.99902     4.25008    0.01377     6.26287
      C    8    0.24677      1.99872     3.73259    0.02192     5.75323
      C    9   -0.25722      1.99902     4.24395    0.01426     6.25722
      C   10   -0.23549      1.99904     4.22225    0.01420     6.23549
      O   11   -0.54630      1.99970     6.53523    0.01136     8.54630
      C   12    0.82031      1.99945     3.13698    0.04325     5.17969
      O   13   -0.58389      1.99978     6.56397    0.02014     8.58389
      C   14   -0.77398      1.99934     4.76803    0.00662     6.77398
      H   15    0.23666      0.00000     0.76300    0.00033     0.76334
      H   16    0.21816      0.00000     0.78054    0.00130     0.78184
      H   17    0.21867      0.00000     0.78003    0.00130     0.78133
      H   18    0.23350      0.00000     0.76605    0.00045     0.76650
      H   19    0.25705      0.00000     0.74186    0.00108     0.74295
      H   20    0.24516      0.00000     0.75369    0.00115     0.75484
      H   21    0.24327      0.00000     0.75589    0.00084     0.75673
      H   22    0.25637      0.00000     0.74276    0.00087     0.74363
      H   23    0.25609      0.00000     0.74300    0.00090     0.74391
      H   24    0.25453      0.00000     0.74450    0.00097     0.74547
 =======================================================================
   * Total *    0.00000     27.99033    73.74355    0.26612   102.00000

                                 Natural Population      
 --------------------------------------------------------
   Core                      27.99033 ( 99.9655% of  28)
   Valence                   73.74355 ( 99.6534% of  74)
   Natural Minimal Basis    101.73388 ( 99.7391% of 102)
   Natural Rydberg Basis      0.26612 (  0.2609% of 102)
 --------------------------------------------------------

    Atom  No          Natural Electron Configuration
 ----------------------------------------------------------------------------
      C    1      [core]2S( 1.11)2p( 3.20)3p( 0.01)3d( 0.01)
      O    2      [core]2S( 1.63)2p( 4.84)3d( 0.01)
      C    3      [core]2S( 0.77)2p( 2.52)3p( 0.02)3d( 0.01)
      O    4      [core]2S( 1.72)2p( 4.51)3d( 0.01)
      C    5      [core]2S( 0.89)2p( 3.32)3p( 0.01)
      C    6      [core]2S( 0.94)2p( 3.28)3p( 0.01)
      C    7      [core]2S( 0.96)2p( 3.29)3p( 0.01)
      C    8      [core]2S( 0.83)2p( 2.90)3p( 0.02)3d( 0.01)
      C    9      [core]2S( 0.96)2p( 3.28)3p( 0.01)
      C   10      [core]2S( 0.94)2p( 3.28)3p( 0.01)
      O   11      [core]2S( 1.60)2p( 4.94)3d( 0.01)
      C   12      [core]2S( 0.79)2p( 2.35)3p( 0.03)3d( 0.01)
      O   13      [core]2S( 1.70)2p( 4.87)3d( 0.02)
      C   14      [core]2S( 1.14)2p( 3.63)
      H   15            1S( 0.76)
      H   16            1S( 0.78)
      H   17            1S( 0.78)
      H   18            1S( 0.77)
      H   19            1S( 0.74)
      H   20            1S( 0.75)
      H   21            1S( 0.76)
      H   22            1S( 0.74)
      H   23            1S( 0.74)
      H   24            1S( 0.74)


 NBO analysis skipped by request.
 Leave Link  607 at Fri Oct  1 04:24:07 2021, MaxMem= 1073741824 cpu:      14.8
 (Enter /sw/target/amd/app/gaussian/Gaussian09RevA.02_gcc-4.9.2/g09/l9999.exe)
 1\1\GINC-HERMITE\SP\RTD-B3LYP-FC\6-31G(d)\C10H10O4\JSCHLEINITZ\01-Oct-
 2021\0\\#p TD(NStates=10, Root=1) b3lyp/6-31G* volume pop=NPA density=
 current Geom=AllCheck Guess=Read\\COC(=O)c1ccc(cc1)OC(=O)C_conf_0\\0,1
 \C,0,1.5456317167,3.2502921178,-1.0741489442\O,0,2.8945993317,2.763314
 5683,-1.1317396903\C,0,3.045783537,1.4493574058,-0.8403809527\O,0,2.11
 4432317,0.7250901136,-0.5470382836\C,0,4.4650707193,1.0090323826,-0.92
 14806018\C,0,4.75329694,-0.3332476042,-0.6414233813\C,0,6.0581129146,-
 0.813125123,-0.6976102812\C,0,7.0835354064,0.0702387941,-1.0448517808\
 C,0,6.8163577556,1.4120180487,-1.3230821851\C,0,5.5086755679,1.8811412
 332,-1.2614327999\O,0,8.4294342273,-0.2834347376,-1.0576786473\C,0,8.8
 608430661,-1.4887804876,-1.5588832558\O,0,8.1388336038,-2.329024823,-2
 .0322014458\C,0,10.3609139039,-1.5761331582,-1.4257535096\H,0,1.605945
 8782,4.3084961805,-1.3306319205\H,0,1.1322077617,3.1203145647,-0.07040
 99983\H,0,0.9134906069,2.7164276475,-1.7887907041\H,0,3.935417052,-0.9
 950662829,-0.3768515765\H,0,6.2741965137,-1.8518649359,-0.4874361193\H
 ,0,7.6395547136,2.0704925042,-1.5807641771\H,0,5.2929336056,2.92138141
 48,-1.4763644444\H,0,10.6508777344,-1.4807430745,-0.374201914\H,0,10.8
 360987821,-0.7541885196,-1.9710181747\H,0,10.7029745341,-2.5326309465,
 -1.82167629\\Version=AM64L-G09RevA.02\State=1-A\HF=-688.0056885\RMSD=5
 .916e-09\Dipole=-1.1088236,1.4396709,0.2928633\Quadrupole=12.6036671,-
 3.9017048,-8.7019623,-8.7340205,0.3262227,-3.4429297\PG=C01 [X(C10H10O
 4)]\\@


 "PERFECTION IS NOT AN ACCIDENT"
         --  EAGLE ELECTRIC MANUFACTURING CO.,INC. NY
 Job cpu time:  0 days  2 hours 31 minutes 22.6 seconds.
 File lengths (MBytes):  RWF=    182 Int=      0 D2E=      0 Chk=     25 Scr=      1
 Normal termination of Gaussian 09 at Fri Oct  1 04:24:09 2021.
