 Entering Gaussian System, Link 0=g09
 Input=C10H9BO2_2163_conf_0.com
 Output=C10H9BO2_2163_conf_0.log
 Initial command:
 /sw/target/amd/app/gaussian/Gaussian09RevA.02_gcc-4.9.2/g09/l1.exe /home/jschleinitz/gaussian/Gau-1103338.inp -scrdir=/home/jschleinitz/gaussian/
 Entering Link 1 = /sw/target/amd/app/gaussian/Gaussian09RevA.02_gcc-4.9.2/g09/l1.exe PID=   1103476.
  
 Copyright (c) 1988,1990,1992,1993,1995,1998,2003,2009, Gaussian, Inc.
                  All Rights Reserved.
  
 This is part of the Gaussian(R) 09 program.  It is based on
 the Gaussian(R) 03 system (copyright 2003, Gaussian, Inc.),
 the Gaussian(R) 98 system (copyright 1998, Gaussian, Inc.),
 the Gaussian(R) 94 system (copyright 1995, Gaussian, Inc.),
 the Gaussian 92(TM) system (copyright 1992, Gaussian, Inc.),
 the Gaussian 90(TM) system (copyright 1990, Gaussian, Inc.),
 the Gaussian 88(TM) system (copyright 1988, Gaussian, Inc.),
 the Gaussian 86(TM) system (copyright 1986, Carnegie Mellon
 University), and the Gaussian 82(TM) system (copyright 1983,
 Carnegie Mellon University). Gaussian is a federally registered
 trademark of Gaussian, Inc.
  
 This software contains proprietary and confidential information,
 including trade secrets, belonging to Gaussian, Inc.
  
 This software is provided under written license and may be
 used, copied, transmitted, or stored only in accord with that
 written license.
  
 The following legend is applicable only to US Government
 contracts under FAR:
  
                    RESTRICTED RIGHTS LEGEND
  
 Use, reproduction and disclosure by the US Government is
 subject to restrictions as set forth in subparagraphs (a)
 and (c) of the Commercial Computer Software - Restricted
 Rights clause in FAR 52.227-19.
  
 Gaussian, Inc.
 340 Quinnipiac St., Bldg. 40, Wallingford CT 06492
  
  
 ---------------------------------------------------------------
 Warning -- This program may not be used in any manner that
 competes with the business of Gaussian, Inc. or will provide
 assistance to any competitor of Gaussian, Inc.  The licensee
 of this program is prohibited from giving any competitor of
 Gaussian, Inc. access to this program.  By using this program,
 the user acknowledges that Gaussian, Inc. is engaged in the
 business of creating and licensing software in the field of
 computational chemistry and represents and warrants to the
 licensee that it is not a competitor of Gaussian, Inc. and that
 it will not use this program in any manner prohibited above.
 ---------------------------------------------------------------
  

 Cite this work as:
 Gaussian 09, Revision A.02,
 M. J. Frisch, G. W. Trucks, H. B. Schlegel, G. E. Scuseria, 
 M. A. Robb, J. R. Cheeseman, G. Scalmani, V. Barone, B. Mennucci, 
 G. A. Petersson, H. Nakatsuji, M. Caricato, X. Li, H. P. Hratchian, 
 A. F. Izmaylov, J. Bloino, G. Zheng, J. L. Sonnenberg, M. Hada, 
 M. Ehara, K. Toyota, R. Fukuda, J. Hasegawa, M. Ishida, T. Nakajima, 
 Y. Honda, O. Kitao, H. Nakai, T. Vreven, J. A. Montgomery, Jr., 
 J. E. Peralta, F. Ogliaro, M. Bearpark, J. J. Heyd, E. Brothers, 
 K. N. Kudin, V. N. Staroverov, R. Kobayashi, J. Normand, 
 K. Raghavachari, A. Rendell, J. C. Burant, S. S. Iyengar, J. Tomasi, 
 M. Cossi, N. Rega, J. M. Millam, M. Klene, J. E. Knox, J. B. Cross, 
 V. Bakken, C. Adamo, J. Jaramillo, R. Gomperts, R. E. Stratmann, 
 O. Yazyev, A. J. Austin, R. Cammi, C. Pomelli, J. W. Ochterski, 
 R. L. Martin, K. Morokuma, V. G. Zakrzewski, G. A. Voth, 
 P. Salvador, J. J. Dannenberg, S. Dapprich, A. D. Daniels, 
 O. Farkas, J. B. Foresman, J. V. Ortiz, J. Cioslowski, 
 and D. J. Fox, Gaussian, Inc., Wallingford CT, 2009.
 
 ******************************************
 Gaussian 09:  AM64L-G09RevA.02 11-Jun-2009
                 3-Oct-2021 
 ******************************************
 %nproc=3
 Will use up to    3 processors via shared memory.
 %mem=6gb
 %chk=C10H9BO2_2163_conf_0.chk
 -----------------------------------
 #p opt b3lyp/6-31G* scf=(xqc,tight)
 -----------------------------------
 1/14=-1,18=20,19=15,26=3,38=1/1,3;
 2/9=110,12=2,17=6,18=5,40=1/2;
 3/5=1,6=6,7=1,11=2,16=1,25=1,30=1,71=1,74=-5/1,2,3;
 4//1;
 5/5=2,8=3,13=1,32=2,38=5/2,8;
 6/7=2,8=2,9=2,10=2,28=1/1;
 7//1,2,3,16;
 1/14=-1,18=20,19=15/3(2);
 2/9=110/2;
 99//99;
 2/9=110/2;
 3/5=1,6=6,7=1,11=2,16=1,25=1,30=1,71=1,74=-5/1,2,3;
 4/5=5,16=3/1;
 5/5=2,8=3,13=1,32=2,38=5/2,8;
 7//1,2,3,16;
 1/14=-1,18=20,19=15/3(-5);
 2/9=110/2;
 6/7=2,8=2,9=2,10=2,19=2,28=1/1;
 99/9=1/99;
 Leave Link    1 at Sun Oct  3 15:07:16 2021, MaxMem=  805306368 cpu:       0.1
 (Enter /sw/target/amd/app/gaussian/Gaussian09RevA.02_gcc-4.9.2/g09/l101.exe)
 --------------------------
 OB(c1cccc2c1cccc2)O_conf_0
 --------------------------
 Symbolic Z-matrix:
 Charge =  0 Multiplicity = 1
 O                     2.74211   1.06652  -0.83835 
 B                     2.37686   0.00462   0.09283 
 C                     3.21688  -0.32802   1.41667 
 C                     2.73197  -1.40691   2.18416 
 C                     3.36555  -1.80653   3.35679 
 C                     4.50114  -1.14394   3.80118 
 C                     5.02001  -0.06642   3.07487 
 C                     4.38795   0.36281   1.86902 
 C                     4.96193   1.46066   1.18374 
 C                     6.10599   2.09699   1.67167 
 C                     6.70773   1.6622    2.84823 
 C                     6.16953   0.58643   3.54849 
 O                     1.19054  -0.7915   -0.2221 
 H                     3.28672   0.61467  -1.53169 
 H                     1.85013  -1.95913   1.88238 
 H                     2.97127  -2.63896   3.9257 
 H                     4.97606  -1.47487   4.71755 
 H                     4.55833   1.85619   0.27365 
 H                     6.52845   2.93492   1.13169 
 H                     7.59386   2.16101   3.21919 
 H                     6.6525    0.26337   4.46342 
 H                     0.43945  -0.29891   0.19561 
 
 NAtoms=     22 NQM=     22 NQMF=      0 NMic=      0 NMicF=      0 NTot=     22.
                    Isotopes and Nuclear Properties:
 (Nuclear quadrupole moments (NQMom) in fm**2, nuclear magnetic moments (NMagM)
  in nuclear magnetons)

  Atom         1           2           3           4           5           6           7           8           9          10
 IAtWgt=          16          11          12          12          12          12          12          12          12          12
 AtmWgt=  15.9949146  11.0093053  12.0000000  12.0000000  12.0000000  12.0000000  12.0000000  12.0000000  12.0000000  12.0000000
 NucSpn=           0           3           0           0           0           0           0           0           0           0
 AtZEff=   0.0000000   0.0000000   0.0000000   0.0000000   0.0000000   0.0000000   0.0000000   0.0000000   0.0000000   0.0000000
 NQMom=    0.0000000   4.0590000   0.0000000   0.0000000   0.0000000   0.0000000   0.0000000   0.0000000   0.0000000   0.0000000
 NMagM=    0.0000000   2.6886370   0.0000000   0.0000000   0.0000000   0.0000000   0.0000000   0.0000000   0.0000000   0.0000000

  Atom        11          12          13          14          15          16          17          18          19          20
 IAtWgt=          12          12          16           1           1           1           1           1           1           1
 AtmWgt=  12.0000000  12.0000000  15.9949146   1.0078250   1.0078250   1.0078250   1.0078250   1.0078250   1.0078250   1.0078250
 NucSpn=           0           0           0           1           1           1           1           1           1           1
 AtZEff=   0.0000000   0.0000000   0.0000000   0.0000000   0.0000000   0.0000000   0.0000000   0.0000000   0.0000000   0.0000000
 NQMom=    0.0000000   0.0000000   0.0000000   0.0000000   0.0000000   0.0000000   0.0000000   0.0000000   0.0000000   0.0000000
 NMagM=    0.0000000   0.0000000   0.0000000   2.7928460   2.7928460   2.7928460   2.7928460   2.7928460   2.7928460   2.7928460

  Atom        21          22
 IAtWgt=           1           1
 AtmWgt=   1.0078250   1.0078250
 NucSpn=           1           1
 AtZEff=   0.0000000   0.0000000
 NQMom=    0.0000000   0.0000000
 NMagM=    2.7928460   2.7928460
 Leave Link  101 at Sun Oct  3 15:07:17 2021, MaxMem=  805306368 cpu:       0.2
 (Enter /sw/target/amd/app/gaussian/Gaussian09RevA.02_gcc-4.9.2/g09/l103.exe)

 GradGradGradGradGradGradGradGradGradGradGradGradGradGradGradGradGradGrad
 Berny optimization.
 Initialization pass.
                           ----------------------------
                           !    Initial Parameters    !
                           ! (Angstroms and Degrees)  !
 --------------------------                            --------------------------
 ! Name  Definition              Value          Derivative Info.                !
 --------------------------------------------------------------------------------
 ! R1    R(1,2)                  1.4588         estimate D2E/DX2                !
 ! R2    R(1,14)                 0.9907         estimate D2E/DX2                !
 ! R3    R(2,3)                  1.6028         estimate D2E/DX2                !
 ! R4    R(2,13)                 1.463          estimate D2E/DX2                !
 ! R5    R(3,4)                  1.41           estimate D2E/DX2                !
 ! R6    R(3,8)                  1.4329         estimate D2E/DX2                !
 ! R7    R(4,5)                  1.3915         estimate D2E/DX2                !
 ! R8    R(4,15)                 1.0833         estimate D2E/DX2                !
 ! R9    R(5,6)                  1.3878         estimate D2E/DX2                !
 ! R10   R(5,16)                 1.0826         estimate D2E/DX2                !
 ! R11   R(6,7)                  1.3992         estimate D2E/DX2                !
 ! R12   R(6,17)                 1.0839         estimate D2E/DX2                !
 ! R13   R(7,8)                  1.4275         estimate D2E/DX2                !
 ! R14   R(7,12)                 1.4043         estimate D2E/DX2                !
 ! R15   R(8,9)                  1.4157         estimate D2E/DX2                !
 ! R16   R(9,10)                 1.3971         estimate D2E/DX2                !
 ! R17   R(9,18)                 1.0713         estimate D2E/DX2                !
 ! R18   R(10,11)                1.3912         estimate D2E/DX2                !
 ! R19   R(10,19)                1.0827         estimate D2E/DX2                !
 ! R20   R(11,12)                1.3919         estimate D2E/DX2                !
 ! R21   R(11,20)                1.0824         estimate D2E/DX2                !
 ! R22   R(12,21)                1.0839         estimate D2E/DX2                !
 ! R23   R(13,22)                0.9906         estimate D2E/DX2                !
 ! A1    A(2,1,14)             104.6174         estimate D2E/DX2                !
 ! A2    A(1,2,3)              123.1671         estimate D2E/DX2                !
 ! A3    A(1,2,13)             117.4991         estimate D2E/DX2                !
 ! A4    A(3,2,13)             119.3311         estimate D2E/DX2                !
 ! A5    A(2,3,4)              115.3498         estimate D2E/DX2                !
 ! A6    A(2,3,8)              126.0878         estimate D2E/DX2                !
 ! A7    A(4,3,8)              118.5624         estimate D2E/DX2                !
 ! A8    A(3,4,5)              121.4573         estimate D2E/DX2                !
 ! A9    A(3,4,15)             121.2207         estimate D2E/DX2                !
 ! A10   A(5,4,15)             117.322          estimate D2E/DX2                !
 ! A11   A(4,5,6)              120.3514         estimate D2E/DX2                !
 ! A12   A(4,5,16)             119.8581         estimate D2E/DX2                !
 ! A13   A(6,5,16)             119.7906         estimate D2E/DX2                !
 ! A14   A(5,6,7)              120.3237         estimate D2E/DX2                !
 ! A15   A(5,6,17)             118.9124         estimate D2E/DX2                !
 ! A16   A(7,6,17)             120.7639         estimate D2E/DX2                !
 ! A17   A(6,7,8)              120.3871         estimate D2E/DX2                !
 ! A18   A(6,7,12)             119.1116         estimate D2E/DX2                !
 ! A19   A(8,7,12)             120.5013         estimate D2E/DX2                !
 ! A20   A(3,8,7)              118.9181         estimate D2E/DX2                !
 ! A21   A(3,8,9)              123.5308         estimate D2E/DX2                !
 ! A22   A(7,8,9)              117.551          estimate D2E/DX2                !
 ! A23   A(8,9,10)             121.0737         estimate D2E/DX2                !
 ! A24   A(8,9,18)             123.0101         estimate D2E/DX2                !
 ! A25   A(10,9,18)            115.9162         estimate D2E/DX2                !
 ! A26   A(9,10,11)            120.4786         estimate D2E/DX2                !
 ! A27   A(9,10,19)            119.8577         estimate D2E/DX2                !
 ! A28   A(11,10,19)           119.6637         estimate D2E/DX2                !
 ! A29   A(10,11,12)           119.9861         estimate D2E/DX2                !
 ! A30   A(10,11,20)           119.9938         estimate D2E/DX2                !
 ! A31   A(12,11,20)           120.0201         estimate D2E/DX2                !
 ! A32   A(7,12,11)            120.4093         estimate D2E/DX2                !
 ! A33   A(7,12,21)            120.7245         estimate D2E/DX2                !
 ! A34   A(11,12,21)           118.8662         estimate D2E/DX2                !
 ! A35   A(2,13,22)            104.6827         estimate D2E/DX2                !
 ! D1    D(14,1,2,3)            94.0514         estimate D2E/DX2                !
 ! D2    D(14,1,2,13)          -85.3482         estimate D2E/DX2                !
 ! D3    D(1,2,3,4)           -178.707          estimate D2E/DX2                !
 ! D4    D(1,2,3,8)              1.2474         estimate D2E/DX2                !
 ! D5    D(13,2,3,4)             0.6821         estimate D2E/DX2                !
 ! D6    D(13,2,3,8)          -179.3636         estimate D2E/DX2                !
 ! D7    D(1,2,13,22)          -88.6644         estimate D2E/DX2                !
 ! D8    D(3,2,13,22)           91.9121         estimate D2E/DX2                !
 ! D9    D(2,3,4,5)            179.871          estimate D2E/DX2                !
 ! D10   D(2,3,4,15)            -0.0516         estimate D2E/DX2                !
 ! D11   D(8,3,4,5)             -0.0871         estimate D2E/DX2                !
 ! D12   D(8,3,4,15)           179.9903         estimate D2E/DX2                !
 ! D13   D(2,3,8,7)           -179.8519         estimate D2E/DX2                !
 ! D14   D(2,3,8,9)              0.2337         estimate D2E/DX2                !
 ! D15   D(4,3,8,7)              0.1012         estimate D2E/DX2                !
 ! D16   D(4,3,8,9)           -179.8133         estimate D2E/DX2                !
 ! D17   D(3,4,5,6)              0.0129         estimate D2E/DX2                !
 ! D18   D(3,4,5,16)          -179.9606         estimate D2E/DX2                !
 ! D19   D(15,4,5,6)           179.9384         estimate D2E/DX2                !
 ! D20   D(15,4,5,16)           -0.0351         estimate D2E/DX2                !
 ! D21   D(4,5,6,7)              0.047          estimate D2E/DX2                !
 ! D22   D(4,5,6,17)          -179.9892         estimate D2E/DX2                !
 ! D23   D(16,5,6,7)          -179.9795         estimate D2E/DX2                !
 ! D24   D(16,5,6,17)           -0.0157         estimate D2E/DX2                !
 ! D25   D(5,6,7,8)             -0.0303         estimate D2E/DX2                !
 ! D26   D(5,6,7,12)           179.9429         estimate D2E/DX2                !
 ! D27   D(17,6,7,8)          -179.9934         estimate D2E/DX2                !
 ! D28   D(17,6,7,12)           -0.0202         estimate D2E/DX2                !
 ! D29   D(6,7,8,3)             -0.0445         estimate D2E/DX2                !
 ! D30   D(6,7,8,9)            179.875          estimate D2E/DX2                !
 ! D31   D(12,7,8,3)           179.9827         estimate D2E/DX2                !
 ! D32   D(12,7,8,9)            -0.0977         estimate D2E/DX2                !
 ! D33   D(6,7,12,11)         -179.9296         estimate D2E/DX2                !
 ! D34   D(6,7,12,21)            0.0457         estimate D2E/DX2                !
 ! D35   D(8,7,12,11)            0.0435         estimate D2E/DX2                !
 ! D36   D(8,7,12,21)         -179.9812         estimate D2E/DX2                !
 ! D37   D(3,8,9,10)          -179.999          estimate D2E/DX2                !
 ! D38   D(3,8,9,18)             0.0911         estimate D2E/DX2                !
 ! D39   D(7,8,9,10)             0.0855         estimate D2E/DX2                !
 ! D40   D(7,8,9,18)          -179.8244         estimate D2E/DX2                !
 ! D41   D(8,9,10,11)           -0.0183         estimate D2E/DX2                !
 ! D42   D(8,9,10,19)         -179.9964         estimate D2E/DX2                !
 ! D43   D(18,9,10,11)         179.8977         estimate D2E/DX2                !
 ! D44   D(18,9,10,19)          -0.0804         estimate D2E/DX2                !
 ! D45   D(9,10,11,12)          -0.0396         estimate D2E/DX2                !
 ! D46   D(9,10,11,20)        -179.9957         estimate D2E/DX2                !
 ! D47   D(19,10,11,12)        179.9386         estimate D2E/DX2                !
 ! D48   D(19,10,11,20)         -0.0175         estimate D2E/DX2                !
 ! D49   D(10,11,12,7)           0.0266         estimate D2E/DX2                !
 ! D50   D(10,11,12,21)       -179.9491         estimate D2E/DX2                !
 ! D51   D(20,11,12,7)         179.9827         estimate D2E/DX2                !
 ! D52   D(20,11,12,21)          0.007          estimate D2E/DX2                !
 --------------------------------------------------------------------------------
 Trust Radius=3.00D-01 FncErr=1.00D-07 GrdErr=1.00D-06
 Number of steps in this run= 120 maximum allowed number of steps= 132.
 GradGradGradGradGradGradGradGradGradGradGradGradGradGradGradGradGradGrad

 Leave Link  103 at Sun Oct  3 15:07:21 2021, MaxMem=  805306368 cpu:       0.0
 (Enter /sw/target/amd/app/gaussian/Gaussian09RevA.02_gcc-4.9.2/g09/l202.exe)
                          Input orientation:                          
 ---------------------------------------------------------------------
 Center     Atomic      Atomic             Coordinates (Angstroms)
 Number     Number       Type             X           Y           Z
 ---------------------------------------------------------------------
      1          8           0        2.742115    1.066518   -0.838350
      2          5           0        2.376862    0.004625    0.092829
      3          6           0        3.216880   -0.328016    1.416670
      4          6           0        2.731969   -1.406912    2.184156
      5          6           0        3.365545   -1.806534    3.356786
      6          6           0        4.501136   -1.143935    3.801177
      7          6           0        5.020009   -0.066422    3.074870
      8          6           0        4.387955    0.362807    1.869024
      9          6           0        4.961934    1.460658    1.183742
     10          6           0        6.105986    2.096986    1.671674
     11          6           0        6.707726    1.662196    2.848231
     12          6           0        6.169530    0.586429    3.548486
     13          8           0        1.190535   -0.791496   -0.222099
     14          1           0        3.286718    0.614669   -1.531687
     15          1           0        1.850135   -1.959128    1.882383
     16          1           0        2.971266   -2.638956    3.925699
     17          1           0        4.976056   -1.474872    4.717549
     18          1           0        4.558330    1.856190    0.273645
     19          1           0        6.528446    2.934924    1.131689
     20          1           0        7.593862    2.161014    3.219192
     21          1           0        6.652505    0.263370    4.463418
     22          1           0        0.439445   -0.298906    0.195611
 ---------------------------------------------------------------------
                    Distance matrix (angstroms):
                    1          2          3          4          5
     1  O    0.000000
     2  B    1.458808   0.000000
     3  C    2.693556   1.602759   0.000000
     4  C    3.905574   2.547977   1.410033   0.000000
     5  C    5.122720   3.861503   2.443802   1.391465   0.000000
     6  C    5.431894   4.425333   2.828588   2.411196   1.387836
     7  C    4.667509   3.985453   2.463601   2.797393   2.417585
     8  C    3.245592   2.706964   1.432925   2.444075   2.822198
     9  C    3.028497   3.161126   2.509745   3.767828   4.236168
    10  C    4.321772   4.558190   3.780555   4.891210   5.058369
    11  C    5.447181   5.394086   4.265714   5.066267   4.843645
    12  C    5.587664   5.163757   3.754862   4.201384   3.691254
    13  O    2.497875   1.462997   2.646971   2.923153   4.309222
    14  H    0.990695   1.959348   3.096182   4.266384   5.455787
    15  H    4.165639   2.708555   2.178396   1.083347   2.119815
    16  H    6.039802   4.693903   3.419941   2.146664   1.082610
    17  H    6.505165   5.507518   3.912260   3.385058   2.134343
    18  H    2.271289   2.867018   2.806555   4.199224   4.933968
    19  H    4.659217   5.186669   4.657731   5.862804   6.118532
    20  H    6.418801   6.453003   5.348114   6.118774   5.799917
    21  H    6.636636   6.119650   4.629895   4.832750   4.038965
    22  H    2.869799   1.963741   3.034136   3.230737   4.563774
                    6          7          8          9         10
     6  C    0.000000
     7  C    1.399209   0.000000
     8  C    2.452815   1.427514   0.000000
     9  C    3.721184   2.431401   1.415747   0.000000
    10  C    4.196892   2.797971   2.449073   1.397086   0.000000
    11  C    3.694796   2.426495   2.833478   2.420523   1.391193
    12  C    2.416930   1.404253   2.458579   2.795457   2.410030
    13  O    5.222169   5.104959   3.991078   4.612162   6.007609
    14  H    5.745167   4.968758   3.583433   3.300849   4.517419
    15  H    3.372554   3.879750   3.439780   4.676144   5.882919
    16  H    2.142684   3.396938   3.904805   5.318639   6.110340
    17  H    1.083884   2.164268   3.440498   4.594054   4.828278
    18  H    4.631145   3.428767   2.191906   1.071269   2.099454
    19  H    5.279512   3.880647   3.426537   2.151774   1.082680
    20  H    4.563589   3.406908   3.915909   3.400088   2.147716
    21  H    2.654705   2.168380   3.445135   3.879150   3.384474
    22  H    5.496501   5.415325   4.339228   4.952310   6.326828
                   11         12         13         14         15
    11  C    0.000000
    12  C    1.391865   0.000000
    13  O    6.773989   6.395810   0.000000
    14  H    5.655466   5.841196   2.843642   0.000000
    15  H    6.135393   5.283269   2.495452   4.510441   0.000000
    16  H    5.798447   4.557882   4.877330   6.361498   2.427807
    17  H    4.041563   2.653310   6.260775   6.802426   4.247829
    18  H    3.359468   3.864303   4.312545   2.533298   4.947627
    19  H    2.144410   3.388976   6.649229   4.794368   6.811893
    20  H    1.082436   2.148598   7.846171   6.596478   7.193958
    21  H    2.137427   1.083851   7.273234   6.884274   5.887614
    22  H    7.083337   6.697721   0.990587   3.453279   2.755283
                   16         17         18         19         20
    16  H    0.000000
    17  H    2.449755   0.000000
    18  H    6.005215   5.569448   0.000000
    19  H    7.178312   5.891911   2.404426   0.000000
    20  H    6.701288   4.724156   4.240709   2.468140   0.000000
    21  H    4.718491   2.428281   4.947407   4.272354   2.456686
    22  H    5.079322   6.512424   4.649273   6.957718   8.147326
                   21         22
    21  H    0.000000
    22  H    7.558601   0.000000
 Stoichiometry    C10H9BO2
 Framework group  C1[X(C10H9BO2)]
 Deg. of freedom    60
 Full point group                 C1      NOp   1
 Largest Abelian subgroup         C1      NOp   1
 Largest concise Abelian subgroup C1      NOp   1
                         Standard orientation:                         
 ---------------------------------------------------------------------
 Center     Atomic      Atomic             Coordinates (Angstroms)
 Number     Number       Type             X           Y           Z
 ---------------------------------------------------------------------
      1          8           0       -2.276606   -2.063668    0.009323
      2          5           0       -2.305522   -0.605180   -0.000554
      3          6           0       -0.981582    0.298139    0.005067
      4          6           0       -1.201078    1.690871    0.022712
      5          6           0       -0.141627    2.592898    0.032041
      6          6           0        1.168724    2.135732    0.023815
      7          6           0        1.437809    0.762769    0.005062
      8          6           0        0.368252   -0.182609   -0.005163
      9          6           0        0.708919   -1.556588   -0.026821
     10          6           0        2.043880   -1.968465   -0.035950
     11          6           0        3.071681   -1.030965   -0.024249
     12          6           0        2.773147    0.328359   -0.004124
     13          8           0       -3.616359    0.044482   -0.002706
     14          1           0       -2.347727   -2.308665    0.966608
     15          1           0       -2.203647    2.101276    0.030803
     16          1           0       -0.339932    3.657096    0.046223
     17          1           0        1.976080    2.858865    0.031552
     18          1           0       -0.022592   -2.339129   -0.038590
     19          1           0        2.282043   -3.024494   -0.052604
     20          1           0        4.103247   -1.358816   -0.031517
     21          1           0        3.588008    1.042971    0.003896
     22          1           0       -3.852901    0.129446   -0.960877
 ---------------------------------------------------------------------
 Rotational constants (GHZ):      1.2922973      0.6732098      0.4441297
 Leave Link  202 at Sun Oct  3 15:07:22 2021, MaxMem=  805306368 cpu:       0.0
 (Enter /sw/target/amd/app/gaussian/Gaussian09RevA.02_gcc-4.9.2/g09/l301.exe)
 Standard basis: 6-31G(d) (6D, 7F)
 Ernie: Thresh=  0.10000D-02 Tol=  0.10000D-05 Strict=F.
 There are   213 symmetry adapted basis functions of A   symmetry.
 Integral buffers will be    131072 words long.
 Raffenetti 2 integral format.
 Two-electron integral symmetry is turned on.
   213 basis functions,   400 primitive gaussians,   213 cartesian basis functions
    45 alpha electrons       45 beta electrons
       nuclear repulsion energy       702.5558099636 Hartrees.
 IExCor=  402 DFT=T Ex+Corr=B3LYP ExCW=0 ScaHFX=  0.200000
 ScaDFX=  0.800000  0.720000  1.000000  0.810000 ScalE2=  1.000000  1.000000
 IRadAn=      0 IRanWt=     -1 IRanGd=            0 ICorTp=0
 NAtoms=   22 NActive=   22 NUniq=   22 SFac= 7.50D-01 NAtFMM=   80 NAOKFM=F Big=F
 Leave Link  301 at Sun Oct  3 15:07:23 2021, MaxMem=  805306368 cpu:       0.1
 (Enter /sw/target/amd/app/gaussian/Gaussian09RevA.02_gcc-4.9.2/g09/l302.exe)
 NPDir=0 NMtPBC=     1 NCelOv=     1 NCel=       1 NClECP=     1 NCelD=      1
         NCelK=      1 NCelE2=     1 NClLst=     1 CellRange=     0.0.
 One-electron integrals computed using PRISM.
 NBasis=   213 RedAO= T  NBF=   213
 NBsUse=   213 1.00D-06 NBFU=   213
 Precomputing XC quadrature grid using
 IXCGrd= 2 IRadAn=           0 IRanWt=          -1 IRanGd=           0 AccXCQ= 1.00D-10.
 NRdTot=    1379 NPtTot=      175482 NUsed=      185434 NTot=      185466
 NSgBfM=   212   212   212   212   212 NAtAll=    22    22.
 Leave Link  302 at Sun Oct  3 15:07:30 2021, MaxMem=  805306368 cpu:       1.4
 (Enter /sw/target/amd/app/gaussian/Gaussian09RevA.02_gcc-4.9.2/g09/l303.exe)
 DipDrv:  MaxL=1.
 Leave Link  303 at Sun Oct  3 15:07:32 2021, MaxMem=  805306368 cpu:       0.1
 (Enter /sw/target/amd/app/gaussian/Gaussian09RevA.02_gcc-4.9.2/g09/l401.exe)
 Harris functional with IExCor=  402 diagonalized for initial guess.
 ExpMin= 1.27D-01 ExpMax= 5.48D+03 ExpMxC= 8.25D+02 IAcc=1 IRadAn=         1 AccDes= 0.00D+00
 HarFok:  IExCor=  402 AccDes= 0.00D+00 IRadAn=         1 IDoV= 1
 ScaDFX=  1.000000  1.000000  1.000000  1.000000
 FoFCou: FMM=F IPFlag=           0 FMFlag=      100000 FMFlg1=           0
         NFxFlg=           0 DoJE=T BraDBF=F KetDBF=T FulRan=T
         Omega=  0.000000  0.000000  1.000000  0.000000  0.000000 ICntrl=     500 IOpCl=  0
         NMat0=    1 NMatS0=    1 NMatT0=    0 NMatD0=    1 NMtDS0=    0 NMtDT0=    0
         I1Cent=           4 NGrid=           0.
 Petite list used in FoFCou.
 Harris En= -561.973096767059    
 Initial guess orbital symmetries:
       Occupied  (A) (A) (A) (A) (A) (A) (A) (A) (A) (A) (A) (A)
                 (A) (A) (A) (A) (A) (A) (A) (A) (A) (A) (A) (A)
                 (A) (A) (A) (A) (A) (A) (A) (A) (A) (A) (A) (A)
                 (A) (A) (A) (A) (A) (A) (A) (A) (A)
       Virtual   (A) (A) (A) (A) (A) (A) (A) (A) (A) (A) (A) (A)
                 (A) (A) (A) (A) (A) (A) (A) (A) (A) (A) (A) (A)
                 (A) (A) (A) (A) (A) (A) (A) (A) (A) (A) (A) (A)
                 (A) (A) (A) (A) (A) (A) (A) (A) (A) (A) (A) (A)
                 (A) (A) (A) (A) (A) (A) (A) (A) (A) (A) (A) (A)
                 (A) (A) (A) (A) (A) (A) (A) (A) (A) (A) (A) (A)
                 (A) (A) (A) (A) (A) (A) (A) (A) (A) (A) (A) (A)
                 (A) (A) (A) (A) (A) (A) (A) (A) (A) (A) (A) (A)
                 (A) (A) (A) (A) (A) (A) (A) (A) (A) (A) (A) (A)
                 (A) (A) (A) (A) (A) (A) (A) (A) (A) (A) (A) (A)
                 (A) (A) (A) (A) (A) (A) (A) (A) (A) (A) (A) (A)
                 (A) (A) (A) (A) (A) (A) (A) (A) (A) (A) (A) (A)
                 (A) (A) (A) (A) (A) (A) (A) (A) (A) (A) (A) (A)
                 (A) (A) (A) (A) (A) (A) (A) (A) (A) (A) (A) (A)
 The electronic state of the initial guess is 1-A.
 Leave Link  401 at Sun Oct  3 15:07:50 2021, MaxMem=  805306368 cpu:       7.0
 (Enter /sw/target/amd/app/gaussian/Gaussian09RevA.02_gcc-4.9.2/g09/l502.exe)
 Closed shell SCF:
 Requested convergence on RMS density matrix=1.00D-08 within  64 cycles.
 Requested convergence on MAX density matrix=1.00D-06.
 Requested convergence on             energy=1.00D-06.
 No special actions if energy rises.
 Using DIIS extrapolation, IDIIS=  1040.
 Integral symmetry usage will be decided dynamically.
       185223 words used for storage of precomputed grid.
 Keep R1 ints in memory in canonical form, NReq=264956066.
 IEnd=      329751 IEndB=      329751 NGot=   805306368 MDV=   545300160
 LenX=   545300160 LenY=   545254350
 Symmetry not used in FoFDir.
 MinBra= 0 MaxBra= 2 Meth= 1.
 IRaf=       0 NMat=   1 IRICut=       1 DoRegI=T DoRafI=F ISym2E= 0 JSym2E=0.
 Integral accuracy reduced to 1.0D-05 until final iterations.

 Cycle   1  Pass 0  IDiag  1:
 E= -561.509814604073    
 DIIS: error= 4.15D-02 at cycle   1 NSaved=   1.
 NSaved= 1 IEnMin= 1 EnMin= -561.509814604073     IErMin= 1 ErrMin= 4.15D-02
 ErrMax= 4.15D-02 EMaxC= 1.00D-01 BMatC= 3.64D-01 BMatP= 3.64D-01
 IDIUse=3 WtCom= 5.85D-01 WtEn= 4.15D-01
 Coeff-Com:  0.100D+01
 Coeff-En:   0.100D+01
 Coeff:      0.100D+01
 Gap=     0.149 Goal=   None    Shift=    0.000
 GapD=    0.149 DampG=1.000 DampE=0.500 DampFc=0.5000 IDamp=-1.
 Damping current iteration by 5.00D-01
 RMSDP=6.68D-03 MaxDP=1.58D-01              OVMax= 1.84D-01

 Cycle   2  Pass 0  IDiag  1:
 E= -561.656813468394     Delta-E=       -0.146998864320 Rises=F Damp=T
 DIIS: error= 7.45D-03 at cycle   2 NSaved=   2.
 NSaved= 2 IEnMin= 2 EnMin= -561.656813468394     IErMin= 2 ErrMin= 7.45D-03
 ErrMax= 7.45D-03 EMaxC= 1.00D-01 BMatC= 2.45D-02 BMatP= 3.64D-01
 IDIUse=3 WtCom= 9.25D-01 WtEn= 7.45D-02
 Coeff-Com:  0.111D+00 0.889D+00
 Coeff-En:   0.150D+00 0.850D+00
 Coeff:      0.114D+00 0.886D+00
 Gap=     0.161 Goal=   None    Shift=    0.000
 RMSDP=1.79D-03 MaxDP=5.13D-02 DE=-1.47D-01 OVMax= 1.12D-01

 Cycle   3  Pass 0  IDiag  1:
 E= -561.847245806142     Delta-E=       -0.190432337749 Rises=F Damp=F
 DIIS: error= 4.79D-03 at cycle   3 NSaved=   3.
 NSaved= 3 IEnMin= 3 EnMin= -561.847245806142     IErMin= 3 ErrMin= 4.79D-03
 ErrMax= 4.79D-03 EMaxC= 1.00D-01 BMatC= 1.22D-02 BMatP= 2.45D-02
 IDIUse=3 WtCom= 9.52D-01 WtEn= 4.79D-02
 Coeff-Com:  0.619D-02 0.401D+00 0.593D+00
 Coeff-En:   0.000D+00 0.000D+00 0.100D+01
 Coeff:      0.589D-02 0.382D+00 0.612D+00
 Gap=     0.153 Goal=   None    Shift=    0.000
 RMSDP=7.60D-04 MaxDP=2.19D-02 DE=-1.90D-01 OVMax= 3.90D-02

 Cycle   4  Pass 0  IDiag  1:
 E= -561.855493760444     Delta-E=       -0.008247954301 Rises=F Damp=F
 DIIS: error= 2.80D-03 at cycle   4 NSaved=   4.
 NSaved= 4 IEnMin= 4 EnMin= -561.855493760444     IErMin= 4 ErrMin= 2.80D-03
 ErrMax= 2.80D-03 EMaxC= 1.00D-01 BMatC= 2.47D-03 BMatP= 1.22D-02
 IDIUse=3 WtCom= 9.72D-01 WtEn= 2.80D-02
 Coeff-Com: -0.593D-02 0.985D-01 0.336D+00 0.572D+00
 Coeff-En:   0.000D+00 0.000D+00 0.185D+00 0.815D+00
 Coeff:     -0.576D-02 0.958D-01 0.332D+00 0.578D+00
 Gap=     0.152 Goal=   None    Shift=    0.000
 RMSDP=3.55D-04 MaxDP=1.32D-02 DE=-8.25D-03 OVMax= 3.12D-02

 Cycle   5  Pass 0  IDiag  1:
 E= -561.857498327318     Delta-E=       -0.002004566875 Rises=F Damp=F
 DIIS: error= 2.10D-03 at cycle   5 NSaved=   5.
 NSaved= 5 IEnMin= 5 EnMin= -561.857498327318     IErMin= 5 ErrMin= 2.10D-03
 ErrMax= 2.10D-03 EMaxC= 1.00D-01 BMatC= 4.71D-04 BMatP= 2.47D-03
 IDIUse=3 WtCom= 9.79D-01 WtEn= 2.10D-02
 Coeff-Com: -0.420D-02 0.271D-01 0.159D+00 0.373D+00 0.445D+00
 Coeff-En:   0.000D+00 0.000D+00 0.000D+00 0.169D+00 0.831D+00
 Coeff:     -0.412D-02 0.265D-01 0.156D+00 0.369D+00 0.453D+00
 Gap=     0.152 Goal=   None    Shift=    0.000
 RMSDP=1.41D-04 MaxDP=4.57D-03 DE=-2.00D-03 OVMax= 1.54D-02

 Cycle   6  Pass 0  IDiag  1:
 E= -561.858003985350     Delta-E=       -0.000505658032 Rises=F Damp=F
 DIIS: error= 5.59D-04 at cycle   6 NSaved=   6.
 NSaved= 6 IEnMin= 6 EnMin= -561.858003985350     IErMin= 6 ErrMin= 5.59D-04
 ErrMax= 5.59D-04 EMaxC= 1.00D-01 BMatC= 3.67D-05 BMatP= 4.71D-04
 IDIUse=3 WtCom= 9.94D-01 WtEn= 5.59D-03
 Coeff-Com: -0.163D-02 0.381D-02 0.475D-01 0.137D+00 0.266D+00 0.547D+00
 Coeff-En:   0.000D+00 0.000D+00 0.000D+00 0.000D+00 0.533D-01 0.947D+00
 Coeff:     -0.162D-02 0.379D-02 0.473D-01 0.137D+00 0.265D+00 0.549D+00
 Gap=     0.152 Goal=   None    Shift=    0.000
 RMSDP=3.83D-05 MaxDP=1.04D-03 DE=-5.06D-04 OVMax= 3.90D-03

 Cycle   7  Pass 0  IDiag  1:
 E= -561.858044142087     Delta-E=       -0.000040156736 Rises=F Damp=F
 DIIS: error= 6.67D-05 at cycle   7 NSaved=   7.
 NSaved= 7 IEnMin= 7 EnMin= -561.858044142087     IErMin= 7 ErrMin= 6.67D-05
 ErrMax= 6.67D-05 EMaxC= 1.00D-01 BMatC= 1.65D-06 BMatP= 3.67D-05
 IDIUse=1 WtCom= 1.00D+00 WtEn= 0.00D+00
 Coeff-Com: -0.683D-03 0.603D-03 0.178D-01 0.568D-01 0.121D+00 0.298D+00
 Coeff-Com:  0.506D+00
 Coeff:     -0.683D-03 0.603D-03 0.178D-01 0.568D-01 0.121D+00 0.298D+00
 Coeff:      0.506D+00
 Gap=     0.152 Goal=   None    Shift=    0.000
 RMSDP=7.77D-06 MaxDP=2.50D-04 DE=-4.02D-05 OVMax= 6.37D-04

 Initial convergence to 1.0D-05 achieved.  Increase integral accuracy.
 Cycle   8  Pass 1  IDiag  1:
 E= -561.857990279430     Delta-E=        0.000053862657 Rises=F Damp=F
 DIIS: error= 2.17D-05 at cycle   1 NSaved=   1.
 NSaved= 1 IEnMin= 1 EnMin= -561.857990279430     IErMin= 1 ErrMin= 2.17D-05
 ErrMax= 2.17D-05 EMaxC= 1.00D-01 BMatC= 1.83D-07 BMatP= 1.83D-07
 IDIUse=1 WtCom= 1.00D+00 WtEn= 0.00D+00
 Coeff-Com:  0.100D+01
 Coeff:      0.100D+01
 Gap=     0.152 Goal=   None    Shift=    0.000
 RMSDP=7.77D-06 MaxDP=2.50D-04 DE= 5.39D-05 OVMax= 4.09D-04

 Cycle   9  Pass 1  IDiag  1:
 E= -561.857990038755     Delta-E=        0.000000240675 Rises=F Damp=F
 DIIS: error= 3.98D-05 at cycle   2 NSaved=   2.
 NSaved= 2 IEnMin= 1 EnMin= -561.857990279430     IErMin= 1 ErrMin= 2.17D-05
 ErrMax= 3.98D-05 EMaxC= 1.00D-01 BMatC= 4.17D-07 BMatP= 1.83D-07
 IDIUse=1 WtCom= 1.00D+00 WtEn= 0.00D+00
 Coeff-Com:  0.613D+00 0.387D+00
 Coeff:      0.613D+00 0.387D+00
 Gap=     0.152 Goal=   None    Shift=    0.000
 RMSDP=3.79D-06 MaxDP=1.09D-04 DE= 2.41D-07 OVMax= 2.98D-04

 Cycle  10  Pass 1  IDiag  1:
 E= -561.857990500678     Delta-E=       -0.000000461923 Rises=F Damp=F
 DIIS: error= 5.22D-06 at cycle   3 NSaved=   3.
 NSaved= 3 IEnMin= 3 EnMin= -561.857990500678     IErMin= 3 ErrMin= 5.22D-06
 ErrMax= 5.22D-06 EMaxC= 1.00D-01 BMatC= 7.83D-09 BMatP= 1.83D-07
 IDIUse=1 WtCom= 1.00D+00 WtEn= 0.00D+00
 Coeff-Com:  0.731D-01 0.128D+00 0.799D+00
 Coeff:      0.731D-01 0.128D+00 0.799D+00
 Gap=     0.152 Goal=   None    Shift=    0.000
 RMSDP=7.54D-07 MaxDP=2.12D-05 DE=-4.62D-07 OVMax= 6.34D-05

 Cycle  11  Pass 1  IDiag  1:
 E= -561.857990505038     Delta-E=       -0.000000004360 Rises=F Damp=F
 DIIS: error= 3.34D-06 at cycle   4 NSaved=   4.
 NSaved= 4 IEnMin= 4 EnMin= -561.857990505038     IErMin= 4 ErrMin= 3.34D-06
 ErrMax= 3.34D-06 EMaxC= 1.00D-01 BMatC= 4.17D-09 BMatP= 7.83D-09
 IDIUse=1 WtCom= 1.00D+00 WtEn= 0.00D+00
 Coeff-Com: -0.986D-02 0.455D-01 0.509D+00 0.455D+00
 Coeff:     -0.986D-02 0.455D-01 0.509D+00 0.455D+00
 Gap=     0.152 Goal=   None    Shift=    0.000
 RMSDP=3.99D-07 MaxDP=1.17D-05 DE=-4.36D-09 OVMax= 3.29D-05

 Cycle  12  Pass 1  IDiag  1:
 E= -561.857990509413     Delta-E=       -0.000000004375 Rises=F Damp=F
 DIIS: error= 8.87D-07 at cycle   5 NSaved=   5.
 NSaved= 5 IEnMin= 5 EnMin= -561.857990509413     IErMin= 5 ErrMin= 8.87D-07
 ErrMax= 8.87D-07 EMaxC= 1.00D-01 BMatC= 2.10D-10 BMatP= 4.17D-09
 IDIUse=1 WtCom= 1.00D+00 WtEn= 0.00D+00
 Coeff-Com: -0.112D-01 0.193D-01 0.255D+00 0.268D+00 0.470D+00
 Coeff:     -0.112D-01 0.193D-01 0.255D+00 0.268D+00 0.470D+00
 Gap=     0.152 Goal=   None    Shift=    0.000
 RMSDP=8.41D-08 MaxDP=3.26D-06 DE=-4.37D-09 OVMax= 8.09D-06

 Cycle  13  Pass 1  IDiag  1:
 E= -561.857990509612     Delta-E=       -0.000000000199 Rises=F Damp=F
 DIIS: error= 2.75D-07 at cycle   6 NSaved=   6.
 NSaved= 6 IEnMin= 6 EnMin= -561.857990509612     IErMin= 6 ErrMin= 2.75D-07
 ErrMax= 2.75D-07 EMaxC= 1.00D-01 BMatC= 1.39D-11 BMatP= 2.10D-10
 IDIUse=1 WtCom= 1.00D+00 WtEn= 0.00D+00
 Coeff-Com: -0.544D-02 0.723D-02 0.101D+00 0.112D+00 0.266D+00 0.520D+00
 Coeff:     -0.544D-02 0.723D-02 0.101D+00 0.112D+00 0.266D+00 0.520D+00
 Gap=     0.152 Goal=   None    Shift=    0.000
 RMSDP=2.68D-08 MaxDP=7.55D-07 DE=-1.99D-10 OVMax= 2.28D-06

 Cycle  14  Pass 1  IDiag  1:
 E= -561.857990509626     Delta-E=       -0.000000000014 Rises=F Damp=F
 DIIS: error= 1.02D-07 at cycle   7 NSaved=   7.
 NSaved= 7 IEnMin= 7 EnMin= -561.857990509626     IErMin= 7 ErrMin= 1.02D-07
 ErrMax= 1.02D-07 EMaxC= 1.00D-01 BMatC= 2.02D-12 BMatP= 1.39D-11
 IDIUse=1 WtCom= 1.00D+00 WtEn= 0.00D+00
 Coeff-Com: -0.133D-02 0.147D-02 0.199D-01 0.229D-01 0.800D-01 0.300D+00
 Coeff-Com:  0.577D+00
 Coeff:     -0.133D-02 0.147D-02 0.199D-01 0.229D-01 0.800D-01 0.300D+00
 Coeff:      0.577D+00
 Gap=     0.152 Goal=   None    Shift=    0.000
 RMSDP=9.55D-09 MaxDP=2.79D-07 DE=-1.36D-11 OVMax= 1.03D-06

 SCF Done:  E(RB3LYP) =  -561.857990510     A.U. after   14 cycles
             Convg  =    0.9548D-08             -V/T =  2.0097
 KE= 5.564458599968D+02 PE=-2.712992958063D+03 EE= 8.921332975932D+02
 Leave Link  502 at Sun Oct  3 15:14:43 2021, MaxMem=  805306368 cpu:     157.5
 (Enter /sw/target/amd/app/gaussian/Gaussian09RevA.02_gcc-4.9.2/g09/l508.exe)
 QCSCF skips out because SCF is already converged.
 Leave Link  508 at Sun Oct  3 15:14:45 2021, MaxMem=  805306368 cpu:       0.0
 (Enter /sw/target/amd/app/gaussian/Gaussian09RevA.02_gcc-4.9.2/g09/l601.exe)
 Copying SCF densities to generalized density rwf, IOpCl= 0 IROHF=0.

 **********************************************************************

            Population analysis using the SCF density.

 **********************************************************************

 Orbital symmetries:
       Occupied  (A) (A) (A) (A) (A) (A) (A) (A) (A) (A) (A) (A)
                 (A) (A) (A) (A) (A) (A) (A) (A) (A) (A) (A) (A)
                 (A) (A) (A) (A) (A) (A) (A) (A) (A) (A) (A) (A)
                 (A) (A) (A) (A) (A) (A) (A) (A) (A)
       Virtual   (A) (A) (A) (A) (A) (A) (A) (A) (A) (A) (A) (A)
                 (A) (A) (A) (A) (A) (A) (A) (A) (A) (A) (A) (A)
                 (A) (A) (A) (A) (A) (A) (A) (A) (A) (A) (A) (A)
                 (A) (A) (A) (A) (A) (A) (A) (A) (A) (A) (A) (A)
                 (A) (A) (A) (A) (A) (A) (A) (A) (A) (A) (A) (A)
                 (A) (A) (A) (A) (A) (A) (A) (A) (A) (A) (A) (A)
                 (A) (A) (A) (A) (A) (A) (A) (A) (A) (A) (A) (A)
                 (A) (A) (A) (A) (A) (A) (A) (A) (A) (A) (A) (A)
                 (A) (A) (A) (A) (A) (A) (A) (A) (A) (A) (A) (A)
                 (A) (A) (A) (A) (A) (A) (A) (A) (A) (A) (A) (A)
                 (A) (A) (A) (A) (A) (A) (A) (A) (A) (A) (A) (A)
                 (A) (A) (A) (A) (A) (A) (A) (A) (A) (A) (A) (A)
                 (A) (A) (A) (A) (A) (A) (A) (A) (A) (A) (A) (A)
                 (A) (A) (A) (A) (A) (A) (A) (A) (A) (A) (A) (A)
 The electronic state is 1-A.
 Alpha  occ. eigenvalues --  -19.14634 -19.14336 -10.20077 -10.19730 -10.19542
 Alpha  occ. eigenvalues --  -10.19355 -10.18960 -10.18918 -10.18794 -10.18736
 Alpha  occ. eigenvalues --  -10.18192 -10.18036  -6.81710  -1.00183  -0.97615
 Alpha  occ. eigenvalues --   -0.87298  -0.81851  -0.77015  -0.74272  -0.71214
 Alpha  occ. eigenvalues --   -0.62787  -0.60808  -0.59541  -0.53039  -0.51113
 Alpha  occ. eigenvalues --   -0.50214  -0.49735  -0.48921  -0.44476  -0.44218
 Alpha  occ. eigenvalues --   -0.41489  -0.41087  -0.39663  -0.39188  -0.38638
 Alpha  occ. eigenvalues --   -0.37572  -0.35987  -0.34446  -0.33247  -0.32558
 Alpha  occ. eigenvalues --   -0.28550  -0.28487  -0.27769  -0.24634  -0.21377
 Alpha virt. eigenvalues --   -0.06157  -0.00582  -0.00169   0.05461   0.06268
 Alpha virt. eigenvalues --    0.09109   0.10006   0.10836   0.11818   0.14499
 Alpha virt. eigenvalues --    0.17048   0.18026   0.19360   0.21179   0.21626
 Alpha virt. eigenvalues --    0.23077   0.23733   0.27320   0.28921   0.30894
 Alpha virt. eigenvalues --    0.31694   0.32428   0.33859   0.36175   0.39758
 Alpha virt. eigenvalues --    0.44715   0.45898   0.47287   0.50775   0.51158
 Alpha virt. eigenvalues --    0.51907   0.52686   0.53395   0.54803   0.55424
 Alpha virt. eigenvalues --    0.56810   0.58905   0.59407   0.60456   0.60778
 Alpha virt. eigenvalues --    0.60967   0.61171   0.62189   0.62580   0.63778
 Alpha virt. eigenvalues --    0.64579   0.66923   0.68865   0.71698   0.73914
 Alpha virt. eigenvalues --    0.74868   0.78174   0.81194   0.82146   0.83119
 Alpha virt. eigenvalues --    0.84127   0.84823   0.85360   0.85674   0.86828
 Alpha virt. eigenvalues --    0.89498   0.90175   0.91302   0.93383   0.95457
 Alpha virt. eigenvalues --    0.96204   0.98991   1.01039   1.02518   1.03815
 Alpha virt. eigenvalues --    1.06023   1.08305   1.09213   1.12098   1.13840
 Alpha virt. eigenvalues --    1.14524   1.18044   1.19759   1.23372   1.23853
 Alpha virt. eigenvalues --    1.25727   1.27129   1.28747   1.30443   1.34797
 Alpha virt. eigenvalues --    1.38147   1.39665   1.43945   1.44099   1.46167
 Alpha virt. eigenvalues --    1.46470   1.47262   1.48817   1.49548   1.49779
 Alpha virt. eigenvalues --    1.50604   1.51270   1.55639   1.62270   1.64808
 Alpha virt. eigenvalues --    1.68101   1.71109   1.75613   1.77234   1.78138
 Alpha virt. eigenvalues --    1.79185   1.81650   1.87276   1.88281   1.90191
 Alpha virt. eigenvalues --    1.92475   1.93527   1.95198   1.97120   1.98959
 Alpha virt. eigenvalues --    2.00756   2.03858   2.08585   2.09471   2.12198
 Alpha virt. eigenvalues --    2.14743   2.16902   2.18282   2.19874   2.21504
 Alpha virt. eigenvalues --    2.22031   2.23579   2.28688   2.29945   2.32383
 Alpha virt. eigenvalues --    2.34709   2.36645   2.38534   2.38952   2.40409
 Alpha virt. eigenvalues --    2.44722   2.55552   2.61020   2.62362   2.62894
 Alpha virt. eigenvalues --    2.64604   2.65700   2.67808   2.73124   2.73964
 Alpha virt. eigenvalues --    2.77769   2.79749   2.81895   2.87259   2.90018
 Alpha virt. eigenvalues --    2.93871   2.96203   3.13220   3.39212   3.46987
 Alpha virt. eigenvalues --    3.62912   3.82226   3.98410   4.09392   4.10113
 Alpha virt. eigenvalues --    4.12964   4.14143   4.18511   4.29789   4.35545
 Alpha virt. eigenvalues --    4.44377   4.53028   4.82752
          Condensed to atoms (all electrons):
              1          2          3          4          5          6
     1  O    8.093241   0.357676  -0.049368   0.000624  -0.000023  -0.000001
     2  B    0.357676   3.626313   0.353344  -0.048649   0.008020  -0.001000
     3  C   -0.049368   0.353344   5.170535   0.433102  -0.012092  -0.066265
     4  C    0.000624  -0.048649   0.433102   5.090542   0.445268  -0.014101
     5  C   -0.000023   0.008020  -0.012092   0.445268   4.963365   0.492814
     6  C   -0.000001  -0.001000  -0.066265  -0.014101   0.492814   5.125758
     7  C    0.000035   0.008901  -0.015856  -0.057740   0.005220   0.441127
     8  C   -0.001125  -0.038563   0.380958   0.006327  -0.049567  -0.028162
     9  C   -0.012405  -0.021932  -0.105068   0.012196  -0.001347   0.016426
    10  C    0.000437   0.000224   0.006838  -0.000275   0.000063  -0.000548
    11  C   -0.000001  -0.000028  -0.000604   0.000057  -0.000440   0.009287
    12  C   -0.000002  -0.000098   0.013925  -0.000333   0.008934  -0.096099
    13  O   -0.042266   0.385132  -0.067297   0.003267   0.000602  -0.000008
    14  H    0.235027  -0.012681  -0.000940  -0.000171   0.000005  -0.000001
    15  H    0.000145  -0.009218  -0.044875   0.357728  -0.048110   0.004954
    16  H    0.000000  -0.000178   0.003377  -0.039802   0.355811  -0.037203
    17  H   -0.000000   0.000013   0.000490   0.004634  -0.045433   0.356689
    18  H    0.027548   0.003943  -0.011270   0.000052   0.000008  -0.000152
    19  H   -0.000006   0.000005  -0.000183   0.000003  -0.000000   0.000008
    20  H    0.000000   0.000000   0.000017  -0.000001   0.000004  -0.000227
    21  H   -0.000000   0.000002  -0.000147  -0.000003   0.000388  -0.009111
    22  H    0.000481  -0.014668   0.000289  -0.001310  -0.000018  -0.000000
              7          8          9         10         11         12
     1  O    0.000035  -0.001125  -0.012405   0.000437  -0.000001  -0.000002
     2  B    0.008901  -0.038563  -0.021932   0.000224  -0.000028  -0.000098
     3  C   -0.015856   0.380958  -0.105068   0.006838  -0.000604   0.013925
     4  C   -0.057740   0.006327   0.012196  -0.000275   0.000057  -0.000333
     5  C    0.005220  -0.049567  -0.001347   0.000063  -0.000440   0.008934
     6  C    0.441127  -0.028162   0.016426  -0.000548   0.009287  -0.096099
     7  C    4.740409   0.433680  -0.054125  -0.035144  -0.002790   0.447951
     8  C    0.433680   4.874525   0.454888  -0.010761  -0.039641  -0.024698
     9  C   -0.054125   0.454888   5.192704   0.499346  -0.017719  -0.071476
    10  C   -0.035144  -0.010761   0.499346   4.913307   0.506209  -0.023159
    11  C   -0.002790  -0.039641  -0.017719   0.506209   4.898834   0.505864
    12  C    0.447951  -0.024698  -0.071476  -0.023159   0.505864   5.123557
    13  O   -0.000019  -0.000303   0.000012  -0.000000  -0.000000   0.000000
    14  H    0.000020   0.000149   0.000578  -0.000056  -0.000001   0.000000
    15  H    0.000449   0.004755  -0.000102   0.000002  -0.000000   0.000009
    16  H    0.002681   0.001238   0.000020  -0.000000   0.000004  -0.000239
    17  H   -0.042836   0.004224  -0.000196   0.000008   0.000345  -0.008505
    18  H    0.004791  -0.032603   0.343210  -0.046482   0.004873   0.000445
    19  H    0.000942   0.002969  -0.037246   0.358430  -0.043634   0.004633
    20  H    0.002826   0.001028   0.004318  -0.042424   0.355953  -0.037260
    21  H   -0.044616   0.004307   0.000315   0.004906  -0.045881   0.358640
    22  H    0.000009  -0.000005  -0.000016  -0.000000  -0.000000  -0.000000
             13         14         15         16         17         18
     1  O   -0.042266   0.235027   0.000145   0.000000  -0.000000   0.027548
     2  B    0.385132  -0.012681  -0.009218  -0.000178   0.000013   0.003943
     3  C   -0.067297  -0.000940  -0.044875   0.003377   0.000490  -0.011270
     4  C    0.003267  -0.000171   0.357728  -0.039802   0.004634   0.000052
     5  C    0.000602   0.000005  -0.048110   0.355811  -0.045433   0.000008
     6  C   -0.000008  -0.000001   0.004954  -0.037203   0.356689  -0.000152
     7  C   -0.000019   0.000020   0.000449   0.002681  -0.042836   0.004791
     8  C   -0.000303   0.000149   0.004755   0.001238   0.004224  -0.032603
     9  C    0.000012   0.000578  -0.000102   0.000020  -0.000196   0.343210
    10  C   -0.000000  -0.000056   0.000002  -0.000000   0.000008  -0.046482
    11  C   -0.000000  -0.000001  -0.000000   0.000004   0.000345   0.004873
    12  C    0.000000   0.000000   0.000009  -0.000239  -0.008505   0.000445
    13  O    8.082003   0.000286   0.014749  -0.000001   0.000000   0.000070
    14  H    0.000286   0.376018  -0.000023  -0.000000   0.000000  -0.001270
    15  H    0.014749  -0.000023   0.579113  -0.005114  -0.000203  -0.000007
    16  H   -0.000001  -0.000000  -0.005114   0.594928  -0.005190   0.000000
    17  H    0.000000   0.000000  -0.000203  -0.005190   0.593397   0.000002
    18  H    0.000070  -0.001270  -0.000007   0.000000   0.000002   0.554666
    19  H   -0.000000  -0.000000  -0.000000   0.000000   0.000000  -0.005564
    20  H    0.000000  -0.000000   0.000000  -0.000000  -0.000015  -0.000197
    21  H   -0.000000   0.000000  -0.000000  -0.000014   0.006188   0.000015
    22  H    0.236394   0.000214  -0.000761  -0.000000   0.000000  -0.000010
             19         20         21         22
     1  O   -0.000006   0.000000  -0.000000   0.000481
     2  B    0.000005   0.000000   0.000002  -0.014668
     3  C   -0.000183   0.000017  -0.000147   0.000289
     4  C    0.000003  -0.000001  -0.000003  -0.001310
     5  C   -0.000000   0.000004   0.000388  -0.000018
     6  C    0.000008  -0.000227  -0.009111  -0.000000
     7  C    0.000942   0.002826  -0.044616   0.000009
     8  C    0.002969   0.001028   0.004307  -0.000005
     9  C   -0.037246   0.004318   0.000315  -0.000016
    10  C    0.358430  -0.042424   0.004906  -0.000000
    11  C   -0.043634   0.355953  -0.045881  -0.000000
    12  C    0.004633  -0.037260   0.358640  -0.000000
    13  O   -0.000000   0.000000  -0.000000   0.236394
    14  H   -0.000000  -0.000000   0.000000   0.000214
    15  H   -0.000000   0.000000  -0.000000  -0.000761
    16  H    0.000000  -0.000000  -0.000014  -0.000000
    17  H    0.000000  -0.000015   0.006188   0.000000
    18  H   -0.005564  -0.000197   0.000015  -0.000010
    19  H    0.595226  -0.005351  -0.000205   0.000000
    20  H   -0.005351   0.599156  -0.005412  -0.000000
    21  H   -0.000205  -0.005412   0.600538   0.000000
    22  H    0.000000  -0.000000   0.000000   0.377607
 Mulliken atomic charges:
              1
     1  O   -0.610019
     2  B    0.403438
     3  C    0.011089
     4  C   -0.191415
     5  C   -0.123472
     6  C   -0.194185
     7  C    0.164085
     8  C    0.056381
     9  C   -0.202382
    10  C   -0.130921
    11  C   -0.130685
    12  C   -0.202088
    13  O   -0.612621
    14  H    0.402844
    15  H    0.146509
    16  H    0.129683
    17  H    0.136386
    18  H    0.157932
    19  H    0.129973
    20  H    0.127584
    21  H    0.130089
    22  H    0.401795
 Sum of Mulliken atomic charges =  -0.00000
 Mulliken charges with hydrogens summed into heavy atoms:
              1
     1  O   -0.207175
     2  B    0.403438
     3  C    0.011089
     4  C   -0.044906
     5  C    0.006212
     6  C   -0.057799
     7  C    0.164085
     8  C    0.056381
     9  C   -0.044449
    10  C   -0.000948
    11  C   -0.003101
    12  C   -0.071998
    13  O   -0.210826
 Sum of Mulliken charges with hydrogens summed into heavy atoms =  -0.00000
 Electronic spatial extent (au):  <R**2>=           2386.9623
 Charge=             -0.0000 electrons
 Dipole moment (field-independent basis, Debye):
    X=              1.0701    Y=              0.7099    Z=             -0.0200  Tot=              1.2843
 Quadrupole moment (field-independent basis, Debye-Ang):
   XX=            -71.3214   YY=            -67.6606   ZZ=            -73.4377
   XY=             -1.0597   XZ=              2.5901   YZ=             -4.0704
 Traceless Quadrupole moment (field-independent basis, Debye-Ang):
   XX=             -0.5148   YY=              3.1459   ZZ=             -2.6311
   XY=             -1.0597   XZ=              2.5901   YZ=             -4.0704
 Octapole moment (field-independent basis, Debye-Ang**2):
  XXX=             15.5060  YYY=              1.6627  ZZZ=              0.0723  XYY=              3.3554
  XXY=              2.8618  XXZ=            -16.9382  XZZ=            -25.4214  YZZ=             -8.6040
  YYZ=              9.8182  XYZ=             10.8888
 Hexadecapole moment (field-independent basis, Debye-Ang**3):
 XXXX=          -1908.2581 YYYY=          -1020.2087 ZZZZ=            -77.7959 XXXY=             -9.0752
 XXXZ=             82.3493 YYYX=             -2.5282 YYYZ=            -23.8378 ZZZX=              4.4139
 ZZZY=             -7.5209 XXYY=           -481.0303 XXZZ=           -311.1328 YYZZ=           -202.6574
 XXYZ=            -27.0576 YYXZ=            -23.2119 ZZXY=             20.3147
 N-N= 7.025558099636D+02 E-N=-2.712992953720D+03  KE= 5.564458599968D+02
 No NMR shielding tensors so no spin-rotation constants.
 Leave Link  601 at Sun Oct  3 15:14:47 2021, MaxMem=  805306368 cpu:       0.9
 (Enter /sw/target/amd/app/gaussian/Gaussian09RevA.02_gcc-4.9.2/g09/l701.exe)
 Compute integral first derivatives.
 ... and contract with generalized density number  0.
 Leave Link  701 at Sun Oct  3 15:14:50 2021, MaxMem=  805306368 cpu:       0.9
 (Enter /sw/target/amd/app/gaussian/Gaussian09RevA.02_gcc-4.9.2/g09/l702.exe)
 L702 exits ... SP integral derivatives will be done elsewhere.
 Leave Link  702 at Sun Oct  3 15:14:50 2021, MaxMem=  805306368 cpu:       0.0
 (Enter /sw/target/amd/app/gaussian/Gaussian09RevA.02_gcc-4.9.2/g09/l703.exe)
 Compute integral first derivatives, UseDBF=F ICtDFT=           0.
 Integral derivatives from FoFDir, PRISM(SPDF).
 Calling FoFJK, ICntrl=      2127 FMM=F ISym2X=0 I1Cent= 0 IOpClX= 0 NMat=1 NMatS=1 NMatT=0.
 FoFCou: FMM=F IPFlag=           0 FMFlag=      100000 FMFlg1=         800
         NFxFlg=           0 DoJE=F BraDBF=F KetDBF=F FulRan=T
         Omega=  0.000000  0.000000  1.000000  0.000000  0.000000 ICntrl=    2127 IOpCl=  0
         NMat0=    1 NMatS0=    1 NMatT0=    0 NMatD0=    1 NMtDS0=    0 NMtDT0=    0
         I1Cent=           0 NGrid=           0.
 Symmetry not used in FoFCou.
 Leave Link  703 at Sun Oct  3 15:17:39 2021, MaxMem=  805306368 cpu:      72.7
 (Enter /sw/target/amd/app/gaussian/Gaussian09RevA.02_gcc-4.9.2/g09/l716.exe)
 Dipole        = 4.20996564D-01 2.79298208D-01-7.87979384D-03
 ***** Axes restored to original set *****
 -------------------------------------------------------------------
 Center     Atomic                   Forces (Hartrees/Bohr)
 Number     Number              X              Y              Z
 -------------------------------------------------------------------
      1        8           0.002404131   -0.042497038    0.014125281
      2        5          -0.009547013    0.002681786   -0.014948033
      3        6          -0.024917402   -0.008926262   -0.015125211
      4        6           0.002934246    0.012084429   -0.011008890
      5        6           0.013143155    0.000432884    0.013706953
      6        6          -0.020235543   -0.018023729   -0.000407278
      7        6           0.006453053    0.001447067    0.005402868
      8        6          -0.003773834    0.003702984   -0.008552498
      9        6           0.021747822    0.012941787    0.007193230
     10        6          -0.017290542   -0.006857828   -0.010860653
     11        6           0.001621684   -0.013275293    0.017696541
     12        6           0.016160487    0.021161468   -0.007699073
     13        8           0.021140729    0.035472628    0.021202620
     14        1          -0.010531081    0.012117333    0.007104966
     15        1          -0.001408399    0.002789238   -0.005738426
     16        1          -0.001084191   -0.002466827    0.001726116
     17        1           0.003412673    0.001706678    0.001615259
     18        1          -0.010395707   -0.002920447   -0.006205049
     19        1           0.000097850    0.002108860   -0.002354668
     20        1           0.002734983    0.001055829    0.001724775
     21        1          -0.001409932   -0.003099745    0.002186988
     22        1           0.008742828   -0.011635803   -0.010785817
 -------------------------------------------------------------------
 Cartesian Forces:  Max     0.042497038 RMS     0.012479271
 Leave Link  716 at Sun Oct  3 15:17:40 2021, MaxMem=  805306368 cpu:       0.1
 (Enter /sw/target/amd/app/gaussian/Gaussian09RevA.02_gcc-4.9.2/g09/l103.exe)

 GradGradGradGradGradGradGradGradGradGradGradGradGradGradGradGradGradGrad
 Berny optimization.
 Internal  Forces:  Max     0.039439485 RMS     0.007602219
 Search for a local minimum.
 Step number   1 out of a maximum of  120
 All quantities printed in internal units (Hartrees-Bohrs-Radians)
 RMS Force = .76022D-02 SwitMx=.10000D-02 MixMth= 1
 Mixed Optimization -- RFO/linear search
 Second derivative matrix not updated -- first step.
     Eigenvalues ---    0.00230   0.00802   0.01315   0.01388   0.01443
     Eigenvalues ---    0.01770   0.01805   0.01927   0.01995   0.01996
     Eigenvalues ---    0.02058   0.02068   0.02108   0.02164   0.02166
     Eigenvalues ---    0.02173   0.02183   0.02201   0.02227   0.16000
     Eigenvalues ---    0.16000   0.16000   0.16000   0.16000   0.16000
     Eigenvalues ---    0.16000   0.16000   0.16000   0.22000   0.22079
     Eigenvalues ---    0.22566   0.23507   0.23611   0.24490   0.24928
     Eigenvalues ---    0.24999   0.25000   0.25000   0.35529   0.35533
     Eigenvalues ---    0.35593   0.35672   0.35681   0.35702   0.36592
     Eigenvalues ---    0.37070   0.37114   0.37185   0.39181   0.40736
     Eigenvalues ---    0.42365   0.43366   0.45074   0.45557   0.45653
     Eigenvalues ---    0.45728   0.46858   0.47154   0.49362   0.49382
     Eigenvalues --- 1000.000001000.000001000.000001000.000001000.00000
     Eigenvalues --- 1000.000001000.000001000.000001000.000001000.00000
     Eigenvalues --- 1000.000001000.000001000.000001000.000001000.00000
     Eigenvalues --- 1000.000001000.000001000.000001000.000001000.00000
     Eigenvalues --- 1000.000001000.000001000.000001000.000001000.00000
     Eigenvalues --- 1000.000001000.000001000.000001000.000001000.00000
     Eigenvalues --- 1000.000001000.000001000.000001000.000001000.00000
     Eigenvalues --- 1000.000001000.000001000.000001000.000001000.00000
     Eigenvalues --- 1000.000001000.000001000.000001000.000001000.00000
     Eigenvalues --- 1000.000001000.000001000.000001000.000001000.00000
 RFO step:  Lambda=-1.85541492D-02 EMin= 2.30000000D-03
 Linear search not attempted -- first point.
 Iteration  1 RMS(Cart)=  0.03851673 RMS(Int)=  0.00121403
 Iteration  2 RMS(Cart)=  0.00167351 RMS(Int)=  0.00006002
 Iteration  3 RMS(Cart)=  0.00000227 RMS(Int)=  0.00005999
 Iteration  4 RMS(Cart)=  0.00000000 RMS(Int)=  0.00005999
 Variable       Old X    -DE/DX   Delta X   Delta X   Delta X     New X
                                 (Linear)    (Quad)   (Total)
    R1        2.75675  -0.03771   0.00000  -0.09677  -0.09677   2.65998
    R2        1.87214  -0.01629   0.00000  -0.03180  -0.03180   1.84034
    R3        3.02877  -0.02100   0.00000  -0.08247  -0.08247   2.94631
    R4        2.76466  -0.03944   0.00000  -0.10258  -0.10258   2.66208
    R5        2.66458  -0.01221   0.00000  -0.02792  -0.02795   2.63663
    R6        2.70784   0.00612   0.00000   0.01418   0.01417   2.72200
    R7        2.62949   0.01530   0.00000   0.03030   0.03028   2.65977
    R8        2.04723   0.00132   0.00000   0.00353   0.00353   2.05076
    R9        2.62263  -0.00695   0.00000  -0.01381  -0.01380   2.60883
   R10        2.04584   0.00320   0.00000   0.00852   0.00852   2.05436
   R11        2.64412   0.01620   0.00000   0.03525   0.03528   2.67940
   R12        2.04824   0.00234   0.00000   0.00626   0.00626   2.05451
   R13        2.69761   0.01058   0.00000   0.02649   0.02651   2.72412
   R14        2.65365   0.01259   0.00000   0.02782   0.02784   2.68149
   R15        2.67537   0.00167   0.00000   0.00356   0.00355   2.67892
   R16        2.64011  -0.01019   0.00000  -0.02215  -0.02217   2.61794
   R17        2.02440   0.00811   0.00000   0.02084   0.02084   2.04525
   R18        2.62897   0.01696   0.00000   0.03389   0.03388   2.66286
   R19        2.04597   0.00285   0.00000   0.00759   0.00759   2.05356
   R20        2.63024  -0.01112   0.00000  -0.02264  -0.02263   2.60761
   R21        2.04551   0.00332   0.00000   0.00883   0.00883   2.05434
   R22        2.04818   0.00214   0.00000   0.00572   0.00572   2.05390
   R23        1.87194  -0.01696   0.00000  -0.03311  -0.03311   1.83883
    A1        1.82592   0.01113   0.00000   0.06236   0.06236   1.88828
    A2        2.14967   0.00246   0.00000   0.00917   0.00916   2.15884
    A3        2.05075  -0.00149   0.00000  -0.00557  -0.00558   2.04517
    A4        2.08272  -0.00097   0.00000  -0.00363  -0.00363   2.07909
    A5        2.01323  -0.00007   0.00000   0.00103   0.00103   2.01427
    A6        2.20065  -0.00040   0.00000  -0.00022  -0.00021   2.20044
    A7        2.06930   0.00047   0.00000  -0.00082  -0.00087   2.06843
    A8        2.11983   0.00431   0.00000   0.01371   0.01366   2.13349
    A9        2.11570  -0.00868   0.00000  -0.04342  -0.04342   2.07229
   A10        2.04765   0.00437   0.00000   0.02970   0.02971   2.07736
   A11        2.10053  -0.00166   0.00000  -0.00838  -0.00838   2.09215
   A12        2.09192   0.00093   0.00000   0.00474   0.00473   2.09665
   A13        2.09074   0.00073   0.00000   0.00364   0.00364   2.09438
   A14        2.10004   0.00131   0.00000   0.00859   0.00864   2.10868
   A15        2.07541   0.00285   0.00000   0.01535   0.01533   2.09074
   A16        2.10773  -0.00416   0.00000  -0.02394  -0.02396   2.08376
   A17        2.10115  -0.00510   0.00000  -0.01645  -0.01642   2.08473
   A18        2.07889   0.00791   0.00000   0.02569   0.02565   2.10454
   A19        2.10314  -0.00281   0.00000  -0.00923  -0.00923   2.09391
   A20        2.07551   0.00068   0.00000   0.00335   0.00336   2.07887
   A21        2.15602  -0.00048   0.00000  -0.00336  -0.00336   2.15266
   A22        2.05165  -0.00019   0.00000  -0.00000  -0.00001   2.05164
   A23        2.11314   0.00039   0.00000  -0.00010  -0.00014   2.11299
   A24        2.14693  -0.00973   0.00000  -0.05333  -0.05333   2.09360
   A25        2.02312   0.00934   0.00000   0.05343   0.05343   2.07654
   A26        2.10275   0.00329   0.00000   0.01074   0.01072   2.11347
   A27        2.09191  -0.00306   0.00000  -0.01332  -0.01331   2.07860
   A28        2.08853  -0.00022   0.00000   0.00258   0.00259   2.09111
   A29        2.09415  -0.00135   0.00000  -0.00666  -0.00664   2.08751
   A30        2.09429   0.00144   0.00000   0.00761   0.00760   2.10189
   A31        2.09475  -0.00009   0.00000  -0.00095  -0.00096   2.09378
   A32        2.10154   0.00068   0.00000   0.00525   0.00529   2.10683
   A33        2.10704  -0.00385   0.00000  -0.02229  -0.02231   2.08473
   A34        2.07461   0.00317   0.00000   0.01704   0.01702   2.09162
   A35        1.82706   0.01135   0.00000   0.06359   0.06359   1.89064
    D1        1.64151   0.00242   0.00000   0.07309   0.07309   1.71459
    D2       -1.48961   0.00254   0.00000   0.07742   0.07742  -1.41218
    D3       -3.11903   0.00109   0.00000   0.04917   0.04917  -3.06986
    D4        0.02177   0.00079   0.00000   0.03957   0.03959   0.06136
    D5        0.01190   0.00097   0.00000   0.04476   0.04474   0.05665
    D6       -3.13048   0.00067   0.00000   0.03516   0.03516  -3.09532
    D7       -1.54749   0.00168   0.00000   0.05120   0.05121  -1.49627
    D8        1.60417   0.00177   0.00000   0.05528   0.05526   1.65943
    D9        3.13934  -0.00038   0.00000  -0.01093  -0.01090   3.12844
   D10       -0.00090  -0.00002   0.00000  -0.00154  -0.00170  -0.00260
   D11       -0.00152  -0.00010   0.00000  -0.00210  -0.00209  -0.00361
   D12        3.14142   0.00026   0.00000   0.00729   0.00712  -3.13464
   D13       -3.13901   0.00041   0.00000   0.01217   0.01212  -3.12688
   D14        0.00408   0.00055   0.00000   0.01614   0.01610   0.02017
   D15        0.00177   0.00010   0.00000   0.00229   0.00228   0.00404
   D16       -3.13833   0.00024   0.00000   0.00627   0.00625  -3.13208
   D17        0.00022   0.00004   0.00000   0.00067   0.00068   0.00091
   D18       -3.14091   0.00014   0.00000   0.00333   0.00339  -3.13752
   D19        3.14052  -0.00032   0.00000  -0.00842  -0.00861   3.13191
   D20       -0.00061  -0.00022   0.00000  -0.00576  -0.00590  -0.00652
   D21        0.00082   0.00003   0.00000   0.00057   0.00055   0.00137
   D22       -3.14140   0.00004   0.00000   0.00111   0.00114  -3.14027
   D23       -3.14123  -0.00008   0.00000  -0.00208  -0.00215   3.13980
   D24       -0.00027  -0.00006   0.00000  -0.00155  -0.00156  -0.00184
   D25       -0.00053  -0.00002   0.00000  -0.00032  -0.00029  -0.00082
   D26        3.14060  -0.00003   0.00000  -0.00054  -0.00048   3.14011
   D27       -3.14148  -0.00004   0.00000  -0.00088  -0.00089   3.14082
   D28       -0.00035  -0.00005   0.00000  -0.00110  -0.00108  -0.00144
   D29       -0.00078  -0.00004   0.00000  -0.00113  -0.00114  -0.00191
   D30        3.13941  -0.00018   0.00000  -0.00487  -0.00488   3.13453
   D31        3.14129  -0.00004   0.00000  -0.00091  -0.00095   3.14034
   D32       -0.00171  -0.00017   0.00000  -0.00465  -0.00470  -0.00640
   D33       -3.14036   0.00008   0.00000   0.00222   0.00220  -3.13816
   D34        0.00080   0.00004   0.00000   0.00115   0.00114   0.00194
   D35        0.00076   0.00007   0.00000   0.00199   0.00200   0.00276
   D36       -3.14126   0.00003   0.00000   0.00093   0.00094  -3.14032
   D37       -3.14158   0.00001   0.00000   0.00012   0.00016  -3.14142
   D38        0.00159   0.00036   0.00000   0.00934   0.00911   0.01070
   D39        0.00149   0.00015   0.00000   0.00404   0.00407   0.00556
   D40       -3.13853   0.00050   0.00000   0.01326   0.01302  -3.12551
   D41       -0.00032  -0.00002   0.00000  -0.00072  -0.00071  -0.00103
   D42       -3.14153   0.00007   0.00000   0.00174   0.00179  -3.13974
   D43        3.13981  -0.00037   0.00000  -0.00941  -0.00966   3.13015
   D44       -0.00140  -0.00027   0.00000  -0.00694  -0.00716  -0.00857
   D45       -0.00069  -0.00008   0.00000  -0.00211  -0.00217  -0.00286
   D46       -3.14152   0.00002   0.00000   0.00057   0.00057  -3.14095
   D47        3.14052  -0.00018   0.00000  -0.00458  -0.00469   3.13583
   D48       -0.00031  -0.00008   0.00000  -0.00190  -0.00195  -0.00226
   D49        0.00046   0.00005   0.00000   0.00145   0.00146   0.00193
   D50       -3.14070   0.00010   0.00000   0.00251   0.00253  -3.13817
   D51        3.14129  -0.00005   0.00000  -0.00122  -0.00126   3.14003
   D52        0.00012  -0.00001   0.00000  -0.00017  -0.00018  -0.00006
         Item               Value     Threshold  Converged?
 Maximum Force            0.039439     0.000450     NO 
 RMS     Force            0.007602     0.000300     NO 
 Maximum Displacement     0.157324     0.001800     NO 
 RMS     Displacement     0.038171     0.001200     NO 
 Predicted change in Energy=-1.003711D-02
 GradGradGradGradGradGradGradGradGradGradGradGradGradGradGradGradGradGrad

 Leave Link  103 at Sun Oct  3 15:17:50 2021, MaxMem=  805306368 cpu:       3.0
 (Enter /sw/target/amd/app/gaussian/Gaussian09RevA.02_gcc-4.9.2/g09/l202.exe)
                          Input orientation:                          
 ---------------------------------------------------------------------
 Center     Atomic      Atomic             Coordinates (Angstroms)
 Number     Number       Type             X           Y           Z
 ---------------------------------------------------------------------
      1          8           0        2.777664    0.983266   -0.814333
      2          5           0        2.401048   -0.002094    0.117636
      3          6           0        3.209932   -0.323258    1.411239
      4          6           0        2.729736   -1.392938    2.167480
      5          6           0        3.358742   -1.816361    3.353268
      6          6           0        4.489943   -1.164582    3.802094
      7          6           0        5.029725   -0.067950    3.083480
      8          6           0        4.387469    0.368611    1.868998
      9          6           0        4.955833    1.474164    1.187550
     10          6           0        6.090762    2.105007    1.670444
     11          6           0        6.716938    1.669555    2.855312
     12          6           0        6.191655    0.599474    3.550368
     13          8           0        1.233958   -0.739760   -0.162047
     14          1           0        3.241778    0.544702   -1.549638
     15          1           0        1.846614   -1.920898    1.822450
     16          1           0        2.957188   -2.656772    3.913884
     17          1           0        4.975470   -1.493536    4.717547
     18          1           0        4.496523    1.843798    0.279931
     19          1           0        6.498471    2.950766    1.123296
     20          1           0        7.606815    2.172927    3.224827
     21          1           0        6.669697    0.262420    4.466433
     22          1           0        0.468985   -0.241333    0.174477
 ---------------------------------------------------------------------
                    Distance matrix (angstroms):
                    1          2          3          4          5
     1  O    0.000000
     2  B    1.407601   0.000000
     3  C    2.616684   1.559118   0.000000
     4  C    3.813116   2.498868   1.395243   0.000000
     5  C    5.054153   3.831195   2.454175   1.407490   0.000000
     6  C    5.371829   4.392049   2.839444   2.412974   1.380536
     7  C    4.622746   3.963649   2.484596   2.807954   2.433498
     8  C    3.188971   2.674053   1.440423   2.437258   2.834685
     9  C    2.998823   3.138627   2.515737   3.759794   4.250716
    10  C    4.290575   4.523834   3.776617   4.876388   5.066849
    11  C    5.427261   5.377377   4.284360   5.074422   4.865907
    12  C    5.554570   5.149197   3.783910   4.226934   3.728338
    13  O    2.403607   1.408713   2.559918   2.844414   4.246318
    14  H    0.973865   1.945666   3.085639   4.222985   5.443049
    15  H    4.031581   2.625946   2.140136   1.085215   2.154266
    16  H    5.969770   4.665630   3.431093   2.167704   1.087119
    17  H    6.447216   5.478251   3.926620   3.399454   2.139926
    18  H    2.211878   2.797262   2.762482   4.142564   4.912913
    19  H    4.633558   5.149719   4.649369   5.844780   6.128309
    20  H    6.407090   6.440913   5.371463   6.133455   5.828982
    21  H    6.599548   6.099456   4.652655   4.852700   4.064836
    22  H    2.794171   1.947648   3.008169   3.226336   4.575600
                    6          7          8          9         10
     6  C    0.000000
     7  C    1.417876   0.000000
     8  C    2.469422   1.441543   0.000000
     9  C    3.743778   2.445020   1.417623   0.000000
    10  C    4.218621   2.800751   2.440430   1.385356   0.000000
    11  C    3.726692   2.432626   2.844591   2.433330   1.409123
    12  C    2.463956   1.418985   2.476972   2.806287   2.410585
    13  O    5.147459   5.039110   3.911299   4.535993   5.919398
    14  H    5.755051   5.003787   3.609805   3.360668   4.573860
    15  H    3.387949   3.893047   3.420521   4.647234   5.851821
    16  H    2.142072   3.418624   3.921761   5.337801   6.125916
    17  H    1.087199   2.169197   3.453632   4.611779   4.845433
    18  H    4.632065   3.434963   2.170991   1.082298   2.131515
    19  H    5.305302   3.887438   3.417590   2.136402   1.086695
    20  H    4.602943   3.418025   3.931668   3.415621   2.172357
    21  H    2.688681   2.170533   3.459265   3.893164   3.398212
    22  H    5.493642   5.412274   4.312534   4.909282   6.272767
                   11         12         13         14         15
    11  C    0.000000
    12  C    1.379890   0.000000
    13  O    6.706141   6.336745   0.000000
    14  H    5.722379   5.891930   2.758005   0.000000
    15  H    6.138258   5.312001   2.389281   4.404162   0.000000
    16  H    5.828671   4.604027   4.822621   6.338810   2.479714
    17  H    4.062730   2.687397   6.194960   6.814523   4.284153
    18  H    3.404878   3.888132   4.185027   2.570868   4.855339
    19  H    2.165435   3.393138   6.556461   4.851780   6.772126
    20  H    1.087109   2.141123   7.782542   6.670846   7.204580
    21  H    2.139619   1.086879   7.209331   6.929894   5.917741
    22  H    7.062243   6.697204   0.973068   3.358393   2.726649
                   16         17         18         19         20
    16  H    0.000000
    17  H    2.464236   0.000000
    18  H    5.985842   5.573117   0.000000
    19  H    7.195315   5.915234   2.438122   0.000000
    20  H    6.739423   4.753434   4.295888   2.499978   0.000000
    21  H    4.754968   2.452926   4.974962   4.293377   2.463698
    22  H    5.099869   6.520422   4.536513   6.887993   8.129077
                   21         22
    21  H    0.000000
    22  H    7.558008   0.000000
 Stoichiometry    C10H9BO2
 Framework group  C1[X(C10H9BO2)]
 Deg. of freedom    60
 Full point group                 C1      NOp   1
 Largest Abelian subgroup         C1      NOp   1
 Largest concise Abelian subgroup C1      NOp   1
                         Standard orientation:                         
 ---------------------------------------------------------------------
 Center     Atomic      Atomic             Coordinates (Angstroms)
 Number     Number       Type             X           Y           Z
 ---------------------------------------------------------------------
      1          8           0       -2.249097   -2.017603    0.065408
      2          5           0       -2.278675   -0.611767    0.001452
      3          6           0       -1.000488    0.281030   -0.000150
      4          6           0       -1.231231    1.656888    0.021645
      5          6           0       -0.181317    2.594126    0.038845
      6          6           0        1.128873    2.159099    0.033279
      7          6           0        1.434537    0.774780    0.008702
      8          6           0        0.361511   -0.187677   -0.009646
      9          6           0        0.712736   -1.560701   -0.042854
     10          6           0        2.039516   -1.959211   -0.050467
     11          6           0        3.083622   -1.013218   -0.026698
     12          6           0        2.783061    0.333251    0.001276
     13          8           0       -3.544936    0.003731   -0.045656
     14          1           0       -2.402705   -2.283182    0.989685
     15          1           0       -2.255960    2.013861    0.035469
     16          1           0       -0.400474    3.658726    0.059461
     17          1           0        1.938841    2.884178    0.047834
     18          1           0       -0.061798   -2.316068   -0.072593
     19          1           0        2.272396   -3.020304   -0.077956
     20          1           0        4.121074   -1.337950   -0.033563
     21          1           0        3.585392    1.066286    0.016446
     22          1           0       -3.836042    0.034061   -0.973663
 ---------------------------------------------------------------------
 Rotational constants (GHZ):      1.3050748      0.6816890      0.4495100
 Leave Link  202 at Sun Oct  3 15:17:50 2021, MaxMem=  805306368 cpu:       0.0
 (Enter /sw/target/amd/app/gaussian/Gaussian09RevA.02_gcc-4.9.2/g09/l301.exe)
 Standard basis: 6-31G(d) (6D, 7F)
 Ernie: Thresh=  0.10000D-02 Tol=  0.10000D-05 Strict=F.
 There are   213 symmetry adapted basis functions of A   symmetry.
 Integral buffers will be    131072 words long.
 Raffenetti 2 integral format.
 Two-electron integral symmetry is turned on.
   213 basis functions,   400 primitive gaussians,   213 cartesian basis functions
    45 alpha electrons       45 beta electrons
       nuclear repulsion energy       705.8772744793 Hartrees.
 IExCor=  402 DFT=T Ex+Corr=B3LYP ExCW=0 ScaHFX=  0.200000
 ScaDFX=  0.800000  0.720000  1.000000  0.810000 ScalE2=  1.000000  1.000000
 IRadAn=      0 IRanWt=     -1 IRanGd=            0 ICorTp=0
 NAtoms=   22 NActive=   22 NUniq=   22 SFac= 7.50D-01 NAtFMM=   80 NAOKFM=F Big=F
 Leave Link  301 at Sun Oct  3 15:17:51 2021, MaxMem=  805306368 cpu:       0.1
 (Enter /sw/target/amd/app/gaussian/Gaussian09RevA.02_gcc-4.9.2/g09/l302.exe)
 NPDir=0 NMtPBC=     1 NCelOv=     1 NCel=       1 NClECP=     1 NCelD=      1
         NCelK=      1 NCelE2=     1 NClLst=     1 CellRange=     0.0.
 One-electron integrals computed using PRISM.
 NBasis=   213 RedAO= T  NBF=   213
 NBsUse=   213 1.00D-06 NBFU=   213
 Precomputing XC quadrature grid using
 IXCGrd= 2 IRadAn=           0 IRanWt=          -1 IRanGd=           0 AccXCQ= 1.00D-10.
 NRdTot=    1381 NPtTot=      175482 NUsed=      185448 NTot=      185480
 NSgBfM=   212   212   212   212   212 NAtAll=    22    22.
 Leave Link  302 at Sun Oct  3 15:17:57 2021, MaxMem=  805306368 cpu:       1.4
 (Enter /sw/target/amd/app/gaussian/Gaussian09RevA.02_gcc-4.9.2/g09/l303.exe)
 DipDrv:  MaxL=1.
 Leave Link  303 at Sun Oct  3 15:17:58 2021, MaxMem=  805306368 cpu:       0.1
 (Enter /sw/target/amd/app/gaussian/Gaussian09RevA.02_gcc-4.9.2/g09/l401.exe)
 Initial guess read from the read-write file.
 B after Tr=     0.000000    0.000000    0.000000
         Rot=    1.000000    0.000000    0.000000    0.000000 Ang=   0.00 deg.
 Guess basis will be translated and rotated to current coordinates.
 Initial guess orbital symmetries:
       Occupied  (A) (A) (A) (A) (A) (A) (A) (A) (A) (A) (A) (A)
                 (A) (A) (A) (A) (A) (A) (A) (A) (A) (A) (A) (A)
                 (A) (A) (A) (A) (A) (A) (A) (A) (A) (A) (A) (A)
                 (A) (A) (A) (A) (A) (A) (A) (A) (A)
       Virtual   (A) (A) (A) (A) (A) (A) (A) (A) (A) (A) (A) (A)
                 (A) (A) (A) (A) (A) (A) (A) (A) (A) (A) (A) (A)
                 (A) (A) (A) (A) (A) (A) (A) (A) (A) (A) (A) (A)
                 (A) (A) (A) (A) (A) (A) (A) (A) (A) (A) (A) (A)
                 (A) (A) (A) (A) (A) (A) (A) (A) (A) (A) (A) (A)
                 (A) (A) (A) (A) (A) (A) (A) (A) (A) (A) (A) (A)
                 (A) (A) (A) (A) (A) (A) (A) (A) (A) (A) (A) (A)
                 (A) (A) (A) (A) (A) (A) (A) (A) (A) (A) (A) (A)
                 (A) (A) (A) (A) (A) (A) (A) (A) (A) (A) (A) (A)
                 (A) (A) (A) (A) (A) (A) (A) (A) (A) (A) (A) (A)
                 (A) (A) (A) (A) (A) (A) (A) (A) (A) (A) (A) (A)
                 (A) (A) (A) (A) (A) (A) (A) (A) (A) (A) (A) (A)
                 (A) (A) (A) (A) (A) (A) (A) (A) (A) (A) (A) (A)
                 (A) (A) (A) (A) (A) (A) (A) (A) (A) (A) (A) (A)
[...]
    18  H   -0.004879  -0.000151   0.000016   0.000010
    19  H    0.580962  -0.004716  -0.000179   0.000000
    20  H   -0.004716   0.579239  -0.005115  -0.000000
    21  H   -0.000179  -0.005115   0.581871   0.000000
    22  H    0.000000  -0.000000   0.000000   0.395343
 Mulliken atomic charges:
              1
     1  O   -0.579881
     2  B    0.325449
     3  C    0.024997
     4  C   -0.213419
     5  C   -0.111845
     6  C   -0.234266
     7  C    0.162752
     8  C    0.028308
     9  C   -0.165531
    10  C   -0.132182
    11  C   -0.123778
    12  C   -0.174571
    13  O   -0.568431
    14  H    0.384028
    15  H    0.141225
    16  H    0.122010
    17  H    0.113968
    18  H    0.190927
    19  H    0.139122
    20  H    0.140553
    21  H    0.147991
    22  H    0.382576
 Sum of Mulliken atomic charges =  -0.00000
 Mulliken charges with hydrogens summed into heavy atoms:
              1
     1  O   -0.195854
     2  B    0.325449
     3  C    0.024997
     4  C   -0.072194
     5  C    0.010165
     6  C   -0.120299
     7  C    0.162752
     8  C    0.028308
     9  C    0.025396
    10  C    0.006940
    11  C    0.016775
    12  C   -0.026580
    13  O   -0.185856
 Sum of Mulliken charges with hydrogens summed into heavy atoms =  -0.00000
 Electronic spatial extent (au):  <R**2>=           2356.2487
 Charge=             -0.0000 electrons
 Dipole moment (field-independent basis, Debye):
    X=             -0.0536    Y=             -2.3552    Z=              0.0042  Tot=              2.3558
 Quadrupole moment (field-independent basis, Debye-Ang):
   XX=            -52.6207   YY=            -66.4038   ZZ=            -78.1643
   XY=              7.5246   XZ=             -0.6117   YZ=              0.8207
 Traceless Quadrupole moment (field-independent basis, Debye-Ang):
   XX=             13.1089   YY=             -0.6742   ZZ=            -12.4347
   XY=              7.5246   XZ=             -0.6117   YZ=              0.8207
 Octapole moment (field-independent basis, Debye-Ang**2):
  XXX=            -62.5547  YYY=            -16.4171  ZZZ=              0.0598  XYY=            -13.4750
  XXY=            -43.3876  XXZ=              2.3986  XZZ=            -10.8272  YZZ=             -5.2597
  YYZ=             -0.5628  XYZ=             -0.5912
 Hexadecapole moment (field-independent basis, Debye-Ang**3):
 XXXX=          -1426.7197 YYYY=          -1005.6262 ZZZZ=            -81.7216 XXXY=            175.5480
 XXXZ=             -7.1231 YYYX=             35.0803 YYYZ=              0.9826 ZZZX=              0.8766
 ZZZY=             -2.2452 XXYY=           -412.4707 XXZZ=           -350.3649 YYZZ=           -214.0279
 XXYZ=              1.6162 YYXZ=             -1.0865 ZZXY=             10.3621
 N-N= 7.069978760508D+02 E-N=-2.722378596596D+03  KE= 5.568229096424D+02
 No NMR shielding tensors so no spin-rotation constants.
 Leave Link  601 at Sun Oct  3 23:45:17 2021, MaxMem=  805306368 cpu:       0.9
 (Enter /sw/target/amd/app/gaussian/Gaussian09RevA.02_gcc-4.9.2/g09/l604.exe)
 Evaluate density.
 Using the total density.
 Monte-Carlo method of calculating molar volume:
 based on  0.001 e/bohr**3 density envelope.
 Number of points per bohr**3 =   20 CutOff= 1.00D-04
 Using the CI density.
 There are       390 points.  Will hold       390 in memory.
 LenV=   805176156 MDV=   805306368.
 Box volume = 7461.821 fraction occupied=0.192
 Integrated density= 6.1730101780166407D+01 error=-2.8269898219833593D+01
 Molar volume = 1434.966 bohr**3/mol (128.055 cm**3/mol)
 Recommended a0 for SCRF calculation =  4.58 angstrom (  8.65 bohr)
 Leave Link  604 at Sun Oct  3 23:45:19 2021, MaxMem=  805306368 cpu:       0.3
 (Enter /sw/target/amd/app/gaussian/Gaussian09RevA.02_gcc-4.9.2/g09/l607.exe)
 ******************************Gaussian NBO Version 3.1******************************
             N A T U R A L   A T O M I C   O R B I T A L   A N D
          N A T U R A L   B O N D   O R B I T A L   A N A L Y S I S
 ******************************Gaussian NBO Version 3.1******************************
       /RESON  / : Allow strongly delocalized NBO set

 Analyzing the CI density

 Job title: OB(c1cccc2c1cccc2)O_conf_0                                      

 Storage needed:    137794 in NPA ( 805303772 available)


 NATURAL POPULATIONS:  Natural atomic orbital occupancies 
                                                          
   NAO  Atom  No  lang   Type(AO)    Occupancy
 --------------------------------------------
     1    O    1  S      Cor( 1S)     1.99974
     2    O    1  S      Val( 2S)     1.68921
     3    O    1  S      Ryd( 3S)     0.00078
     4    O    1  S      Ryd( 4S)     0.00003
     5    O    1  px     Val( 2p)     1.66206
     6    O    1  px     Ryd( 3p)     0.00074
     7    O    1  py     Val( 2p)     1.69940
     8    O    1  py     Ryd( 3p)     0.00219
     9    O    1  pz     Val( 2p)     1.84408
    10    O    1  pz     Ryd( 3p)     0.00049
    11    O    1  dxy    Ryd( 3d)     0.00146
    12    O    1  dxz    Ryd( 3d)     0.00125
    13    O    1  dyz    Ryd( 3d)     0.00055
    14    O    1  dx2y2  Ryd( 3d)     0.00110
    15    O    1  dz2    Ryd( 3d)     0.00102

    16    B    2  S      Cor( 1S)     1.99925
    17    B    2  S      Val( 2S)     0.50457
    18    B    2  S      Ryd( 3S)     0.00179
    19    B    2  S      Ryd( 4S)     0.00070
    20    B    2  px     Val( 2p)     0.50999
    21    B    2  px     Ryd( 3p)     0.00412
    22    B    2  py     Val( 2p)     0.42968
    23    B    2  py     Ryd( 3p)     0.00829
    24    B    2  pz     Val( 2p)     0.46113
    25    B    2  pz     Ryd( 3p)     0.00169
    26    B    2  dxy    Ryd( 3d)     0.00249
    27    B    2  dxz    Ryd( 3d)     0.00157
    28    B    2  dyz    Ryd( 3d)     0.00187
    29    B    2  dx2y2  Ryd( 3d)     0.00254
    30    B    2  dz2    Ryd( 3d)     0.00063

    31    C    3  S      Cor( 1S)     1.99892
    32    C    3  S      Val( 2S)     0.97690
    33    C    3  S      Ryd( 3S)     0.00213
    34    C    3  S      Ryd( 4S)     0.00003
    35    C    3  px     Val( 2p)     1.19670
    36    C    3  px     Ryd( 3p)     0.00551
    37    C    3  py     Val( 2p)     1.16776
    38    C    3  py     Ryd( 3p)     0.00624
    39    C    3  pz     Val( 2p)     1.05011
    40    C    3  pz     Ryd( 3p)     0.00276
    41    C    3  dxy    Ryd( 3d)     0.00049
    42    C    3  dxz    Ryd( 3d)     0.00028
    43    C    3  dyz    Ryd( 3d)     0.00055
    44    C    3  dx2y2  Ryd( 3d)     0.00066
    45    C    3  dz2    Ryd( 3d)     0.00033

    46    C    4  S      Cor( 1S)     1.99912
    47    C    4  S      Val( 2S)     0.95255
    48    C    4  S      Ryd( 3S)     0.00059
    49    C    4  S      Ryd( 4S)     0.00005
    50    C    4  px     Val( 2p)     1.18056
    51    C    4  px     Ryd( 3p)     0.00536
    52    C    4  py     Val( 2p)     1.07361
    53    C    4  py     Ryd( 3p)     0.00412
    54    C    4  pz     Val( 2p)     0.97957
    55    C    4  pz     Ryd( 3p)     0.00236
    56    C    4  dxy    Ryd( 3d)     0.00082
    57    C    4  dxz    Ryd( 3d)     0.00034
    58    C    4  dyz    Ryd( 3d)     0.00075
    59    C    4  dx2y2  Ryd( 3d)     0.00082
    60    C    4  dz2    Ryd( 3d)     0.00043

    61    C    5  S      Cor( 1S)     1.99910
    62    C    5  S      Val( 2S)     0.96138
    63    C    5  S      Ryd( 3S)     0.00069
    64    C    5  S      Ryd( 4S)     0.00004
    65    C    5  px     Val( 2p)     1.06902
    66    C    5  px     Ryd( 3p)     0.00489
    67    C    5  py     Val( 2p)     1.19029
    68    C    5  py     Ryd( 3p)     0.00517
    69    C    5  pz     Val( 2p)     0.98634
    70    C    5  pz     Ryd( 3p)     0.00185
    71    C    5  dxy    Ryd( 3d)     0.00062
    72    C    5  dxz    Ryd( 3d)     0.00088
    73    C    5  dyz    Ryd( 3d)     0.00032
    74    C    5  dx2y2  Ryd( 3d)     0.00089
    75    C    5  dz2    Ryd( 3d)     0.00042

    76    C    6  S      Cor( 1S)     1.99906
    77    C    6  S      Val( 2S)     0.94369
    78    C    6  S      Ryd( 3S)     0.00070
    79    C    6  S      Ryd( 4S)     0.00005
    80    C    6  px     Val( 2p)     1.14568
    81    C    6  px     Ryd( 3p)     0.00446
    82    C    6  py     Val( 2p)     1.08945
    83    C    6  py     Ryd( 3p)     0.00442
    84    C    6  pz     Val( 2p)     1.06267
    85    C    6  pz     Ryd( 3p)     0.00403
    86    C    6  dxy    Ryd( 3d)     0.00083
    87    C    6  dxz    Ryd( 3d)     0.00049
    88    C    6  dyz    Ryd( 3d)     0.00035
    89    C    6  dx2y2  Ryd( 3d)     0.00065
    90    C    6  dz2    Ryd( 3d)     0.00042

    91    C    7  S      Cor( 1S)     1.99903
    92    C    7  S      Val( 2S)     0.87542
    93    C    7  S      Ryd( 3S)     0.00054
    94    C    7  S      Ryd( 4S)     0.00006
    95    C    7  px     Val( 2p)     1.07993
    96    C    7  px     Ryd( 3p)     0.00508
    97    C    7  py     Val( 2p)     1.10064
    98    C    7  py     Ryd( 3p)     0.00556
    99    C    7  pz     Val( 2p)     0.99804
   100    C    7  pz     Ryd( 3p)     0.00053
   101    C    7  dxy    Ryd( 3d)     0.00073
   102    C    7  dxz    Ryd( 3d)     0.00046
   103    C    7  dyz    Ryd( 3d)     0.00097
   104    C    7  dx2y2  Ryd( 3d)     0.00069
   105    C    7  dz2    Ryd( 3d)     0.00033

   106    C    8  S      Cor( 1S)     1.99906
   107    C    8  S      Val( 2S)     0.86974
   108    C    8  S      Ryd( 3S)     0.00061
   109    C    8  S      Ryd( 4S)     0.00006
   110    C    8  px     Val( 2p)     1.08811
   111    C    8  px     Ryd( 3p)     0.00530
   112    C    8  py     Val( 2p)     1.07610
   113    C    8  py     Ryd( 3p)     0.00573
   114    C    8  pz     Val( 2p)     0.99524
   115    C    8  pz     Ryd( 3p)     0.00082
   116    C    8  dxy    Ryd( 3d)     0.00078
   117    C    8  dxz    Ryd( 3d)     0.00079
   118    C    8  dyz    Ryd( 3d)     0.00049
   119    C    8  dx2y2  Ryd( 3d)     0.00074
   120    C    8  dz2    Ryd( 3d)     0.00033

   121    C    9  S      Cor( 1S)     1.99908
   122    C    9  S      Val( 2S)     0.96815
   123    C    9  S      Ryd( 3S)     0.00068
   124    C    9  S      Ryd( 4S)     0.00006
   125    C    9  px     Val( 2p)     1.14015
   126    C    9  px     Ryd( 3p)     0.00394
   127    C    9  py     Val( 2p)     1.12328
   128    C    9  py     Ryd( 3p)     0.00468
   129    C    9  pz     Val( 2p)     0.86706
   130    C    9  pz     Ryd( 3p)     0.00165
   131    C    9  dxy    Ryd( 3d)     0.00093
   132    C    9  dxz    Ryd( 3d)     0.00057
   133    C    9  dyz    Ryd( 3d)     0.00049
   134    C    9  dx2y2  Ryd( 3d)     0.00069
   135    C    9  dz2    Ryd( 3d)     0.00041

   136    C   10  S      Cor( 1S)     1.99913
   137    C   10  S      Val( 2S)     0.97005
   138    C   10  S      Ryd( 3S)     0.00065
   139    C   10  S      Ryd( 4S)     0.00004
   140    C   10  px     Val( 2p)     1.06615
   141    C   10  px     Ryd( 3p)     0.00469
   142    C   10  py     Val( 2p)     1.18925
   143    C   10  py     Ryd( 3p)     0.00520
   144    C   10  pz     Val( 2p)     0.99201
   145    C   10  pz     Ryd( 3p)     0.00164
   146    C   10  dxy    Ryd( 3d)     0.00066
   147    C   10  dxz    Ryd( 3d)     0.00066
   148    C   10  dyz    Ryd( 3d)     0.00033
   149    C   10  dx2y2  Ryd( 3d)     0.00087
   150    C   10  dz2    Ryd( 3d)     0.00042

   151    C   11  S      Cor( 1S)     1.99911
   152    C   11  S      Val( 2S)     0.96962
   153    C   11  S      Ryd( 3S)     0.00062
   154    C   11  S      Ryd( 4S)     0.00003
   155    C   11  px     Val( 2p)     1.18439
   156    C   11  px     Ryd( 3p)     0.00517
   157    C   11  py     Val( 2p)     1.07553
   158    C   11  py     Ryd( 3p)     0.00475
   159    C   11  pz     Val( 2p)     0.98437
   160    C   11  pz     Ryd( 3p)     0.00138
   161    C   11  dxy    Ryd( 3d)     0.00068
   162    C   11  dxz    Ryd( 3d)     0.00034
   163    C   11  dyz    Ryd( 3d)     0.00069
   164    C   11  dx2y2  Ryd( 3d)     0.00085
   165    C   11  dz2    Ryd( 3d)     0.00042

   166    C   12  S      Cor( 1S)     1.99905
   167    C   12  S      Val( 2S)     0.96288
   168    C   12  S      Ryd( 3S)     0.00066
   169    C   12  S      Ryd( 4S)     0.00006
   170    C   12  px     Val( 2p)     1.12488
   171    C   12  px     Ryd( 3p)     0.00448
   172    C   12  py     Val( 2p)     1.12164
   173    C   12  py     Ryd( 3p)     0.00410
   174    C   12  pz     Val( 2p)     0.90063
   175    C   12  pz     Ryd( 3p)     0.00187
   176    C   12  dxy    Ryd( 3d)     0.00094
   177    C   12  dxz    Ryd( 3d)     0.00041
   178    C   12  dyz    Ryd( 3d)     0.00062
   179    C   12  dx2y2  Ryd( 3d)     0.00067
   180    C   12  dz2    Ryd( 3d)     0.00041

   181    O   13  S      Cor( 1S)     1.99975
   182    O   13  S      Val( 2S)     1.68900
   183    O   13  S      Ryd( 3S)     0.00070
   184    O   13  S      Ryd( 4S)     0.00003
   185    O   13  px     Val( 2p)     1.56632
   186    O   13  px     Ryd( 3p)     0.00172
   187    O   13  py     Val( 2p)     1.79170
   188    O   13  py     Ryd( 3p)     0.00103
   189    O   13  pz     Val( 2p)     1.83741
   190    O   13  pz     Ryd( 3p)     0.00054
   191    O   13  dxy    Ryd( 3d)     0.00132
   192    O   13  dxz    Ryd( 3d)     0.00011
   193    O   13  dyz    Ryd( 3d)     0.00179
   194    O   13  dx2y2  Ryd( 3d)     0.00136
   195    O   13  dz2    Ryd( 3d)     0.00106

   196    H   14  S      Val( 1S)     0.51883
   197    H   14  S      Ryd( 2S)     0.00249

   198    H   15  S      Val( 1S)     0.75632
   199    H   15  S      Ryd( 2S)     0.00135

   200    H   16  S      Val( 1S)     0.76746
   201    H   16  S      Ryd( 2S)     0.00090

   202    H   17  S      Val( 1S)     0.77603
   203    H   17  S      Ryd( 2S)     0.00123

   204    H   18  S      Val( 1S)     0.73849
   205    H   18  S      Ryd( 2S)     0.00110

   206    H   19  S      Val( 1S)     0.76149
   207    H   19  S      Ryd( 2S)     0.00084

   208    H   20  S      Val( 1S)     0.76014
   209    H   20  S      Ryd( 2S)     0.00080

   210    H   21  S      Val( 1S)     0.76409
   211    H   21  S      Ryd( 2S)     0.00124

   212    H   22  S      Val( 1S)     0.52072
   213    H   22  S      Ryd( 2S)     0.00226

 WARNING:  1 low occupancy (<1.9990e) core orbital  found on  C    3


 Summary of Natural Population Analysis:                  
                                                          
                                       Natural Population 
                Natural  -----------------------------------------------
    Atom  No    Charge         Core      Valence    Rydberg      Total
 -----------------------------------------------------------------------
      O    1   -0.90410      1.99974     6.89474    0.00962     8.90410
      B    2    1.06969      1.99925     1.90536    0.02569     3.93031
      C    3   -0.40937      1.99892     4.39147    0.01899     6.40937
      C    4   -0.20104      1.99912     4.18629    0.01563     6.20104
      C    5   -0.22190      1.99910     4.20703    0.01577     6.22190
      C    6   -0.25695      1.99906     4.24150    0.01640     6.25695
      C    7   -0.06803      1.99903     4.05402    0.01497     6.06803
      C    8   -0.04388      1.99906     4.02919    0.01564     6.04388
      C    9   -0.11181      1.99908     4.09864    0.01410     6.11181
      C   10   -0.23175      1.99913     4.21746    0.01516     6.23175
      C   11   -0.22796      1.99911     4.21391    0.01493     6.22796
      C   12   -0.12330      1.99905     4.11003    0.01422     6.12330
      O   13   -0.89382      1.99975     6.88443    0.00964     8.89382
      H   14    0.47868      0.00000     0.51883    0.00249     0.52132
      H   15    0.24233      0.00000     0.75632    0.00135     0.75767
      H   16    0.23165      0.00000     0.76746    0.00090     0.76835
      H   17    0.22274      0.00000     0.77603    0.00123     0.77726
      H   18    0.26041      0.00000     0.73849    0.00110     0.73959
      H   19    0.23766      0.00000     0.76149    0.00084     0.76234
      H   20    0.23906      0.00000     0.76014    0.00080     0.76094
      H   21    0.23467      0.00000     0.76409    0.00124     0.76533
      H   22    0.47701      0.00000     0.52072    0.00226     0.52299
 =======================================================================
   * Total *    0.00000     25.98939    63.79765    0.21296    90.00000

                                 Natural Population      
 --------------------------------------------------------
   Core                      25.98939 ( 99.9592% of  26)
   Valence                   63.79765 ( 99.6838% of  64)
   Natural Minimal Basis     89.78704 ( 99.7634% of  90)
   Natural Rydberg Basis      0.21296 (  0.2366% of  90)
 --------------------------------------------------------

    Atom  No          Natural Electron Configuration
 ----------------------------------------------------------------------------
      O    1      [core]2S( 1.69)2p( 5.21)3d( 0.01)
      B    2      [core]2S( 0.50)2p( 1.40)3p( 0.01)3d( 0.01)
      C    3      [core]2S( 0.98)2p( 3.41)3p( 0.01)
      C    4      [core]2S( 0.95)2p( 3.23)3p( 0.01)
      C    5      [core]2S( 0.96)2p( 3.25)3p( 0.01)
      C    6      [core]2S( 0.94)2p( 3.30)3p( 0.01)
      C    7      [core]2S( 0.88)2p( 3.18)3p( 0.01)
      C    8      [core]2S( 0.87)2p( 3.16)3p( 0.01)
      C    9      [core]2S( 0.97)2p( 3.13)3p( 0.01)
      C   10      [core]2S( 0.97)2p( 3.25)3p( 0.01)
      C   11      [core]2S( 0.97)2p( 3.24)3p( 0.01)
      C   12      [core]2S( 0.96)2p( 3.15)3p( 0.01)
      O   13      [core]2S( 1.69)2p( 5.20)3d( 0.01)
      H   14            1S( 0.52)
      H   15            1S( 0.76)
      H   16            1S( 0.77)
      H   17            1S( 0.78)
      H   18            1S( 0.74)
      H   19            1S( 0.76)
      H   20            1S( 0.76)
      H   21            1S( 0.76)
      H   22            1S( 0.52)


 NBO analysis skipped by request.
 Leave Link  607 at Sun Oct  3 23:45:45 2021, MaxMem=  805306368 cpu:      11.1
 (Enter /sw/target/amd/app/gaussian/Gaussian09RevA.02_gcc-4.9.2/g09/l9999.exe)
 1\1\GINC-HERMITE\SP\RTD-B3LYP-FC\6-31G(d)\C10H9B1O2\JSCHLEINITZ\03-Oct
 -2021\0\\#p TD(NStates=10, Root=1) b3lyp/6-31G* volume pop=NPA density
 =current Geom=AllCheck Guess=Read\\OB(c1cccc2c1cccc2)O_conf_0\\0,1\O,0
 ,2.9126674955,0.8332941017,-0.8001811049\B,0,2.4160209399,-0.015581310
 3,0.1645951637\C,0,3.2291655117,-0.3370406436,1.4680758073\C,0,2.75079
 93933,-1.3878182448,2.2428174867\C,0,3.3866886885,-1.8068830845,3.4314
 102548\C,0,4.521420358,-1.1619929818,3.8618105717\C,0,5.0614651478,-0.
 0750559209,3.1253136485\C,0,4.4164720154,0.3506780789,1.912440066\C,0,
 4.9930946173,1.4516646285,1.2162374062\C,0,6.1267692,2.0814852103,1.68
 24769437\C,0,6.7569020667,1.6528172113,2.8734959651\C,0,6.2300638465,0
 .5955180143,3.5771739134\O,0,1.1945278043,-0.6394883377,0.025882413\H,
 0,2.3249914207,0.9595127358,-1.5589740144\H,0,1.8541957155,-1.90769656
 32,1.9198174984\H,0,2.9758515789,-2.6372615359,3.9997118599\H,0,5.0237
 71916,-1.4730794791,4.7754695352\H,0,4.5266838321,1.7922519938,0.30101
 96985\H,0,6.5423133333,2.9190554748,1.1276803938\H,0,7.6508737586,2.15
 88161771,3.2284988842\H,0,6.7002797569,0.2542135151,4.4968895598\H,0,0
 .739927353,-0.452200248,-0.8069655176\\Version=AM64L-G09RevA.02\State=
 1-A\HF=-561.8988388\RMSD=7.453e-09\Dipole=0.2083255,0.6596496,-0.61685
 5\Quadrupole=0.4724036,-4.8487739,4.3763703,1.6694599,9.5220041,-2.707
 4725\PG=C01 [X(C10H9B1O2)]\\@


 YOU CANNOT THROW TO THE GROUND THE LETTERS OF
 THE GREEK ALPHABET AND PICK UP THE ILIAD.
        - RUFUS CHOATE, 1799-1859
 Job cpu time:  0 days  2 hours  0 minutes  4.9 seconds.
 File lengths (MBytes):  RWF=    150 Int=      0 D2E=      0 Chk=     21 Scr=      1
 Normal termination of Gaussian 09 at Sun Oct  3 23:45:49 2021.
