 Entering Gaussian System, Link 0=g09
 Input=C10H16OSi_93d7_conf_0.com
 Output=C10H16OSi_93d7_conf_0.log
 Initial command:
 /sw/target/amd/app/gaussian/Gaussian09RevA.02_gcc-4.9.2/g09/l1.exe /home/jschleinitz/gaussian/Gau-3127171.inp -scrdir=/home/jschleinitz/gaussian/
 Entering Link 1 = /sw/target/amd/app/gaussian/Gaussian09RevA.02_gcc-4.9.2/g09/l1.exe PID=   3127173.
  
 Copyright (c) 1988,1990,1992,1993,1995,1998,2003,2009, Gaussian, Inc.
                  All Rights Reserved.
  
 This is part of the Gaussian(R) 09 program.  It is based on
 the Gaussian(R) 03 system (copyright 2003, Gaussian, Inc.),
 the Gaussian(R) 98 system (copyright 1998, Gaussian, Inc.),
 the Gaussian(R) 94 system (copyright 1995, Gaussian, Inc.),
 the Gaussian 92(TM) system (copyright 1992, Gaussian, Inc.),
 the Gaussian 90(TM) system (copyright 1990, Gaussian, Inc.),
 the Gaussian 88(TM) system (copyright 1988, Gaussian, Inc.),
 the Gaussian 86(TM) system (copyright 1986, Carnegie Mellon
 University), and the Gaussian 82(TM) system (copyright 1983,
 Carnegie Mellon University). Gaussian is a federally registered
 trademark of Gaussian, Inc.
  
 This software contains proprietary and confidential information,
 including trade secrets, belonging to Gaussian, Inc.
  
 This software is provided under written license and may be
 used, copied, transmitted, or stored only in accord with that
 written license.
  
 The following legend is applicable only to US Government
 contracts under FAR:
  
                    RESTRICTED RIGHTS LEGEND
  
 Use, reproduction and disclosure by the US Government is
 subject to restrictions as set forth in subparagraphs (a)
 and (c) of the Commercial Computer Software - Restricted
 Rights clause in FAR 52.227-19.
  
 Gaussian, Inc.
 340 Quinnipiac St., Bldg. 40, Wallingford CT 06492
  
  
 ---------------------------------------------------------------
 Warning -- This program may not be used in any manner that
 competes with the business of Gaussian, Inc. or will provide
 assistance to any competitor of Gaussian, Inc.  The licensee
 of this program is prohibited from giving any competitor of
 Gaussian, Inc. access to this program.  By using this program,
 the user acknowledges that Gaussian, Inc. is engaged in the
 business of creating and licensing software in the field of
 computational chemistry and represents and warrants to the
 licensee that it is not a competitor of Gaussian, Inc. and that
 it will not use this program in any manner prohibited above.
 ---------------------------------------------------------------
  

 Cite this work as:
 Gaussian 09, Revision A.02,
 M. J. Frisch, G. W. Trucks, H. B. Schlegel, G. E. Scuseria, 
 M. A. Robb, J. R. Cheeseman, G. Scalmani, V. Barone, B. Mennucci, 
 G. A. Petersson, H. Nakatsuji, M. Caricato, X. Li, H. P. Hratchian, 
 A. F. Izmaylov, J. Bloino, G. Zheng, J. L. Sonnenberg, M. Hada, 
 M. Ehara, K. Toyota, R. Fukuda, J. Hasegawa, M. Ishida, T. Nakajima, 
 Y. Honda, O. Kitao, H. Nakai, T. Vreven, J. A. Montgomery, Jr., 
 J. E. Peralta, F. Ogliaro, M. Bearpark, J. J. Heyd, E. Brothers, 
 K. N. Kudin, V. N. Staroverov, R. Kobayashi, J. Normand, 
 K. Raghavachari, A. Rendell, J. C. Burant, S. S. Iyengar, J. Tomasi, 
 M. Cossi, N. Rega, J. M. Millam, M. Klene, J. E. Knox, J. B. Cross, 
 V. Bakken, C. Adamo, J. Jaramillo, R. Gomperts, R. E. Stratmann, 
 O. Yazyev, A. J. Austin, R. Cammi, C. Pomelli, J. W. Ochterski, 
 R. L. Martin, K. Morokuma, V. G. Zakrzewski, G. A. Voth, 
 P. Salvador, J. J. Dannenberg, S. Dapprich, A. D. Daniels, 
 O. Farkas, J. B. Foresman, J. V. Ortiz, J. Cioslowski, 
 and D. J. Fox, Gaussian, Inc., Wallingford CT, 2009.
 
 ******************************************
 Gaussian 09:  AM64L-G09RevA.02 11-Jun-2009
                30-Sep-2021 
 ******************************************
 %nproc=4
 Will use up to    4 processors via shared memory.
 %mem=8gb
 %chk=C10H16OSi_93d7_conf_0.chk
 -----------------------------------
 #p opt b3lyp/6-31G* scf=(xqc,tight)
 -----------------------------------
 1/14=-1,18=20,19=15,26=3,38=1/1,3;
 2/9=110,12=2,17=6,18=5,40=1/2;
 3/5=1,6=6,7=1,11=2,16=1,25=1,30=1,71=1,74=-5/1,2,3;
 4//1;
 5/5=2,8=3,13=1,32=2,38=5/2,8;
 6/7=2,8=2,9=2,10=2,28=1/1;
 7//1,2,3,16;
 1/14=-1,18=20,19=15/3(2);
 2/9=110/2;
 99//99;
 2/9=110/2;
 3/5=1,6=6,7=1,11=2,16=1,25=1,30=1,71=1,74=-5/1,2,3;
 4/5=5,16=3/1;
 5/5=2,8=3,13=1,32=2,38=5/2,8;
 7//1,2,3,16;
 1/14=-1,18=20,19=15/3(-5);
 2/9=110/2;
 6/7=2,8=2,9=2,10=2,19=2,28=1/1;
 99/9=1/99;
 Leave Link    1 at Thu Sep 30 11:51:02 2021, MaxMem= 1073741824 cpu:       0.1
 (Enter /sw/target/amd/app/gaussian/Gaussian09RevA.02_gcc-4.9.2/g09/l101.exe)
 ------------------------------
 Cc1ccc(cc1)O[Si](C)(C)C_conf_0
 ------------------------------
 Symbolic Z-matrix:
 Charge =  0 Multiplicity = 1
 C                     2.74247  -0.28199   0.08953 
 C                     1.25872  -0.06983   0.03141 
 C                     0.7187    1.21901  -0.04729 
 C                    -0.66574   1.40763  -0.12494 
 C                    -1.52354   0.30997  -0.12894 
 C                    -0.98938  -0.97682  -0.04495 
 C                     0.39272  -1.16805   0.03339 
 O                    -2.88671   0.38588  -0.21344 
 Si                   -3.9815    1.63592  -0.35286 
 C                    -3.88914   2.79634   1.12403 
 C                    -3.70321   2.63363  -1.92406 
 C                    -5.73671   0.94714  -0.43096 
 H                     3.28115   0.66852   0.1624 
 H                     3.08343  -0.79514  -0.81509 
 H                     3.00627  -0.88235   0.96602 
 H                     1.37129   2.08883  -0.05114 
 H                    -1.04066   2.4227   -0.1857 
 H                    -1.65374  -1.83747  -0.04461 
 H                     0.78722  -2.18002   0.09164 
 H                    -2.89682   3.24757   1.2086 
 H                    -4.09909   2.25356   2.05032 
 H                    -4.6222    3.60227   1.02432 
 H                    -2.72329   3.11879  -1.91435 
 H                    -4.4675    3.40979  -2.02138 
 H                    -3.75829   1.98574  -2.80374 
 H                    -5.97726   0.40548   0.48831 
 H                    -5.84019   0.26006  -1.2758 
 H                    -6.46012   1.7585   -0.55452 
 
 NAtoms=     28 NQM=     28 NQMF=      0 NMic=      0 NMicF=      0 NTot=     28.
                    Isotopes and Nuclear Properties:
 (Nuclear quadrupole moments (NQMom) in fm**2, nuclear magnetic moments (NMagM)
  in nuclear magnetons)

  Atom         1           2           3           4           5           6           7           8           9          10
 IAtWgt=          12          12          12          12          12          12          12          16          28          12
 AtmWgt=  12.0000000  12.0000000  12.0000000  12.0000000  12.0000000  12.0000000  12.0000000  15.9949146  27.9769284  12.0000000
 NucSpn=           0           0           0           0           0           0           0           0           0           0
 AtZEff=   0.0000000   0.0000000   0.0000000   0.0000000   0.0000000   0.0000000   0.0000000   0.0000000   0.0000000   0.0000000
 NQMom=    0.0000000   0.0000000   0.0000000   0.0000000   0.0000000   0.0000000   0.0000000   0.0000000   0.0000000   0.0000000
 NMagM=    0.0000000   0.0000000   0.0000000   0.0000000   0.0000000   0.0000000   0.0000000   0.0000000   0.0000000   0.0000000

  Atom        11          12          13          14          15          16          17          18          19          20
 IAtWgt=          12          12           1           1           1           1           1           1           1           1
 AtmWgt=  12.0000000  12.0000000   1.0078250   1.0078250   1.0078250   1.0078250   1.0078250   1.0078250   1.0078250   1.0078250
 NucSpn=           0           0           1           1           1           1           1           1           1           1
 AtZEff=   0.0000000   0.0000000   0.0000000   0.0000000   0.0000000   0.0000000   0.0000000   0.0000000   0.0000000   0.0000000
 NQMom=    0.0000000   0.0000000   0.0000000   0.0000000   0.0000000   0.0000000   0.0000000   0.0000000   0.0000000   0.0000000
 NMagM=    0.0000000   0.0000000   2.7928460   2.7928460   2.7928460   2.7928460   2.7928460   2.7928460   2.7928460   2.7928460

  Atom        21          22          23          24          25          26          27          28
 IAtWgt=           1           1           1           1           1           1           1           1
 AtmWgt=   1.0078250   1.0078250   1.0078250   1.0078250   1.0078250   1.0078250   1.0078250   1.0078250
 NucSpn=           1           1           1           1           1           1           1           1
 AtZEff=   0.0000000   0.0000000   0.0000000   0.0000000   0.0000000   0.0000000   0.0000000   0.0000000
 NQMom=    0.0000000   0.0000000   0.0000000   0.0000000   0.0000000   0.0000000   0.0000000   0.0000000
 NMagM=    2.7928460   2.7928460   2.7928460   2.7928460   2.7928460   2.7928460   2.7928460   2.7928460
 Leave Link  101 at Thu Sep 30 11:51:03 2021, MaxMem= 1073741824 cpu:       0.2
 (Enter /sw/target/amd/app/gaussian/Gaussian09RevA.02_gcc-4.9.2/g09/l103.exe)

 GradGradGradGradGradGradGradGradGradGradGradGradGradGradGradGradGradGrad
 Berny optimization.
 Initialization pass.
                           ----------------------------
                           !    Initial Parameters    !
                           ! (Angstroms and Degrees)  !
 --------------------------                            --------------------------
 ! Name  Definition              Value          Derivative Info.                !
 --------------------------------------------------------------------------------
 ! R1    R(1,2)                  1.5            estimate D2E/DX2                !
 ! R2    R(1,13)                 1.095          estimate D2E/DX2                !
 ! R3    R(1,14)                 1.0945         estimate D2E/DX2                !
 ! R4    R(1,15)                 1.0946         estimate D2E/DX2                !
 ! R5    R(2,3)                  1.3996         estimate D2E/DX2                !
 ! R6    R(2,7)                  1.3986         estimate D2E/DX2                !
 ! R7    R(3,4)                  1.3994         estimate D2E/DX2                !
 ! R8    R(3,16)                 1.0874         estimate D2E/DX2                !
 ! R9    R(4,5)                  1.3931         estimate D2E/DX2                !
 ! R10   R(4,17)                 1.0838         estimate D2E/DX2                !
 ! R11   R(5,6)                  1.3958         estimate D2E/DX2                !
 ! R12   R(5,8)                  1.3679         estimate D2E/DX2                !
 ! R13   R(6,7)                  1.3975         estimate D2E/DX2                !
 ! R14   R(6,18)                 1.0872         estimate D2E/DX2                !
 ! R15   R(7,19)                 1.0877         estimate D2E/DX2                !
 ! R16   R(8,9)                  1.6675         estimate D2E/DX2                !
 ! R17   R(9,10)                 1.8805         estimate D2E/DX2                !
 ! R18   R(9,11)                 1.8819         estimate D2E/DX2                !
 ! R19   R(9,12)                 1.8871         estimate D2E/DX2                !
 ! R20   R(10,20)                1.0934         estimate D2E/DX2                !
 ! R21   R(10,21)                1.0939         estimate D2E/DX2                !
 ! R22   R(10,22)                1.094          estimate D2E/DX2                !
 ! R23   R(11,23)                1.0935         estimate D2E/DX2                !
 ! R24   R(11,24)                1.0936         estimate D2E/DX2                !
 ! R25   R(11,25)                1.0939         estimate D2E/DX2                !
 ! R26   R(12,26)                1.0938         estimate D2E/DX2                !
 ! R27   R(12,27)                1.0939         estimate D2E/DX2                !
 ! R28   R(12,28)                1.094          estimate D2E/DX2                !
 ! A1    A(2,1,13)             111.4962         estimate D2E/DX2                !
 ! A2    A(2,1,14)             110.0257         estimate D2E/DX2                !
 ! A3    A(2,1,15)             110.3033         estimate D2E/DX2                !
 ! A4    A(13,1,14)            107.9831         estimate D2E/DX2                !
 ! A5    A(13,1,15)            107.7129         estimate D2E/DX2                !
 ! A6    A(14,1,15)            109.2434         estimate D2E/DX2                !
 ! A7    A(1,2,3)              120.9365         estimate D2E/DX2                !
 ! A8    A(1,2,7)              120.0908         estimate D2E/DX2                !
 ! A9    A(3,2,7)              118.9646         estimate D2E/DX2                !
 ! A10   A(2,3,4)              120.5937         estimate D2E/DX2                !
 ! A11   A(2,3,16)             120.3471         estimate D2E/DX2                !
 ! A12   A(4,3,16)             119.0591         estimate D2E/DX2                !
 ! A13   A(3,4,5)              120.2081         estimate D2E/DX2                !
 ! A14   A(3,4,17)             118.1373         estimate D2E/DX2                !
 ! A15   A(5,4,17)             121.6539         estimate D2E/DX2                !
 ! A16   A(4,5,6)              119.3787         estimate D2E/DX2                !
 ! A17   A(4,5,8)              124.7563         estimate D2E/DX2                !
 ! A18   A(6,5,8)              115.8648         estimate D2E/DX2                !
 ! A19   A(5,6,7)              120.5319         estimate D2E/DX2                !
 ! A20   A(5,6,18)             119.7321         estimate D2E/DX2                !
 ! A21   A(7,6,18)             119.7356         estimate D2E/DX2                !
 ! A22   A(2,7,6)              120.3214         estimate D2E/DX2                !
 ! A23   A(2,7,19)             120.4023         estimate D2E/DX2                !
 ! A24   A(6,7,19)             119.2758         estimate D2E/DX2                !
 ! A25   A(5,8,9)              134.5104         estimate D2E/DX2                !
 ! A26   A(8,9,10)             111.3876         estimate D2E/DX2                !
 ! A27   A(8,9,11)             111.725          estimate D2E/DX2                !
 ! A28   A(8,9,12)             109.9072         estimate D2E/DX2                !
 ! A29   A(10,9,11)            108.7408         estimate D2E/DX2                !
 ! A30   A(10,9,12)            107.6624         estimate D2E/DX2                !
 ! A31   A(11,9,12)            107.2468         estimate D2E/DX2                !
 ! A32   A(9,10,20)            111.0995         estimate D2E/DX2                !
 ! A33   A(9,10,21)            110.4512         estimate D2E/DX2                !
 ! A34   A(9,10,22)            110.4932         estimate D2E/DX2                !
 ! A35   A(20,10,21)           108.2678         estimate D2E/DX2                !
 ! A36   A(20,10,22)           108.1295         estimate D2E/DX2                !
 ! A37   A(21,10,22)           108.3058         estimate D2E/DX2                !
 ! A38   A(9,11,23)            111.1202         estimate D2E/DX2                !
 ! A39   A(9,11,24)            110.3169         estimate D2E/DX2                !
 ! A40   A(9,11,25)            110.484          estimate D2E/DX2                !
 ! A41   A(23,11,24)           108.1911         estimate D2E/DX2                !
 ! A42   A(23,11,25)           108.363          estimate D2E/DX2                !
 ! A43   A(24,11,25)           108.276          estimate D2E/DX2                !
 ! A44   A(9,12,26)            110.5192         estimate D2E/DX2                !
 ! A45   A(9,12,27)            110.4386         estimate D2E/DX2                !
 ! A46   A(9,12,28)            110.4261         estimate D2E/DX2                !
 ! A47   A(26,12,27)           108.4975         estimate D2E/DX2                !
 ! A48   A(26,12,28)           108.4681         estimate D2E/DX2                !
 ! A49   A(27,12,28)           108.4241         estimate D2E/DX2                !
 ! D1    D(13,1,2,3)             5.6556         estimate D2E/DX2                !
 ! D2    D(13,1,2,7)          -175.3909         estimate D2E/DX2                !
 ! D3    D(14,1,2,3)          -114.1272         estimate D2E/DX2                !
 ! D4    D(14,1,2,7)            64.8262         estimate D2E/DX2                !
 ! D5    D(15,1,2,3)           125.2835         estimate D2E/DX2                !
 ! D6    D(15,1,2,7)           -55.763          estimate D2E/DX2                !
 ! D7    D(1,2,3,4)            178.8669         estimate D2E/DX2                !
 ! D8    D(1,2,3,16)            -0.9957         estimate D2E/DX2                !
 ! D9    D(7,2,3,4)             -0.0982         estimate D2E/DX2                !
 ! D10   D(7,2,3,16)          -179.9607         estimate D2E/DX2                !
 ! D11   D(1,2,7,6)           -178.8431         estimate D2E/DX2                !
 ! D12   D(1,2,7,19)             0.8982         estimate D2E/DX2                !
 ! D13   D(3,2,7,6)              0.1309         estimate D2E/DX2                !
 ! D14   D(3,2,7,19)           179.8722         estimate D2E/DX2                !
 ! D15   D(2,3,4,5)             -0.2028         estimate D2E/DX2                !
 ! D16   D(2,3,4,17)          -179.9206         estimate D2E/DX2                !
 ! D17   D(16,3,4,5)           179.6614         estimate D2E/DX2                !
 ! D18   D(16,3,4,17)           -0.0563         estimate D2E/DX2                !
 ! D19   D(3,4,5,6)              0.4675         estimate D2E/DX2                !
 ! D20   D(3,4,5,8)           -179.3881         estimate D2E/DX2                !
 ! D21   D(17,4,5,6)          -179.8249         estimate D2E/DX2                !
 ! D22   D(17,4,5,8)             0.3196         estimate D2E/DX2                !
 ! D23   D(4,5,6,7)             -0.4359         estimate D2E/DX2                !
 ! D24   D(4,5,6,18)           179.8187         estimate D2E/DX2                !
 ! D25   D(8,5,6,7)            179.4322         estimate D2E/DX2                !
 ! D26   D(8,5,6,18)            -0.3132         estimate D2E/DX2                !
 ! D27   D(4,5,8,9)              0.986          estimate D2E/DX2                !
 ! D28   D(6,5,8,9)           -178.8741         estimate D2E/DX2                !
 ! D29   D(5,6,7,2)              0.1368         estimate D2E/DX2                !
 ! D30   D(5,6,7,19)          -179.6075         estimate D2E/DX2                !
 ! D31   D(18,6,7,2)           179.8821         estimate D2E/DX2                !
 ! D32   D(18,6,7,19)            0.1379         estimate D2E/DX2                !
 ! D33   D(5,8,9,10)           -61.3007         estimate D2E/DX2                !
 ! D34   D(5,8,9,11)            60.5349         estimate D2E/DX2                !
 ! D35   D(5,8,9,12)           179.4647         estimate D2E/DX2                !
 ! D36   D(8,9,10,20)           60.7676         estimate D2E/DX2                !
 ! D37   D(8,9,10,21)          -59.3965         estimate D2E/DX2                !
 ! D38   D(8,9,10,22)         -179.2142         estimate D2E/DX2                !
 ! D39   D(11,9,10,20)         -62.7822         estimate D2E/DX2                !
 ! D40   D(11,9,10,21)         177.0537         estimate D2E/DX2                !
 ! D41   D(11,9,10,22)          57.2361         estimate D2E/DX2                !
 ! D42   D(12,9,10,20)        -178.6698         estimate D2E/DX2                !
 ! D43   D(12,9,10,21)          61.1661         estimate D2E/DX2                !
 ! D44   D(12,9,10,22)         -58.6516         estimate D2E/DX2                !
 ! D45   D(8,9,11,23)          -63.2621         estimate D2E/DX2                !
 ! D46   D(8,9,11,24)          176.7455         estimate D2E/DX2                !
 ! D47   D(8,9,11,25)           57.0572         estimate D2E/DX2                !
 ! D48   D(10,9,11,23)          60.0859         estimate D2E/DX2                !
 ! D49   D(10,9,11,24)         -59.9066         estimate D2E/DX2                !
 ! D50   D(10,9,11,25)        -179.5949         estimate D2E/DX2                !
 ! D51   D(12,9,11,23)         176.2412         estimate D2E/DX2                !
 ! D52   D(12,9,11,24)          56.2488         estimate D2E/DX2                !
 ! D53   D(12,9,11,25)         -63.4395         estimate D2E/DX2                !
 ! D54   D(8,9,12,26)           61.7744         estimate D2E/DX2                !
 ! D55   D(8,9,12,27)          -58.2911         estimate D2E/DX2                !
 ! D56   D(8,9,12,28)         -178.2049         estimate D2E/DX2                !
 ! D57   D(10,9,12,26)         -59.7157         estimate D2E/DX2                !
 ! D58   D(10,9,12,27)        -179.7812         estimate D2E/DX2                !
 ! D59   D(10,9,12,28)          60.305          estimate D2E/DX2                !
 ! D60   D(11,9,12,26)        -176.5819         estimate D2E/DX2                !
 ! D61   D(11,9,12,27)          63.3527         estimate D2E/DX2                !
 ! D62   D(11,9,12,28)         -56.5611         estimate D2E/DX2                !
 --------------------------------------------------------------------------------
 Trust Radius=3.00D-01 FncErr=1.00D-07 GrdErr=1.00D-06
 Number of steps in this run= 149 maximum allowed number of steps= 168.
 GradGradGradGradGradGradGradGradGradGradGradGradGradGradGradGradGradGrad

 Leave Link  103 at Thu Sep 30 11:51:03 2021, MaxMem= 1073741824 cpu:       0.0
 (Enter /sw/target/amd/app/gaussian/Gaussian09RevA.02_gcc-4.9.2/g09/l202.exe)
                          Input orientation:                          
 ---------------------------------------------------------------------
 Center     Atomic      Atomic             Coordinates (Angstroms)
 Number     Number       Type             X           Y           Z
 ---------------------------------------------------------------------
      1          6           0        2.742467   -0.281990    0.089531
      2          6           0        1.258716   -0.069826    0.031408
      3          6           0        0.718703    1.219013   -0.047293
      4          6           0       -0.665737    1.407628   -0.124943
      5          6           0       -1.523543    0.309974   -0.128943
      6          6           0       -0.989378   -0.976824   -0.044946
      7          6           0        0.392724   -1.168055    0.033388
      8          8           0       -2.886705    0.385879   -0.213438
      9         14           0       -3.981501    1.635916   -0.352859
     10          6           0       -3.889139    2.796337    1.124031
     11          6           0       -3.703214    2.633633   -1.924058
     12          6           0       -5.736711    0.947140   -0.430956
     13          1           0        3.281153    0.668518    0.162398
     14          1           0        3.083427   -0.795143   -0.815095
     15          1           0        3.006269   -0.882350    0.966017
     16          1           0        1.371290    2.088825   -0.051139
     17          1           0       -1.040661    2.422699   -0.185701
     18          1           0       -1.653741   -1.837469   -0.044614
     19          1           0        0.787218   -2.180019    0.091636
     20          1           0       -2.896821    3.247567    1.208601
     21          1           0       -4.099093    2.253565    2.050318
     22          1           0       -4.622202    3.602271    1.024318
     23          1           0       -2.723287    3.118789   -1.914350
     24          1           0       -4.467502    3.409786   -2.021376
     25          1           0       -3.758291    1.985738   -2.803739
     26          1           0       -5.977261    0.405482    0.488315
     27          1           0       -5.840189    0.260058   -1.275796
     28          1           0       -6.460120    1.758503   -0.554524
 ---------------------------------------------------------------------
                    Distance matrix (angstroms):
                    1          2          3          4          5
     1  C    0.000000
     2  C    1.499970   0.000000
     3  C    2.523361   1.399612   0.000000
     4  C    3.810074   2.431221   1.399385   0.000000
     5  C    4.312423   2.812637   2.420885   1.393087   0.000000
     6  C    3.798361   2.425367   2.781950   2.407645   1.395792
     7  C    2.511883   1.398590   2.410573   2.789184   2.425489
     8  O    5.676744   4.177576   3.704144   2.446324   1.367887
     9  Si   7.006127   5.524228   4.728540   3.331419   2.801753
    10  C    7.384070   5.992423   5.009207   3.725422   3.653490
    11  C    7.355420   5.979406   5.007669   3.737135   3.656884
    12  C    8.583597   7.084067   6.472518   5.101027   4.271766
    13  H    1.094969   2.156980   2.629290   4.025765   4.826855
    14  H    1.094498   2.138275   3.199729   4.402810   4.787093
    15  H    1.094646   2.141875   3.267335   4.462938   4.810381
    16  H    2.742386   2.163160   1.087409   2.149175   3.398591
    17  H    4.658665   3.398081   2.136206   1.083803   2.167949
    18  H    4.665207   3.407748   3.869183   3.393119   2.153038
    19  H    2.724981   2.163066   3.402560   3.876751   3.404164
    20  H    6.746233   5.446041   4.331779   3.184564   3.507758
    21  H    7.555175   6.179018   5.355504   4.151542   3.893608
    22  H    8.378524   7.003954   5.945884   4.668070   4.665932
    23  H    6.742055   5.459816   4.352281   3.219249   3.537868
    24  H    8.370710   7.007938   5.966004   4.696649   4.675151
    25  H    7.468163   6.118314   5.313129   4.132076   3.867405
    26  H    8.755873   7.265951   6.766435   5.439914   4.497303
    27  H    8.707464   7.225792   6.741505   5.423683   4.466677
    28  H    9.448070   7.954026   7.216912   5.820870   5.162281
                    6          7          8          9         10
     6  C    0.000000
     7  C    1.397466   0.000000
     8  O    2.342050   3.637346   0.000000
     9  Si   3.984221   5.210113   1.667515   0.000000
    10  C    4.900190   5.936350   2.933258   1.880508   0.000000
    11  C    4.891970   5.921244   2.940290   1.881901   3.058085
    12  C    5.136907   6.500742   2.912879   1.887134   3.041552
    13  H    4.581220   3.425298   6.185759   7.344896   7.540918
    14  H    4.148961   2.845851   6.115496   7.485781   8.079332
    15  H    4.122641   2.789632   6.142204   7.543873   7.816928
    16  H    3.869237   3.401765   4.588778   5.380383   5.436332
    17  H    3.402822   3.872480   2.749051   3.048853   3.157345
    18  H    1.087239   2.154580   2.547937   4.192599   5.275879
    19  H    2.150030   1.087700   4.491616   6.123693   6.906394
    20  H    4.801582   5.630270   3.195552   2.492410   1.093369
    21  H    4.949330   5.995991   3.175330   2.484064   1.093933
    22  H    5.942125   6.991955   3.858648   2.484687   1.094008
    23  H    4.824433   5.646258   3.223136   2.494047   3.270313
    24  H    5.936831   6.985733   3.861550   2.483296   3.256440
    25  H    4.904548   5.935202   3.166840   2.485762   4.012675
    26  H    5.203279   6.577209   3.169286   2.490903   3.237371
    27  H    5.155118   6.527072   3.141258   2.489884   3.999810
    28  H    6.137646   7.474747   3.843140   2.489829   3.241078
                   11         12         13         14         15
    11  C    0.000000
    12  C    3.034588   0.000000
    13  H    7.549594   9.041658   0.000000
    14  H    7.684062   8.998775   1.771127   0.000000
    15  H    8.107517   9.040922   1.768206   1.784913   0.000000
    16  H    5.436472   7.209118   2.389655   3.439813   3.540571
    17  H    3.186780   4.928520   4.677222   5.268657   5.350462
    18  H    5.265302   4.957213   5.538592   4.911298   4.863057
    19  H    6.884639   7.253543   3.786672   2.830657   2.715267
    20  H    3.292527   4.005632   6.775942   7.496813   7.208434
    21  H    4.012086   3.247346   7.781044   8.312268   7.841929
    22  H    3.236622   3.226403   8.474246   9.060762   8.849226
    23  H    1.093493   3.999656   6.809553   7.088382   7.558666
    24  H    1.093627   3.194520   8.504415   8.726573   9.121633
    25  H    1.093910   3.259284   7.751569   7.648341   8.258103
    26  H    3.994432   1.093762   9.267882   9.232358   9.087933
    27  H    3.258952   1.093867   9.243059   8.997590   9.197318
    28  H    3.200313   1.094029   9.828247   9.882727   9.944781
                   16         17         18         19         20
    16  H    0.000000
    17  H    2.438665   0.000000
    18  H    4.956474   4.306368   0.000000
    19  H    4.310981   4.960148   2.468640   0.000000
    20  H    4.598521   2.463699   5.382693   6.654205   0.000000
    21  H    5.862453   3.792412   5.206251   6.882524   1.772565
    22  H    6.274478   3.960173   6.288494   7.972867   1.771078
    23  H    4.614969   2.510777   5.404104   6.665208   3.130419
    24  H    6.302242   4.010895   6.273637   7.957564   3.595289
    25  H    5.822373   3.798759   5.163218   6.811636   4.293392
    26  H    7.558164   5.375265   4.899762   7.252609   4.252689
    27  H    7.539868   5.375946   4.841671   7.193495   4.874511
    28  H    7.854520   5.472451   6.024309   8.273656   4.245353
                   21         22         23         24         25
    21  H    0.000000
    22  H    1.773507   0.000000
    23  H    4.284863   3.532054   0.000000
    24  H    4.248677   3.055689   1.771558   0.000000
    25  H    4.873371   4.244236   1.773711   1.772846   0.000000
    26  H    3.063131   3.513252   4.870644   4.195683   4.273014
    27  H    4.250708   4.236084   4.277286   3.515814   3.105943
    28  H    3.550314   3.044694   4.202788   2.974713   3.522851
                   26         27         28
    26  H    0.000000
    27  H    1.775394   0.000000
    28  H    1.775198   1.774792   0.000000
 Stoichiometry    C10H16OSi
 Framework group  C1[X(C10H16OSi)]
 Deg. of freedom    78
 Full point group                 C1      NOp   1
 Largest Abelian subgroup         C1      NOp   1
 Largest concise Abelian subgroup C1      NOp   1
                         Standard orientation:                         
 ---------------------------------------------------------------------
 Center     Atomic      Atomic             Coordinates (Angstroms)
 Number     Number       Type             X           Y           Z
 ---------------------------------------------------------------------
      1          6           0        4.709257   -0.389442    0.031768
      2          6           0        3.236794   -0.105803   -0.004401
      3          6           0        2.303224   -1.148519   -0.014713
      4          6           0        0.930748   -0.875595   -0.024685
      5          6           0        0.478039    0.441875   -0.020187
      6          6           0        1.405791    1.484703   -0.015583
      7          6           0        2.776959    1.215031   -0.006309
      8          8           0       -0.838212    0.814146   -0.017046
      9         14           0       -2.286630   -0.011855    0.003322
     10          6           0       -2.475300   -1.102927   -1.516638
     11          6           0       -2.456104   -1.083015    1.541322
     12          6           0       -3.723755    1.211202    0.012155
     13          1           0        4.913497   -1.461851   -0.052985
     14          1           0        5.135572   -0.037895    0.976541
     15          1           0        5.213285    0.112362   -0.800338
     16          1           0        2.635861   -2.183800   -0.012828
     17          1           0        0.243090   -1.713277   -0.031156
     18          1           0        1.058827    2.515093   -0.015047
     19          1           0        3.481896    2.043316    0.003641
     20          1           0       -1.680132   -1.851827   -1.564725
     21          1           0       -2.433437   -0.499328   -2.428014
     22          1           0       -3.435483   -1.626803   -1.495260
     23          1           0       -1.688782   -1.861701    1.565666
     24          1           0       -3.435897   -1.568485    1.559872
     25          1           0       -2.357853   -0.474011    2.444705
     26          1           0       -3.711593    1.823590   -0.894018
     27          1           0       -3.656033    1.873895    0.879794
     28          1           0       -4.678230    0.678467    0.057631
 ---------------------------------------------------------------------
 Rotational constants (GHZ):      2.0080407      0.3814808      0.3572721
 Leave Link  202 at Thu Sep 30 11:51:03 2021, MaxMem= 1073741824 cpu:       0.1
 (Enter /sw/target/amd/app/gaussian/Gaussian09RevA.02_gcc-4.9.2/g09/l301.exe)
 Standard basis: 6-31G(d) (6D, 7F)
 Ernie: Thresh=  0.10000D-02 Tol=  0.10000D-05 Strict=F.
 There are   216 symmetry adapted basis functions of A   symmetry.
 Integral buffers will be    131072 words long.
 Raffenetti 2 integral format.
 Two-electron integral symmetry is turned on.
   216 basis functions,   424 primitive gaussians,   216 cartesian basis functions
    49 alpha electrons       49 beta electrons
       nuclear repulsion energy       780.4584412913 Hartrees.
 IExCor=  402 DFT=T Ex+Corr=B3LYP ExCW=0 ScaHFX=  0.200000
 ScaDFX=  0.800000  0.720000  1.000000  0.810000 ScalE2=  1.000000  1.000000
 IRadAn=      0 IRanWt=     -1 IRanGd=            0 ICorTp=0
 NAtoms=   28 NActive=   28 NUniq=   28 SFac= 7.50D-01 NAtFMM=   80 NAOKFM=F Big=F
 Leave Link  301 at Thu Sep 30 11:51:04 2021, MaxMem= 1073741824 cpu:       0.1
 (Enter /sw/target/amd/app/gaussian/Gaussian09RevA.02_gcc-4.9.2/g09/l302.exe)
 NPDir=0 NMtPBC=     1 NCelOv=     1 NCel=       1 NClECP=     1 NCelD=      1
         NCelK=      1 NCelE2=     1 NClLst=     1 CellRange=     0.0.
 One-electron integrals computed using PRISM.
 NBasis=   216 RedAO= T  NBF=   216
 NBsUse=   216 1.00D-06 NBFU=   216
 Precomputing XC quadrature grid using
 IXCGrd= 2 IRadAn=           0 IRanWt=          -1 IRanGd=           0 AccXCQ= 1.00D-10.
 NRdTot=    1778 NPtTot=      225828 NUsed=      238651 NTot=      238683
 NSgBfM=   215   215   215   215   215 NAtAll=    28    28.
 Leave Link  302 at Thu Sep 30 11:51:07 2021, MaxMem= 1073741824 cpu:       2.1
 (Enter /sw/target/amd/app/gaussian/Gaussian09RevA.02_gcc-4.9.2/g09/l303.exe)
 DipDrv:  MaxL=1.
 Leave Link  303 at Thu Sep 30 11:51:08 2021, MaxMem= 1073741824 cpu:       0.2
 (Enter /sw/target/amd/app/gaussian/Gaussian09RevA.02_gcc-4.9.2/g09/l401.exe)
 Harris functional with IExCor=  402 diagonalized for initial guess.
 ExpMin= 7.78D-02 ExpMax= 1.61D+04 ExpMxC= 2.43D+03 IAcc=2 IRadAn=         0 AccDes= 0.00D+00
 HarFok:  IExCor=  402 AccDes= 0.00D+00 IRadAn=         0 IDoV= 1
 ScaDFX=  1.000000  1.000000  1.000000  1.000000
 FoFCou: FMM=F IPFlag=           0 FMFlag=      100000 FMFlg1=           0
         NFxFlg=           0 DoJE=T BraDBF=F KetDBF=T FulRan=T
         Omega=  0.000000  0.000000  1.000000  0.000000  0.000000 ICntrl=     500 IOpCl=  0
         NMat0=    1 NMatS0=    1 NMatT0=    0 NMatD0=    1 NMtDS0=    0 NMtDT0=    0
         I1Cent=           4 NGrid=           0.
 Petite list used in FoFCou.
 Harris En= -755.712598829336    
 Initial guess orbital symmetries:
       Occupied  (A) (A) (A) (A) (A) (A) (A) (A) (A) (A) (A) (A)
                 (A) (A) (A) (A) (A) (A) (A) (A) (A) (A) (A) (A)
                 (A) (A) (A) (A) (A) (A) (A) (A) (A) (A) (A) (A)
                 (A) (A) (A) (A) (A) (A) (A) (A) (A) (A) (A) (A)
                 (A)
       Virtual   (A) (A) (A) (A) (A) (A) (A) (A) (A) (A) (A) (A)
                 (A) (A) (A) (A) (A) (A) (A) (A) (A) (A) (A) (A)
                 (A) (A) (A) (A) (A) (A) (A) (A) (A) (A) (A) (A)
                 (A) (A) (A) (A) (A) (A) (A) (A) (A) (A) (A) (A)
                 (A) (A) (A) (A) (A) (A) (A) (A) (A) (A) (A) (A)
                 (A) (A) (A) (A) (A) (A) (A) (A) (A) (A) (A) (A)
                 (A) (A) (A) (A) (A) (A) (A) (A) (A) (A) (A) (A)
                 (A) (A) (A) (A) (A) (A) (A) (A) (A) (A) (A) (A)
                 (A) (A) (A) (A) (A) (A) (A) (A) (A) (A) (A) (A)
                 (A) (A) (A) (A) (A) (A) (A) (A) (A) (A) (A) (A)
                 (A) (A) (A) (A) (A) (A) (A) (A) (A) (A) (A) (A)
                 (A) (A) (A) (A) (A) (A) (A) (A) (A) (A) (A) (A)
                 (A) (A) (A) (A) (A) (A) (A) (A) (A) (A) (A) (A)
                 (A) (A) (A) (A) (A) (A) (A) (A) (A) (A) (A)
 The electronic state of the initial guess is 1-A.
 Leave Link  401 at Thu Sep 30 11:51:30 2021, MaxMem= 1073741824 cpu:      19.6
 (Enter /sw/target/amd/app/gaussian/Gaussian09RevA.02_gcc-4.9.2/g09/l502.exe)
 Closed shell SCF:
 Requested convergence on RMS density matrix=1.00D-08 within  64 cycles.
 Requested convergence on MAX density matrix=1.00D-06.
 Requested convergence on             energy=1.00D-06.
 No special actions if energy rises.
 Using DIIS extrapolation, IDIIS=  1040.
 Integral symmetry usage will be decided dynamically.
       238386 words used for storage of precomputed grid.
 Keep R1 ints in memory in canonical form, NReq=280130665.
 IEnd=      386837 IEndB=      386837 NGot=  1073741824 MDV=   798771290
 LenX=   798771290 LenY=   798724193
 Symmetry not used in FoFDir.
 MinBra= 0 MaxBra= 2 Meth= 1.
 IRaf=       0 NMat=   1 IRICut=       1 DoRegI=T DoRafI=F ISym2E= 0 JSym2E=0.
 Integral accuracy reduced to 1.0D-05 until final iterations.

 Cycle   1  Pass 0  IDiag  1:
 E= -754.917969587174    
 DIIS: error= 4.95D-02 at cycle   1 NSaved=   1.
 NSaved= 1 IEnMin= 1 EnMin= -754.917969587174     IErMin= 1 ErrMin= 4.95D-02
 ErrMax= 4.95D-02 EMaxC= 1.00D-01 BMatC= 5.69D-01 BMatP= 5.69D-01
 IDIUse=3 WtCom= 5.05D-01 WtEn= 4.95D-01
 Coeff-Com:  0.100D+01
 Coeff-En:   0.100D+01
 Coeff:      0.100D+01
 Gap=     0.224 Goal=   None    Shift=    0.000
 GapD=    0.224 DampG=1.000 DampE=0.500 DampFc=0.5000 IDamp=-1.
 Damping current iteration by 5.00D-01
 RMSDP=7.10D-03 MaxDP=1.82D-01              OVMax= 2.13D-01

 Cycle   2  Pass 0  IDiag  1:
 E= -755.189576334186     Delta-E=       -0.271606747011 Rises=F Damp=T
 DIIS: error= 1.06D-02 at cycle   2 NSaved=   2.
 NSaved= 2 IEnMin= 2 EnMin= -755.189576334186     IErMin= 2 ErrMin= 1.06D-02
 ErrMax= 1.06D-02 EMaxC= 1.00D-01 BMatC= 1.53D-02 BMatP= 5.69D-01
 IDIUse=3 WtCom= 8.94D-01 WtEn= 1.06D-01
 Coeff-Com:  0.514D-01 0.949D+00
 Coeff-En:   0.852D-01 0.915D+00
 Coeff:      0.550D-01 0.945D+00
 Gap=     0.226 Goal=   None    Shift=    0.000
 RMSDP=1.30D-03 MaxDP=4.64D-02 DE=-2.72D-01 OVMax= 1.19D-01

 Cycle   3  Pass 0  IDiag  1:
 E= -755.492315742340     Delta-E=       -0.302739408155 Rises=F Damp=F
 DIIS: error= 5.09D-03 at cycle   3 NSaved=   3.
 NSaved= 3 IEnMin= 3 EnMin= -755.492315742340     IErMin= 3 ErrMin= 5.09D-03
 ErrMax= 5.09D-03 EMaxC= 1.00D-01 BMatC= 5.05D-03 BMatP= 1.53D-02
 IDIUse=3 WtCom= 9.49D-01 WtEn= 5.09D-02
 Coeff-Com:  0.761D-02 0.319D+00 0.673D+00
 Coeff-En:   0.000D+00 0.000D+00 0.100D+01
 Coeff:      0.722D-02 0.303D+00 0.690D+00
 Gap=     0.213 Goal=   None    Shift=    0.000
 RMSDP=6.29D-04 MaxDP=2.14D-02 DE=-3.03D-01 OVMax= 4.80D-02

 Cycle   4  Pass 0  IDiag  1:
 E= -755.492897058819     Delta-E=       -0.000581316478 Rises=F Damp=F
 DIIS: error= 5.45D-03 at cycle   4 NSaved=   4.
 NSaved= 4 IEnMin= 4 EnMin= -755.492897058819     IErMin= 3 ErrMin= 5.09D-03
 ErrMax= 5.45D-03 EMaxC= 1.00D-01 BMatC= 4.28D-03 BMatP= 5.05D-03
 IDIUse=3 WtCom= 9.46D-01 WtEn= 5.45D-02
 Coeff-Com: -0.122D-02 0.437D-01 0.474D+00 0.484D+00
 Coeff-En:   0.000D+00 0.000D+00 0.476D+00 0.524D+00
 Coeff:     -0.116D-02 0.413D-01 0.474D+00 0.486D+00
 Gap=     0.214 Goal=   None    Shift=    0.000
 RMSDP=3.37D-04 MaxDP=1.13D-02 DE=-5.81D-04 OVMax= 2.90D-02

 Cycle   5  Pass 0  IDiag  1:
 E= -755.497322902843     Delta-E=       -0.004425844024 Rises=F Damp=F
 DIIS: error= 6.59D-04 at cycle   5 NSaved=   5.
 NSaved= 5 IEnMin= 5 EnMin= -755.497322902843     IErMin= 5 ErrMin= 6.59D-04
 ErrMax= 6.59D-04 EMaxC= 1.00D-01 BMatC= 9.28D-05 BMatP= 4.28D-03
 IDIUse=3 WtCom= 9.93D-01 WtEn= 6.59D-03
 Coeff-Com: -0.192D-03 0.643D-02 0.204D+00 0.239D+00 0.551D+00
 Coeff-En:   0.000D+00 0.000D+00 0.000D+00 0.000D+00 0.100D+01
 Coeff:     -0.191D-03 0.639D-02 0.202D+00 0.238D+00 0.554D+00
 Gap=     0.214 Goal=   None    Shift=    0.000
 RMSDP=6.29D-05 MaxDP=2.09D-03 DE=-4.43D-03 OVMax= 4.89D-03

 Cycle   6  Pass 0  IDiag  1:
 E= -755.497401849596     Delta-E=       -0.000078946753 Rises=F Damp=F
 DIIS: error= 3.47D-04 at cycle   6 NSaved=   6.
 NSaved= 6 IEnMin= 6 EnMin= -755.497401849596     IErMin= 6 ErrMin= 3.47D-04
 ErrMax= 3.47D-04 EMaxC= 1.00D-01 BMatC= 1.87D-05 BMatP= 9.28D-05
 IDIUse=3 WtCom= 9.97D-01 WtEn= 3.47D-03
 Coeff-Com:  0.118D-03-0.132D-02 0.662D-01 0.865D-01 0.344D+00 0.504D+00
 Coeff-En:   0.000D+00 0.000D+00 0.000D+00 0.000D+00 0.145D+00 0.855D+00
 Coeff:      0.118D-03-0.131D-02 0.660D-01 0.862D-01 0.344D+00 0.505D+00
 Gap=     0.214 Goal=   None    Shift=    0.000
 RMSDP=2.29D-05 MaxDP=8.70D-04 DE=-7.89D-05 OVMax= 1.42D-03

 Cycle   7  Pass 0  IDiag  1:
 E= -755.497418061689     Delta-E=       -0.000016212093 Rises=F Damp=F
 DIIS: error= 7.66D-05 at cycle   7 NSaved=   7.
 NSaved= 7 IEnMin= 7 EnMin= -755.497418061689     IErMin= 7 ErrMin= 7.66D-05
 ErrMax= 7.66D-05 EMaxC= 1.00D-01 BMatC= 8.16D-07 BMatP= 1.87D-05
 IDIUse=1 WtCom= 1.00D+00 WtEn= 0.00D+00
 Coeff-Com:  0.111D-03-0.100D-02 0.261D-01 0.351D-01 0.158D+00 0.273D+00
 Coeff-Com:  0.509D+00
 Coeff:      0.111D-03-0.100D-02 0.261D-01 0.351D-01 0.158D+00 0.273D+00
 Coeff:      0.509D+00
 Gap=     0.214 Goal=   None    Shift=    0.000
 RMSDP=4.96D-06 MaxDP=1.60D-04 DE=-1.62D-05 OVMax= 3.33D-04

 Initial convergence to 1.0D-05 achieved.  Increase integral accuracy.
 Cycle   8  Pass 1  IDiag  1:
 E= -755.497508732881     Delta-E=       -0.000090671192 Rises=F Damp=F
 DIIS: error= 1.34D-05 at cycle   1 NSaved=   1.
 NSaved= 1 IEnMin= 1 EnMin= -755.497508732881     IErMin= 1 ErrMin= 1.34D-05
 ErrMax= 1.34D-05 EMaxC= 1.00D-01 BMatC= 1.45D-07 BMatP= 1.45D-07
 IDIUse=1 WtCom= 1.00D+00 WtEn= 0.00D+00
 Coeff-Com:  0.100D+01
 Coeff:      0.100D+01
 Gap=     0.214 Goal=   None    Shift=    0.000
 RMSDP=4.96D-06 MaxDP=1.60D-04 DE=-9.07D-05 OVMax= 2.27D-04

 Cycle   9  Pass 1  IDiag  1:
 E= -755.497508829333     Delta-E=       -0.000000096452 Rises=F Damp=F
 DIIS: error= 2.78D-05 at cycle   2 NSaved=   2.
 NSaved= 2 IEnMin= 2 EnMin= -755.497508829333     IErMin= 1 ErrMin= 1.34D-05
 ErrMax= 2.78D-05 EMaxC= 1.00D-01 BMatC= 1.31D-07 BMatP= 1.45D-07
 IDIUse=1 WtCom= 1.00D+00 WtEn= 0.00D+00
 Coeff-Com:  0.484D+00 0.516D+00
 Coeff:      0.484D+00 0.516D+00
 Gap=     0.214 Goal=   None    Shift=    0.000
 RMSDP=2.40D-06 MaxDP=7.90D-05 DE=-9.65D-08 OVMax= 2.22D-04

 Cycle  10  Pass 1  IDiag  1:
 E= -755.497508928695     Delta-E=       -0.000000099362 Rises=F Damp=F
 DIIS: error= 1.31D-05 at cycle   3 NSaved=   3.
 NSaved= 3 IEnMin= 3 EnMin= -755.497508928695     IErMin= 3 ErrMin= 1.31D-05
 ErrMax= 1.31D-05 EMaxC= 1.00D-01 BMatC= 2.90D-08 BMatP= 1.31D-07
 IDIUse=1 WtCom= 1.00D+00 WtEn= 0.00D+00
 Coeff-Com:  0.275D-01 0.314D+00 0.659D+00
 Coeff:      0.275D-01 0.314D+00 0.659D+00
 Gap=     0.214 Goal=   None    Shift=    0.000
 RMSDP=1.03D-06 MaxDP=2.91D-05 DE=-9.94D-08 OVMax= 8.71D-05

 Cycle  11  Pass 1  IDiag  1:
 E= -755.497508954808     Delta-E=       -0.000000026114 Rises=F Damp=F
 DIIS: error= 4.98D-06 at cycle   4 NSaved=   4.
 NSaved= 4 IEnMin= 4 EnMin= -755.497508954808     IErMin= 4 ErrMin= 4.98D-06
 ErrMax= 4.98D-06 EMaxC= 1.00D-01 BMatC= 2.96D-09 BMatP= 2.90D-08
 IDIUse=1 WtCom= 1.00D+00 WtEn= 0.00D+00
 Coeff-Com: -0.147D-01 0.141D+00 0.373D+00 0.500D+00
 Coeff:     -0.147D-01 0.141D+00 0.373D+00 0.500D+00
 Gap=     0.214 Goal=   None    Shift=    0.000
 RMSDP=3.12D-07 MaxDP=1.26D-05 DE=-2.61D-08 OVMax= 2.80D-05

 Cycle  12  Pass 1  IDiag  1:
 E= -755.497508957793     Delta-E=       -0.000000002985 Rises=F Damp=F
 DIIS: error= 1.04D-06 at cycle   5 NSaved=   5.
 NSaved= 5 IEnMin= 5 EnMin= -755.497508957793     IErMin= 5 ErrMin= 1.04D-06
 ErrMax= 1.04D-06 EMaxC= 1.00D-01 BMatC= 1.58D-10 BMatP= 2.96D-09
 IDIUse=1 WtCom= 1.00D+00 WtEn= 0.00D+00
 Coeff-Com: -0.817D-02 0.526D-01 0.149D+00 0.262D+00 0.545D+00
 Coeff:     -0.817D-02 0.526D-01 0.149D+00 0.262D+00 0.545D+00
 Gap=     0.214 Goal=   None    Shift=    0.000
 RMSDP=7.32D-08 MaxDP=2.78D-06 DE=-2.98D-09 OVMax= 7.74D-06

 Cycle  13  Pass 1  IDiag  1:
 E= -755.497508957978     Delta-E=       -0.000000000185 Rises=F Damp=F
 DIIS: error= 3.08D-07 at cycle   6 NSaved=   6.
 NSaved= 6 IEnMin= 6 EnMin= -755.497508957978     IErMin= 6 ErrMin= 3.08D-07
 ErrMax= 3.08D-07 EMaxC= 1.00D-01 BMatC= 1.45D-11 BMatP= 1.58D-10
 IDIUse=1 WtCom= 1.00D+00 WtEn= 0.00D+00
 Coeff-Com: -0.342D-02 0.177D-01 0.520D-01 0.103D+00 0.290D+00 0.540D+00
 Coeff:     -0.342D-02 0.177D-01 0.520D-01 0.103D+00 0.290D+00 0.540D+00
 Gap=     0.214 Goal=   None    Shift=    0.000
 RMSDP=2.28D-08 MaxDP=8.84D-07 DE=-1.85D-10 OVMax= 1.85D-06

 Cycle  14  Pass 1  IDiag  1:
 E= -755.497508957975     Delta-E=        0.000000000003 Rises=F Damp=F
 DIIS: error= 1.20D-07 at cycle   7 NSaved=   7.
 NSaved= 7 IEnMin= 6 EnMin= -755.497508957978     IErMin= 7 ErrMin= 1.20D-07
 ErrMax= 1.20D-07 EMaxC= 1.00D-01 BMatC= 2.23D-12 BMatP= 1.45D-11
 IDIUse=1 WtCom= 1.00D+00 WtEn= 0.00D+00
 Coeff-Com: -0.624D-03 0.159D-02 0.513D-02 0.171D-01 0.790D-01 0.316D+00
 Coeff-Com:  0.582D+00
 Coeff:     -0.624D-03 0.159D-02 0.513D-02 0.171D-01 0.790D-01 0.316D+00
 Coeff:      0.582D+00
 Gap=     0.214 Goal=   None    Shift=    0.000
 RMSDP=9.15D-09 MaxDP=3.25D-07 DE= 3.18D-12 OVMax= 8.47D-07

 SCF Done:  E(RB3LYP) =  -755.497508958     A.U. after   14 cycles
             Convg  =    0.9153D-08             -V/T =  2.0075
 KE= 7.498605421704D+02 PE=-3.330986756765D+03 EE= 1.045170264345D+03
 Leave Link  502 at Thu Sep 30 11:57:43 2021, MaxMem= 1073741824 cpu:     194.0
 (Enter /sw/target/amd/app/gaussian/Gaussian09RevA.02_gcc-4.9.2/g09/l508.exe)
 QCSCF skips out because SCF is already converged.
 Leave Link  508 at Thu Sep 30 11:57:44 2021, MaxMem= 1073741824 cpu:       0.0
 (Enter /sw/target/amd/app/gaussian/Gaussian09RevA.02_gcc-4.9.2/g09/l601.exe)
 Copying SCF densities to generalized density rwf, IOpCl= 0 IROHF=0.

 **********************************************************************

            Population analysis using the SCF density.

 **********************************************************************

 Orbital symmetries:
       Occupied  (A) (A) (A) (A) (A) (A) (A) (A) (A) (A) (A) (A)
                 (A) (A) (A) (A) (A) (A) (A) (A) (A) (A) (A) (A)
                 (A) (A) (A) (A) (A) (A) (A) (A) (A) (A) (A) (A)
                 (A) (A) (A) (A) (A) (A) (A) (A) (A) (A) (A) (A)
                 (A)
       Virtual   (A) (A) (A) (A) (A) (A) (A) (A) (A) (A) (A) (A)
                 (A) (A) (A) (A) (A) (A) (A) (A) (A) (A) (A) (A)
                 (A) (A) (A) (A) (A) (A) (A) (A) (A) (A) (A) (A)
                 (A) (A) (A) (A) (A) (A) (A) (A) (A) (A) (A) (A)
                 (A) (A) (A) (A) (A) (A) (A) (A) (A) (A) (A) (A)
                 (A) (A) (A) (A) (A) (A) (A) (A) (A) (A) (A) (A)
                 (A) (A) (A) (A) (A) (A) (A) (A) (A) (A) (A) (A)
                 (A) (A) (A) (A) (A) (A) (A) (A) (A) (A) (A) (A)
                 (A) (A) (A) (A) (A) (A) (A) (A) (A) (A) (A) (A)
                 (A) (A) (A) (A) (A) (A) (A) (A) (A) (A) (A) (A)
                 (A) (A) (A) (A) (A) (A) (A) (A) (A) (A) (A) (A)
                 (A) (A) (A) (A) (A) (A) (A) (A) (A) (A) (A) (A)
                 (A) (A) (A) (A) (A) (A) (A) (A) (A) (A) (A) (A)
                 (A) (A) (A) (A) (A) (A) (A) (A) (A) (A) (A)
 The electronic state is 1-A.
 Alpha  occ. eigenvalues --  -66.14353 -19.15449 -10.24402 -10.18520 -10.18405
 Alpha  occ. eigenvalues --  -10.18264 -10.18215 -10.17827 -10.17696 -10.16032
 Alpha  occ. eigenvalues --  -10.15840 -10.15833  -5.28509  -3.64597  -3.64309
 Alpha  occ. eigenvalues --   -3.64284  -1.02722  -0.84501  -0.76085  -0.73996
 Alpha  occ. eigenvalues --   -0.71317  -0.67693  -0.67663  -0.67264  -0.60996
 Alpha  occ. eigenvalues --   -0.58399  -0.53963  -0.47302  -0.46198  -0.43878
 Alpha  occ. eigenvalues --   -0.42320  -0.42119  -0.41831  -0.41388  -0.40501
 Alpha  occ. eigenvalues --   -0.40260  -0.40001  -0.39038  -0.38548  -0.38257
 Alpha  occ. eigenvalues --   -0.38036  -0.34895  -0.34567  -0.32643  -0.32081
 Alpha  occ. eigenvalues --   -0.28808  -0.28442  -0.24416  -0.21176
 Alpha virt. eigenvalues --    0.00220   0.01814   0.07237   0.07458   0.10255
 Alpha virt. eigenvalues --    0.10829   0.11115   0.12471   0.13403   0.14151
 Alpha virt. eigenvalues --    0.14349   0.14925   0.15737   0.16870   0.17608
 Alpha virt. eigenvalues --    0.18119   0.18701   0.19808   0.20038   0.20681
 Alpha virt. eigenvalues --    0.21167   0.21413   0.23767   0.26013   0.27242
 Alpha virt. eigenvalues --    0.31802   0.34175   0.34974   0.35612   0.36304
 Alpha virt. eigenvalues --    0.36954   0.39996   0.41886   0.44787   0.46075
 Alpha virt. eigenvalues --    0.50211   0.51209   0.52800   0.55306   0.56015
 Alpha virt. eigenvalues --    0.56739   0.58809   0.59407   0.59999   0.61387
 Alpha virt. eigenvalues --    0.61659   0.62506   0.65133   0.66396   0.66497
 Alpha virt. eigenvalues --    0.69948   0.71117   0.72082   0.73386   0.73552
 Alpha virt. eigenvalues --    0.75318   0.76552   0.76807   0.77309   0.78647
 Alpha virt. eigenvalues --    0.79258   0.81442   0.84378   0.85461   0.86603
 Alpha virt. eigenvalues --    0.87838   0.88533   0.88910   0.89234   0.89833
 Alpha virt. eigenvalues --    0.91157   0.91870   0.92139   0.93257   0.93742
 Alpha virt. eigenvalues --    0.94306   0.95564   0.96160   0.97460   1.00217
 Alpha virt. eigenvalues --    1.01239   1.01718   1.02650   1.03020   1.06318
 Alpha virt. eigenvalues --    1.12569   1.13153   1.17486   1.18532   1.20737
 Alpha virt. eigenvalues --    1.23451   1.25672   1.27259   1.29791   1.34185
 Alpha virt. eigenvalues --    1.38561   1.42019   1.43635   1.45143   1.46158
 Alpha virt. eigenvalues --    1.46795   1.47815   1.51975   1.61378   1.66334
 Alpha virt. eigenvalues --    1.69533   1.70363   1.75110   1.80011   1.80289
 Alpha virt. eigenvalues --    1.81738   1.82394   1.84976   1.87035   1.88801
 Alpha virt. eigenvalues --    1.90217   1.92222   1.93108   1.94679   1.97216
 Alpha virt. eigenvalues --    1.99463   2.01717   2.06771   2.08522   2.11978
 Alpha virt. eigenvalues --    2.14291   2.17006   2.18822   2.22179   2.23565
 Alpha virt. eigenvalues --    2.24969   2.27757   2.28055   2.28893   2.29090
 Alpha virt. eigenvalues --    2.29478   2.29941   2.31236   2.32793   2.33667
 Alpha virt. eigenvalues --    2.35223   2.40317   2.50533   2.51995   2.58482
 Alpha virt. eigenvalues --    2.61634   2.67170   2.70851   2.75796   2.81018
 Alpha virt. eigenvalues --    2.87421   2.91511   3.00105   3.10173   3.18247
 Alpha virt. eigenvalues --    3.43012   4.07595   4.10673   4.12255   4.17446
 Alpha virt. eigenvalues --    4.20779   4.22233   4.25236   4.28430   4.34028
 Alpha virt. eigenvalues --    4.48937   4.76728
          Condensed to atoms (all electrons):
              1          2          3          4          5          6
     1  C    5.217517   0.351308  -0.055946   0.008503   0.000412   0.006657
     2  C    0.351308   4.617016   0.571503  -0.028668  -0.031800  -0.021625
     3  C   -0.055946   0.571503   4.951680   0.479283  -0.012928  -0.041195
     4  C    0.008503  -0.028668   0.479283   5.088214   0.511558  -0.078891
     5  C    0.000412  -0.031800  -0.012928   0.511558   4.445425   0.542958
     6  C    0.006657  -0.021625  -0.041195  -0.078891   0.542958   5.035779
     7  C   -0.073430   0.541085  -0.028830  -0.043865  -0.015653   0.487646
     8  O    0.000000   0.000205   0.003688  -0.050831   0.256207  -0.060654
     9  Si  -0.000004   0.000137   0.000083   0.002647  -0.014958  -0.003619
    10  C    0.000000  -0.000001   0.000029  -0.000410  -0.001702  -0.000074
    11  C    0.000000  -0.000001   0.000020  -0.000248  -0.001691  -0.000075
    12  C   -0.000000   0.000000   0.000001  -0.000068   0.000150   0.000020
    13  H    0.364387  -0.029639  -0.003280   0.000166   0.000005  -0.000170
    14  H    0.363811  -0.029349   0.000024  -0.000211   0.000036  -0.000027
    15  H    0.363661  -0.029428   0.001149  -0.000214   0.000026   0.000021
    16  H   -0.010802  -0.038220   0.351997  -0.043892   0.003286   0.000372
    17  H   -0.000208   0.003471  -0.035505   0.341675  -0.040229   0.005032
    18  H   -0.000181   0.003898   0.000460   0.006610  -0.034711   0.345705
    19  H   -0.008455  -0.048900   0.006013   0.000202   0.003928  -0.040928
    20  H   -0.000000  -0.000001   0.000019   0.000623   0.000088   0.000000
    21  H   -0.000000  -0.000000  -0.000001   0.000072  -0.000017   0.000004
    22  H   -0.000000   0.000000  -0.000000   0.000002   0.000047   0.000001
    23  H   -0.000000  -0.000001   0.000011   0.000592   0.000081   0.000001
    24  H   -0.000000   0.000000  -0.000000   0.000002   0.000047   0.000001
    25  H   -0.000000  -0.000000  -0.000001   0.000071  -0.000018   0.000004
    26  H    0.000000  -0.000000   0.000000   0.000001  -0.000046  -0.000001
    27  H    0.000000  -0.000000   0.000000   0.000001  -0.000052  -0.000001
    28  H   -0.000000   0.000000  -0.000000   0.000001   0.000008  -0.000000
              7          8          9         10         11         12
     1  C   -0.073430   0.000000  -0.000004   0.000000   0.000000  -0.000000
     2  C    0.541085   0.000205   0.000137  -0.000001  -0.000001   0.000000
     3  C   -0.028830   0.003688   0.000083   0.000029   0.000020   0.000001
     4  C   -0.043865  -0.050831   0.002647  -0.000410  -0.000248  -0.000068
     5  C   -0.015653   0.256207  -0.014958  -0.001702  -0.001691   0.000150
     6  C    0.487646  -0.060654  -0.003619  -0.000074  -0.000075   0.000020
     7  C    4.984527   0.003998   0.000358   0.000002   0.000002   0.000000
     8  O    0.003998   8.175646   0.356999  -0.018009  -0.017740  -0.018724
     9  Si   0.000358   0.356999  11.769545   0.384795   0.384579   0.390339
    10  C    0.000002  -0.018009   0.384795   5.295749  -0.034666  -0.033842
    11  C    0.000002  -0.017740   0.384579  -0.034666   5.294973  -0.034393
    12  C    0.000000  -0.018724   0.390339  -0.033842  -0.034393   5.272492
    13  H    0.003882  -0.000000  -0.000000   0.000000   0.000000  -0.000000
    14  H   -0.002994  -0.000000  -0.000000  -0.000000   0.000000   0.000000
    15  H   -0.002999  -0.000000   0.000000   0.000000  -0.000000   0.000000
    16  H    0.006258  -0.000050  -0.000087   0.000001   0.000001  -0.000000
    17  H    0.000824  -0.006280   0.007152  -0.000279  -0.000320  -0.000010
    18  H   -0.040961  -0.002253   0.000816   0.000001   0.000001  -0.000025
    19  H    0.357276  -0.000060  -0.000006  -0.000000  -0.000000  -0.000000
    20  H   -0.000001  -0.000745  -0.024832   0.364097  -0.001489   0.001379
    21  H    0.000000  -0.000659  -0.020918   0.366092   0.001261  -0.001208
    22  H   -0.000000   0.000512  -0.009780   0.358302  -0.000696  -0.000549
    23  H   -0.000001  -0.000656  -0.024241  -0.001551   0.364128   0.001399
    24  H   -0.000000   0.000499  -0.010101  -0.000656   0.358662  -0.000697
    25  H    0.000000  -0.000671  -0.020906   0.001262   0.366098  -0.001085
    26  H   -0.000000  -0.000370  -0.020888  -0.001369   0.001347   0.364436
    27  H   -0.000000  -0.000385  -0.020495   0.001324  -0.001227   0.364196
    28  H   -0.000000   0.000414  -0.010369  -0.000583  -0.000715   0.360356
             13         14         15         16         17         18
     1  C    0.364387   0.363811   0.363661  -0.010802  -0.000208  -0.000181
     2  C   -0.029639  -0.029349  -0.029428  -0.038220   0.003471   0.003898
     3  C   -0.003280   0.000024   0.001149   0.351997  -0.035505   0.000460
     4  C    0.000166  -0.000211  -0.000214  -0.043892   0.341675   0.006610
     5  C    0.000005   0.000036   0.000026   0.003286  -0.040229  -0.034711
     6  C   -0.000170  -0.000027   0.000021   0.000372   0.005032   0.345705
     7  C    0.003882  -0.002994  -0.002999   0.006258   0.000824  -0.040961
     8  O   -0.000000  -0.000000  -0.000000  -0.000050  -0.006280  -0.002253
     9  Si  -0.000000  -0.000000   0.000000  -0.000087   0.007152   0.000816
    10  C    0.000000  -0.000000   0.000000   0.000001  -0.000279   0.000001
    11  C    0.000000   0.000000  -0.000000   0.000001  -0.000320   0.000001
    12  C   -0.000000   0.000000   0.000000  -0.000000  -0.000010  -0.000025
    13  H    0.563381  -0.028303  -0.028046   0.006943  -0.000010   0.000003
    14  H   -0.028303   0.565399  -0.031200   0.000165   0.000003  -0.000001
    15  H   -0.028046  -0.031200   0.566125   0.000102   0.000003  -0.000002
    16  H    0.006943   0.000165   0.000102   0.605763  -0.005390   0.000016
    17  H   -0.000010   0.000003   0.000003  -0.005390   0.591245  -0.000171
    18  H    0.000003  -0.000001  -0.000002   0.000016  -0.000171   0.591691
    19  H    0.000014   0.001789   0.002613  -0.000183   0.000017  -0.006162
    20  H    0.000000  -0.000000   0.000000  -0.000002   0.002407  -0.000000
    21  H   -0.000000  -0.000000   0.000000   0.000000  -0.000056  -0.000000
    22  H   -0.000000   0.000000  -0.000000  -0.000000   0.000016  -0.000000
    23  H   -0.000000   0.000000  -0.000000  -0.000002   0.002123  -0.000000
    24  H   -0.000000   0.000000   0.000000  -0.000000   0.000016  -0.000000
    25  H   -0.000000   0.000000  -0.000000   0.000000  -0.000049  -0.000000
    26  H   -0.000000   0.000000  -0.000000  -0.000000   0.000000  -0.000002
    27  H    0.000000  -0.000000   0.000000  -0.000000   0.000000  -0.000002
    28  H    0.000000   0.000000   0.000000   0.000000   0.000001   0.000000
             19         20         21         22         23         24
     1  C   -0.008455  -0.000000  -0.000000  -0.000000  -0.000000  -0.000000
     2  C   -0.048900  -0.000001  -0.000000   0.000000  -0.000001   0.000000
     3  C    0.006013   0.000019  -0.000001  -0.000000   0.000011  -0.000000
     4  C    0.000202   0.000623   0.000072   0.000002   0.000592   0.000002
     5  C    0.003928   0.000088  -0.000017   0.000047   0.000081   0.000047
     6  C   -0.040928   0.000000   0.000004   0.000001   0.000001   0.000001
     7  C    0.357276  -0.000001   0.000000  -0.000000  -0.000001  -0.000000
     8  O   -0.000060  -0.000745  -0.000659   0.000512  -0.000656   0.000499
     9  Si  -0.000006  -0.024832  -0.020918  -0.009780  -0.024241  -0.010101
    10  C   -0.000000   0.364097   0.366092   0.358302  -0.001551  -0.000656
    11  C   -0.000000  -0.001489   0.001261  -0.000696   0.364128   0.358662
    12  C   -0.000000   0.001379  -0.001208  -0.000549   0.001399  -0.000697
    13  H    0.000014   0.000000  -0.000000  -0.000000  -0.000000  -0.000000
    14  H    0.001789  -0.000000  -0.000000   0.000000   0.000000   0.000000
    15  H    0.002613   0.000000   0.000000  -0.000000  -0.000000   0.000000
    16  H   -0.000183  -0.000002   0.000000  -0.000000  -0.000002  -0.000000
    17  H    0.000017   0.002407  -0.000056   0.000016   0.002123   0.000016
    18  H   -0.006162  -0.000000  -0.000000  -0.000000  -0.000000  -0.000000
    19  H    0.609187   0.000000   0.000000   0.000000   0.000000   0.000000
    20  H    0.000000   0.545343  -0.022932  -0.024795   0.000332  -0.000006
    21  H    0.000000  -0.022932   0.536635  -0.025022   0.000003   0.000002
    22  H    0.000000  -0.024795  -0.025022   0.540208  -0.000019   0.000054
    23  H    0.000000   0.000332   0.000003  -0.000019   0.545681  -0.024877
    24  H    0.000000  -0.000006   0.000002   0.000054  -0.024877   0.540210
    25  H    0.000000   0.000001  -0.000023   0.000005  -0.022979  -0.024959
    26  H    0.000000  -0.000002   0.000742  -0.000054  -0.000025   0.000004
    27  H    0.000000  -0.000024   0.000003   0.000002  -0.000004  -0.000043
    28  H    0.000000  -0.000003  -0.000037  -0.000019   0.000001   0.000047
             25         26         27         28
     1  C   -0.000000   0.000000   0.000000  -0.000000
     2  C   -0.000000  -0.000000  -0.000000   0.000000
     3  C   -0.000001   0.000000   0.000000  -0.000000
     4  C    0.000071   0.000001   0.000001   0.000001
     5  C   -0.000018  -0.000046  -0.000052   0.000008
     6  C    0.000004  -0.000001  -0.000001  -0.000000
     7  C    0.000000  -0.000000  -0.000000  -0.000000
     8  O   -0.000671  -0.000370  -0.000385   0.000414
     9  Si  -0.020906  -0.020888  -0.020495  -0.010369
    10  C    0.001262  -0.001369   0.001324  -0.000583
    11  C    0.366098   0.001347  -0.001227  -0.000715
    12  C   -0.001085   0.364436   0.364196   0.360356
    13  H   -0.000000  -0.000000   0.000000   0.000000
    14  H    0.000000   0.000000  -0.000000   0.000000
    15  H   -0.000000  -0.000000   0.000000   0.000000
    16  H    0.000000  -0.000000  -0.000000   0.000000
    17  H   -0.000049   0.000000   0.000000   0.000001
    18  H   -0.000000  -0.000002  -0.000002   0.000000
    19  H    0.000000   0.000000   0.000000   0.000000
    20  H    0.000001  -0.000002  -0.000024  -0.000003
    21  H   -0.000023   0.000742   0.000003  -0.000037
    22  H    0.000005  -0.000054   0.000002  -0.000019
    23  H   -0.022979  -0.000025  -0.000004   0.000001
    24  H   -0.024959   0.000004  -0.000043   0.000047
    25  H    0.536474   0.000000   0.000623  -0.000035
    26  H    0.000000   0.538240  -0.022831  -0.025069
    27  H    0.000623  -0.022831   0.537253  -0.024926
    28  H   -0.000035  -0.025069  -0.024926   0.535911
 Mulliken atomic charges:
              1
     1  C   -0.527229
     2  C    0.169012
     3  C   -0.188271
     4  C   -0.192923
     5  C    0.389543
     6  C   -0.176942
     7  C   -0.177123
     8  O   -0.620081
     9  Si   0.883755
    10  C   -0.678512
    11  C   -0.677811
    12  C   -0.664168
    13  H    0.150670
    14  H    0.160858
    15  H    0.158189
    16  H    0.123724
    17  H    0.134521
    18  H    0.135270
    19  H    0.123654
    20  H    0.160546
    21  H    0.166059
    22  H    0.161783
    23  H    0.160004
    24  H    0.161795
    25  H    0.166188
    26  H    0.165885
    27  H    0.166589
    28  H    0.165017
 Sum of Mulliken atomic charges =  -0.00000
 Mulliken charges with hydrogens summed into heavy atoms:
              1
     1  C   -0.057512
     2  C    0.169012
     3  C   -0.064548
     4  C   -0.058403
     5  C    0.389543
     6  C   -0.041672
     7  C   -0.053469
     8  O   -0.620081
     9  Si   0.883755
    10  C   -0.190123
    11  C   -0.189824
    12  C   -0.166678
 Sum of Mulliken charges with hydrogens summed into heavy atoms =  -0.00000
 Electronic spatial extent (au):  <R**2>=           3290.9590
 Charge=             -0.0000 electrons
 Dipole moment (field-independent basis, Debye):
    X=             -0.2480    Y=             -0.7038    Z=              0.0417  Tot=              0.7474
 Quadrupole moment (field-independent basis, Debye-Ang):
   XX=            -72.7032   YY=            -77.1900   ZZ=            -82.5302
   XY=              1.1240   XZ=              0.0899   YZ=              0.0463
 Traceless Quadrupole moment (field-independent basis, Debye-Ang):
   XX=              4.7713   YY=              0.2845   ZZ=             -5.0558
   XY=              1.1240   XZ=              0.0899   YZ=              0.0463
 Octapole moment (field-independent basis, Debye-Ang**2):
  XXX=              2.0617  YYY=              3.4755  ZZZ=              0.1847  XYY=              7.0613
  XXY=             -0.1727  XXZ=              0.4340  XZZ=             -6.6537  YZZ=              4.7590
  YYZ=             -0.0870  XYZ=              0.0558
 Hexadecapole moment (field-independent basis, Debye-Ang**3):
 XXXX=          -3490.1728 YYYY=           -567.8355 ZZZZ=           -346.7930 XXXY=             31.3349
 XXXZ=             -0.4012 YYYX=             -1.6798 YYYZ=              0.3596 ZZZX=              1.9774
 ZZZY=             -0.0043 XXYY=           -681.2676 XXZZ=           -666.8302 YYZZ=           -164.0728
 XXYZ=             -0.6801 YYXZ=             -0.6169 ZZXY=            -10.6304
 N-N= 7.804584412913D+02 E-N=-3.330986749160D+03  KE= 7.498605421704D+02
 No NMR shielding tensors so no spin-rotation constants.
 Leave Link  601 at Thu Sep 30 11:57:46 2021, MaxMem= 1073741824 cpu:       1.2
 (Enter /sw/target/amd/app/gaussian/Gaussian09RevA.02_gcc-4.9.2/g09/l701.exe)
 Compute integral first derivatives.
 ... and contract with generalized density number  0.
 Leave Link  701 at Thu Sep 30 11:57:48 2021, MaxMem= 1073741824 cpu:       1.2
 (Enter /sw/target/amd/app/gaussian/Gaussian09RevA.02_gcc-4.9.2/g09/l702.exe)
 L702 exits ... SP integral derivatives will be done elsewhere.
 Leave Link  702 at Thu Sep 30 11:57:49 2021, MaxMem= 1073741824 cpu:       0.1
 (Enter /sw/target/amd/app/gaussian/Gaussian09RevA.02_gcc-4.9.2/g09/l703.exe)
 Compute integral first derivatives, UseDBF=F ICtDFT=           0.
 Integral derivatives from FoFDir, PRISM(SPDF).
 Calling FoFJK, ICntrl=      2127 FMM=F ISym2X=0 I1Cent= 0 IOpClX= 0 NMat=1 NMatS=1 NMatT=0.
 FoFCou: FMM=F IPFlag=           0 FMFlag=      100000 FMFlg1=         800
         NFxFlg=           0 DoJE=F BraDBF=F KetDBF=F FulRan=T
         Omega=  0.000000  0.000000  1.000000  0.000000  0.000000 ICntrl=    2127 IOpCl=  0
         NMat0=    1 NMatS0=    1 NMatT0=    0 NMatD0=    1 NMtDS0=    0 NMtDT0=    0
         I1Cent=           0 NGrid=           0.
 Symmetry not used in FoFCou.
 Leave Link  703 at Thu Sep 30 11:59:08 2021, MaxMem= 1073741824 cpu:      67.9
 (Enter /sw/target/amd/app/gaussian/Gaussian09RevA.02_gcc-4.9.2/g09/l716.exe)
 Dipole        =-9.75705770D-02-2.76895443D-01 1.64038837D-02
 ***** Axes restored to original set *****
 -------------------------------------------------------------------
 Center     Atomic                   Forces (Hartrees/Bohr)
 Number     Number              X              Y              Z
 -------------------------------------------------------------------
      1        6           0.002033221    0.002266564    0.001275392
      2        6           0.002619118    0.005225802   -0.000483465
      3        6          -0.006834061   -0.007060215    0.000196022
      4        6           0.004990897    0.006283382   -0.000308999
      5        6          -0.004741250   -0.004231187   -0.000215645
      6        6           0.009038608   -0.008913698    0.000679739
      7        6          -0.010878779    0.005215375   -0.000627925
      8        8          -0.000096671   -0.004443498    0.000486139
      9       14          -0.013572130    0.017192983   -0.002188268
     10        6           0.003856696   -0.003373703    0.000225827
     11        6           0.004483236   -0.003773604    0.001144028
     12        6           0.009388321   -0.007202973    0.001269156
     13        1           0.000491625   -0.000358769   -0.000373757
     14        1           0.003992937   -0.002273987    0.000682446
     15        1           0.003473794   -0.002367705   -0.000977234
     16        1           0.000499396   -0.000858984    0.000139266
     17        1          -0.003368676    0.000362393   -0.000202698
     18        1          -0.001553357    0.002550893   -0.000210128
     19        1           0.000620228    0.000496695    0.000162152
     20        1           0.000857202    0.001738928    0.002402625
     21        1           0.000145793    0.000920942    0.002423561
     22        1          -0.001053053    0.000941974   -0.000012456
     23        1           0.001125244    0.001434886   -0.002592258
     24        1          -0.001135463    0.001124409   -0.000180072
     25        1           0.000527170    0.000687251   -0.002494026
     26        1          -0.002632260   -0.001496931    0.000262761
     27        1          -0.002571381   -0.001439963   -0.000459234
     28        1           0.000293597    0.001352741   -0.000022948
 -------------------------------------------------------------------
 Cartesian Forces:  Max     0.017192983 RMS     0.004058090
 Leave Link  716 at Thu Sep 30 11:59:08 2021, MaxMem= 1073741824 cpu:       0.1
 (Enter /sw/target/amd/app/gaussian/Gaussian09RevA.02_gcc-4.9.2/g09/l103.exe)

 GradGradGradGradGradGradGradGradGradGradGradGradGradGradGradGradGradGrad
 Berny optimization.
 Internal  Forces:  Max     0.010293577 RMS     0.002405071
 Search for a local minimum.
 Step number   1 out of a maximum of  149
 All quantities printed in internal units (Hartrees-Bohrs-Radians)
 RMS Force = .24051D-02 SwitMx=.10000D-02 MixMth= 1
 Mixed Optimization -- RFO/linear search
 Second derivative matrix not updated -- first step.
     Eigenvalues ---    0.00766   0.00938   0.01007   0.01026   0.01561
     Eigenvalues ---    0.02095   0.02100   0.02115   0.02117   0.02119
     Eigenvalues ---    0.02133   0.02138   0.02147   0.02162   0.03446
     Eigenvalues ---    0.05895   0.05975   0.05989   0.05995   0.06008
     Eigenvalues ---    0.06053   0.06057   0.06295   0.06649   0.07269
     Eigenvalues ---    0.07358   0.16000   0.16000   0.16000   0.16000
     Eigenvalues ---    0.16000   0.16000   0.16000   0.16000   0.16000
     Eigenvalues ---    0.16000   0.16000   0.16000   0.16000   0.16000
     Eigenvalues ---    0.16000   0.16000   0.16083   0.16210   0.20300
     Eigenvalues ---    0.20598   0.20678   0.22000   0.22974   0.23999
     Eigenvalues ---    0.24996   0.25000   0.25000   0.32380   0.34245
     Eigenvalues ---    0.34281   0.34298   0.34351   0.34353   0.34362
     Eigenvalues ---    0.34365   0.34370   0.34381   0.34397   0.34412
     Eigenvalues ---    0.34426   0.35080   0.35114   0.35134   0.35539
     Eigenvalues ---    0.40102   0.41644   0.42288   0.45749   0.45914
     Eigenvalues ---    0.46123   0.46542   0.513851000.000001000.00000
     Eigenvalues --- 1000.000001000.000001000.000001000.000001000.00000
     Eigenvalues --- 1000.000001000.000001000.000001000.000001000.00000
     Eigenvalues --- 1000.000001000.000001000.000001000.000001000.00000
     Eigenvalues --- 1000.000001000.000001000.000001000.000001000.00000
     Eigenvalues --- 1000.000001000.000001000.000001000.000001000.00000
     Eigenvalues --- 1000.000001000.000001000.000001000.000001000.00000
     Eigenvalues --- 1000.000001000.000001000.000001000.000001000.00000
     Eigenvalues --- 1000.000001000.000001000.000001000.000001000.00000
     Eigenvalues --- 1000.000001000.000001000.000001000.000001000.00000
     Eigenvalues --- 1000.000001000.000001000.000001000.000001000.00000
     Eigenvalues --- 1000.000001000.000001000.000001000.000001000.00000
     Eigenvalues --- 1000.000001000.000001000.000001000.00000
 RFO step:  Lambda=-4.82995318D-03 EMin= 7.66348981D-03
 Linear search not attempted -- first point.
 Iteration  1 RMS(Cart)=  0.03246841 RMS(Int)=  0.00041319
 Iteration  2 RMS(Cart)=  0.00071891 RMS(Int)=  0.00022658
 Iteration  3 RMS(Cart)=  0.00000015 RMS(Int)=  0.00022658
 Variable       Old X    -DE/DX   Delta X   Delta X   Delta X     New X
                                 (Linear)    (Quad)   (Total)
    R1        2.83453   0.01029   0.00000   0.03132   0.03132   2.86585
    R2        2.06919  -0.00010   0.00000  -0.00027  -0.00027   2.06892
    R3        2.06830   0.00175   0.00000   0.00502   0.00502   2.07333
    R4        2.06858   0.00135   0.00000   0.00389   0.00389   2.07247
    R5        2.64488  -0.00132   0.00000  -0.00325  -0.00323   2.64166
    R6        2.64295   0.00348   0.00000   0.00710   0.00712   2.65007
    R7        2.64445  -0.00031   0.00000  -0.00063  -0.00063   2.64383
    R8        2.05490  -0.00039   0.00000  -0.00109  -0.00109   2.05381
    R9        2.63255   0.00236   0.00000   0.00541   0.00539   2.63795
   R10        2.04809   0.00152   0.00000   0.00421   0.00421   2.05230
   R11        2.63766   0.00342   0.00000   0.00769   0.00766   2.64533
   R12        2.58493   0.00057   0.00000   0.00110   0.00110   2.58603
   R13        2.64083  -0.00368   0.00000  -0.00794  -0.00795   2.63288
   R14        2.05458  -0.00107   0.00000  -0.00300  -0.00300   2.05158
   R15        2.05545  -0.00023   0.00000  -0.00064  -0.00064   2.05481
   R16        3.15115   0.00629   0.00000   0.01549   0.01549   3.16664
   R17        3.55364   0.00429   0.00000   0.02027   0.02027   3.57391
   R18        3.55628   0.00390   0.00000   0.01850   0.01850   3.57478
   R19        3.56617  -0.00100   0.00000  -0.00482  -0.00482   3.56135
   R20        2.06617   0.00168   0.00000   0.00482   0.00482   2.07099
   R21        2.06723   0.00157   0.00000   0.00449   0.00449   2.07173
   R22        2.06738   0.00140   0.00000   0.00402   0.00402   2.07140
   R23        2.06640   0.00162   0.00000   0.00464   0.00464   2.07105
   R24        2.06665   0.00161   0.00000   0.00461   0.00461   2.07126
   R25        2.06719   0.00157   0.00000   0.00452   0.00452   2.07171
   R26        2.06691   0.00154   0.00000   0.00443   0.00443   2.07134
   R27        2.06711   0.00150   0.00000   0.00430   0.00430   2.07141
   R28        2.06741   0.00081   0.00000   0.00233   0.00233   2.06975
    A1        1.94598  -0.00042   0.00000  -0.00042  -0.00048   1.94549
    A2        1.92031   0.00448   0.00000   0.02569   0.02558   1.94589
    A3        1.92516   0.00388   0.00000   0.02295   0.02282   1.94798
    A4        1.88466  -0.00192   0.00000  -0.01043  -0.01049   1.87418
    A5        1.87995  -0.00129   0.00000  -0.00497  -0.00504   1.87491
    A6        1.90666  -0.00511   0.00000  -0.03510  -0.03526   1.87140
    A7        2.11074   0.00288   0.00000   0.01240   0.01236   2.12310
    A8        2.09598   0.00309   0.00000   0.01322   0.01318   2.10916
    A9        2.07632  -0.00597   0.00000  -0.02547  -0.02544   2.05089
   A10        2.10476   0.00484   0.00000   0.02010   0.02014   2.12489
   A11        2.10045  -0.00337   0.00000  -0.01579  -0.01582   2.08464
   A12        2.07797  -0.00147   0.00000  -0.00430  -0.00432   2.07366
   A13        2.09803  -0.00130   0.00000  -0.00550  -0.00551   2.09252
   A14        2.06189   0.00376   0.00000   0.02163   0.02163   2.08351
   A15        2.12326  -0.00246   0.00000  -0.01611  -0.01611   2.10716
   A16        2.08355  -0.00127   0.00000  -0.00405  -0.00410   2.07945
   A17        2.17741  -0.00491   0.00000  -0.01972  -0.01970   2.15771
   A18        2.02222   0.00618   0.00000   0.02378   0.02380   2.04602
   A19        2.10368  -0.00100   0.00000  -0.00433  -0.00437   2.09931
   A20        2.08972  -0.00237   0.00000  -0.01525  -0.01524   2.07448
   A21        2.08978   0.00337   0.00000   0.01961   0.01962   2.10940
   A22        2.10000   0.00470   0.00000   0.01930   0.01931   2.11931
   A23        2.10142  -0.00313   0.00000  -0.01440  -0.01441   2.08701
   A24        2.08176  -0.00157   0.00000  -0.00488  -0.00489   2.07686
   A25        2.34765  -0.00171   0.00000  -0.00673  -0.00673   2.34092
   A26        1.94408   0.00039   0.00000  -0.00899  -0.00859   1.93549
   A27        1.94997  -0.00022   0.00000  -0.01273  -0.01227   1.93770
   A28        1.91824  -0.00543   0.00000  -0.06041  -0.06002   1.85822
   A29        1.89788  -0.00020   0.00000   0.02421   0.02308   1.92096
   A30        1.87906   0.00250   0.00000   0.02874   0.02747   1.90653
   A31        1.87181   0.00321   0.00000   0.03290   0.03168   1.90349
   A32        1.93905   0.00333   0.00000   0.02155   0.02145   1.96051
   A33        1.92774   0.00236   0.00000   0.01440   0.01430   1.94204
   A34        1.92847  -0.00108   0.00000  -0.00799  -0.00795   1.92052
   A35        1.88963  -0.00261   0.00000  -0.01313  -0.01335   1.87628
   A36        1.88722  -0.00118   0.00000  -0.00727  -0.00723   1.87999
   A37        1.89029  -0.00102   0.00000  -0.00882  -0.00878   1.88151
   A38        1.93941   0.00348   0.00000   0.02231   0.02221   1.96162
   A39        1.92539  -0.00111   0.00000  -0.00805  -0.00801   1.91739
   A40        1.92831   0.00239   0.00000   0.01462   0.01452   1.94283
   A41        1.88829  -0.00124   0.00000  -0.00768  -0.00763   1.88066
   A42        1.89129  -0.00275   0.00000  -0.01417  -0.01440   1.87689
   A43        1.88977  -0.00098   0.00000  -0.00832  -0.00828   1.88149
   A44        1.92892   0.00355   0.00000   0.02298   0.02282   1.95174
   A45        1.92752   0.00349   0.00000   0.02267   0.02250   1.95002
   A46        1.92730  -0.00299   0.00000  -0.02109  -0.02094   1.90636
   A47        1.89364  -0.00289   0.00000  -0.01186  -0.01229   1.88135
   A48        1.89313  -0.00067   0.00000  -0.00688  -0.00674   1.88638
   A49        1.89236  -0.00064   0.00000  -0.00672  -0.00658   1.88577
    D1        0.09871  -0.00019   0.00000  -0.00529  -0.00537   0.09334
    D2       -3.06115  -0.00004   0.00000   0.00423   0.00429  -3.05685
    D3       -1.99190  -0.00048   0.00000  -0.00896  -0.00898  -2.00088
    D4        1.13143  -0.00033   0.00000   0.00057   0.00068   1.13211
    D5        2.18661   0.00049   0.00000   0.00342   0.00331   2.18992
    D6       -0.97325   0.00064   0.00000   0.01294   0.01297  -0.96027
    D7        3.12182   0.00025   0.00000   0.00973   0.00966   3.13148
    D8       -0.01738   0.00014   0.00000   0.00590   0.00585  -0.01153
    D9       -0.00171   0.00001   0.00000  -0.00009  -0.00007  -0.00178
   D10       -3.14091  -0.00009   0.00000  -0.00392  -0.00389   3.13839
   D11       -3.12140  -0.00025   0.00000  -0.00987  -0.00983  -3.13123
   D12        0.01568  -0.00010   0.00000  -0.00439  -0.00434   0.01134
   D13        0.00228  -0.00001   0.00000  -0.00015  -0.00018   0.00211
   D14        3.13936   0.00013   0.00000   0.00533   0.00531  -3.13851
   D15       -0.00354   0.00008   0.00000   0.00313   0.00313  -0.00041
   D16       -3.14021  -0.00008   0.00000  -0.00327  -0.00332   3.13966
   D17        3.13568   0.00018   0.00000   0.00689   0.00690  -3.14060
   D18       -0.00098   0.00001   0.00000   0.00049   0.00046  -0.00052
   D19        0.00816  -0.00016   0.00000  -0.00585  -0.00584   0.00232
   D20       -3.13091  -0.00030   0.00000  -0.01111  -0.01101   3.14126
   D21       -3.13854   0.00003   0.00000   0.00089   0.00081  -3.13773
   D22        0.00558  -0.00012   0.00000  -0.00437  -0.00437   0.00121
   D23       -0.00761   0.00015   0.00000   0.00562   0.00560  -0.00201
   D24        3.13843  -0.00002   0.00000  -0.00076  -0.00071   3.13772
   D25        3.13168   0.00027   0.00000   0.01036   0.01039  -3.14112
   D26       -0.00547   0.00010   0.00000   0.00399   0.00408  -0.00139
   D27        0.01721  -0.00009   0.00000  -0.00356  -0.00357   0.01364
   D28       -3.12194  -0.00022   0.00000  -0.00862  -0.00862  -3.13056
   D29        0.00239  -0.00007   0.00000  -0.00265  -0.00262  -0.00024
   D30       -3.13474  -0.00021   0.00000  -0.00804  -0.00805   3.14039
   D31        3.13954   0.00009   0.00000   0.00364   0.00372  -3.13993
   D32        0.00241  -0.00005   0.00000  -0.00175  -0.00171   0.00070
   D33       -1.06990  -0.00013   0.00000  -0.01114  -0.01076  -1.08066
   D34        1.05653  -0.00026   0.00000   0.00464   0.00417   1.06071
   D35        3.13225   0.00005   0.00000  -0.00193  -0.00186   3.13039
   D36        1.06059   0.00174   0.00000   0.02200   0.02213   1.08272
   D37       -1.03667   0.00127   0.00000   0.01483   0.01481  -1.02185
   D38       -3.12788   0.00172   0.00000   0.02169   0.02175  -3.10613
   D39       -1.09576   0.00190   0.00000   0.02727   0.02744  -1.06831
   D40        3.09017   0.00143   0.00000   0.02009   0.02013   3.11030
   D41        0.99896   0.00188   0.00000   0.02696   0.02706   1.02602
   D42       -3.11838  -0.00311   0.00000  -0.03927  -0.03936   3.12544
   D43        1.06755  -0.00358   0.00000  -0.04645  -0.04668   1.02087
   D44       -1.02366  -0.00313   0.00000  -0.03958  -0.03974  -1.06341
   D45       -1.10413  -0.00176   0.00000  -0.01923  -0.01934  -1.12347
[...]
    12  C   -0.151876
 Sum of Mulliken charges with hydrogens summed into heavy atoms =  -0.00000
 Electronic spatial extent (au):  <R**2>=           3269.3902
 Charge=             -0.0000 electrons
 Dipole moment (field-independent basis, Debye):
    X=             -1.6240    Y=             -0.9487    Z=              0.0250  Tot=              1.8810
 Quadrupole moment (field-independent basis, Debye-Ang):
   XX=            -70.3388   YY=            -78.7354   ZZ=            -82.0820
   XY=              0.4465   XZ=              0.0997   YZ=              0.0073
 Traceless Quadrupole moment (field-independent basis, Debye-Ang):
   XX=              6.7132   YY=             -1.6833   ZZ=             -5.0299
   XY=              0.4465   XZ=              0.0997   YZ=              0.0073
 Octapole moment (field-independent basis, Debye-Ang**2):
  XXX=              0.7830  YYY=              2.1215  ZZZ=              0.1836  XYY=             -0.0883
  XXY=             -3.9134  XXZ=              0.4829  XZZ=             -9.7997  YZZ=              3.3727
  YYZ=             -0.1363  XYZ=             -0.0498
 Hexadecapole moment (field-independent basis, Debye-Ang**3):
 XXXX=          -3351.4263 YYYY=           -589.6566 ZZZZ=           -350.4878 XXXY=             13.6591
 XXXZ=              2.0974 YYYX=             -4.8132 YYYZ=              0.2277 ZZZX=              1.2001
 ZZZY=             -0.0596 XXYY=           -682.3317 XXZZ=           -656.2206 YYZZ=           -167.2667
 XXYZ=             -0.4342 YYXZ=             -0.7479 ZZXY=             -8.6217
 N-N= 7.799944937182D+02 E-N=-3.329763297860D+03  KE= 7.499390582789D+02
 No NMR shielding tensors so no spin-rotation constants.
 Leave Link  601 at Thu Sep 30 17:19:13 2021, MaxMem= 1073741824 cpu:       1.3
 (Enter /sw/target/amd/app/gaussian/Gaussian09RevA.02_gcc-4.9.2/g09/l604.exe)
 Evaluate density.
 Using the total density.
 Monte-Carlo method of calculating molar volume:
 based on  0.001 e/bohr**3 density envelope.
 Number of points per bohr**3 =   20 CutOff= 1.00D-04
 Using the CI density.
 There are       454 points.  Will hold       454 in memory.
 LenV=  1073595072 MDV=  1073741824.
 Box volume =11743.226 fraction occupied=0.139
 Integrated density= 8.2468062399226298D+01 error=-1.5531937600773702D+01
 Molar volume = 1629.567 bohr**3/mol (145.421 cm**3/mol)
 Recommended a0 for SCRF calculation =  4.75 angstrom (  8.98 bohr)
 Leave Link  604 at Thu Sep 30 17:19:13 2021, MaxMem= 1073741824 cpu:       0.3
 (Enter /sw/target/amd/app/gaussian/Gaussian09RevA.02_gcc-4.9.2/g09/l607.exe)
 ******************************Gaussian NBO Version 3.1******************************
             N A T U R A L   A T O M I C   O R B I T A L   A N D
          N A T U R A L   B O N D   O R B I T A L   A N A L Y S I S
 ******************************Gaussian NBO Version 3.1******************************
       /RESON  / : Allow strongly delocalized NBO set

 Analyzing the CI density

 Job title: Cc1ccc(cc1)O[Si](C)(C)C_conf_0                                  

 Storage needed:    142564 in NPA (1073737624 available)


 NATURAL POPULATIONS:  Natural atomic orbital occupancies 
                                                          
   NAO  Atom  No  lang   Type(AO)    Occupancy
 --------------------------------------------
     1    C    1  S      Cor( 1S)     1.99939
     2    C    1  S      Val( 2S)     1.10091
     3    C    1  S      Ryd( 3S)     0.00023
     4    C    1  S      Ryd( 4S)     0.00001
     5    C    1  px     Val( 2p)     1.10078
     6    C    1  px     Ryd( 3p)     0.00092
     7    C    1  py     Val( 2p)     1.24597
     8    C    1  py     Ryd( 3p)     0.00271
     9    C    1  pz     Val( 2p)     1.24005
    10    C    1  pz     Ryd( 3p)     0.00044
    11    C    1  dxy    Ryd( 3d)     0.00045
    12    C    1  dxz    Ryd( 3d)     0.00086
    13    C    1  dyz    Ryd( 3d)     0.00051
    14    C    1  dx2y2  Ryd( 3d)     0.00087
    15    C    1  dz2    Ryd( 3d)     0.00064

    16    C    2  S      Cor( 1S)     1.99904
    17    C    2  S      Val( 2S)     0.89549
    18    C    2  S      Ryd( 3S)     0.00047
    19    C    2  S      Ryd( 4S)     0.00005
    20    C    2  px     Val( 2p)     1.05568
    21    C    2  px     Ryd( 3p)     0.00443
    22    C    2  py     Val( 2p)     1.08435
    23    C    2  py     Ryd( 3p)     0.00439
    24    C    2  pz     Val( 2p)     0.91169
    25    C    2  pz     Ryd( 3p)     0.00271
    26    C    2  dxy    Ryd( 3d)     0.00085
    27    C    2  dxz    Ryd( 3d)     0.00058
    28    C    2  dyz    Ryd( 3d)     0.00103
    29    C    2  dx2y2  Ryd( 3d)     0.00072
    30    C    2  dz2    Ryd( 3d)     0.00034

    31    C    3  S      Cor( 1S)     1.99907
    32    C    3  S      Val( 2S)     0.95069
    33    C    3  S      Ryd( 3S)     0.00064
    34    C    3  S      Ryd( 4S)     0.00004
    35    C    3  px     Val( 2p)     1.06352
    36    C    3  px     Ryd( 3p)     0.00431
    37    C    3  py     Val( 2p)     1.17369
    38    C    3  py     Ryd( 3p)     0.00491
    39    C    3  pz     Val( 2p)     1.05920
    40    C    3  pz     Ryd( 3p)     0.00552
    41    C    3  dxy    Ryd( 3d)     0.00070
    42    C    3  dxz    Ryd( 3d)     0.00068
    43    C    3  dyz    Ryd( 3d)     0.00035
    44    C    3  dx2y2  Ryd( 3d)     0.00080
    45    C    3  dz2    Ryd( 3d)     0.00044

    46    C    4  S      Cor( 1S)     1.99905
    47    C    4  S      Val( 2S)     0.95675
    48    C    4  S      Ryd( 3S)     0.00061
    49    C    4  S      Ryd( 4S)     0.00005
    50    C    4  px     Val( 2p)     1.12328
    51    C    4  px     Ryd( 3p)     0.00398
    52    C    4  py     Val( 2p)     1.12318
    53    C    4  py     Ryd( 3p)     0.00435
    54    C    4  pz     Val( 2p)     1.12503
    55    C    4  pz     Ryd( 3p)     0.00722
    56    C    4  dxy    Ryd( 3d)     0.00078
    57    C    4  dxz    Ryd( 3d)     0.00054
    58    C    4  dyz    Ryd( 3d)     0.00046
    59    C    4  dx2y2  Ryd( 3d)     0.00060
    60    C    4  dz2    Ryd( 3d)     0.00046

    61    C    5  S      Cor( 1S)     1.99877
    62    C    5  S      Val( 2S)     0.83633
    63    C    5  S      Ryd( 3S)     0.00151
    64    C    5  S      Ryd( 4S)     0.00011
    65    C    5  px     Val( 2p)     0.75907
    66    C    5  px     Ryd( 3p)     0.00586
    67    C    5  py     Val( 2p)     1.06783
    68    C    5  py     Ryd( 3p)     0.00656
    69    C    5  pz     Val( 2p)     0.95800
    70    C    5  pz     Ryd( 3p)     0.00213
    71    C    5  dxy    Ryd( 3d)     0.00162
    72    C    5  dxz    Ryd( 3d)     0.00146
    73    C    5  dyz    Ryd( 3d)     0.00134
    74    C    5  dx2y2  Ryd( 3d)     0.00166
    75    C    5  dz2    Ryd( 3d)     0.00046

    76    C    6  S      Cor( 1S)     1.99906
    77    C    6  S      Val( 2S)     0.96398
    78    C    6  S      Ryd( 3S)     0.00080
    79    C    6  S      Ryd( 4S)     0.00005
    80    C    6  px     Val( 2p)     1.07043
    81    C    6  px     Ryd( 3p)     0.00536
    82    C    6  py     Val( 2p)     1.17034
    83    C    6  py     Ryd( 3p)     0.00440
    84    C    6  pz     Val( 2p)     1.06536
    85    C    6  pz     Ryd( 3p)     0.00597
    86    C    6  dxy    Ryd( 3d)     0.00083
    87    C    6  dxz    Ryd( 3d)     0.00070
    88    C    6  dyz    Ryd( 3d)     0.00038
    89    C    6  dx2y2  Ryd( 3d)     0.00060
    90    C    6  dz2    Ryd( 3d)     0.00046

    91    C    7  S      Cor( 1S)     1.99907
    92    C    7  S      Val( 2S)     0.94869
    93    C    7  S      Ryd( 3S)     0.00060
    94    C    7  S      Ryd( 4S)     0.00005
    95    C    7  px     Val( 2p)     1.11227
    96    C    7  px     Ryd( 3p)     0.00428
    97    C    7  py     Val( 2p)     1.12550
    98    C    7  py     Ryd( 3p)     0.00467
    99    C    7  pz     Val( 2p)     1.09894
   100    C    7  pz     Ryd( 3p)     0.00617
   101    C    7  dxy    Ryd( 3d)     0.00081
   102    C    7  dxz    Ryd( 3d)     0.00054
   103    C    7  dyz    Ryd( 3d)     0.00040
   104    C    7  dx2y2  Ryd( 3d)     0.00065
   105    C    7  dz2    Ryd( 3d)     0.00044

   106    O    8  S      Cor( 1S)     1.99976
   107    O    8  S      Val( 2S)     1.64139
   108    O    8  S      Ryd( 3S)     0.00145
   109    O    8  S      Ryd( 4S)     0.00009
   110    O    8  px     Val( 2p)     1.54197
   111    O    8  px     Ryd( 3p)     0.00113
   112    O    8  py     Val( 2p)     1.86824
   113    O    8  py     Ryd( 3p)     0.00271
   114    O    8  pz     Val( 2p)     1.72154
   115    O    8  pz     Ryd( 3p)     0.00160
   116    O    8  dxy    Ryd( 3d)     0.00154
   117    O    8  dxz    Ryd( 3d)     0.00035
   118    O    8  dyz    Ryd( 3d)     0.00118
   119    O    8  dx2y2  Ryd( 3d)     0.00122
   120    O    8  dz2    Ryd( 3d)     0.00091

   121   Si    9  S      Cor( 1S)     2.00000
   122   Si    9  S      Cor( 2S)     1.99864
   123   Si    9  S      Val( 3S)     0.74197
   124   Si    9  S      Ryd( 4S)     0.00121
   125   Si    9  S      Ryd( 5S)     0.00001
   126   Si    9  px     Cor( 2p)     1.99963
   127   Si    9  px     Val( 3p)     0.32725
   128   Si    9  px     Ryd( 4p)     0.00098
   129   Si    9  py     Cor( 2p)     1.99975
   130   Si    9  py     Val( 3p)     0.41517
   131   Si    9  py     Ryd( 4p)     0.00371
   132   Si    9  pz     Cor( 2p)     1.99982
   133   Si    9  pz     Val( 3p)     0.46294
   134   Si    9  pz     Ryd( 4p)     0.00422
   135   Si    9  dxy    Ryd( 3d)     0.00799
   136   Si    9  dxz    Ryd( 3d)     0.00460
   137   Si    9  dyz    Ryd( 3d)     0.00995
   138   Si    9  dx2y2  Ryd( 3d)     0.00615
   139   Si    9  dz2    Ryd( 3d)     0.00749

   140    C   10  S      Cor( 1S)     1.99948
   141    C   10  S      Val( 2S)     1.23515
   142    C   10  S      Ryd( 3S)     0.00193
   143    C   10  S      Ryd( 4S)     0.00001
   144    C   10  px     Val( 2p)     1.27245
   145    C   10  px     Ryd( 3p)     0.00098
   146    C   10  py     Val( 2p)     1.32358
   147    C   10  py     Ryd( 3p)     0.00132
   148    C   10  pz     Val( 2p)     1.38199
   149    C   10  pz     Ryd( 3p)     0.00251
   150    C   10  dxy    Ryd( 3d)     0.00091
   151    C   10  dxz    Ryd( 3d)     0.00003
   152    C   10  dyz    Ryd( 3d)     0.00082
   153    C   10  dx2y2  Ryd( 3d)     0.00032
   154    C   10  dz2    Ryd( 3d)     0.00071

   155    C   11  S      Cor( 1S)     1.99948
   156    C   11  S      Val( 2S)     1.23520
   157    C   11  S      Ryd( 3S)     0.00193
   158    C   11  S      Ryd( 4S)     0.00001
   159    C   11  px     Val( 2p)     1.27249
   160    C   11  px     Ryd( 3p)     0.00098
   161    C   11  py     Val( 2p)     1.32251
   162    C   11  py     Ryd( 3p)     0.00130
   163    C   11  pz     Val( 2p)     1.38303
   164    C   11  pz     Ryd( 3p)     0.00252
   165    C   11  dxy    Ryd( 3d)     0.00091
   166    C   11  dxz    Ryd( 3d)     0.00003
   167    C   11  dyz    Ryd( 3d)     0.00082
   168    C   11  dx2y2  Ryd( 3d)     0.00032
   169    C   11  dz2    Ryd( 3d)     0.00070

   170    C   12  S      Cor( 1S)     1.99949
   171    C   12  S      Val( 2S)     1.23287
   172    C   12  S      Ryd( 3S)     0.00159
   173    C   12  S      Ryd( 4S)     0.00001
   174    C   12  px     Val( 2p)     1.34734
   175    C   12  px     Ryd( 3p)     0.00171
   176    C   12  py     Val( 2p)     1.35337
   177    C   12  py     Ryd( 3p)     0.00229
   178    C   12  pz     Val( 2p)     1.27805
   179    C   12  pz     Ryd( 3p)     0.00056
   180    C   12  dxy    Ryd( 3d)     0.00073
   181    C   12  dxz    Ryd( 3d)     0.00005
   182    C   12  dyz    Ryd( 3d)     0.00095
   183    C   12  dx2y2  Ryd( 3d)     0.00032
   184    C   12  dz2    Ryd( 3d)     0.00071

   185    H   13  S      Val( 1S)     0.76213
   186    H   13  S      Ryd( 2S)     0.00093

   187    H   14  S      Val( 1S)     0.75042
   188    H   14  S      Ryd( 2S)     0.00180

   189    H   15  S      Val( 1S)     0.75285
   190    H   15  S      Ryd( 2S)     0.00206

   191    H   16  S      Val( 1S)     0.77437
   192    H   16  S      Ryd( 2S)     0.00107

   193    H   17  S      Val( 1S)     0.77788
   194    H   17  S      Ryd( 2S)     0.00111

   195    H   18  S      Val( 1S)     0.76369
   196    H   18  S      Ryd( 2S)     0.00124

   197    H   19  S      Val( 1S)     0.77454
   198    H   19  S      Ryd( 2S)     0.00103

   199    H   20  S      Val( 1S)     0.74245
   200    H   20  S      Ryd( 2S)     0.00130

   201    H   21  S      Val( 1S)     0.74040
   202    H   21  S      Ryd( 2S)     0.00080

   203    H   22  S      Val( 1S)     0.74527
   204    H   22  S      Ryd( 2S)     0.00077

   205    H   23  S      Val( 1S)     0.74225
   206    H   23  S      Ryd( 2S)     0.00135

   207    H   24  S      Val( 1S)     0.74531
   208    H   24  S      Ryd( 2S)     0.00077

   209    H   25  S      Val( 1S)     0.74047
   210    H   25  S      Ryd( 2S)     0.00080

   211    H   26  S      Val( 1S)     0.74064
   212    H   26  S      Ryd( 2S)     0.00077

   213    H   27  S      Val( 1S)     0.74063
   214    H   27  S      Ryd( 2S)     0.00077

   215    H   28  S      Val( 1S)     0.74650
   216    H   28  S      Ryd( 2S)     0.00057

 WARNING:  1 low occupancy (<1.9990e) core orbital  found on  C    5
           1 low occupancy (<1.9990e) core orbital  found on Si    9


 Summary of Natural Population Analysis:                  
                                                          
                                       Natural Population 
                Natural  -----------------------------------------------
    Atom  No    Charge         Core      Valence    Rydberg      Total
 -----------------------------------------------------------------------
      C    1   -0.69473      1.99939     4.68770    0.00764     6.69473
      C    2    0.03818      1.99904     3.94721    0.01557     5.96182
      C    3   -0.26456      1.99907     4.24710    0.01839     6.26456
      C    4   -0.34635      1.99905     4.32824    0.01906     6.34635
      C    5    0.35727      1.99877     3.62124    0.02272     5.64273
      C    6   -0.28872      1.99906     4.27011    0.01954     6.28872
      C    7   -0.30309      1.99907     4.28540    0.01862     6.30309
      O    8   -0.78508      1.99976     6.77314    0.01217     8.78508
     Si    9    2.00850      9.99784     1.94734    0.04632    11.99150
      C   10   -1.22219      1.99948     5.21317    0.00953     7.22219
      C   11   -1.22225      1.99948     5.21324    0.00953     7.22225
      C   12   -1.22004      1.99949     5.21163    0.00892     7.22004
      H   13    0.23694      0.00000     0.76213    0.00093     0.76306
      H   14    0.24778      0.00000     0.75042    0.00180     0.75222
      H   15    0.24509      0.00000     0.75285    0.00206     0.75491
      H   16    0.22456      0.00000     0.77437    0.00107     0.77544
      H   17    0.22101      0.00000     0.77788    0.00111     0.77899
      H   18    0.23506      0.00000     0.76369    0.00124     0.76494
      H   19    0.22442      0.00000     0.77454    0.00103     0.77558
      H   20    0.25625      0.00000     0.74245    0.00130     0.74375
      H   21    0.25881      0.00000     0.74040    0.00080     0.74119
      H   22    0.25396      0.00000     0.74527    0.00077     0.74604
      H   23    0.25640      0.00000     0.74225    0.00135     0.74360
      H   24    0.25392      0.00000     0.74531    0.00077     0.74608
      H   25    0.25873      0.00000     0.74047    0.00080     0.74127
      H   26    0.25859      0.00000     0.74064    0.00077     0.74141
      H   27    0.25859      0.00000     0.74063    0.00077     0.74141
      H   28    0.25293      0.00000     0.74650    0.00057     0.74707
 =======================================================================
   * Total *   -0.00000     31.98950    65.78533    0.22516    98.00000

                                 Natural Population      
 --------------------------------------------------------
   Core                      31.98950 ( 99.9672% of  32)
   Valence                   65.78533 ( 99.6747% of  66)
   Natural Minimal Basis     97.77484 ( 99.7702% of  98)
   Natural Rydberg Basis      0.22516 (  0.2298% of  98)
 --------------------------------------------------------

    Atom  No          Natural Electron Configuration
 ----------------------------------------------------------------------------
      C    1      [core]2S( 1.10)2p( 3.59)
      C    2      [core]2S( 0.90)2p( 3.05)3p( 0.01)
      C    3      [core]2S( 0.95)2p( 3.30)3p( 0.01)
      C    4      [core]2S( 0.96)2p( 3.37)3p( 0.02)
      C    5      [core]2S( 0.84)2p( 2.78)3p( 0.01)3d( 0.01)
      C    6      [core]2S( 0.96)2p( 3.31)3p( 0.02)
      C    7      [core]2S( 0.95)2p( 3.34)3p( 0.02)
      O    8      [core]2S( 1.64)2p( 5.13)3p( 0.01)3d( 0.01)
     Si    9      [core]3S( 0.74)3p( 1.21)3d( 0.04)4p( 0.01)
      C   10      [core]2S( 1.24)2p( 3.98)
      C   11      [core]2S( 1.24)2p( 3.98)
      C   12      [core]2S( 1.23)2p( 3.98)
      H   13            1S( 0.76)
      H   14            1S( 0.75)
      H   15            1S( 0.75)
      H   16            1S( 0.77)
      H   17            1S( 0.78)
      H   18            1S( 0.76)
      H   19            1S( 0.77)
      H   20            1S( 0.74)
      H   21            1S( 0.74)
      H   22            1S( 0.75)
      H   23            1S( 0.74)
      H   24            1S( 0.75)
      H   25            1S( 0.74)
      H   26            1S( 0.74)
      H   27            1S( 0.74)
      H   28            1S( 0.75)


 NBO analysis skipped by request.
 Leave Link  607 at Thu Sep 30 17:19:33 2021, MaxMem= 1073741824 cpu:      14.5
 (Enter /sw/target/amd/app/gaussian/Gaussian09RevA.02_gcc-4.9.2/g09/l9999.exe)
 1\1\GINC-HERMITE\SP\RTD-B3LYP-FC\6-31G(d)\C10H16O1Si1\JSCHLEINITZ\30-S
 ep-2021\0\\#p TD(NStates=10, Root=1) b3lyp/6-31G* volume pop=NPA densi
 ty=current Geom=AllCheck Guess=Read\\Cc1ccc(cc1)O[Si](C)(C)C_conf_0\\0
 ,1\C,0,2.7250536449,-0.2753954242,0.1103174716\C,0,1.2300375255,-0.069
 9452388,0.0249124382\C,0,0.6714986996,1.2078702043,-0.0651541414\C,0,-
 0.709268731,1.4029294487,-0.1527792622\C,0,-1.5718810782,0.3019326257,
 -0.1511996705\C,0,-1.0278264909,-0.986697584,-0.0601852184\C,0,0.34888
 46103,-1.1623220187,0.0263711463\O,0,-2.9312492527,0.3988516053,-0.231
 732578\Si,0,-3.9935253089,1.7072804296,-0.3601917157\C,0,-3.8500348218
 ,2.830125944,1.1494888012\C,0,-3.6708543093,2.6697097572,-1.950769816\
 C,0,-5.6844200458,0.8894429305,-0.4150378404\H,0,3.2538186259,0.679588
 767,0.1948710754\H,0,3.1142382755,-0.7902262662,-0.7778622575\H,0,3.00
 0132671,-0.8855445111,0.9796691187\H,0,1.3254296696,2.0774417181,-0.06
 69461373\H,0,-1.1049514868,2.4113883123,-0.2198367782\H,0,-1.70404995,
 -1.8362019437,-0.0575671451\H,0,0.7486843622,-2.1720312438,0.097413063
 8\H,0,-2.867717515,3.3085980118,1.2280982342\H,0,-4.0176810719,2.26516
 83732,2.0738420178\H,0,-4.6034478655,3.626874235,1.1065108907\H,0,-2.6
 801749028,3.1370219972,-1.96741416\H,0,-4.4148469675,3.4670228715,-2.0
 733842747\H,0,-3.7415545749,2.0131181209,-2.8257594539\H,0,-5.86752616
 91,0.3033379583,0.4925753968\H,0,-5.7656018632,0.2111886415,-1.2718745
 646\H,0,-6.4842936111,1.63511662,-0.500183421\\Version=AM64L-G09RevA.0
 2\State=1-A\HF=-755.5007344\RMSD=6.124e-09\Dipole=-0.4767235,0.5624356
 ,-0.063602\Quadrupole=4.0720796,-0.3665643,-3.7055153,-2.1972021,0.480
 3825,-0.2548591\PG=C01 [X(C10H16O1Si1)]\\@


 WE ARE PERHAPS NOT FAR REMOVED FROM THE TIME WHEN WE SHALL BE ABLE TO SUBMIT
 THE BULK OF CHEMICAL PHENOMENA TO CALCULATION.

            -- JOSEPH LOUIS GAY-LUSSAC
               MEMOIRES DE LA SOCIETE D'ARCUEIL, 2, 207 (1808)
 Job cpu time:  0 days  2 hours 28 minutes 48.9 seconds.
 File lengths (MBytes):  RWF=    154 Int=      0 D2E=      0 Chk=     22 Scr=      1
 Normal termination of Gaussian 09 at Thu Sep 30 17:19:37 2021.
