 Entering Gaussian System, Link 0=g09
 Input=C11H13FO2_c2c1_conf_0.com
 Output=C11H13FO2_c2c1_conf_0.log
 Initial command:
 /sw/target/amd/app/gaussian/Gaussian09RevA.02_gcc-4.9.2/g09/l1.exe /home/jschleinitz/gaussian/Gau-691236.inp -scrdir=/home/jschleinitz/gaussian/
 Entering Link 1 = /sw/target/amd/app/gaussian/Gaussian09RevA.02_gcc-4.9.2/g09/l1.exe PID=    691255.
  
 Copyright (c) 1988,1990,1992,1993,1995,1998,2003,2009, Gaussian, Inc.
                  All Rights Reserved.
  
 This is part of the Gaussian(R) 09 program.  It is based on
 the Gaussian(R) 03 system (copyright 2003, Gaussian, Inc.),
 the Gaussian(R) 98 system (copyright 1998, Gaussian, Inc.),
 the Gaussian(R) 94 system (copyright 1995, Gaussian, Inc.),
 the Gaussian 92(TM) system (copyright 1992, Gaussian, Inc.),
 the Gaussian 90(TM) system (copyright 1990, Gaussian, Inc.),
 the Gaussian 88(TM) system (copyright 1988, Gaussian, Inc.),
 the Gaussian 86(TM) system (copyright 1986, Carnegie Mellon
 University), and the Gaussian 82(TM) system (copyright 1983,
 Carnegie Mellon University). Gaussian is a federally registered
 trademark of Gaussian, Inc.
  
 This software contains proprietary and confidential information,
 including trade secrets, belonging to Gaussian, Inc.
  
 This software is provided under written license and may be
 used, copied, transmitted, or stored only in accord with that
 written license.
  
 The following legend is applicable only to US Government
 contracts under FAR:
  
                    RESTRICTED RIGHTS LEGEND
  
 Use, reproduction and disclosure by the US Government is
 subject to restrictions as set forth in subparagraphs (a)
 and (c) of the Commercial Computer Software - Restricted
 Rights clause in FAR 52.227-19.
  
 Gaussian, Inc.
 340 Quinnipiac St., Bldg. 40, Wallingford CT 06492
  
  
 ---------------------------------------------------------------
 Warning -- This program may not be used in any manner that
 competes with the business of Gaussian, Inc. or will provide
 assistance to any competitor of Gaussian, Inc.  The licensee
 of this program is prohibited from giving any competitor of
 Gaussian, Inc. access to this program.  By using this program,
 the user acknowledges that Gaussian, Inc. is engaged in the
 business of creating and licensing software in the field of
 computational chemistry and represents and warrants to the
 licensee that it is not a competitor of Gaussian, Inc. and that
 it will not use this program in any manner prohibited above.
 ---------------------------------------------------------------
  

 Cite this work as:
 Gaussian 09, Revision A.02,
 M. J. Frisch, G. W. Trucks, H. B. Schlegel, G. E. Scuseria, 
 M. A. Robb, J. R. Cheeseman, G. Scalmani, V. Barone, B. Mennucci, 
 G. A. Petersson, H. Nakatsuji, M. Caricato, X. Li, H. P. Hratchian, 
 A. F. Izmaylov, J. Bloino, G. Zheng, J. L. Sonnenberg, M. Hada, 
 M. Ehara, K. Toyota, R. Fukuda, J. Hasegawa, M. Ishida, T. Nakajima, 
 Y. Honda, O. Kitao, H. Nakai, T. Vreven, J. A. Montgomery, Jr., 
 J. E. Peralta, F. Ogliaro, M. Bearpark, J. J. Heyd, E. Brothers, 
 K. N. Kudin, V. N. Staroverov, R. Kobayashi, J. Normand, 
 K. Raghavachari, A. Rendell, J. C. Burant, S. S. Iyengar, J. Tomasi, 
 M. Cossi, N. Rega, J. M. Millam, M. Klene, J. E. Knox, J. B. Cross, 
 V. Bakken, C. Adamo, J. Jaramillo, R. Gomperts, R. E. Stratmann, 
 O. Yazyev, A. J. Austin, R. Cammi, C. Pomelli, J. W. Ochterski, 
 R. L. Martin, K. Morokuma, V. G. Zakrzewski, G. A. Voth, 
 P. Salvador, J. J. Dannenberg, S. Dapprich, A. D. Daniels, 
 O. Farkas, J. B. Foresman, J. V. Ortiz, J. Cioslowski, 
 and D. J. Fox, Gaussian, Inc., Wallingford CT, 2009.
 
 ******************************************
 Gaussian 09:  AM64L-G09RevA.02 11-Jun-2009
                29-Sep-2021 
 ******************************************
 %nproc=4
 Will use up to    4 processors via shared memory.
 %mem=8gb
 %chk=C11H13FO2_c2c1_conf_0.chk
 -----------------------------------
 #p opt b3lyp/6-31G* scf=(xqc,tight)
 -----------------------------------
 1/14=-1,18=20,19=15,26=3,38=1/1,3;
 2/9=110,12=2,17=6,18=5,40=1/2;
 3/5=1,6=6,7=1,11=2,16=1,25=1,30=1,71=1,74=-5/1,2,3;
 4//1;
 5/5=2,8=3,13=1,32=2,38=5/2,8;
 6/7=2,8=2,9=2,10=2,28=1/1;
 7//1,2,3,16;
 1/14=-1,18=20,19=15/3(2);
 2/9=110/2;
 99//99;
 2/9=110/2;
 3/5=1,6=6,7=1,11=2,16=1,25=1,30=1,71=1,74=-5/1,2,3;
 4/5=5,16=3/1;
 5/5=2,8=3,13=1,32=2,38=5/2,8;
 7//1,2,3,16;
 1/14=-1,18=20,19=15/3(-5);
 2/9=110/2;
 6/7=2,8=2,9=2,10=2,19=2,28=1/1;
 99/9=1/99;
 Leave Link    1 at Wed Sep 29 02:32:20 2021, MaxMem= 1073741824 cpu:       0.1
 (Enter /sw/target/amd/app/gaussian/Gaussian09RevA.02_gcc-4.9.2/g09/l101.exe)
 --------------------------------
 O=C(C(C)(C)C)Oc1ccc(cc1)F_conf_0
 --------------------------------
 Symbolic Z-matrix:
 Charge =  0 Multiplicity = 1
 O                     1.99478  -0.00102  -0.78037 
 C                     2.892    -0.38391  -0.04085 
 C                     2.75208  -1.53607   0.95866 
 C                     3.09767  -2.83287   0.21916 
 C                     3.67694  -1.3523    2.17197 
 C                     1.29967  -1.58531   1.45704 
 O                     4.20631   0.09058  -0.03753 
 C                     4.65613   1.16653  -0.83018 
 C                     3.8288    2.19471  -1.2796 
 C                     4.37857   3.23525  -2.02782 
 C                     5.74395   3.24257  -2.2967 
 C                     6.57435   2.23028  -1.83079 
 C                     6.02949   1.18454  -1.08876 
 F                     6.26573   4.24772  -3.0098 
 H                     4.12509  -2.80877  -0.16242 
 H                     2.43839  -2.98329  -0.64398 
 H                     3.00019  -3.70465   0.87458 
 H                     4.73454  -1.39855   1.88748 
 H                     3.50907  -2.13276   2.92205 
 H                     3.50864  -0.38035   2.65035 
 H                     0.59852  -1.76956   0.63495 
 H                     1.01171  -0.6358    1.92345 
 H                     1.1594   -2.38139   2.19665 
 H                     2.76583   2.21033  -1.05952 
 H                     3.75092   4.03942  -2.39743 
 H                     7.63816   2.26648  -2.04453 
 H                     6.67054   0.39214  -0.71259 
 
 NAtoms=     27 NQM=     27 NQMF=      0 NMic=      0 NMicF=      0 NTot=     27.
                    Isotopes and Nuclear Properties:
 (Nuclear quadrupole moments (NQMom) in fm**2, nuclear magnetic moments (NMagM)
  in nuclear magnetons)

  Atom         1           2           3           4           5           6           7           8           9          10
 IAtWgt=          16          12          12          12          12          12          16          12          12          12
 AtmWgt=  15.9949146  12.0000000  12.0000000  12.0000000  12.0000000  12.0000000  15.9949146  12.0000000  12.0000000  12.0000000
 NucSpn=           0           0           0           0           0           0           0           0           0           0
 AtZEff=   0.0000000   0.0000000   0.0000000   0.0000000   0.0000000   0.0000000   0.0000000   0.0000000   0.0000000   0.0000000
 NQMom=    0.0000000   0.0000000   0.0000000   0.0000000   0.0000000   0.0000000   0.0000000   0.0000000   0.0000000   0.0000000
 NMagM=    0.0000000   0.0000000   0.0000000   0.0000000   0.0000000   0.0000000   0.0000000   0.0000000   0.0000000   0.0000000

  Atom        11          12          13          14          15          16          17          18          19          20
 IAtWgt=          12          12          12          19           1           1           1           1           1           1
 AtmWgt=  12.0000000  12.0000000  12.0000000  18.9984032   1.0078250   1.0078250   1.0078250   1.0078250   1.0078250   1.0078250
 NucSpn=           0           0           0           1           1           1           1           1           1           1
 AtZEff=   0.0000000   0.0000000   0.0000000   0.0000000   0.0000000   0.0000000   0.0000000   0.0000000   0.0000000   0.0000000
 NQMom=    0.0000000   0.0000000   0.0000000   0.0000000   0.0000000   0.0000000   0.0000000   0.0000000   0.0000000   0.0000000
 NMagM=    0.0000000   0.0000000   0.0000000   2.6288670   2.7928460   2.7928460   2.7928460   2.7928460   2.7928460   2.7928460

  Atom        21          22          23          24          25          26          27
 IAtWgt=           1           1           1           1           1           1           1
 AtmWgt=   1.0078250   1.0078250   1.0078250   1.0078250   1.0078250   1.0078250   1.0078250
 NucSpn=           1           1           1           1           1           1           1
 AtZEff=   0.0000000   0.0000000   0.0000000   0.0000000   0.0000000   0.0000000   0.0000000
 NQMom=    0.0000000   0.0000000   0.0000000   0.0000000   0.0000000   0.0000000   0.0000000
 NMagM=    2.7928460   2.7928460   2.7928460   2.7928460   2.7928460   2.7928460   2.7928460
 Leave Link  101 at Wed Sep 29 02:32:20 2021, MaxMem= 1073741824 cpu:       0.2
 (Enter /sw/target/amd/app/gaussian/Gaussian09RevA.02_gcc-4.9.2/g09/l103.exe)

 GradGradGradGradGradGradGradGradGradGradGradGradGradGradGradGradGradGrad
 Berny optimization.
 Initialization pass.
                           ----------------------------
                           !    Initial Parameters    !
                           ! (Angstroms and Degrees)  !
 --------------------------                            --------------------------
 ! Name  Definition              Value          Derivative Info.                !
 --------------------------------------------------------------------------------
 ! R1    R(1,2)                  1.2241         estimate D2E/DX2                !
 ! R2    R(2,3)                  1.5317         estimate D2E/DX2                !
 ! R3    R(2,7)                  1.3973         estimate D2E/DX2                !
 ! R4    R(3,4)                  1.5323         estimate D2E/DX2                !
 ! R5    R(3,5)                  1.5366         estimate D2E/DX2                !
 ! R6    R(3,6)                  1.5363         estimate D2E/DX2                !
 ! R7    R(4,15)                 1.0963         estimate D2E/DX2                !
 ! R8    R(4,16)                 1.0965         estimate D2E/DX2                !
 ! R9    R(4,17)                 1.095          estimate D2E/DX2                !
 ! R10   R(5,18)                 1.0962         estimate D2E/DX2                !
 ! R11   R(5,19)                 1.0954         estimate D2E/DX2                !
 ! R12   R(5,20)                 1.0963         estimate D2E/DX2                !
 ! R13   R(6,21)                 1.0961         estimate D2E/DX2                !
 ! R14   R(6,22)                 1.0964         estimate D2E/DX2                !
 ! R15   R(6,23)                 1.0956         estimate D2E/DX2                !
 ! R16   R(7,8)                  1.4101         estimate D2E/DX2                !
 ! R17   R(8,9)                  1.3941         estimate D2E/DX2                !
 ! R18   R(8,13)                 1.3976         estimate D2E/DX2                !
 ! R19   R(9,10)                 1.3946         estimate D2E/DX2                !
 ! R20   R(9,24)                 1.0856         estimate D2E/DX2                !
 ! R21   R(10,11)                1.3916         estimate D2E/DX2                !
 ! R22   R(10,25)                1.085          estimate D2E/DX2                !
 ! R23   R(11,12)                1.3897         estimate D2E/DX2                !
 ! R24   R(11,14)                1.3383         estimate D2E/DX2                !
 ! R25   R(12,13)                1.3932         estimate D2E/DX2                !
 ! R26   R(12,26)                1.0857         estimate D2E/DX2                !
 ! R27   R(13,27)                1.0864         estimate D2E/DX2                !
 ! A1    A(1,2,3)              124.2317         estimate D2E/DX2                !
 ! A2    A(1,2,7)              125.7763         estimate D2E/DX2                !
 ! A3    A(3,2,7)              109.8646         estimate D2E/DX2                !
 ! A4    A(2,3,4)              107.5223         estimate D2E/DX2                !
 ! A5    A(2,3,5)              111.7346         estimate D2E/DX2                !
 ! A6    A(2,3,6)              108.7934         estimate D2E/DX2                !
 ! A7    A(4,3,5)              110.2753         estimate D2E/DX2                !
 ! A8    A(4,3,6)              110.0382         estimate D2E/DX2                !
 ! A9    A(5,3,6)              108.4624         estimate D2E/DX2                !
 ! A10   A(3,4,15)             111.1464         estimate D2E/DX2                !
 ! A11   A(3,4,16)             111.1243         estimate D2E/DX2                !
 ! A12   A(3,4,17)             111.3969         estimate D2E/DX2                !
 ! A13   A(15,4,16)            107.0094         estimate D2E/DX2                !
 ! A14   A(15,4,17)            108.0147         estimate D2E/DX2                !
 ! A15   A(16,4,17)            107.9648         estimate D2E/DX2                !
 ! A16   A(3,5,18)             111.7602         estimate D2E/DX2                !
 ! A17   A(3,5,19)             111.2987         estimate D2E/DX2                !
 ! A18   A(3,5,20)             110.9885         estimate D2E/DX2                !
 ! A19   A(18,5,19)            107.1877         estimate D2E/DX2                !
 ! A20   A(18,5,20)            107.3837         estimate D2E/DX2                !
 ! A21   A(19,5,20)            108.02           estimate D2E/DX2                !
 ! A22   A(3,6,21)             111.5196         estimate D2E/DX2                !
 ! A23   A(3,6,22)             111.0112         estimate D2E/DX2                !
 ! A24   A(3,6,23)             111.3029         estimate D2E/DX2                !
 ! A25   A(21,6,22)            107.2561         estimate D2E/DX2                !
 ! A26   A(21,6,23)            107.594          estimate D2E/DX2                !
 ! A27   A(22,6,23)            107.9667         estimate D2E/DX2                !
 ! A28   A(2,7,8)              123.9049         estimate D2E/DX2                !
 ! A29   A(7,8,9)              123.6872         estimate D2E/DX2                !
 ! A30   A(7,8,13)             115.2964         estimate D2E/DX2                !
 ! A31   A(9,8,13)             120.9303         estimate D2E/DX2                !
 ! A32   A(8,9,10)             119.2942         estimate D2E/DX2                !
 ! A33   A(8,9,24)             121.7561         estimate D2E/DX2                !
 ! A34   A(10,9,24)            118.9492         estimate D2E/DX2                !
 ! A35   A(9,10,11)            119.6288         estimate D2E/DX2                !
 ! A36   A(9,10,25)            120.5128         estimate D2E/DX2                !
 ! A37   A(11,10,25)           119.8579         estimate D2E/DX2                !
 ! A38   A(10,11,12)           121.1747         estimate D2E/DX2                !
 ! A39   A(10,11,14)           119.3027         estimate D2E/DX2                !
 ! A40   A(12,11,14)           119.5213         estimate D2E/DX2                !
 ! A41   A(11,12,13)           119.4469         estimate D2E/DX2                !
 ! A42   A(11,12,26)           119.6831         estimate D2E/DX2                !
 ! A43   A(13,12,26)           120.8693         estimate D2E/DX2                !
 ! A44   A(8,13,12)            119.5051         estimate D2E/DX2                !
 ! A45   A(8,13,27)            120.4212         estimate D2E/DX2                !
 ! A46   A(12,13,27)           120.0734         estimate D2E/DX2                !
 ! D1    D(1,2,3,4)             87.7533         estimate D2E/DX2                !
 ! D2    D(1,2,3,5)           -151.1109         estimate D2E/DX2                !
 ! D3    D(1,2,3,6)            -31.39           estimate D2E/DX2                !
 ! D4    D(7,2,3,4)            -88.3441         estimate D2E/DX2                !
 ! D5    D(7,2,3,5)             32.7917         estimate D2E/DX2                !
 ! D6    D(7,2,3,6)            152.5126         estimate D2E/DX2                !
 ! D7    D(1,2,7,8)              5.2226         estimate D2E/DX2                !
 ! D8    D(3,2,7,8)           -178.7545         estimate D2E/DX2                !
 ! D9    D(2,3,4,15)            60.5042         estimate D2E/DX2                !
 ! D10   D(2,3,4,16)           -58.5532         estimate D2E/DX2                !
 ! D11   D(2,3,4,17)          -178.9852         estimate D2E/DX2                !
 ! D12   D(5,3,4,15)           -61.5426         estimate D2E/DX2                !
 ! D13   D(5,3,4,16)           179.4            estimate D2E/DX2                !
 ! D14   D(5,3,4,17)            58.9679         estimate D2E/DX2                !
 ! D15   D(6,3,4,15)           178.8475         estimate D2E/DX2                !
 ! D16   D(6,3,4,16)            59.7901         estimate D2E/DX2                !
 ! D17   D(6,3,4,17)           -60.6419         estimate D2E/DX2                !
 ! D18   D(2,3,5,18)           -65.1145         estimate D2E/DX2                !
 ! D19   D(2,3,5,19)           175.076          estimate D2E/DX2                !
 ! D20   D(2,3,5,20)            54.7325         estimate D2E/DX2                !
 ! D21   D(4,3,5,18)            54.41           estimate D2E/DX2                !
 ! D22   D(4,3,5,19)           -65.3995         estimate D2E/DX2                !
 ! D23   D(4,3,5,20)           174.257          estimate D2E/DX2                !
 ! D24   D(6,3,5,18)           174.9698         estimate D2E/DX2                !
 ! D25   D(6,3,5,19)            55.1603         estimate D2E/DX2                !
 ! D26   D(6,3,5,20)           -65.1832         estimate D2E/DX2                !
 ! D27   D(2,3,6,21)            61.3153         estimate D2E/DX2                !
 ! D28   D(2,3,6,22)           -58.2246         estimate D2E/DX2                !
 ! D29   D(2,3,6,23)          -178.5188         estimate D2E/DX2                !
 ! D30   D(4,3,6,21)           -56.2423         estimate D2E/DX2                !
 ! D31   D(4,3,6,22)          -175.7822         estimate D2E/DX2                !
 ! D32   D(4,3,6,23)            63.9236         estimate D2E/DX2                !
 ! D33   D(5,3,6,21)          -176.9491         estimate D2E/DX2                !
 ! D34   D(5,3,6,22)            63.511          estimate D2E/DX2                !
 ! D35   D(5,3,6,23)           -56.7832         estimate D2E/DX2                !
 ! D36   D(2,7,8,9)             26.5246         estimate D2E/DX2                !
 ! D37   D(2,7,8,13)          -156.8276         estimate D2E/DX2                !
 ! D38   D(7,8,9,10)           178.1898         estimate D2E/DX2                !
 ! D39   D(7,8,9,24)            -1.5642         estimate D2E/DX2                !
 ! D40   D(13,8,9,10)            1.7231         estimate D2E/DX2                !
 ! D41   D(13,8,9,24)         -178.0308         estimate D2E/DX2                !
 ! D42   D(7,8,13,12)         -178.1407         estimate D2E/DX2                !
 ! D43   D(7,8,13,27)            1.662          estimate D2E/DX2                !
 ! D44   D(9,8,13,12)           -1.3922         estimate D2E/DX2                !
 ! D45   D(9,8,13,27)          178.4104         estimate D2E/DX2                !
 ! D46   D(8,9,10,11)           -0.9712         estimate D2E/DX2                !
 ! D47   D(8,9,10,25)          179.2785         estimate D2E/DX2                !
 ! D48   D(24,9,10,11)         178.7897         estimate D2E/DX2                !
 ! D49   D(24,9,10,25)          -0.9606         estimate D2E/DX2                !
 ! D50   D(9,10,11,12)          -0.0949         estimate D2E/DX2                !
 ! D51   D(9,10,11,14)        -179.6752         estimate D2E/DX2                !
 ! D52   D(25,10,11,12)        179.6571         estimate D2E/DX2                !
 ! D53   D(25,10,11,14)          0.0768         estimate D2E/DX2                !
 ! D54   D(10,11,12,13)          0.4299         estimate D2E/DX2                !
 ! D55   D(10,11,12,26)       -179.2538         estimate D2E/DX2                !
 ! D56   D(14,11,12,13)       -179.9908         estimate D2E/DX2                !
 ! D57   D(14,11,12,26)          0.3255         estimate D2E/DX2                !
 ! D58   D(11,12,13,8)           0.3066         estimate D2E/DX2                !
 ! D59   D(11,12,13,27)       -179.4968         estimate D2E/DX2                !
 ! D60   D(26,12,13,8)         179.9864         estimate D2E/DX2                !
 ! D61   D(26,12,13,27)          0.1831         estimate D2E/DX2                !
 --------------------------------------------------------------------------------
 Trust Radius=3.00D-01 FncErr=1.00D-07 GrdErr=1.00D-06
 Number of steps in this run= 144 maximum allowed number of steps= 162.
 GradGradGradGradGradGradGradGradGradGradGradGradGradGradGradGradGradGrad

 Leave Link  103 at Wed Sep 29 02:32:21 2021, MaxMem= 1073741824 cpu:       0.0
 (Enter /sw/target/amd/app/gaussian/Gaussian09RevA.02_gcc-4.9.2/g09/l202.exe)
                          Input orientation:                          
 ---------------------------------------------------------------------
 Center     Atomic      Atomic             Coordinates (Angstroms)
 Number     Number       Type             X           Y           Z
 ---------------------------------------------------------------------
      1          8           0        1.994776   -0.001022   -0.780366
      2          6           0        2.892003   -0.383908   -0.040847
      3          6           0        2.752082   -1.536071    0.958658
      4          6           0        3.097667   -2.832869    0.219157
      5          6           0        3.676936   -1.352300    2.171972
      6          6           0        1.299671   -1.585309    1.457044
      7          8           0        4.206314    0.090578   -0.037530
      8          6           0        4.656130    1.166531   -0.830181
      9          6           0        3.828802    2.194714   -1.279602
     10          6           0        4.378572    3.235250   -2.027821
     11          6           0        5.743951    3.242565   -2.296703
     12          6           0        6.574345    2.230278   -1.830794
     13          6           0        6.029491    1.184536   -1.088760
     14          9           0        6.265729    4.247717   -3.009799
     15          1           0        4.125089   -2.808775   -0.162422
     16          1           0        2.438390   -2.983286   -0.643977
     17          1           0        3.000194   -3.704649    0.874582
     18          1           0        4.734535   -1.398549    1.887484
     19          1           0        3.509072   -2.132762    2.922051
     20          1           0        3.508638   -0.380353    2.650355
     21          1           0        0.598524   -1.769562    0.634946
     22          1           0        1.011709   -0.635799    1.923453
     23          1           0        1.159404   -2.381392    2.196651
     24          1           0        2.765834    2.210326   -1.059522
     25          1           0        3.750924    4.039418   -2.397428
     26          1           0        7.638159    2.266477   -2.044530
     27          1           0        6.670535    0.392142   -0.712586
 ---------------------------------------------------------------------
                    Distance matrix (angstroms):
                    1          2          3          4          5
     1  O    0.000000
     2  C    1.224135   0.000000
     3  C    2.440102   1.531689   0.000000
     4  C    3.199184   2.471298   1.532311   0.000000
     5  C    3.656763   2.539778   1.536638   2.518159   0.000000
     6  C    2.828275   2.494507   1.536330   2.514271   2.493352
     7  O    2.334758   1.397341   2.398576   3.137121   2.691475
     8  C    2.906625   2.477711   3.758910   4.418724   4.039339
     9  C    2.904160   3.010216   4.481952   5.296927   4.951539
    10  C    4.208573   4.388195   5.859184   6.596340   6.259087
    11  C    5.184250   5.135543   6.510301   7.088249   6.734567
    12  C    5.201399   4.857728   6.047820   6.474955   6.103440
    13  C    4.216584   3.660870   4.725996   5.142546   4.754201
    14  F    6.423643   6.453576   7.845162   8.402230   8.056848
    15  H    3.578207   2.723098   2.182142   1.096257   2.787751
    16  H    3.018161   2.706714   2.182034   1.096481   3.481908
    17  H    4.179303   3.446308   2.184344   1.095027   2.770333
    18  H    4.071460   2.853574   2.193570   2.742249   1.096170
    19  H    4.532693   3.495431   2.187233   2.822241   1.095408
    20  H    3.769021   2.760945   2.184010   3.477709   1.096292
    21  H    2.660895   2.763472   2.190233   2.747584   3.466003
    22  H    2.946184   2.730829   2.184083   3.476056   2.771023
    23  H    3.902133   3.463848   2.187194   2.805562   2.719854
    24  H    2.358499   2.789922   4.255435   5.213343   4.895402
    25  H    4.692984   5.084981   6.583850   7.382519   7.067922
    26  H    6.211879   5.793555   6.881298   7.193308   6.823909
    27  H    4.692749   3.915456   4.676039   4.902472   4.508369
                    6          7          8          9         10
     6  C    0.000000
     7  O    3.672999   0.000000
     8  C    4.906102   1.410073   0.000000
     9  C    5.307948   2.472377   1.394134   0.000000
    10  C    6.697888   3.725573   2.406445   1.394558   0.000000
    11  C    7.559802   4.171716   2.764771   2.408377   1.391621
    12  C    7.293200   3.660831   2.410878   2.800551   2.422851
    13  C    6.043539   2.371878   1.397608   2.428973   2.795138
    14  F    8.867841   5.509753   4.103078   3.625881   2.355999
    15  H    3.478868   2.903178   4.065829   5.135249   6.330419
    16  H    2.768629   3.597495   4.708931   5.398977   6.659544
    17  H    2.778964   4.085391   5.420031   6.334792   7.647618
    18  H    3.466764   2.490420   3.737845   4.874661   6.076875
    19  H    2.706918   3.766764   5.126434   6.040130   7.353423
    20  H    2.784860   2.816603   3.977903   4.709356   5.976177
    21  H    1.096085   4.114425   5.218372   5.460373   6.813753
    22  H    1.096371   3.818190   4.910468   5.119315   6.475597
    23  H    1.095647   4.515070   5.828942   6.336464   7.730192
    24  H    4.784306   2.759127   2.171480   1.085625   2.142195
    25  H    7.245906   4.622752   3.395459   2.158363   1.085006
    26  H    8.202055   4.532124   3.402503   3.886060   3.400545
    27  H    6.120767   2.572747   2.161327   3.412655   3.881520
                   11         12         13         14         15
    11  C    0.000000
    12  C    1.389731   0.000000
    13  C    2.403361   1.393218   0.000000
    14  F    1.338315   2.356980   3.623434   0.000000
    15  H    6.617748   5.845885   4.520108   7.904680   0.000000
    16  H    7.240129   6.759875   5.519473   8.516633   1.762754
    17  H    8.114742   7.437538   6.077457   9.433571   1.772951
    18  H    6.329793   5.511703   4.148164   7.629433   2.561694
    19  H    7.818199   7.142938   5.783043   9.137643   3.217211
    20  H    6.526526   6.024504   4.773317   7.813957   3.766823
    21  H    7.758312   7.601910   6.418198   9.033771   3.761970
    22  H    7.432734   7.297376   6.129044   8.705770   4.331955
    23  H    8.534471   8.173702   6.872228   9.855291   3.813550
    24  H    3.386048   3.885874   3.421193   4.494865   5.276716
    25  H    2.148785   3.400848   3.880056   2.596658   7.213390
    26  H    2.145779   1.085677   2.161459   2.596270   6.453075
    27  H    3.390117   2.153690   1.086431   4.506274   4.126481
                   16         17         18         19         20
    16  H    0.000000
    17  H    1.772572   0.000000
    18  H    3.767223   3.058105   0.000000
    19  H    3.819203   2.630953   1.763848   0.000000
    20  H    4.332818   3.803002   1.766782   1.773347   0.000000
    21  H    2.548309   3.093543   4.337407   3.719416   3.802702
    22  H    3.760028   3.804214   3.800331   3.078136   2.613100
    23  H    3.172893   2.624382   3.720635   2.471631   3.119119
    24  H    5.220489   6.227568   5.058122   5.938665   4.585472
    25  H    7.356338   8.440392   6.992814   8.151758   6.713657
    26  H    7.520583   8.104707   6.109352   7.814704   6.789742
    27  H    5.413804   5.724876   3.703382   5.438804   4.680141
                   21         22         23         24         25
    21  H    0.000000
    22  H    1.765330   0.000000
    23  H    1.768572   1.773005   0.000000
    24  H    4.838177   4.480571   5.853815   0.000000
    25  H    7.271669   6.930438   8.309533   2.471027   0.000000
    26  H    8.545506   8.250936   9.031310   4.971212   4.287010
    27  H    6.584689   6.326743   6.821196   4.321209   4.966431
                   26         27
    26  H    0.000000
    27  H    2.494694   0.000000
 Stoichiometry    C11H13FO2
 Framework group  C1[X(C11H13FO2)]
 Deg. of freedom    75
 Full point group                 C1      NOp   1
 Largest Abelian subgroup         C1      NOp   1
 Largest concise Abelian subgroup C1      NOp   1
                         Standard orientation:                         
 ---------------------------------------------------------------------
 Center     Atomic      Atomic             Coordinates (Angstroms)
 Number     Number       Type             X           Y           Z
 ---------------------------------------------------------------------
      1          8           0        1.305140    1.614416    0.563612
      2          6           0        1.513392    0.480627    0.151712
      3          6           0        2.907627   -0.123493   -0.041207
      4          6           0        3.322902   -0.759721    1.289483
      5          6           0        2.922102   -1.175000   -1.161645
      6          6           0        3.886347    0.999983   -0.415666
      7          8           0        0.537183   -0.479879   -0.125786
      8          6           0       -0.849636   -0.232025   -0.065723
      9          6           0       -1.419052    1.026615   -0.253343
     10          6           0       -2.806496    1.160959   -0.211574
     11          6           0       -3.600588    0.037117   -0.004198
     12          6           0       -3.036148   -1.222055    0.160864
     13          6           0       -1.650308   -1.361210    0.127083
     14          9           0       -4.931642    0.172524    0.028177
     15          1           0        2.624179   -1.551263    1.584484
     16          1           0        3.327573   -0.018489    2.097459
     17          1           0        4.324483   -1.197972    1.227402
     18          1           0        2.307501   -2.046738   -0.908806
     19          1           0        3.937435   -1.539152   -1.352463
     20          1           0        2.530079   -0.757936   -2.096648
     21          1           0        3.955853    1.753533    0.377261
     22          1           0        3.562394    1.515947   -1.327184
     23          1           0        4.894636    0.608035   -0.589366
     24          1           0       -0.811079    1.907384   -0.435539
     25          1           0       -3.270055    2.133054   -0.343420
     26          1           0       -3.679112   -2.084217    0.309079
     27          1           0       -1.198551   -2.341980    0.246819
 ---------------------------------------------------------------------
 Rotational constants (GHZ):      1.9976440      0.3027833      0.2816822
 Leave Link  202 at Wed Sep 29 02:32:21 2021, MaxMem= 1073741824 cpu:       0.0
 (Enter /sw/target/amd/app/gaussian/Gaussian09RevA.02_gcc-4.9.2/g09/l301.exe)
 Standard basis: 6-31G(d) (6D, 7F)
 Ernie: Thresh=  0.10000D-02 Tol=  0.10000D-05 Strict=F.
 There are   236 symmetry adapted basis functions of A   symmetry.
 Integral buffers will be    131072 words long.
 Raffenetti 2 integral format.
 Two-electron integral symmetry is turned on.
   236 basis functions,   444 primitive gaussians,   236 cartesian basis functions
    52 alpha electrons       52 beta electrons
       nuclear repulsion energy       875.8149312687 Hartrees.
 IExCor=  402 DFT=T Ex+Corr=B3LYP ExCW=0 ScaHFX=  0.200000
 ScaDFX=  0.800000  0.720000  1.000000  0.810000 ScalE2=  1.000000  1.000000
 IRadAn=      0 IRanWt=     -1 IRanGd=            0 ICorTp=0
 NAtoms=   27 NActive=   27 NUniq=   27 SFac= 7.50D-01 NAtFMM=   80 NAOKFM=F Big=F
 Leave Link  301 at Wed Sep 29 02:32:22 2021, MaxMem= 1073741824 cpu:       0.1
 (Enter /sw/target/amd/app/gaussian/Gaussian09RevA.02_gcc-4.9.2/g09/l302.exe)
 NPDir=0 NMtPBC=     1 NCelOv=     1 NCel=       1 NClECP=     1 NCelD=      1
         NCelK=      1 NCelE2=     1 NClLst=     1 CellRange=     0.0.
 One-electron integrals computed using PRISM.
 NBasis=   236 RedAO= T  NBF=   236
 NBsUse=   236 1.00D-06 NBFU=   236
 Precomputing XC quadrature grid using
 IXCGrd= 2 IRadAn=           0 IRanWt=          -1 IRanGd=           0 AccXCQ= 1.00D-10.
 NRdTot=    1707 NPtTot=      217222 NUsed=      229535 NTot=      229567
 NSgBfM=   235   235   235   235   235 NAtAll=    27    27.
 Leave Link  302 at Wed Sep 29 02:32:27 2021, MaxMem= 1073741824 cpu:       2.0
 (Enter /sw/target/amd/app/gaussian/Gaussian09RevA.02_gcc-4.9.2/g09/l303.exe)
 DipDrv:  MaxL=1.
 Leave Link  303 at Wed Sep 29 02:32:27 2021, MaxMem= 1073741824 cpu:       0.2
 (Enter /sw/target/amd/app/gaussian/Gaussian09RevA.02_gcc-4.9.2/g09/l401.exe)
 Harris functional with IExCor=  402 diagonalized for initial guess.
 ExpMin= 1.61D-01 ExpMax= 7.00D+03 ExpMxC= 1.05D+03 IAcc=1 IRadAn=         1 AccDes= 0.00D+00
 HarFok:  IExCor=  402 AccDes= 0.00D+00 IRadAn=         1 IDoV= 1
 ScaDFX=  1.000000  1.000000  1.000000  1.000000
 FoFCou: FMM=F IPFlag=           0 FMFlag=      100000 FMFlg1=           0
         NFxFlg=           0 DoJE=T BraDBF=F KetDBF=T FulRan=T
         Omega=  0.000000  0.000000  1.000000  0.000000  0.000000 ICntrl=     500 IOpCl=  0
         NMat0=    1 NMatS0=    1 NMatT0=    0 NMatD0=    1 NMtDS0=    0 NMtDT0=    0
         I1Cent=           4 NGrid=           0.
 Petite list used in FoFCou.
 Harris En= -677.394080547866    
 Initial guess orbital symmetries:
       Occupied  (A) (A) (A) (A) (A) (A) (A) (A) (A) (A) (A) (A)
                 (A) (A) (A) (A) (A) (A) (A) (A) (A) (A) (A) (A)
                 (A) (A) (A) (A) (A) (A) (A) (A) (A) (A) (A) (A)
                 (A) (A) (A) (A) (A) (A) (A) (A) (A) (A) (A) (A)
                 (A) (A) (A) (A)
       Virtual   (A) (A) (A) (A) (A) (A) (A) (A) (A) (A) (A) (A)
                 (A) (A) (A) (A) (A) (A) (A) (A) (A) (A) (A) (A)
                 (A) (A) (A) (A) (A) (A) (A) (A) (A) (A) (A) (A)
                 (A) (A) (A) (A) (A) (A) (A) (A) (A) (A) (A) (A)
                 (A) (A) (A) (A) (A) (A) (A) (A) (A) (A) (A) (A)
                 (A) (A) (A) (A) (A) (A) (A) (A) (A) (A) (A) (A)
                 (A) (A) (A) (A) (A) (A) (A) (A) (A) (A) (A) (A)
                 (A) (A) (A) (A) (A) (A) (A) (A) (A) (A) (A) (A)
                 (A) (A) (A) (A) (A) (A) (A) (A) (A) (A) (A) (A)
                 (A) (A) (A) (A) (A) (A) (A) (A) (A) (A) (A) (A)
                 (A) (A) (A) (A) (A) (A) (A) (A) (A) (A) (A) (A)
                 (A) (A) (A) (A) (A) (A) (A) (A) (A) (A) (A) (A)
                 (A) (A) (A) (A) (A) (A) (A) (A) (A) (A) (A) (A)
                 (A) (A) (A) (A) (A) (A) (A) (A) (A) (A) (A) (A)
                 (A) (A) (A) (A) (A) (A) (A) (A) (A) (A) (A) (A)
                 (A) (A) (A) (A)
 The electronic state of the initial guess is 1-A.
 Leave Link  401 at Wed Sep 29 02:32:37 2021, MaxMem= 1073741824 cpu:       8.8
 (Enter /sw/target/amd/app/gaussian/Gaussian09RevA.02_gcc-4.9.2/g09/l502.exe)
 Closed shell SCF:
 Requested convergence on RMS density matrix=1.00D-08 within  64 cycles.
 Requested convergence on MAX density matrix=1.00D-06.
 Requested convergence on             energy=1.00D-06.
 No special actions if energy rises.
 Using DIIS extrapolation, IDIIS=  1040.
 Integral symmetry usage will be decided dynamically.
       229279 words used for storage of precomputed grid.
 Keep R1 ints in memory in canonical form, NReq=398123592.
 IEnd=      405109 IEndB=      405109 NGot=  1073741824 MDV=   682334283
 LenX=   682334283 LenY=   682278146
 Symmetry not used in FoFDir.
 MinBra= 0 MaxBra= 2 Meth= 1.
 IRaf=       0 NMat=   1 IRICut=       1 DoRegI=T DoRafI=F ISym2E= 0 JSym2E=0.
 Integral accuracy reduced to 1.0D-05 until final iterations.

 Cycle   1  Pass 0  IDiag  1:
 E= -676.889129809485    
 DIIS: error= 4.00D-02 at cycle   1 NSaved=   1.
 NSaved= 1 IEnMin= 1 EnMin= -676.889129809485     IErMin= 1 ErrMin= 4.00D-02
 ErrMax= 4.00D-02 EMaxC= 1.00D-01 BMatC= 4.21D-01 BMatP= 4.21D-01
 IDIUse=3 WtCom= 6.00D-01 WtEn= 4.00D-01
 Coeff-Com:  0.100D+01
 Coeff-En:   0.100D+01
 Coeff:      0.100D+01
 Gap=     0.272 Goal=   None    Shift=    0.000
 GapD=    0.272 DampG=1.000 DampE=0.500 DampFc=0.5000 IDamp=-1.
 Damping current iteration by 5.00D-01
 RMSDP=5.64D-03 MaxDP=2.09D-01              OVMax= 2.21D-01

 Cycle   2  Pass 0  IDiag  1:
 E= -677.027808902496     Delta-E=       -0.138679093011 Rises=F Damp=T
 DIIS: error= 1.38D-02 at cycle   2 NSaved=   2.
 NSaved= 2 IEnMin= 2 EnMin= -677.027808902496     IErMin= 2 ErrMin= 1.38D-02
 ErrMax= 1.38D-02 EMaxC= 1.00D-01 BMatC= 5.37D-02 BMatP= 4.21D-01
 IDIUse=3 WtCom= 8.62D-01 WtEn= 1.38D-01
 Coeff-Com:  0.183D+00 0.817D+00
 Coeff-En:   0.276D+00 0.724D+00
 Coeff:      0.196D+00 0.804D+00
 Gap=     0.245 Goal=   None    Shift=    0.000
 RMSDP=1.70D-03 MaxDP=7.33D-02 DE=-1.39D-01 OVMax= 1.66D-01

 Cycle   3  Pass 0  IDiag  1:
 E= -677.238396480945     Delta-E=       -0.210587578449 Rises=F Damp=F
 DIIS: error= 1.82D-02 at cycle   3 NSaved=   3.
 NSaved= 3 IEnMin= 3 EnMin= -677.238396480945     IErMin= 2 ErrMin= 1.38D-02
 ErrMax= 1.82D-02 EMaxC= 1.00D-01 BMatC= 6.95D-02 BMatP= 5.37D-02
 IDIUse=2 WtCom= 0.00D+00 WtEn= 1.00D+00
 Coeff-En:   0.000D+00 0.000D+00 0.100D+01
 Coeff:      0.000D+00 0.000D+00 0.100D+01
 Gap=     0.230 Goal=   None    Shift=    0.000
 RMSDP=3.14D-03 MaxDP=1.68D-01 DE=-2.11D-01 OVMax= 2.94D-01

 Cycle   4  Pass 0  IDiag  1:
 E= -676.939712663668     Delta-E=        0.298683817277 Rises=F Damp=F
 DIIS: error= 5.03D-02 at cycle   4 NSaved=   4.
 NSaved= 4 IEnMin= 3 EnMin= -677.238396480945     IErMin= 2 ErrMin= 1.38D-02
 ErrMax= 5.03D-02 EMaxC= 1.00D-01 BMatC= 4.54D-01 BMatP= 5.37D-02
 IDIUse=2 WtCom= 0.00D+00 WtEn= 1.00D+00
 Coeff-En:   0.000D+00 0.000D+00 0.806D+00 0.194D+00
 Coeff:      0.000D+00 0.000D+00 0.806D+00 0.194D+00
 Gap=     0.237 Goal=   None    Shift=    0.000
 RMSDP=1.67D-03 MaxDP=8.66D-02 DE= 2.99D-01 OVMax= 1.53D-01

 Cycle   5  Pass 0  IDiag  1:
 E= -677.268292452587     Delta-E=       -0.328579788919 Rises=F Damp=F
 DIIS: error= 1.30D-02 at cycle   5 NSaved=   5.
 NSaved= 5 IEnMin= 5 EnMin= -677.268292452587     IErMin= 5 ErrMin= 1.30D-02
 ErrMax= 1.30D-02 EMaxC= 1.00D-01 BMatC= 3.45D-02 BMatP= 5.37D-02
 IDIUse=3 WtCom= 8.70D-01 WtEn= 1.30D-01
 Coeff-Com: -0.619D-02 0.452D-01 0.319D+00-0.922D-01 0.734D+00
 Coeff-En:   0.000D+00 0.000D+00 0.365D+00 0.000D+00 0.635D+00
 Coeff:     -0.538D-02 0.393D-01 0.325D+00-0.802D-01 0.721D+00
 Gap=     0.215 Goal=   None    Shift=    0.000
 RMSDP=6.44D-04 MaxDP=3.28D-02 DE=-3.29D-01 OVMax= 5.02D-02

 Cycle   6  Pass 0  IDiag  1:
 E= -677.295399089567     Delta-E=       -0.027106636980 Rises=F Damp=F
 DIIS: error= 5.30D-04 at cycle   6 NSaved=   6.
 NSaved= 6 IEnMin= 6 EnMin= -677.295399089567     IErMin= 6 ErrMin= 5.30D-04
 ErrMax= 5.30D-04 EMaxC= 1.00D-01 BMatC= 1.76D-04 BMatP= 3.45D-02
 IDIUse=3 WtCom= 9.95D-01 WtEn= 5.30D-03
 Coeff-Com: -0.538D-02 0.188D-01 0.160D+00-0.593D-01 0.427D+00 0.458D+00
 Coeff-En:   0.000D+00 0.000D+00 0.000D+00 0.000D+00 0.000D+00 0.100D+01
 Coeff:     -0.536D-02 0.187D-01 0.159D+00-0.590D-01 0.425D+00 0.461D+00
 Gap=     0.216 Goal=   None    Shift=    0.000
 RMSDP=5.27D-05 MaxDP=3.25D-03 DE=-2.71D-02 OVMax= 2.99D-03

 Cycle   7  Pass 0  IDiag  1:
 E= -677.295524925238     Delta-E=       -0.000125835671 Rises=F Damp=F
 DIIS: error= 1.68D-04 at cycle   7 NSaved=   7.
 NSaved= 7 IEnMin= 7 EnMin= -677.295524925238     IErMin= 7 ErrMin= 1.68D-04
 ErrMax= 1.68D-04 EMaxC= 1.00D-01 BMatC= 1.32D-05 BMatP= 1.76D-04
 IDIUse=3 WtCom= 9.98D-01 WtEn= 1.68D-03
 Coeff-Com: -0.117D-02 0.294D-02 0.351D-01-0.159D-01 0.987D-01 0.213D+00
 Coeff-Com:  0.668D+00
 Coeff-En:   0.000D+00 0.000D+00 0.000D+00 0.000D+00 0.000D+00 0.159D-01
 Coeff-En:   0.984D+00
 Coeff:     -0.117D-02 0.294D-02 0.350D-01-0.159D-01 0.985D-01 0.213D+00
 Coeff:      0.668D+00
 Gap=     0.216 Goal=   None    Shift=    0.000
 RMSDP=1.43D-05 MaxDP=7.03D-04 DE=-1.26D-04 OVMax= 9.17D-04

 Cycle   8  Pass 0  IDiag  1:
 E= -677.295534589099     Delta-E=       -0.000009663861 Rises=F Damp=F
 DIIS: error= 6.63D-05 at cycle   8 NSaved=   8.
 NSaved= 8 IEnMin= 8 EnMin= -677.295534589099     IErMin= 8 ErrMin= 6.63D-05
 ErrMax= 6.63D-05 EMaxC= 1.00D-01 BMatC= 9.31D-07 BMatP= 1.32D-05
 IDIUse=1 WtCom= 1.00D+00 WtEn= 0.00D+00
 Coeff-Com: -0.120D-03-0.277D-03 0.984D-02-0.409D-02 0.248D-01 0.906D-01
 Coeff-Com:  0.362D+00 0.517D+00
 Coeff:     -0.120D-03-0.277D-03 0.984D-02-0.409D-02 0.248D-01 0.906D-01
 Coeff:      0.362D+00 0.517D+00
 Gap=     0.216 Goal=   None    Shift=    0.000
 RMSDP=5.12D-06 MaxDP=2.21D-04 DE=-9.66D-06 OVMax= 4.83D-04

 Initial convergence to 1.0D-05 achieved.  Increase integral accuracy.
 Cycle   9  Pass 1  IDiag  1:
 E= -677.295606928741     Delta-E=       -0.000072339642 Rises=F Damp=F
 DIIS: error= 3.03D-05 at cycle   1 NSaved=   1.
 NSaved= 1 IEnMin= 1 EnMin= -677.295606928741     IErMin= 1 ErrMin= 3.03D-05
 ErrMax= 3.03D-05 EMaxC= 1.00D-01 BMatC= 1.85D-07 BMatP= 1.85D-07
 IDIUse=1 WtCom= 1.00D+00 WtEn= 0.00D+00
 Coeff-Com:  0.100D+01
 Coeff:      0.100D+01
 Gap=     0.216 Goal=   None    Shift=    0.000
 RMSDP=5.12D-06 MaxDP=2.21D-04 DE=-7.23D-05 OVMax= 3.41D-04

 Cycle  10  Pass 1  IDiag  1:
 E= -677.295606840380     Delta-E=        0.000000088361 Rises=F Damp=F
 DIIS: error= 4.86D-05 at cycle   2 NSaved=   2.
 NSaved= 2 IEnMin= 1 EnMin= -677.295606928741     IErMin= 1 ErrMin= 3.03D-05
 ErrMax= 4.86D-05 EMaxC= 1.00D-01 BMatC= 3.02D-07 BMatP= 1.85D-07
 IDIUse=1 WtCom= 1.00D+00 WtEn= 0.00D+00
 Coeff-Com:  0.576D+00 0.424D+00
 Coeff:      0.576D+00 0.424D+00
 Gap=     0.216 Goal=   None    Shift=    0.000
 RMSDP=3.17D-06 MaxDP=1.13D-04 DE= 8.84D-08 OVMax= 2.99D-04

 Cycle  11  Pass 1  IDiag  1:
 E= -677.295607123502     Delta-E=       -0.000000283122 Rises=F Damp=F
 DIIS: error= 1.44D-05 at cycle   3 NSaved=   3.
 NSaved= 3 IEnMin= 3 EnMin= -677.295607123502     IErMin= 3 ErrMin= 1.44D-05
 ErrMax= 1.44D-05 EMaxC= 1.00D-01 BMatC= 4.07D-08 BMatP= 1.85D-07
 IDIUse=1 WtCom= 1.00D+00 WtEn= 0.00D+00
 Coeff-Com:  0.350D-01 0.264D+00 0.701D+00
 Coeff:      0.350D-01 0.264D+00 0.701D+00
 Gap=     0.216 Goal=   None    Shift=    0.000
 RMSDP=9.54D-07 MaxDP=4.26D-05 DE=-2.83D-07 OVMax= 6.81D-05

 Cycle  12  Pass 1  IDiag  1:
 E= -677.295607154921     Delta-E=       -0.000000031419 Rises=F Damp=F
 DIIS: error= 5.51D-06 at cycle   4 NSaved=   4.
 NSaved= 4 IEnMin= 4 EnMin= -677.295607154921     IErMin= 4 ErrMin= 5.51D-06
 ErrMax= 5.51D-06 EMaxC= 1.00D-01 BMatC= 9.29D-09 BMatP= 4.07D-08
 IDIUse=1 WtCom= 1.00D+00 WtEn= 0.00D+00
 Coeff-Com: -0.144D-01 0.154D+00 0.478D+00 0.382D+00
 Coeff:     -0.144D-01 0.154D+00 0.478D+00 0.382D+00
 Gap=     0.216 Goal=   None    Shift=    0.000
 RMSDP=3.75D-07 MaxDP=1.91D-05 DE=-3.14D-08 OVMax= 2.45D-05

 Cycle  13  Pass 1  IDiag  1:
 E= -677.295607162422     Delta-E=       -0.000000007501 Rises=F Damp=F
 DIIS: error= 8.22D-07 at cycle   5 NSaved=   5.
 NSaved= 5 IEnMin= 5 EnMin= -677.295607162422     IErMin= 5 ErrMin= 8.22D-07
 ErrMax= 8.22D-07 EMaxC= 1.00D-01 BMatC= 2.28D-10 BMatP= 9.29D-09
 IDIUse=1 WtCom= 1.00D+00 WtEn= 0.00D+00
 Coeff-Com: -0.104D-01 0.659D-01 0.214D+00 0.204D+00 0.526D+00
 Coeff:     -0.104D-01 0.659D-01 0.214D+00 0.204D+00 0.526D+00
 Gap=     0.216 Goal=   None    Shift=    0.000
 RMSDP=7.15D-08 MaxDP=2.20D-06 DE=-7.50D-09 OVMax= 4.33D-06

 Cycle  14  Pass 1  IDiag  1:
 E= -677.295607162634     Delta-E=       -0.000000000212 Rises=F Damp=F
 DIIS: error= 1.46D-07 at cycle   6 NSaved=   6.
 NSaved= 6 IEnMin= 6 EnMin= -677.295607162634     IErMin= 6 ErrMin= 1.46D-07
 ErrMax= 1.46D-07 EMaxC= 1.00D-01 BMatC= 1.45D-11 BMatP= 2.28D-10
 IDIUse=1 WtCom= 1.00D+00 WtEn= 0.00D+00
 Coeff-Com: -0.375D-02 0.200D-01 0.664D-01 0.683D-01 0.263D+00 0.586D+00
 Coeff:     -0.375D-02 0.200D-01 0.664D-01 0.683D-01 0.263D+00 0.586D+00
 Gap=     0.216 Goal=   None    Shift=    0.000
 RMSDP=1.67D-08 MaxDP=5.35D-07 DE=-2.12D-10 OVMax= 8.99D-07

 Cycle  15  Pass 1  IDiag  1:
 E= -677.295607162629     Delta-E=        0.000000000005 Rises=F Damp=F
 DIIS: error= 8.28D-08 at cycle   7 NSaved=   7.
 NSaved= 7 IEnMin= 6 EnMin= -677.295607162634     IErMin= 7 ErrMin= 8.28D-08
 ErrMax= 8.28D-08 EMaxC= 1.00D-01 BMatC= 1.28D-12 BMatP= 1.45D-11
 IDIUse=1 WtCom= 1.00D+00 WtEn= 0.00D+00
 Coeff-Com: -0.708D-03 0.273D-02 0.931D-02 0.118D-01 0.760D-01 0.280D+00
 Coeff-Com:  0.620D+00
 Coeff:     -0.708D-03 0.273D-02 0.931D-02 0.118D-01 0.760D-01 0.280D+00
 Coeff:      0.620D+00
 Gap=     0.216 Goal=   None    Shift=    0.000
 RMSDP=5.77D-09 MaxDP=1.91D-07 DE= 4.55D-12 OVMax= 2.75D-07

 SCF Done:  E(RB3LYP) =  -677.295607163     A.U. after   15 cycles
             Convg  =    0.5769D-08             -V/T =  2.0092
 KE= 6.711020816589D+02 PE=-3.332035672545D+03 EE= 1.107823052455D+03
 Leave Link  502 at Wed Sep 29 02:38:21 2021, MaxMem= 1073741824 cpu:     207.5
 (Enter /sw/target/amd/app/gaussian/Gaussian09RevA.02_gcc-4.9.2/g09/l508.exe)
 QCSCF skips out because SCF is already converged.
 Leave Link  508 at Wed Sep 29 02:38:23 2021, MaxMem= 1073741824 cpu:       0.0
 (Enter /sw/target/amd/app/gaussian/Gaussian09RevA.02_gcc-4.9.2/g09/l601.exe)
 Copying SCF densities to generalized density rwf, IOpCl= 0 IROHF=0.

 **********************************************************************

            Population analysis using the SCF density.

 **********************************************************************

 Orbital symmetries:
       Occupied  (A) (A) (A) (A) (A) (A) (A) (A) (A) (A) (A) (A)
                 (A) (A) (A) (A) (A) (A) (A) (A) (A) (A) (A) (A)
                 (A) (A) (A) (A) (A) (A) (A) (A) (A) (A) (A) (A)
                 (A) (A) (A) (A) (A) (A) (A) (A) (A) (A) (A) (A)
                 (A) (A) (A) (A)
       Virtual   (A) (A) (A) (A) (A) (A) (A) (A) (A) (A) (A) (A)
                 (A) (A) (A) (A) (A) (A) (A) (A) (A) (A) (A) (A)
                 (A) (A) (A) (A) (A) (A) (A) (A) (A) (A) (A) (A)
                 (A) (A) (A) (A) (A) (A) (A) (A) (A) (A) (A) (A)
                 (A) (A) (A) (A) (A) (A) (A) (A) (A) (A) (A) (A)
                 (A) (A) (A) (A) (A) (A) (A) (A) (A) (A) (A) (A)
                 (A) (A) (A) (A) (A) (A) (A) (A) (A) (A) (A) (A)
                 (A) (A) (A) (A) (A) (A) (A) (A) (A) (A) (A) (A)
                 (A) (A) (A) (A) (A) (A) (A) (A) (A) (A) (A) (A)
                 (A) (A) (A) (A) (A) (A) (A) (A) (A) (A) (A) (A)
                 (A) (A) (A) (A) (A) (A) (A) (A) (A) (A) (A) (A)
                 (A) (A) (A) (A) (A) (A) (A) (A) (A) (A) (A) (A)
                 (A) (A) (A) (A) (A) (A) (A) (A) (A) (A) (A) (A)
                 (A) (A) (A) (A) (A) (A) (A) (A) (A) (A) (A) (A)
                 (A) (A) (A) (A) (A) (A) (A) (A) (A) (A) (A) (A)
                 (A) (A) (A) (A)
 The electronic state is 1-A.
 Alpha  occ. eigenvalues --  -24.70723 -19.20808 -19.14989 -10.32750 -10.27357
 Alpha  occ. eigenvalues --  -10.26041 -10.21769 -10.20625 -10.20281 -10.20215
 Alpha  occ. eigenvalues --  -10.20102 -10.18661 -10.18093 -10.17897  -1.22252
 Alpha  occ. eigenvalues --   -1.09937  -1.02508  -0.86738  -0.82892  -0.76442
 Alpha  occ. eigenvalues --   -0.75589  -0.69623  -0.68962  -0.66431  -0.63446
 Alpha  occ. eigenvalues --   -0.60116  -0.56123  -0.54399  -0.50675  -0.49026
 Alpha  occ. eigenvalues --   -0.47869  -0.46591  -0.46174  -0.45505  -0.44115
 Alpha  occ. eigenvalues --   -0.43802  -0.43257  -0.42706  -0.40905  -0.39788
 Alpha  occ. eigenvalues --   -0.39091  -0.38539  -0.37022  -0.36810  -0.35799
 Alpha  occ. eigenvalues --   -0.35023  -0.33921  -0.33489  -0.32414  -0.27707
 Alpha  occ. eigenvalues --   -0.26357  -0.23493
 Alpha virt. eigenvalues --   -0.01896  -0.01434   0.01857   0.08022   0.08093
 Alpha virt. eigenvalues --    0.12043   0.13249   0.13936   0.14686   0.14897
 Alpha virt. eigenvalues --    0.15741   0.15816   0.16111   0.17119   0.18394
 Alpha virt. eigenvalues --    0.18528   0.19468   0.19791   0.21484   0.21908
 Alpha virt. eigenvalues --    0.22780   0.23819   0.24907   0.28085   0.30533
 Alpha virt. eigenvalues --    0.32581   0.33111   0.35205   0.38509   0.47503
 Alpha virt. eigenvalues --    0.49396   0.49773   0.50302   0.50948   0.51401
 Alpha virt. eigenvalues --    0.53230   0.53778   0.54205   0.55538   0.57694
 Alpha virt. eigenvalues --    0.58215   0.58914   0.59791   0.60158   0.60879
 Alpha virt. eigenvalues --    0.62647   0.63315   0.64938   0.65939   0.67015
 Alpha virt. eigenvalues --    0.68958   0.69304   0.70590   0.72125   0.74956
 Alpha virt. eigenvalues --    0.76934   0.79115   0.81193   0.82614   0.83815
 Alpha virt. eigenvalues --    0.84755   0.85869   0.86646   0.87633   0.88271
 Alpha virt. eigenvalues --    0.88421   0.89485   0.90154   0.90594   0.91915
 Alpha virt. eigenvalues --    0.92520   0.93043   0.94884   0.95608   0.96921
 Alpha virt. eigenvalues --    0.98229   0.98403   0.99324   1.02514   1.06096
 Alpha virt. eigenvalues --    1.09716   1.12276   1.13920   1.14880   1.17391
 Alpha virt. eigenvalues --    1.19668   1.21039   1.23152   1.24665   1.25661
 Alpha virt. eigenvalues --    1.32848   1.34542   1.34865   1.38229   1.40950
 Alpha virt. eigenvalues --    1.41421   1.44202   1.45427   1.48085   1.49221
 Alpha virt. eigenvalues --    1.50688   1.51466   1.53316   1.60383   1.63193
 Alpha virt. eigenvalues --    1.66155   1.68026   1.70857   1.74053   1.74969
 Alpha virt. eigenvalues --    1.76662   1.80490   1.81384   1.82583   1.82673
 Alpha virt. eigenvalues --    1.84958   1.86106   1.87747   1.89003   1.89811
 Alpha virt. eigenvalues --    1.91672   1.93227   1.95018   1.95919   1.98190
 Alpha virt. eigenvalues --    1.98609   2.00773   2.02732   2.04646   2.06648
 Alpha virt. eigenvalues --    2.07955   2.09802   2.12465   2.14175   2.15043
 Alpha virt. eigenvalues --    2.18786   2.19864   2.21134   2.24265   2.26024
 Alpha virt. eigenvalues --    2.26235   2.27247   2.28561   2.29025   2.30242
 Alpha virt. eigenvalues --    2.34451   2.37683   2.39213   2.45883   2.52465
 Alpha virt. eigenvalues --    2.53808   2.55066   2.57182   2.59736   2.63045
 Alpha virt. eigenvalues --    2.64473   2.66768   2.68652   2.71254   2.73626
 Alpha virt. eigenvalues --    2.77128   2.81081   2.81476   2.88115   2.96756
 Alpha virt. eigenvalues --    3.05365   3.10348   3.10624   3.28973   3.42074
 Alpha virt. eigenvalues --    4.06632   4.07938   4.10870   4.13060   4.17749
 Alpha virt. eigenvalues --    4.29484   4.31187   4.31769   4.33335   4.40929
 Alpha virt. eigenvalues --    4.47662   4.65709   4.74149   5.38637
          Condensed to atoms (all electrons):
              1          2          3          4          5          6
     1  O    8.065454   0.522782  -0.074504  -0.002751   0.002642   0.000167
     2  C    0.522782   4.402661   0.357839  -0.038612  -0.043689  -0.046816
     3  C   -0.074504   0.357839   4.968957   0.373111   0.353136   0.370984
     4  C   -0.002751  -0.038612   0.373111   5.127934  -0.054619  -0.053476
     5  C    0.002642  -0.043689   0.353136  -0.054619   5.157488  -0.066612
     6  C    0.000167  -0.046816   0.370984  -0.053476  -0.066612   5.135140
     7  O   -0.064766   0.229194  -0.091536  -0.001337   0.000005   0.002778
     8  C   -0.002061  -0.009355   0.004171  -0.000162  -0.000085  -0.000061
     9  C   -0.001937  -0.002014   0.000416  -0.000008  -0.000073  -0.000007
    10  C    0.000289   0.000342   0.000005   0.000000  -0.000001  -0.000000
    11  C   -0.000001   0.000011   0.000000   0.000000   0.000000   0.000000
    12  C    0.000002  -0.000037   0.000003  -0.000000  -0.000000  -0.000000
    13  C    0.000209   0.001473  -0.000438   0.000019  -0.000007   0.000002
    14  F    0.000000  -0.000000   0.000000   0.000000  -0.000000  -0.000000
    15  H   -0.000107  -0.005094  -0.031020   0.366929  -0.005009   0.005799
    16  H    0.002820  -0.003457  -0.031439   0.368191   0.005917  -0.005125
    17  H   -0.000042   0.004469  -0.030176   0.373041  -0.005264  -0.004675
    18  H    0.000001  -0.007091  -0.023353  -0.004454   0.364637   0.005550
    19  H   -0.000053   0.003981  -0.025996  -0.004567   0.363022  -0.005745
    20  H    0.000076  -0.003138  -0.032705   0.005268   0.371995  -0.002949
    21  H    0.006262  -0.006022  -0.025557  -0.004491   0.005742   0.366881
    22  H    0.000879  -0.003789  -0.031059   0.005310  -0.003391   0.371242
    23  H    0.000357   0.005022  -0.029139  -0.004482  -0.005270   0.365820
    24  H    0.013092   0.001419   0.000072   0.000005  -0.000026   0.000010
    25  H   -0.000003  -0.000008  -0.000000  -0.000000   0.000000   0.000000
    26  H   -0.000000   0.000000  -0.000000   0.000000   0.000000   0.000000
    27  H    0.000009  -0.000073  -0.000007  -0.000004  -0.000024   0.000001
              7          8          9         10         11         12
     1  O   -0.064766  -0.002061  -0.001937   0.000289  -0.000001   0.000002
     2  C    0.229194  -0.009355  -0.002014   0.000342   0.000011  -0.000037
     3  C   -0.091536   0.004171   0.000416   0.000005   0.000000   0.000003
     4  C   -0.001337  -0.000162  -0.000008   0.000000   0.000000  -0.000000
     5  C    0.000005  -0.000085  -0.000073  -0.000001   0.000000  -0.000000
     6  C    0.002778  -0.000061  -0.000007  -0.000000   0.000000  -0.000000
     7  O    8.351162   0.204180  -0.047889   0.003242   0.000164   0.003115
     8  C    0.204180   4.542471   0.507233  -0.008751  -0.040071  -0.013887
     9  C   -0.047889   0.507233   5.034853   0.437561  -0.005360  -0.032587
    10  C    0.003242  -0.008751   0.437561   5.138138   0.483467  -0.081155
    11  C    0.000164  -0.040071  -0.005360   0.483467   4.452447   0.484495
    12  C    0.003115  -0.013887  -0.032587  -0.081155   0.484495   5.112878
    13  C   -0.047392   0.533762  -0.069148  -0.033460  -0.006233   0.460402
    14  F    0.000000  -0.000049   0.003213  -0.045378   0.307182  -0.045459
    15  H    0.003782  -0.000015   0.000005  -0.000000   0.000000   0.000000
    16  H    0.000029  -0.000004  -0.000002  -0.000000  -0.000000  -0.000000
    17  H   -0.000057   0.000005   0.000000  -0.000000   0.000000   0.000000
    18  H    0.005494   0.000171   0.000023  -0.000000   0.000000   0.000001
    19  H    0.000435  -0.000002   0.000001   0.000000  -0.000000   0.000000
    20  H    0.001110  -0.000032  -0.000004  -0.000000   0.000000  -0.000000
    21  H    0.000078  -0.000004   0.000001  -0.000000  -0.000000  -0.000000
    22  H    0.000054  -0.000007  -0.000003   0.000000   0.000000  -0.000000
    23  H   -0.000041   0.000001   0.000000   0.000000   0.000000   0.000000
    24  H   -0.006854  -0.031341   0.352990  -0.036943   0.003248   0.000095
    25  H   -0.000041   0.003446  -0.037751   0.350091  -0.034518   0.006731
    26  H   -0.000046   0.004061  -0.000101   0.007001  -0.034037   0.349787
    27  H   -0.000855  -0.035020   0.006697  -0.000091   0.003564  -0.038186
             13         14         15         16         17         18
     1  O    0.000209   0.000000  -0.000107   0.002820  -0.000042   0.000001
     2  C    0.001473  -0.000000  -0.005094  -0.003457   0.004469  -0.007091
     3  C   -0.000438   0.000000  -0.031020  -0.031439  -0.030176  -0.023353
     4  C    0.000019   0.000000   0.366929   0.368191   0.373041  -0.004454
     5  C   -0.000007  -0.000000  -0.005009   0.005917  -0.005264   0.364637
     6  C    0.000002  -0.000000   0.005799  -0.005125  -0.004675   0.005550
     7  O   -0.047392   0.000000   0.003782   0.000029  -0.000057   0.005494
     8  C    0.533762  -0.000049  -0.000015  -0.000004   0.000005   0.000171
     9  C   -0.069148   0.003213   0.000005  -0.000002   0.000000   0.000023
    10  C   -0.033460  -0.045378  -0.000000  -0.000000  -0.000000  -0.000000
    11  C   -0.006233   0.307182   0.000000  -0.000000   0.000000   0.000000
    12  C    0.460402  -0.045459   0.000000  -0.000000   0.000000   0.000001
    13  C    5.011421   0.003178  -0.000007   0.000000  -0.000000   0.000012
    14  F    0.003178   9.070018  -0.000000  -0.000000  -0.000000  -0.000000
    15  H   -0.000007  -0.000000   0.564545  -0.029695  -0.028584   0.004238
    16  H    0.000000  -0.000000  -0.029695   0.555380  -0.028369  -0.000055
    17  H   -0.000000  -0.000000  -0.028584  -0.028369   0.559573  -0.000145
    18  H    0.000012  -0.000000   0.004238  -0.000055  -0.000145   0.556084
    19  H   -0.000001  -0.000000  -0.000158  -0.000079   0.003444  -0.030213
    20  H   -0.000004  -0.000000  -0.000052  -0.000187  -0.000006  -0.028194
    21  H   -0.000000  -0.000000  -0.000041   0.004421  -0.000248  -0.000195
    22  H    0.000000  -0.000000  -0.000192  -0.000046  -0.000010  -0.000057
    23  H   -0.000000  -0.000000  -0.000044  -0.000148   0.003089   0.000010
    24  H    0.005021  -0.000019   0.000000  -0.000002  -0.000000   0.000000
    25  H    0.000165  -0.001002   0.000000   0.000000  -0.000000   0.000000
    26  H   -0.039607  -0.001028  -0.000000   0.000000  -0.000000  -0.000000
    27  H    0.349679  -0.000019   0.000067  -0.000000  -0.000000   0.000241
             19         20         21         22         23         24
     1  O   -0.000053   0.000076   0.006262   0.000879   0.000357   0.013092
     2  C    0.003981  -0.003138  -0.006022  -0.003789   0.005022   0.001419
     3  C   -0.025996  -0.032705  -0.025557  -0.031059  -0.029139   0.000072
     4  C   -0.004567   0.005268  -0.004491   0.005310  -0.004482   0.000005
     5  C    0.363022   0.371995   0.005742  -0.003391  -0.005270  -0.000026
     6  C   -0.005745  -0.002949   0.366881   0.371242   0.365820   0.000010
     7  O    0.000435   0.001110   0.000078   0.000054  -0.000041  -0.006854
     8  C   -0.000002  -0.000032  -0.000004  -0.000007   0.000001  -0.031341
     9  C    0.000001  -0.000004   0.000001  -0.000003   0.000000   0.352990
    10  C    0.000000  -0.000000  -0.000000   0.000000   0.000000  -0.036943
    11  C   -0.000000   0.000000  -0.000000   0.000000   0.000000   0.003248
    12  C    0.000000  -0.000000  -0.000000  -0.000000   0.000000   0.000095
    13  C   -0.000001  -0.000004  -0.000000   0.000000  -0.000000   0.005021
    14  F   -0.000000  -0.000000  -0.000000  -0.000000  -0.000000  -0.000019
    15  H   -0.000158  -0.000052  -0.000041  -0.000192  -0.000044   0.000000
    16  H   -0.000079  -0.000187   0.004421  -0.000046  -0.000148  -0.000002
    17  H    0.003444  -0.000006  -0.000248  -0.000010   0.003089  -0.000000
    18  H   -0.030213  -0.028194  -0.000195  -0.000057   0.000010   0.000000
    19  H    0.579056  -0.029680  -0.000002  -0.000172   0.003363   0.000000
    20  H   -0.029680   0.567637  -0.000061   0.003538  -0.000147   0.000005
    21  H   -0.000002  -0.000061   0.546096  -0.027375  -0.029687  -0.000003
    22  H   -0.000172   0.003538  -0.027375   0.567335  -0.029936   0.000007
    23  H    0.003363  -0.000147  -0.029687  -0.029936   0.578799   0.000000
    24  H    0.000000   0.000005  -0.000003   0.000007   0.000000   0.527221
    25  H    0.000000  -0.000000  -0.000000  -0.000000  -0.000000  -0.005825
    26  H   -0.000000   0.000000   0.000000   0.000000  -0.000000   0.000009
    27  H    0.000000   0.000000  -0.000000  -0.000000  -0.000000  -0.000138
             25         26         27
     1  O   -0.000003  -0.000000   0.000009
     2  C   -0.000008   0.000000  -0.000073
     3  C   -0.000000  -0.000000  -0.000007
     4  C   -0.000000   0.000000  -0.000004
     5  C    0.000000   0.000000  -0.000024
     6  C    0.000000   0.000000   0.000001
     7  O   -0.000041  -0.000046  -0.000855
     8  C    0.003446   0.004061  -0.035020
     9  C   -0.037751  -0.000101   0.006697
    10  C    0.350091   0.007001  -0.000091
    11  C   -0.034518  -0.034037   0.003564
    12  C    0.006731   0.349787  -0.038186
    13  C    0.000165  -0.039607   0.349679
    14  F   -0.001002  -0.001028  -0.000019
    15  H    0.000000  -0.000000   0.000067
    16  H    0.000000   0.000000  -0.000000
    17  H   -0.000000  -0.000000  -0.000000
    18  H    0.000000  -0.000000   0.000241
    19  H    0.000000  -0.000000   0.000000
    20  H   -0.000000   0.000000   0.000000
    21  H   -0.000000   0.000000  -0.000000
    22  H   -0.000000   0.000000  -0.000000
    23  H   -0.000000  -0.000000  -0.000000
    24  H   -0.005825   0.000009  -0.000138
    25  H    0.566357  -0.000166   0.000012
    26  H   -0.000166   0.570421  -0.006402
    27  H    0.000012  -0.006402   0.569934
 Mulliken atomic charges:
              1
     1  O   -0.468814
     2  C    0.640002
     3  C   -0.001768
     4  C   -0.450845
     5  C   -0.440515
     6  C   -0.438907
     7  O   -0.544010
     8  C    0.341408
     9  C   -0.146108
    10  C   -0.214357
    11  C    0.385641
    12  C   -0.206197
    13  C   -0.169049
    14  F   -0.290636
    15  H    0.154652
    16  H    0.161849
    17  H    0.153957
    18  H    0.157298
    19  H    0.143366
    20  H    0.147531
    21  H    0.164205
    22  H    0.147671
    23  H    0.142434
    24  H    0.177959
    25  H    0.152513
    26  H    0.150107
    27  H    0.150615
 Sum of Mulliken atomic charges =  -0.00000
 Mulliken charges with hydrogens summed into heavy atoms:
              1
     1  O   -0.468814
     2  C    0.640002
     3  C   -0.001768
     4  C    0.019613
     5  C    0.007680
     6  C    0.015402
     7  O   -0.544010
     8  C    0.341408
     9  C    0.031851
    10  C   -0.061844
    11  C    0.385641
    12  C   -0.056090
    13  C   -0.018433
    14  F   -0.290636
 Sum of Mulliken charges with hydrogens summed into heavy atoms =  -0.00000
 Electronic spatial extent (au):  <R**2>=           3808.0228
 Charge=             -0.0000 electrons
 Dipole moment (field-independent basis, Debye):
    X=              1.4513    Y=             -1.6458    Z=             -0.5714  Tot=              2.2674
 Quadrupole moment (field-independent basis, Debye-Ang):
   XX=            -80.7143   YY=            -79.4904   ZZ=            -82.6140
   XY=             -1.6676   XZ=             -0.4135   YZ=             -3.2520
 Traceless Quadrupole moment (field-independent basis, Debye-Ang):
   XX=              0.2253   YY=              1.4491   ZZ=             -1.6744
   XY=             -1.6676   XZ=             -0.4135   YZ=             -3.2520
 Octapole moment (field-independent basis, Debye-Ang**2):
  XXX=             34.9798  YYY=             -3.4405  ZZZ=              2.3757  XYY=            -27.2442
  XXY=             -7.2616  XXZ=              1.6417  XZZ=             -3.3421  YZZ=              2.7529
  YYZ=             -2.0353  XYZ=              0.6460
 Hexadecapole moment (field-independent basis, Debye-Ang**3):
 XXXX=          -4082.1063 YYYY=           -573.7597 ZZZZ=           -275.1892 XXXY=              4.1874
 XXXZ=              3.9396 YYYX=             -7.9039 YYYZ=             -9.9647 ZZZX=              2.7010
 ZZZY=              3.7076 XXYY=           -717.8570 XXZZ=           -710.7843 YYZZ=           -149.7324
 XXYZ=             -7.6299 YYXZ=             -1.9415 ZZXY=              1.2599
 N-N= 8.758149312687D+02 E-N=-3.332035688194D+03  KE= 6.711020816589D+02
 No NMR shielding tensors so no spin-rotation constants.
 Leave Link  601 at Wed Sep 29 02:38:25 2021, MaxMem= 1073741824 cpu:       1.3
 (Enter /sw/target/amd/app/gaussian/Gaussian09RevA.02_gcc-4.9.2/g09/l701.exe)
 Compute integral first derivatives.
 ... and contract with generalized density number  0.
 Leave Link  701 at Wed Sep 29 02:38:27 2021, MaxMem= 1073741824 cpu:       1.2
 (Enter /sw/target/amd/app/gaussian/Gaussian09RevA.02_gcc-4.9.2/g09/l702.exe)
 L702 exits ... SP integral derivatives will be done elsewhere.
 Leave Link  702 at Wed Sep 29 02:38:27 2021, MaxMem= 1073741824 cpu:       0.1
 (Enter /sw/target/amd/app/gaussian/Gaussian09RevA.02_gcc-4.9.2/g09/l703.exe)
 Compute integral first derivatives, UseDBF=F ICtDFT=           0.
 Integral derivatives from FoFDir, PRISM(SPDF).
 Calling FoFJK, ICntrl=      2127 FMM=F ISym2X=0 I1Cent= 0 IOpClX= 0 NMat=1 NMatS=1 NMatT=0.
 FoFCou: FMM=F IPFlag=           0 FMFlag=      100000 FMFlg1=         800
         NFxFlg=           0 DoJE=F BraDBF=F KetDBF=F FulRan=T
         Omega=  0.000000  0.000000  1.000000  0.000000  0.000000 ICntrl=    2127 IOpCl=  0
         NMat0=    1 NMatS0=    1 NMatT0=    0 NMatD0=    1 NMtDS0=    0 NMtDT0=    0
         I1Cent=           0 NGrid=           0.
 Symmetry not used in FoFCou.
 Leave Link  703 at Wed Sep 29 02:39:46 2021, MaxMem= 1073741824 cpu:      80.6
 (Enter /sw/target/amd/app/gaussian/Gaussian09RevA.02_gcc-4.9.2/g09/l716.exe)
 Dipole        = 5.70979417D-01-6.47488111D-01-2.24805165D-01
 ***** Axes restored to original set *****
 -------------------------------------------------------------------
 Center     Atomic                   Forces (Hartrees/Bohr)
 Number     Number              X              Y              Z
 -------------------------------------------------------------------
      1        8           0.024880508   -0.003719996    0.016731072
      2        6          -0.003632168    0.006751855   -0.016125882
      3        6          -0.002315495    0.000720663    0.010312378
      4        6           0.003400477   -0.004693524   -0.009597956
      5        6           0.008981034    0.002797878    0.001082077
      6        6          -0.008350548    0.001933363   -0.004284315
      7        8          -0.014395411    0.004143051   -0.005766499
      8        6          -0.005106774   -0.009355283    0.005149751
      9        6          -0.004819163    0.003792607   -0.000546895
     10        6           0.002259482    0.000904338   -0.000367069
     11        6          -0.006789744   -0.006743666    0.005281667
     12        6           0.003395192    0.000022128   -0.000022699
     13        6          -0.001665578   -0.000128364   -0.000741464
     14        9           0.003920652    0.006210790   -0.004819353
     15        1           0.000574995   -0.000348052    0.001281126
     16        1          -0.000902915    0.000039635    0.000980828
     17        1          -0.000530019    0.000995527    0.001897016
     18        1          -0.001673391    0.000730718    0.000016342
     19        1          -0.002825095   -0.000758418   -0.001184553
     20        1          -0.000189523   -0.000805297    0.000804251
     21        1           0.001367190    0.001149887    0.000266826
     22        1           0.000201270   -0.000616827    0.000522581
     23        1           0.002925442   -0.000189061   -0.000118997
     24        1           0.003455065   -0.003185440   -0.000695160
     25        1           0.000550059    0.000455712    0.000024232
     26        1          -0.000367214    0.000202525   -0.000125264
     27        1          -0.002348328   -0.000306749    0.000045958
 -------------------------------------------------------------------
 Cartesian Forces:  Max     0.024880508 RMS     0.005408169
 Leave Link  716 at Wed Sep 29 02:39:46 2021, MaxMem= 1073741824 cpu:       0.1
 (Enter /sw/target/amd/app/gaussian/Gaussian09RevA.02_gcc-4.9.2/g09/l103.exe)

 GradGradGradGradGradGradGradGradGradGradGradGradGradGradGradGradGradGrad
 Berny optimization.
 Internal  Forces:  Max     0.029507056 RMS     0.003873752
 Search for a local minimum.
 Step number   1 out of a maximum of  144
 All quantities printed in internal units (Hartrees-Bohrs-Radians)
 RMS Force = .38738D-02 SwitMx=.10000D-02 MixMth= 1
 Mixed Optimization -- RFO/linear search
 Second derivative matrix not updated -- first step.
     Eigenvalues ---    0.00281   0.00285   0.00339   0.00347   0.00719
     Eigenvalues ---    0.01559   0.01727   0.02051   0.02142   0.02153
     Eigenvalues ---    0.02164   0.02174   0.02180   0.02199   0.02204
     Eigenvalues ---    0.02213   0.04734   0.05107   0.05382   0.05395
     Eigenvalues ---    0.05422   0.05424   0.05441   0.05504   0.05555
     Eigenvalues ---    0.14746   0.15335   0.16000   0.16000   0.16000
     Eigenvalues ---    0.16000   0.16000   0.16000   0.16000   0.16000
     Eigenvalues ---    0.16000   0.16000   0.16000   0.16000   0.16000
     Eigenvalues ---    0.21998   0.22989   0.23994   0.24957   0.24958
     Eigenvalues ---    0.24999   0.25000   0.25000   0.28819   0.28846
     Eigenvalues ---    0.29211   0.29268   0.34074   0.34087   0.34096
     Eigenvalues ---    0.34099   0.34109   0.34119   0.34168   0.34195
     Eigenvalues ---    0.34238   0.35228   0.35317   0.35323   0.35396
     Eigenvalues ---    0.42302   0.42657   0.43991   0.46064   0.46310
     Eigenvalues ---    0.46648   0.46817   0.47171   0.57584   0.93574
     Eigenvalues --- 1000.000001000.000001000.000001000.000001000.00000
     Eigenvalues --- 1000.000001000.000001000.000001000.000001000.00000
     Eigenvalues --- 1000.000001000.000001000.000001000.000001000.00000
     Eigenvalues --- 1000.000001000.000001000.000001000.000001000.00000
     Eigenvalues --- 1000.000001000.000001000.000001000.000001000.00000
     Eigenvalues --- 1000.000001000.000001000.000001000.000001000.00000
     Eigenvalues --- 1000.000001000.000001000.000001000.000001000.00000
     Eigenvalues --- 1000.000001000.000001000.000001000.000001000.00000
     Eigenvalues --- 1000.000001000.000001000.000001000.000001000.00000
     Eigenvalues --- 1000.000001000.000001000.000001000.000001000.00000
     Eigenvalues --- 1000.000001000.000001000.000001000.000001000.00000
     Eigenvalues --- 1000.000001000.000001000.000001000.00000
 RFO step:  Lambda=-5.29301165D-03 EMin= 2.81293373D-03
 Linear search not attempted -- first point.
 Iteration  1 RMS(Cart)=  0.05928114 RMS(Int)=  0.00125514
 Iteration  2 RMS(Cart)=  0.00198311 RMS(Int)=  0.00013803
 Iteration  3 RMS(Cart)=  0.00000146 RMS(Int)=  0.00013802
 Iteration  4 RMS(Cart)=  0.00000000 RMS(Int)=  0.00013802
 Variable       Old X    -DE/DX   Delta X   Delta X   Delta X     New X
                                 (Linear)    (Quad)   (Total)
    R1        2.31328  -0.02951   0.00000  -0.03136  -0.03136   2.28192
    R2        2.89447   0.00051   0.00000   0.00171   0.00171   2.89618
    R3        2.64059  -0.02197   0.00000  -0.04715  -0.04715   2.59344
    R4        2.89565   0.00659   0.00000   0.02216   0.02216   2.91781
    R5        2.90383   0.00338   0.00000   0.01153   0.01153   2.91536
    R6        2.90324   0.00240   0.00000   0.00817   0.00817   2.91141
    R7        2.07163   0.00009   0.00000   0.00025   0.00025   2.07187
    R8        2.07205  -0.00024   0.00000  -0.00068  -0.00068   2.07137
    R9        2.06930   0.00039   0.00000   0.00112   0.00112   2.07042
   R10        2.07146  -0.00165   0.00000  -0.00476  -0.00476   2.06670
   R11        2.07002   0.00016   0.00000   0.00047   0.00047   2.07049
   R12        2.07169  -0.00033   0.00000  -0.00096  -0.00096   2.07073
   R13        2.07130  -0.00127   0.00000  -0.00366  -0.00366   2.06764
   R14        2.07184  -0.00037   0.00000  -0.00106  -0.00106   2.07078
   R15        2.07047  -0.00032   0.00000  -0.00092  -0.00092   2.06956
   R16        2.66465  -0.01039   0.00000  -0.02334  -0.02334   2.64131
   R17        2.63453   0.00142   0.00000   0.00301   0.00299   2.63752
   R18        2.64110  -0.00272   0.00000  -0.00601  -0.00602   2.63507
   R19        2.63533   0.00160   0.00000   0.00358   0.00358   2.63891
   R20        2.05153  -0.00357   0.00000  -0.00996  -0.00996   2.04158
   R21        2.62978  -0.00101   0.00000  -0.00195  -0.00194   2.62785
   R22        2.05036   0.00001   0.00000   0.00003   0.00003   2.05040
   R23        2.62621   0.00085   0.00000   0.00178   0.00179   2.62800
   R24        2.52905   0.00876   0.00000   0.01508   0.01508   2.54413
   R25        2.63280   0.00036   0.00000   0.00060   0.00060   2.63340
   R26        2.05163  -0.00033   0.00000  -0.00092  -0.00092   2.05072
   R27        2.05306  -0.00115   0.00000  -0.00321  -0.00321   2.04985
    A1        2.16825   0.00374   0.00000   0.01567   0.01525   2.18351
    A2        2.19521  -0.01054   0.00000  -0.04023  -0.04066   2.15455
    A3        1.91750   0.00686   0.00000   0.02791   0.02748   1.94498
    A4        1.87662  -0.00030   0.00000  -0.01514  -0.01523   1.86139
    A5        1.95014   0.00094   0.00000   0.00951   0.00959   1.95973
    A6        1.89880  -0.00189   0.00000  -0.01770  -0.01791   1.88090
    A7        1.92467  -0.00106   0.00000  -0.00146  -0.00149   1.92318
    A8        1.92053   0.00021   0.00000  -0.00087  -0.00113   1.91940
    A9        1.89303   0.00204   0.00000   0.02494   0.02498   1.91800
   A10        1.93987   0.00053   0.00000   0.00593   0.00585   1.94573
   A11        1.93948  -0.00015   0.00000   0.00193   0.00183   1.94131
   A12        1.94424  -0.00336   0.00000  -0.02590  -0.02598   1.91826
   A13        1.86767   0.00109   0.00000   0.01725   0.01716   1.88482
   A14        1.88521   0.00086   0.00000  -0.00010  -0.00015   1.88506
   A15        1.88434   0.00125   0.00000   0.00243   0.00234   1.88668
   A16        1.95058   0.00044   0.00000   0.00654   0.00650   1.95708
   A17        1.94253  -0.00457   0.00000  -0.03134  -0.03136   1.91117
   A18        1.93712   0.00150   0.00000   0.00887   0.00877   1.94589
   A19        1.87078   0.00227   0.00000   0.01409   0.01413   1.88490
   A20        1.87420  -0.00021   0.00000   0.00568   0.00558   1.87978
   A21        1.88530   0.00076   0.00000  -0.00276  -0.00283   1.88248
   A22        1.94638  -0.00035   0.00000   0.00022   0.00019   1.94657
   A23        1.93751   0.00098   0.00000   0.00591   0.00587   1.94338
   A24        1.94260  -0.00409   0.00000  -0.02705  -0.02710   1.91551
   A25        1.87197   0.00019   0.00000   0.00556   0.00554   1.87751
   A26        1.87787   0.00239   0.00000   0.01458   0.01454   1.89241
   A27        1.88437   0.00111   0.00000   0.00225   0.00220   1.88658
   A28        2.16255  -0.00577   0.00000  -0.02259  -0.02259   2.13996
   A29        2.15875   0.00325   0.00000   0.01291   0.01294   2.17169
   A30        2.01230  -0.00351   0.00000  -0.01362  -0.01360   1.99870
   A31        2.11063   0.00026   0.00000   0.00091   0.00085   2.11149
   A32        2.08208  -0.00091   0.00000  -0.00349  -0.00355   2.07852
   A33        2.12505  -0.00232   0.00000  -0.01501  -0.01501   2.11004
   A34        2.07606   0.00323   0.00000   0.01854   0.01855   2.09461
   A35        2.08792  -0.00026   0.00000  -0.00024  -0.00027   2.08765
   A36        2.10335   0.00077   0.00000   0.00400   0.00401   2.10735
   A37        2.09192  -0.00051   0.00000  -0.00374  -0.00374   2.08818
   A38        2.11490   0.00108   0.00000   0.00473   0.00472   2.11962
   A39        2.08223   0.00022   0.00000   0.00062   0.00062   2.08284
   A40        2.08604  -0.00130   0.00000  -0.00530  -0.00531   2.08073
   A41        2.08474  -0.00160   0.00000  -0.00728  -0.00729   2.07745
   A42        2.08886   0.00051   0.00000   0.00189   0.00189   2.09076
   A43        2.10957   0.00109   0.00000   0.00541   0.00541   2.11498
   A44        2.08576   0.00145   0.00000   0.00589   0.00586   2.09161
   A45        2.10175  -0.00280   0.00000  -0.01548  -0.01546   2.08628
   A46        2.09568   0.00135   0.00000   0.00958   0.00960   2.10528
    D1        1.53158   0.00072   0.00000   0.07762   0.07799   1.60958
    D2       -2.63738  -0.00021   0.00000   0.07167   0.07193  -2.56546
    D3       -0.54786   0.00168   0.00000   0.09697   0.09709  -0.45076
    D4       -1.54189   0.00027   0.00000   0.02815   0.02801  -1.51388
    D5        0.57232  -0.00067   0.00000   0.02220   0.02195   0.59427
    D6        2.66185   0.00122   0.00000   0.04750   0.04712   2.70896
    D7        0.09115  -0.00191   0.00000  -0.08535  -0.08458   0.00658
    D8       -3.11986  -0.00074   0.00000  -0.03217  -0.03294   3.13039
    D9        1.05600   0.00174   0.00000   0.02870   0.02875   1.08475
   D10       -1.02195   0.00012   0.00000   0.00184   0.00188  -1.02006
   D11       -3.12388   0.00091   0.00000   0.01501   0.01503  -3.10885
   D12       -1.07412   0.00141   0.00000   0.02752   0.02749  -1.04663
   D13        3.13112  -0.00021   0.00000   0.00067   0.00063   3.13175
   D14        1.02918   0.00059   0.00000   0.01383   0.01378   1.04296
   D15        3.12148  -0.00058   0.00000  -0.00189  -0.00187   3.11961
   D16        1.04353  -0.00220   0.00000  -0.02874  -0.02874   1.01480
   D17       -1.05840  -0.00141   0.00000  -0.01558  -0.01559  -1.07399
   D18       -1.13646  -0.00018   0.00000   0.01648   0.01653  -1.11993
   D19        3.05565  -0.00023   0.00000   0.01553   0.01565   3.07130
   D20        0.95526   0.00087   0.00000   0.03411   0.03421   0.98948
   D21        0.94963  -0.00064   0.00000   0.00265   0.00259   0.95222
   D22       -1.14144  -0.00070   0.00000   0.00170   0.00170  -1.13973
   D23        3.04136   0.00040   0.00000   0.02028   0.02027   3.06163
   D24        3.05380   0.00025   0.00000   0.01631   0.01621   3.07001
   D25        0.96273   0.00019   0.00000   0.01537   0.01532   0.97805
   D26       -1.13766   0.00130   0.00000   0.03395   0.03389  -1.10377
   D27        1.07015  -0.00092   0.00000  -0.04433  -0.04426   1.02589
   D28       -1.01621  -0.00158   0.00000  -0.05547  -0.05539  -1.07160
   D29       -3.11574  -0.00090   0.00000  -0.04411  -0.04404   3.12341
   D30       -0.98161   0.00043   0.00000  -0.01510  -0.01509  -0.99671
   D31       -3.06798  -0.00023   0.00000  -0.02624  -0.02622  -3.09420
   D32        1.11568   0.00044   0.00000  -0.01488  -0.01487   1.10081
   D33       -3.08834   0.00033   0.00000  -0.02831  -0.02841  -3.11675
   D34        1.10848  -0.00033   0.00000  -0.03945  -0.03953   1.06894
   D35       -0.99105   0.00034   0.00000  -0.02809  -0.02818  -1.01924
   D36        0.46294   0.00029   0.00000   0.01470   0.01471   0.47765
   D37       -2.73716   0.00040   0.00000   0.01860   0.01859  -2.71856
   D38        3.11000  -0.00060   0.00000  -0.01866  -0.01863   3.09137
   D39       -0.02730  -0.00086   0.00000  -0.02920  -0.02909  -0.05639
   D40        0.03007  -0.00060   0.00000  -0.02234  -0.02233   0.00774
   D41       -3.10722  -0.00086   0.00000  -0.03288  -0.03279  -3.14002
   D42       -3.10914   0.00026   0.00000   0.01368   0.01376  -3.09538
   D43        0.02901   0.00024   0.00000   0.01193   0.01198   0.04099
   D44       -0.02430   0.00048   0.00000   0.01793   0.01797  -0.00633
   D45        3.11385   0.00046   0.00000   0.01617   0.01619   3.13004
   D46       -0.01695   0.00037   0.00000   0.01409   0.01408  -0.00287
   D47        3.12900   0.00021   0.00000   0.00735   0.00729   3.13629
   D48        3.12047   0.00061   0.00000   0.02424   0.02436  -3.13835
   D49       -0.01677   0.00045   0.00000   0.01750   0.01757   0.00081
   D50       -0.00166  -0.00003   0.00000  -0.00176  -0.00176  -0.00342
   D51       -3.13592  -0.00024   0.00000  -0.00953  -0.00956   3.13771
   D52        3.13561   0.00013   0.00000   0.00496   0.00497   3.14058
   D53        0.00134  -0.00008   0.00000  -0.00282  -0.00282  -0.00148
   D54        0.00750  -0.00006   0.00000  -0.00262  -0.00265   0.00486
   D55       -3.12857  -0.00018   0.00000  -0.00631  -0.00631  -3.13488
   D56       -3.14143   0.00016   0.00000   0.00520   0.00516  -3.13627
   D57        0.00568   0.00004   0.00000   0.00150   0.00150   0.00719
[...]
   XY=              1.4047   XZ=              1.2977   YZ=             -4.0915
 Octapole moment (field-independent basis, Debye-Ang**2):
  XXX=             26.7458  YYY=             -0.8914  ZZZ=             -4.2869  XYY=            -20.4571
  XXY=              4.3186  XXZ=              0.9801  XZZ=             -4.0798  YZZ=              0.2052
  YYZ=              3.4179  XYZ=              0.3132
 Hexadecapole moment (field-independent basis, Debye-Ang**3):
 XXXX=          -3961.8129 YYYY=           -544.3338 ZZZZ=           -303.8886 XXXY=              4.4759
 XXXZ=             10.6813 YYYX=              2.5087 YYYZ=            -10.0196 ZZZX=             -1.6343
 ZZZY=              5.2004 XXYY=           -707.6128 XXZZ=           -703.2418 YYZZ=           -150.5061
 XXYZ=            -11.0703 YYXZ=              8.1052 ZZXY=              3.5703
 N-N= 8.799755193477D+02 E-N=-3.340208261802D+03  KE= 6.714083679575D+02
 No NMR shielding tensors so no spin-rotation constants.
 Leave Link  601 at Wed Sep 29 08:59:24 2021, MaxMem= 1073741824 cpu:       1.3
 (Enter /sw/target/amd/app/gaussian/Gaussian09RevA.02_gcc-4.9.2/g09/l604.exe)
 Evaluate density.
 Using the total density.
 Monte-Carlo method of calculating molar volume:
 based on  0.001 e/bohr**3 density envelope.
 Number of points per bohr**3 =   20 CutOff= 1.00D-04
 Using the CI density.
 There are       409 points.  Will hold       409 in memory.
 LenV=  1073587732 MDV=  1073741824.
 Box volume = 8607.642 fraction occupied=0.149
 Integrated density= 6.0523644722565813D+01 error=-4.3476355277434187D+01
 Molar volume = 1283.780 bohr**3/mol (114.563 cm**3/mol)
 Recommended a0 for SCRF calculation =  4.43 angstrom (  8.37 bohr)
 Leave Link  604 at Wed Sep 29 08:59:25 2021, MaxMem= 1073741824 cpu:       0.4
 (Enter /sw/target/amd/app/gaussian/Gaussian09RevA.02_gcc-4.9.2/g09/l607.exe)
 ******************************Gaussian NBO Version 3.1******************************
             N A T U R A L   A T O M I C   O R B I T A L   A N D
          N A T U R A L   B O N D   O R B I T A L   A N A L Y S I S
 ******************************Gaussian NBO Version 3.1******************************
       /RESON  / : Allow strongly delocalized NBO set

 Analyzing the CI density

 Job title: O=C(C(C)(C)C)Oc1ccc(cc1)F_conf_0                                

 Storage needed:    169538 in NPA (1073737909 available)


 NATURAL POPULATIONS:  Natural atomic orbital occupancies 
                                                          
   NAO  Atom  No  lang   Type(AO)    Occupancy
 --------------------------------------------
     1    O    1  S      Cor( 1S)     1.99977
     2    O    1  S      Val( 2S)     1.69672
     3    O    1  S      Ryd( 3S)     0.00058
     4    O    1  S      Ryd( 4S)     0.00013
     5    O    1  px     Val( 2p)     1.80627
     6    O    1  px     Ryd( 3p)     0.00172
     7    O    1  py     Val( 2p)     1.54647
     8    O    1  py     Ryd( 3p)     0.00059
     9    O    1  pz     Val( 2p)     1.48900
    10    O    1  pz     Ryd( 3p)     0.00066
    11    O    1  dxy    Ryd( 3d)     0.00336
    12    O    1  dxz    Ryd( 3d)     0.00187
    13    O    1  dyz    Ryd( 3d)     0.00444
    14    O    1  dx2y2  Ryd( 3d)     0.00347
    15    O    1  dz2    Ryd( 3d)     0.00323

    16    C    2  S      Cor( 1S)     1.99927
    17    C    2  S      Val( 2S)     0.78093
    18    C    2  S      Ryd( 3S)     0.00669
    19    C    2  S      Ryd( 4S)     0.00050
    20    C    2  px     Val( 2p)     0.86234
    21    C    2  px     Ryd( 3p)     0.00594
    22    C    2  py     Val( 2p)     0.73327
    23    C    2  py     Ryd( 3p)     0.01661
    24    C    2  pz     Val( 2p)     0.74624
    25    C    2  pz     Ryd( 3p)     0.00943
    26    C    2  dxy    Ryd( 3d)     0.00282
    27    C    2  dxz    Ryd( 3d)     0.00194
    28    C    2  dyz    Ryd( 3d)     0.00115
    29    C    2  dx2y2  Ryd( 3d)     0.00193
    30    C    2  dz2    Ryd( 3d)     0.00174

    31    C    3  S      Cor( 1S)     1.99905
    32    C    3  S      Val( 2S)     0.94108
    33    C    3  S      Ryd( 3S)     0.00046
    34    C    3  S      Ryd( 4S)     0.00003
    35    C    3  px     Val( 2p)     1.05921
    36    C    3  px     Ryd( 3p)     0.00206
    37    C    3  py     Val( 2p)     1.07101
    38    C    3  py     Ryd( 3p)     0.00325
    39    C    3  pz     Val( 2p)     1.06797
    40    C    3  pz     Ryd( 3p)     0.00262
    41    C    3  dxy    Ryd( 3d)     0.00072
    42    C    3  dxz    Ryd( 3d)     0.00055
    43    C    3  dyz    Ryd( 3d)     0.00072
    44    C    3  dx2y2  Ryd( 3d)     0.00097
    45    C    3  dz2    Ryd( 3d)     0.00097

    46    C    4  S      Cor( 1S)     1.99938
    47    C    4  S      Val( 2S)     1.09583
    48    C    4  S      Ryd( 3S)     0.00058
    49    C    4  S      Ryd( 4S)     0.00002
    50    C    4  px     Val( 2p)     1.24845
    51    C    4  px     Ryd( 3p)     0.00192
    52    C    4  py     Val( 2p)     1.08879
    53    C    4  py     Ryd( 3p)     0.00165
    54    C    4  pz     Val( 2p)     1.22753
    55    C    4  pz     Ryd( 3p)     0.00230
    56    C    4  dxy    Ryd( 3d)     0.00080
    57    C    4  dxz    Ryd( 3d)     0.00031
    58    C    4  dyz    Ryd( 3d)     0.00047
    59    C    4  dx2y2  Ryd( 3d)     0.00064
    60    C    4  dz2    Ryd( 3d)     0.00113

    61    C    5  S      Cor( 1S)     1.99938
    62    C    5  S      Val( 2S)     1.09605
    63    C    5  S      Ryd( 3S)     0.00058
    64    C    5  S      Ryd( 4S)     0.00002
    65    C    5  px     Val( 2p)     1.24802
    66    C    5  px     Ryd( 3p)     0.00191
    67    C    5  py     Val( 2p)     1.25263
    68    C    5  py     Ryd( 3p)     0.00238
    69    C    5  pz     Val( 2p)     1.06473
    70    C    5  pz     Ryd( 3p)     0.00155
    71    C    5  dxy    Ryd( 3d)     0.00060
    72    C    5  dxz    Ryd( 3d)     0.00050
    73    C    5  dyz    Ryd( 3d)     0.00074
    74    C    5  dx2y2  Ryd( 3d)     0.00081
    75    C    5  dz2    Ryd( 3d)     0.00070

    76    C    6  S      Cor( 1S)     1.99939
    77    C    6  S      Val( 2S)     1.09096
    78    C    6  S      Ryd( 3S)     0.00058
    79    C    6  S      Ryd( 4S)     0.00002
    80    C    6  px     Val( 2p)     1.16471
    81    C    6  px     Ryd( 3p)     0.00245
    82    C    6  py     Val( 2p)     1.18149
    83    C    6  py     Ryd( 3p)     0.00227
    84    C    6  pz     Val( 2p)     1.22275
    85    C    6  pz     Ryd( 3p)     0.00245
    86    C    6  dxy    Ryd( 3d)     0.00049
    87    C    6  dxz    Ryd( 3d)     0.00028
    88    C    6  dyz    Ryd( 3d)     0.00043
    89    C    6  dx2y2  Ryd( 3d)     0.00097
    90    C    6  dz2    Ryd( 3d)     0.00115

    91    O    7  S      Cor( 1S)     1.99969
    92    O    7  S      Val( 2S)     1.59988
    93    O    7  S      Ryd( 3S)     0.00134
    94    O    7  S      Ryd( 4S)     0.00009
    95    O    7  px     Val( 2p)     1.43377
    96    O    7  px     Ryd( 3p)     0.00092
    97    O    7  py     Val( 2p)     1.77074
    98    O    7  py     Ryd( 3p)     0.00231
    99    O    7  pz     Val( 2p)     1.69836
   100    O    7  pz     Ryd( 3p)     0.00140
   101    O    7  dxy    Ryd( 3d)     0.00096
   102    O    7  dxz    Ryd( 3d)     0.00079
   103    O    7  dyz    Ryd( 3d)     0.00115
   104    O    7  dx2y2  Ryd( 3d)     0.00115
   105    O    7  dz2    Ryd( 3d)     0.00117

   106    C    8  S      Cor( 1S)     1.99873
   107    C    8  S      Val( 2S)     0.84892
   108    C    8  S      Ryd( 3S)     0.00137
   109    C    8  S      Ryd( 4S)     0.00011
   110    C    8  px     Val( 2p)     0.73817
   111    C    8  px     Ryd( 3p)     0.00650
   112    C    8  py     Val( 2p)     1.07979
   113    C    8  py     Ryd( 3p)     0.00602
   114    C    8  pz     Val( 2p)     0.97775
   115    C    8  pz     Ryd( 3p)     0.00327
   116    C    8  dxy    Ryd( 3d)     0.00138
   117    C    8  dxz    Ryd( 3d)     0.00131
   118    C    8  dyz    Ryd( 3d)     0.00109
   119    C    8  dx2y2  Ryd( 3d)     0.00169
   120    C    8  dz2    Ryd( 3d)     0.00065

   121    C    9  S      Cor( 1S)     1.99905
   122    C    9  S      Val( 2S)     0.96620
   123    C    9  S      Ryd( 3S)     0.00073
   124    C    9  S      Ryd( 4S)     0.00006
   125    C    9  px     Val( 2p)     1.09900
   126    C    9  px     Ryd( 3p)     0.00442
   127    C    9  py     Val( 2p)     1.14505
   128    C    9  py     Ryd( 3p)     0.00457
   129    C    9  pz     Val( 2p)     1.06682
   130    C    9  pz     Ryd( 3p)     0.00552
   131    C    9  dxy    Ryd( 3d)     0.00073
   132    C    9  dxz    Ryd( 3d)     0.00065
   133    C    9  dyz    Ryd( 3d)     0.00053
   134    C    9  dx2y2  Ryd( 3d)     0.00062
   135    C    9  dz2    Ryd( 3d)     0.00045

   136    C   10  S      Cor( 1S)     1.99904
   137    C   10  S      Val( 2S)     0.97701
   138    C   10  S      Ryd( 3S)     0.00071
   139    C   10  S      Ryd( 4S)     0.00006
   140    C   10  px     Val( 2p)     1.08550
   141    C   10  px     Ryd( 3p)     0.00607
   142    C   10  py     Val( 2p)     1.16700
   143    C   10  py     Ryd( 3p)     0.00414
   144    C   10  pz     Val( 2p)     1.07045
   145    C   10  pz     Ryd( 3p)     0.00550
   146    C   10  dxy    Ryd( 3d)     0.00084
   147    C   10  dxz    Ryd( 3d)     0.00065
   148    C   10  dyz    Ryd( 3d)     0.00052
   149    C   10  dx2y2  Ryd( 3d)     0.00054
   150    C   10  dz2    Ryd( 3d)     0.00049

   151    C   11  S      Cor( 1S)     1.99846
   152    C   11  S      Val( 2S)     0.85612
   153    C   11  S      Ryd( 3S)     0.00140
   154    C   11  S      Ryd( 4S)     0.00013
   155    C   11  px     Val( 2p)     0.63806
   156    C   11  px     Ryd( 3p)     0.01050
   157    C   11  py     Val( 2p)     1.06200
   158    C   11  py     Ryd( 3p)     0.00580
   159    C   11  pz     Val( 2p)     0.96712
   160    C   11  pz     Ryd( 3p)     0.00260
   161    C   11  dxy    Ryd( 3d)     0.00164
   162    C   11  dxz    Ryd( 3d)     0.00187
   163    C   11  dyz    Ryd( 3d)     0.00112
   164    C   11  dx2y2  Ryd( 3d)     0.00206
   165    C   11  dz2    Ryd( 3d)     0.00069

   166    C   12  S      Cor( 1S)     1.99904
   167    C   12  S      Val( 2S)     0.97659
   168    C   12  S      Ryd( 3S)     0.00066
   169    C   12  S      Ryd( 4S)     0.00006
   170    C   12  px     Val( 2p)     1.10310
   171    C   12  px     Ryd( 3p)     0.00582
   172    C   12  py     Val( 2p)     1.14538
   173    C   12  py     Ryd( 3p)     0.00438
   174    C   12  pz     Val( 2p)     1.08636
   175    C   12  pz     Ryd( 3p)     0.00572
   176    C   12  dxy    Ryd( 3d)     0.00076
   177    C   12  dxz    Ryd( 3d)     0.00062
   178    C   12  dyz    Ryd( 3d)     0.00056
   179    C   12  dx2y2  Ryd( 3d)     0.00059
   180    C   12  dz2    Ryd( 3d)     0.00047

   181    C   13  S      Cor( 1S)     1.99905
   182    C   13  S      Val( 2S)     0.96737
   183    C   13  S      Ryd( 3S)     0.00072
   184    C   13  S      Ryd( 4S)     0.00005
   185    C   13  px     Val( 2p)     1.07979
   186    C   13  px     Ryd( 3p)     0.00505
   187    C   13  py     Val( 2p)     1.16207
   188    C   13  py     Ryd( 3p)     0.00441
   189    C   13  pz     Val( 2p)     1.05204
   190    C   13  pz     Ryd( 3p)     0.00557
   191    C   13  dxy    Ryd( 3d)     0.00080
   192    C   13  dxz    Ryd( 3d)     0.00067
   193    C   13  dyz    Ryd( 3d)     0.00046
   194    C   13  dx2y2  Ryd( 3d)     0.00057
   195    C   13  dz2    Ryd( 3d)     0.00048

   196    F   14  S      Cor( 1S)     1.99994
   197    F   14  S      Val( 2S)     1.82977
   198    F   14  S      Ryd( 3S)     0.00015
   199    F   14  S      Ryd( 4S)     0.00002
   200    F   14  px     Val( 2p)     1.62962
   201    F   14  px     Ryd( 3p)     0.00007
   202    F   14  py     Val( 2p)     1.96161
   203    F   14  py     Ryd( 3p)     0.00073
   204    F   14  pz     Val( 2p)     1.87486
   205    F   14  pz     Ryd( 3p)     0.00077
   206    F   14  dxy    Ryd( 3d)     0.00106
   207    F   14  dxz    Ryd( 3d)     0.00144
   208    F   14  dyz    Ryd( 3d)     0.00006
   209    F   14  dx2y2  Ryd( 3d)     0.00100
   210    F   14  dz2    Ryd( 3d)     0.00029

   211    H   15  S      Val( 1S)     0.75630
   212    H   15  S      Ryd( 2S)     0.00111

   213    H   16  S      Val( 1S)     0.76154
   214    H   16  S      Ryd( 2S)     0.00090

   215    H   17  S      Val( 1S)     0.76264
   216    H   17  S      Ryd( 2S)     0.00103

   217    H   18  S      Val( 1S)     0.75468
   218    H   18  S      Ryd( 2S)     0.00103

   219    H   19  S      Val( 1S)     0.76227
   220    H   19  S      Ryd( 2S)     0.00111

   221    H   20  S      Val( 1S)     0.76242
   222    H   20  S      Ryd( 2S)     0.00092

   223    H   21  S      Val( 1S)     0.75474
   224    H   21  S      Ryd( 2S)     0.00103

   225    H   22  S      Val( 1S)     0.75610
   226    H   22  S      Ryd( 2S)     0.00102

   227    H   23  S      Val( 1S)     0.76765
   228    H   23  S      Ryd( 2S)     0.00089

   229    H   24  S      Val( 1S)     0.74631
   230    H   24  S      Ryd( 2S)     0.00102

   231    H   25  S      Val( 1S)     0.75133
   232    H   25  S      Ryd( 2S)     0.00117

   233    H   26  S      Val( 1S)     0.75181
   234    H   26  S      Ryd( 2S)     0.00116

   235    H   27  S      Val( 1S)     0.75455
   236    H   27  S      Ryd( 2S)     0.00114

 WARNING:  1 low occupancy (<1.9990e) core orbital  found on  C    8
           1 low occupancy (<1.9990e) core orbital  found on  C   11


 Summary of Natural Population Analysis:                  
                                                          
                                       Natural Population 
                Natural  -----------------------------------------------
    Atom  No    Charge         Core      Valence    Rydberg      Total
 -----------------------------------------------------------------------
      O    1   -0.55829      1.99977     6.53845    0.02006     8.55829
      C    2    0.82920      1.99927     3.12278    0.04875     5.17080
      C    3   -0.15066      1.99905     4.13927    0.01234     6.15066
      C    4   -0.66980      1.99938     4.66060    0.00982     6.66980
      C    5   -0.67060      1.99938     4.66143    0.00979     6.67060
      C    6   -0.67041      1.99939     4.65992    0.01110     6.67041
      O    7   -0.51375      1.99969     6.50276    0.01130     8.51375
      C    8    0.33325      1.99873     3.64463    0.02339     5.66675
      C    9   -0.29440      1.99905     4.27708    0.01827     6.29440
      C   10   -0.31853      1.99904     4.29997    0.01952     6.31853
      C   11    0.45042      1.99846     3.52331    0.02781     5.54958
      C   12   -0.33010      1.99904     4.31142    0.01964     6.33010
      C   13   -0.27910      1.99905     4.26126    0.01878     6.27910
      F   14   -0.30139      1.99994     7.29586    0.00558     9.30139
      H   15    0.24259      0.00000     0.75630    0.00111     0.75741
      H   16    0.23756      0.00000     0.76154    0.00090     0.76244
      H   17    0.23632      0.00000     0.76264    0.00103     0.76368
      H   18    0.24430      0.00000     0.75468    0.00103     0.75570
      H   19    0.23662      0.00000     0.76227    0.00111     0.76338
      H   20    0.23665      0.00000     0.76242    0.00092     0.76335
      H   21    0.24424      0.00000     0.75474    0.00103     0.75576
      H   22    0.24288      0.00000     0.75610    0.00102     0.75712
      H   23    0.23146      0.00000     0.76765    0.00089     0.76854
      H   24    0.25268      0.00000     0.74631    0.00102     0.74732
      H   25    0.24751      0.00000     0.75133    0.00117     0.75249
      H   26    0.24704      0.00000     0.75181    0.00116     0.75296
      H   27    0.24432      0.00000     0.75455    0.00114     0.75568
 =======================================================================
   * Total *   -0.00000     27.98924    75.74108    0.26968   104.00000

                                 Natural Population      
 --------------------------------------------------------
   Core                      27.98924 ( 99.9616% of  28)
   Valence                   75.74108 ( 99.6593% of  76)
   Natural Minimal Basis    103.73032 ( 99.7407% of 104)
   Natural Rydberg Basis      0.26968 (  0.2593% of 104)
 --------------------------------------------------------

    Atom  No          Natural Electron Configuration
 ----------------------------------------------------------------------------
      O    1      [core]2S( 1.70)2p( 4.84)3d( 0.02)
      C    2      [core]2S( 0.78)2p( 2.34)3S( 0.01)3p( 0.03)3d( 0.01)
      C    3      [core]2S( 0.94)2p( 3.20)3p( 0.01)
      C    4      [core]2S( 1.10)2p( 3.56)3p( 0.01)
      C    5      [core]2S( 1.10)2p( 3.57)3p( 0.01)
      C    6      [core]2S( 1.09)2p( 3.57)3p( 0.01)
      O    7      [core]2S( 1.60)2p( 4.90)3d( 0.01)
      C    8      [core]2S( 0.85)2p( 2.80)3p( 0.02)3d( 0.01)
      C    9      [core]2S( 0.97)2p( 3.31)3p( 0.01)
      C   10      [core]2S( 0.98)2p( 3.32)3p( 0.02)
      C   11      [core]2S( 0.86)2p( 2.67)3p( 0.02)3d( 0.01)
      C   12      [core]2S( 0.98)2p( 3.33)3p( 0.02)
      C   13      [core]2S( 0.97)2p( 3.29)3p( 0.02)
      F   14      [core]2S( 1.83)2p( 5.47)
      H   15            1S( 0.76)
      H   16            1S( 0.76)
      H   17            1S( 0.76)
      H   18            1S( 0.75)
      H   19            1S( 0.76)
      H   20            1S( 0.76)
      H   21            1S( 0.75)
      H   22            1S( 0.76)
      H   23            1S( 0.77)
      H   24            1S( 0.75)
      H   25            1S( 0.75)
      H   26            1S( 0.75)
      H   27            1S( 0.75)


 NBO analysis skipped by request.
 Leave Link  607 at Wed Sep 29 08:59:50 2021, MaxMem= 1073741824 cpu:      16.9
 (Enter /sw/target/amd/app/gaussian/Gaussian09RevA.02_gcc-4.9.2/g09/l9999.exe)
 1\1\GINC-HERMITE\SP\RTD-B3LYP-FC\6-31G(d)\C11H13F1O2\JSCHLEINITZ\29-Se
 p-2021\0\\#p TD(NStates=10, Root=1) b3lyp/6-31G* volume pop=NPA densit
 y=current Geom=AllCheck Guess=Read\\O=C(C(C)(C)C)Oc1ccc(cc1)F_conf_0\\
 0,1\O,0,2.0570369275,0.2773654714,-0.5379571601\C,0,2.9357954108,-0.29
 34056518,0.0607787717\C,0,2.7563371176,-1.4915013541,0.9986029072\C,0,
 3.5572575509,-2.6915188044,0.444402734\C,0,3.2814595141,-1.1170731305,
 2.4028729551\C,0,1.2607380269,-1.8387004933,1.0661026575\O,0,4.2612997
 763,0.0622023033,-0.0177236141\C,0,4.671256083,1.1187006725,-0.8327621
 218\C,0,4.0711865227,2.3781167967,-0.7918058279\C,0,4.5899453804,3.406
 0074466,-1.5786260826\C,0,5.6970544802,3.1544842063,-2.3812380602\C,0,
 6.3056451057,1.9057476795,-2.4241947041\C,0,5.7817168497,0.878473448,-
 1.6403308362\F,0,6.1970144766,4.1536630959,-3.1391380258\H,0,4.6266511
 577,-2.4687884993,0.3937331262\H,0,3.2141045889,-2.9684362022,-0.55912
 70172\H,0,3.4168622629,-3.5597369569,1.0983952794\H,0,4.345840299,-0.8
 678654206,2.3786226267\H,0,3.1404194508,-1.9637727447,3.0843868713\H,0
 ,2.7359767548,-0.2602948663,2.8152512829\H,0,0.8671198757,-2.093069615
 8,0.0775123087\H,0,0.6748375977,-0.9972385407,1.4482004104\H,0,1.10982
 61869,-2.6962770218,1.7312337668\H,0,3.2067319891,2.5523814278,-0.1640
 520994\H,0,4.1456028915,4.3956817363,-1.5740641335\H,0,7.1698632086,1.
 7485779751,-3.0607049087\H,0,6.2298977669,-0.1097980046,-1.6448861341\
 \Version=AM64L-G09RevA.02\State=1-A\HF=-677.2995458\RMSD=7.927e-09\Dip
 ole=0.2343527,-0.717135,0.6478376\Quadrupole=-2.5363884,2.4082349,0.12
 81535,-1.2274116,-2.6623398,0.10445\PG=C01 [X(C11H13F1O2)]\\@


 MANHOOD BEGINS BY TRYING TO SHAVE FACE,
 AND ENDS BY TRYING TO SAVE FACE.
 Job cpu time:  0 days  2 hours 59 minutes 13.6 seconds.
 File lengths (MBytes):  RWF=    192 Int=      0 D2E=      0 Chk=     26 Scr=      1
 Normal termination of Gaussian 09 at Wed Sep 29 08:59:56 2021.
