 Entering Gaussian System, Link 0=g09
 Input=C11H16N2O2_2334_conf_0.com
 Output=C11H16N2O2_2334_conf_0.log
 Initial command:
 /sw/target/amd/app/gaussian/Gaussian09RevA.02_gcc-4.9.2/g09/l1.exe /home/jschleinitz/gaussian/Gau-350235.inp -scrdir=/home/jschleinitz/gaussian/
 Entering Link 1 = /sw/target/amd/app/gaussian/Gaussian09RevA.02_gcc-4.9.2/g09/l1.exe PID=    350241.
  
 Copyright (c) 1988,1990,1992,1993,1995,1998,2003,2009, Gaussian, Inc.
                  All Rights Reserved.
  
 This is part of the Gaussian(R) 09 program.  It is based on
 the Gaussian(R) 03 system (copyright 2003, Gaussian, Inc.),
 the Gaussian(R) 98 system (copyright 1998, Gaussian, Inc.),
 the Gaussian(R) 94 system (copyright 1995, Gaussian, Inc.),
 the Gaussian 92(TM) system (copyright 1992, Gaussian, Inc.),
 the Gaussian 90(TM) system (copyright 1990, Gaussian, Inc.),
 the Gaussian 88(TM) system (copyright 1988, Gaussian, Inc.),
 the Gaussian 86(TM) system (copyright 1986, Carnegie Mellon
 University), and the Gaussian 82(TM) system (copyright 1983,
 Carnegie Mellon University). Gaussian is a federally registered
 trademark of Gaussian, Inc.
  
 This software contains proprietary and confidential information,
 including trade secrets, belonging to Gaussian, Inc.
  
 This software is provided under written license and may be
 used, copied, transmitted, or stored only in accord with that
 written license.
  
 The following legend is applicable only to US Government
 contracts under FAR:
  
                    RESTRICTED RIGHTS LEGEND
  
 Use, reproduction and disclosure by the US Government is
 subject to restrictions as set forth in subparagraphs (a)
 and (c) of the Commercial Computer Software - Restricted
 Rights clause in FAR 52.227-19.
  
 Gaussian, Inc.
 340 Quinnipiac St., Bldg. 40, Wallingford CT 06492
  
  
 ---------------------------------------------------------------
 Warning -- This program may not be used in any manner that
 competes with the business of Gaussian, Inc. or will provide
 assistance to any competitor of Gaussian, Inc.  The licensee
 of this program is prohibited from giving any competitor of
 Gaussian, Inc. access to this program.  By using this program,
 the user acknowledges that Gaussian, Inc. is engaged in the
 business of creating and licensing software in the field of
 computational chemistry and represents and warrants to the
 licensee that it is not a competitor of Gaussian, Inc. and that
 it will not use this program in any manner prohibited above.
 ---------------------------------------------------------------
  

 Cite this work as:
 Gaussian 09, Revision A.02,
 M. J. Frisch, G. W. Trucks, H. B. Schlegel, G. E. Scuseria, 
 M. A. Robb, J. R. Cheeseman, G. Scalmani, V. Barone, B. Mennucci, 
 G. A. Petersson, H. Nakatsuji, M. Caricato, X. Li, H. P. Hratchian, 
 A. F. Izmaylov, J. Bloino, G. Zheng, J. L. Sonnenberg, M. Hada, 
 M. Ehara, K. Toyota, R. Fukuda, J. Hasegawa, M. Ishida, T. Nakajima, 
 Y. Honda, O. Kitao, H. Nakai, T. Vreven, J. A. Montgomery, Jr., 
 J. E. Peralta, F. Ogliaro, M. Bearpark, J. J. Heyd, E. Brothers, 
 K. N. Kudin, V. N. Staroverov, R. Kobayashi, J. Normand, 
 K. Raghavachari, A. Rendell, J. C. Burant, S. S. Iyengar, J. Tomasi, 
 M. Cossi, N. Rega, J. M. Millam, M. Klene, J. E. Knox, J. B. Cross, 
 V. Bakken, C. Adamo, J. Jaramillo, R. Gomperts, R. E. Stratmann, 
 O. Yazyev, A. J. Austin, R. Cammi, C. Pomelli, J. W. Ochterski, 
 R. L. Martin, K. Morokuma, V. G. Zakrzewski, G. A. Voth, 
 P. Salvador, J. J. Dannenberg, S. Dapprich, A. D. Daniels, 
 O. Farkas, J. B. Foresman, J. V. Ortiz, J. Cioslowski, 
 and D. J. Fox, Gaussian, Inc., Wallingford CT, 2009.
 
 ******************************************
 Gaussian 09:  AM64L-G09RevA.02 11-Jun-2009
                29-Sep-2021 
 ******************************************
 %nproc=5
 Will use up to    5 processors via shared memory.
 %mem=10gb
 %chk=C11H16N2O2_2334_conf_0.chk
 -----------------------------------
 #p opt b3lyp/6-31G* scf=(xqc,tight)
 -----------------------------------
 1/14=-1,18=20,19=15,26=3,38=1/1,3;
 2/9=110,12=2,17=6,18=5,40=1/2;
 3/5=1,6=6,7=1,11=2,16=1,25=1,30=1,71=1,74=-5/1,2,3;
 4//1;
 5/5=2,8=3,13=1,32=2,38=5/2,8;
 6/7=2,8=2,9=2,10=2,28=1/1;
 7//1,2,3,16;
 1/14=-1,18=20,19=15/3(2);
 2/9=110/2;
 99//99;
 2/9=110/2;
 3/5=1,6=6,7=1,11=2,16=1,25=1,30=1,71=1,74=-5/1,2,3;
 4/5=5,16=3/1;
 5/5=2,8=3,13=1,32=2,38=5/2,8;
 7//1,2,3,16;
 1/14=-1,18=20,19=15/3(-5);
 2/9=110/2;
 6/7=2,8=2,9=2,10=2,19=2,28=1/1;
 99/9=1/99;
 Leave Link    1 at Wed Sep 29 20:05:38 2021, MaxMem= 1342177280 cpu:       0.1
 (Enter /sw/target/amd/app/gaussian/Gaussian09RevA.02_gcc-4.9.2/g09/l101.exe)
 ---------------------------------
 CN(C(=O)Oc1ccc(cc1)N(C)C)C_conf_0
 ---------------------------------
 Symbolic Z-matrix:
 Charge =  0 Multiplicity = 1
 C                     3.02975   1.50629   1.01543 
 N                     2.33609   2.7803    1.00819 
 C                     2.55958   3.74055   0.03154 
 O                     2.0523    4.85858   0.06414 
 O                     3.43412   3.29508  -0.96312 
 C                     3.72858   4.10111  -2.07808 
 C                     5.01327   4.01478  -2.6043 
 C                     5.3387    4.75996  -3.74293 
 C                     4.39264   5.57916  -4.37664 
 C                     3.1043    5.63713  -3.82547 
 C                     2.76777   4.89654  -2.6915 
 N                     4.75953   6.29512  -5.53378 
 C                     3.68272   6.56183  -6.48834 
 C                     5.58047   7.46454  -5.20756 
 C                     1.61723   3.15615   2.20983 
 H                     3.24172   1.16416  -0.00094 
 H                     2.40704   0.7561    1.51009 
 H                     3.97202   1.62481   1.55776 
 H                     5.75265   3.37033  -2.14502 
 H                     6.33993   4.67471  -4.16301 
 H                     2.3349    6.27018  -4.25279 
 H                     1.75045   4.95904  -2.31003 
 H                     3.15354   5.63704  -6.74782 
 H                     4.10015   6.96288  -7.41737 
 H                     2.96488   7.2961   -6.10561 
 H                     6.53402   7.17089  -4.75616 
 H                     5.05594   8.14505  -4.52617 
 H                     5.81853   8.02388  -6.11976 
 H                     2.33578   3.27747   3.02569 
 H                     0.90464   2.36548   2.45969 
 H                     1.06882   4.09358   2.08159 
 
 NAtoms=     31 NQM=     31 NQMF=      0 NMic=      0 NMicF=      0 NTot=     31.
                    Isotopes and Nuclear Properties:
 (Nuclear quadrupole moments (NQMom) in fm**2, nuclear magnetic moments (NMagM)
  in nuclear magnetons)

  Atom         1           2           3           4           5           6           7           8           9          10
 IAtWgt=          12          14          12          16          16          12          12          12          12          12
 AtmWgt=  12.0000000  14.0030740  12.0000000  15.9949146  15.9949146  12.0000000  12.0000000  12.0000000  12.0000000  12.0000000
 NucSpn=           0           2           0           0           0           0           0           0           0           0
 AtZEff=   0.0000000   0.0000000   0.0000000   0.0000000   0.0000000   0.0000000   0.0000000   0.0000000   0.0000000   0.0000000
 NQMom=    0.0000000   2.0440000   0.0000000   0.0000000   0.0000000   0.0000000   0.0000000   0.0000000   0.0000000   0.0000000
 NMagM=    0.0000000   0.4037610   0.0000000   0.0000000   0.0000000   0.0000000   0.0000000   0.0000000   0.0000000   0.0000000

  Atom        11          12          13          14          15          16          17          18          19          20
 IAtWgt=          12          14          12          12          12           1           1           1           1           1
 AtmWgt=  12.0000000  14.0030740  12.0000000  12.0000000  12.0000000   1.0078250   1.0078250   1.0078250   1.0078250   1.0078250
 NucSpn=           0           2           0           0           0           1           1           1           1           1
 AtZEff=   0.0000000   0.0000000   0.0000000   0.0000000   0.0000000   0.0000000   0.0000000   0.0000000   0.0000000   0.0000000
 NQMom=    0.0000000   2.0440000   0.0000000   0.0000000   0.0000000   0.0000000   0.0000000   0.0000000   0.0000000   0.0000000
 NMagM=    0.0000000   0.4037610   0.0000000   0.0000000   0.0000000   2.7928460   2.7928460   2.7928460   2.7928460   2.7928460

  Atom        21          22          23          24          25          26          27          28          29          30
 IAtWgt=           1           1           1           1           1           1           1           1           1           1
 AtmWgt=   1.0078250   1.0078250   1.0078250   1.0078250   1.0078250   1.0078250   1.0078250   1.0078250   1.0078250   1.0078250
 NucSpn=           1           1           1           1           1           1           1           1           1           1
 AtZEff=   0.0000000   0.0000000   0.0000000   0.0000000   0.0000000   0.0000000   0.0000000   0.0000000   0.0000000   0.0000000
 NQMom=    0.0000000   0.0000000   0.0000000   0.0000000   0.0000000   0.0000000   0.0000000   0.0000000   0.0000000   0.0000000
 NMagM=    2.7928460   2.7928460   2.7928460   2.7928460   2.7928460   2.7928460   2.7928460   2.7928460   2.7928460   2.7928460

  Atom        31
 IAtWgt=           1
 AtmWgt=   1.0078250
 NucSpn=           1
 AtZEff=   0.0000000
 NQMom=    0.0000000
 NMagM=    2.7928460
 Leave Link  101 at Wed Sep 29 20:05:39 2021, MaxMem= 1342177280 cpu:       0.2
 (Enter /sw/target/amd/app/gaussian/Gaussian09RevA.02_gcc-4.9.2/g09/l103.exe)

 GradGradGradGradGradGradGradGradGradGradGradGradGradGradGradGradGradGrad
 Berny optimization.
 Initialization pass.
                           ----------------------------
                           !    Initial Parameters    !
                           ! (Angstroms and Degrees)  !
 --------------------------                            --------------------------
 ! Name  Definition              Value          Derivative Info.                !
 --------------------------------------------------------------------------------
 ! R1    R(1,2)                  1.4506         estimate D2E/DX2                !
 ! R2    R(1,16)                 1.0932         estimate D2E/DX2                !
 ! R3    R(1,17)                 1.0933         estimate D2E/DX2                !
 ! R4    R(1,18)                 1.0936         estimate D2E/DX2                !
 ! R5    R(2,3)                  1.3878         estimate D2E/DX2                !
 ! R6    R(2,15)                 1.4498         estimate D2E/DX2                !
 ! R7    R(3,4)                  1.2282         estimate D2E/DX2                !
 ! R8    R(3,5)                  1.3974         estimate D2E/DX2                !
 ! R9    R(5,6)                  1.407          estimate D2E/DX2                !
 ! R10   R(6,7)                  1.391          estimate D2E/DX2                !
 ! R11   R(6,11)                 1.39           estimate D2E/DX2                !
 ! R12   R(7,8)                  1.3992         estimate D2E/DX2                !
 ! R13   R(7,19)                 1.083          estimate D2E/DX2                !
 ! R14   R(8,9)                  1.4027         estimate D2E/DX2                !
 ! R15   R(8,20)                 1.0891         estimate D2E/DX2                !
 ! R16   R(9,10)                 1.4025         estimate D2E/DX2                !
 ! R17   R(9,12)                 1.4093         estimate D2E/DX2                !
 ! R18   R(10,11)                1.3956         estimate D2E/DX2                !
 ! R19   R(10,21)                1.0841         estimate D2E/DX2                !
 ! R20   R(11,22)                1.0883         estimate D2E/DX2                !
 ! R21   R(12,13)                1.4635         estimate D2E/DX2                !
 ! R22   R(12,14)                1.4656         estimate D2E/DX2                !
 ! R23   R(13,23)                1.0966         estimate D2E/DX2                !
 ! R24   R(13,24)                1.0946         estimate D2E/DX2                !
 ! R25   R(13,25)                1.0959         estimate D2E/DX2                !
 ! R26   R(14,26)                1.0951         estimate D2E/DX2                !
 ! R27   R(14,27)                1.0966         estimate D2E/DX2                !
 ! R28   R(14,28)                1.0962         estimate D2E/DX2                !
 ! R29   R(15,29)                1.0939         estimate D2E/DX2                !
 ! R30   R(15,30)                1.0933         estimate D2E/DX2                !
 ! R31   R(15,31)                1.0936         estimate D2E/DX2                !
 ! A1    A(2,1,16)             111.281          estimate D2E/DX2                !
 ! A2    A(2,1,17)             109.4228         estimate D2E/DX2                !
 ! A3    A(2,1,18)             108.62           estimate D2E/DX2                !
 ! A4    A(16,1,17)            108.4434         estimate D2E/DX2                !
 ! A5    A(16,1,18)            109.1424         estimate D2E/DX2                !
 ! A6    A(17,1,18)            109.9223         estimate D2E/DX2                !
 ! A7    A(1,2,3)              122.2896         estimate D2E/DX2                !
 ! A8    A(1,2,15)             117.4281         estimate D2E/DX2                !
 ! A9    A(3,2,15)             118.9316         estimate D2E/DX2                !
 ! A10   A(2,3,4)              123.0037         estimate D2E/DX2                !
 ! A11   A(2,3,5)              112.405          estimate D2E/DX2                !
 ! A12   A(4,3,5)              124.5833         estimate D2E/DX2                !
 ! A13   A(3,5,6)              120.826          estimate D2E/DX2                !
 ! A14   A(5,6,7)              117.2282         estimate D2E/DX2                !
 ! A15   A(5,6,11)             122.2004         estimate D2E/DX2                !
 ! A16   A(7,6,11)             120.4628         estimate D2E/DX2                !
 ! A17   A(6,7,8)              119.3157         estimate D2E/DX2                !
 ! A18   A(6,7,19)             120.4671         estimate D2E/DX2                !
 ! A19   A(8,7,19)             120.2143         estimate D2E/DX2                !
 ! A20   A(7,8,9)              121.4535         estimate D2E/DX2                !
 ! A21   A(7,8,20)             119.0782         estimate D2E/DX2                !
 ! A22   A(9,8,20)             119.4375         estimate D2E/DX2                !
 ! A23   A(8,9,10)             117.7843         estimate D2E/DX2                !
 ! A24   A(8,9,12)             119.474          estimate D2E/DX2                !
 ! A25   A(10,9,12)            122.7392         estimate D2E/DX2                !
 ! A26   A(9,10,11)            121.2589         estimate D2E/DX2                !
 ! A27   A(9,10,21)            121.4107         estimate D2E/DX2                !
 ! A28   A(11,10,21)           117.3234         estimate D2E/DX2                !
 ! A29   A(6,11,10)            119.7073         estimate D2E/DX2                !
 ! A30   A(6,11,22)            121.623          estimate D2E/DX2                !
 ! A31   A(10,11,22)           118.6696         estimate D2E/DX2                !
 ! A32   A(9,12,13)            115.8854         estimate D2E/DX2                !
 ! A33   A(9,12,14)            111.6189         estimate D2E/DX2                !
 ! A34   A(13,12,14)           114.325          estimate D2E/DX2                !
 ! A35   A(12,13,23)           110.8361         estimate D2E/DX2                !
 ! A36   A(12,13,24)           109.8624         estimate D2E/DX2                !
 ! A37   A(12,13,25)           112.1029         estimate D2E/DX2                !
 ! A38   A(23,13,24)           106.9879         estimate D2E/DX2                !
 ! A39   A(23,13,25)           109.3652         estimate D2E/DX2                !
 ! A40   A(24,13,25)           107.5014         estimate D2E/DX2                !
 ! A41   A(12,14,26)           111.4407         estimate D2E/DX2                !
 ! A42   A(12,14,27)           111.4407         estimate D2E/DX2                !
 ! A43   A(12,14,28)           110.0948         estimate D2E/DX2                !
 ! A44   A(26,14,27)           109.0727         estimate D2E/DX2                !
 ! A45   A(26,14,28)           106.9023         estimate D2E/DX2                !
 ! A46   A(27,14,28)           107.7161         estimate D2E/DX2                !
 ! A47   A(2,15,29)            108.7366         estimate D2E/DX2                !
 ! A48   A(2,15,30)            108.9715         estimate D2E/DX2                !
 ! A49   A(2,15,31)            111.9422         estimate D2E/DX2                !
 ! A50   A(29,15,30)           109.7474         estimate D2E/DX2                !
 ! A51   A(29,15,31)           108.7705         estimate D2E/DX2                !
 ! A52   A(30,15,31)           108.6544         estimate D2E/DX2                !
 ! D1    D(16,1,2,3)           -32.6981         estimate D2E/DX2                !
 ! D2    D(16,1,2,15)          160.7242         estimate D2E/DX2                !
 ! D3    D(17,1,2,3)          -152.5226         estimate D2E/DX2                !
 ! D4    D(17,1,2,15)           40.8996         estimate D2E/DX2                !
 ! D5    D(18,1,2,3)            87.473          estimate D2E/DX2                !
 ! D6    D(18,1,2,15)          -79.1047         estimate D2E/DX2                !
 ! D7    D(1,2,3,4)           -174.6778         estimate D2E/DX2                !
 ! D8    D(1,2,3,5)              4.3349         estimate D2E/DX2                !
 ! D9    D(15,2,3,4)            -8.2937         estimate D2E/DX2                !
 ! D10   D(15,2,3,5)           170.719          estimate D2E/DX2                !
 ! D11   D(1,2,15,29)           64.0072         estimate D2E/DX2                !
 ! D12   D(1,2,15,30)          -55.5888         estimate D2E/DX2                !
 ! D13   D(1,2,15,31)         -175.7964         estimate D2E/DX2                !
 ! D14   D(3,2,15,29)         -103.0363         estimate D2E/DX2                !
 ! D15   D(3,2,15,30)          137.3677         estimate D2E/DX2                !
 ! D16   D(3,2,15,31)           17.1601         estimate D2E/DX2                !
 ! D17   D(2,3,5,6)            176.5936         estimate D2E/DX2                !
 ! D18   D(4,3,5,6)             -4.412          estimate D2E/DX2                !
 ! D19   D(3,5,6,7)            145.9496         estimate D2E/DX2                !
 ! D20   D(3,5,6,11)           -37.8243         estimate D2E/DX2                !
 ! D21   D(5,6,7,8)            177.6589         estimate D2E/DX2                !
 ! D22   D(5,6,7,19)            -1.7216         estimate D2E/DX2                !
 ! D23   D(11,6,7,8)             1.3637         estimate D2E/DX2                !
 ! D24   D(11,6,7,19)         -178.0169         estimate D2E/DX2                !
 ! D25   D(5,6,11,10)         -177.5834         estimate D2E/DX2                !
 ! D26   D(5,6,11,22)            2.3842         estimate D2E/DX2                !
 ! D27   D(7,6,11,10)           -1.4767         estimate D2E/DX2                !
 ! D28   D(7,6,11,22)          178.4909         estimate D2E/DX2                !
 ! D29   D(6,7,8,9)             -0.8591         estimate D2E/DX2                !
 ! D30   D(6,7,8,20)          -178.8287         estimate D2E/DX2                !
 ! D31   D(19,7,8,9)           178.5231         estimate D2E/DX2                !
 ! D32   D(19,7,8,20)            0.5534         estimate D2E/DX2                !
 ! D33   D(7,8,9,10)             0.458          estimate D2E/DX2                !
 ! D34   D(7,8,9,12)          -178.9847         estimate D2E/DX2                !
 ! D35   D(20,8,9,10)          178.4206         estimate D2E/DX2                !
 ! D36   D(20,8,9,12)           -1.0221         estimate D2E/DX2                !
 ! D37   D(8,9,10,11)           -0.5671         estimate D2E/DX2                !
 ! D38   D(8,9,10,21)          178.4445         estimate D2E/DX2                !
 ! D39   D(12,9,10,11)         178.8561         estimate D2E/DX2                !
 ! D40   D(12,9,10,21)          -2.1323         estimate D2E/DX2                !
 ! D41   D(8,9,12,13)          150.6224         estimate D2E/DX2                !
 ! D42   D(8,9,12,14)          -76.1573         estimate D2E/DX2                !
 ! D43   D(10,9,12,13)         -28.7914         estimate D2E/DX2                !
 ! D44   D(10,9,12,14)         104.4288         estimate D2E/DX2                !
 ! D45   D(9,10,11,6)            1.0809         estimate D2E/DX2                !
 ! D46   D(9,10,11,22)        -178.8877         estimate D2E/DX2                !
 ! D47   D(21,10,11,6)        -177.9696         estimate D2E/DX2                !
 ! D48   D(21,10,11,22)          2.0618         estimate D2E/DX2                !
 ! D49   D(9,12,13,23)         -52.2262         estimate D2E/DX2                !
 ! D50   D(9,12,13,24)        -170.2525         estimate D2E/DX2                !
 ! D51   D(9,12,13,25)          70.287          estimate D2E/DX2                !
 ! D52   D(14,12,13,23)        175.8013         estimate D2E/DX2                !
 ! D53   D(14,12,13,24)         57.7751         estimate D2E/DX2                !
 ! D54   D(14,12,13,25)        -61.6854         estimate D2E/DX2                !
 ! D55   D(9,12,14,26)          63.7544         estimate D2E/DX2                !
 ! D56   D(9,12,14,27)         -58.345          estimate D2E/DX2                !
 ! D57   D(9,12,14,28)        -177.8032         estimate D2E/DX2                !
 ! D58   D(13,12,14,26)       -162.2577         estimate D2E/DX2                !
 ! D59   D(13,12,14,27)         75.6429         estimate D2E/DX2                !
 ! D60   D(13,12,14,28)        -43.8153         estimate D2E/DX2                !
 --------------------------------------------------------------------------------
 Trust Radius=3.00D-01 FncErr=1.00D-07 GrdErr=1.00D-06
 Number of steps in this run= 153 maximum allowed number of steps= 186.
 GradGradGradGradGradGradGradGradGradGradGradGradGradGradGradGradGradGrad

 Leave Link  103 at Wed Sep 29 20:05:40 2021, MaxMem= 1342177280 cpu:       0.0
 (Enter /sw/target/amd/app/gaussian/Gaussian09RevA.02_gcc-4.9.2/g09/l202.exe)
                          Input orientation:                          
 ---------------------------------------------------------------------
 Center     Atomic      Atomic             Coordinates (Angstroms)
 Number     Number       Type             X           Y           Z
 ---------------------------------------------------------------------
      1          6           0        3.029752    1.506286    1.015432
      2          7           0        2.336086    2.780296    1.008189
      3          6           0        2.559581    3.740548    0.031536
      4          8           0        2.052305    4.858582    0.064141
      5          8           0        3.434124    3.295079   -0.963120
      6          6           0        3.728583    4.101112   -2.078079
      7          6           0        5.013272    4.014775   -2.604299
      8          6           0        5.338696    4.759965   -3.742927
      9          6           0        4.392636    5.579156   -4.376635
     10          6           0        3.104303    5.637133   -3.825468
     11          6           0        2.767769    4.896535   -2.691499
     12          7           0        4.759526    6.295120   -5.533778
     13          6           0        3.682719    6.561829   -6.488342
     14          6           0        5.580473    7.464539   -5.207564
     15          6           0        1.617233    3.156147    2.209826
     16          1           0        3.241721    1.164165   -0.000939
     17          1           0        2.407040    0.756096    1.510090
     18          1           0        3.972017    1.624814    1.557763
     19          1           0        5.752652    3.370326   -2.145024
     20          1           0        6.339932    4.674714   -4.163005
     21          1           0        2.334899    6.270184   -4.252794
     22          1           0        1.750447    4.959037   -2.310029
     23          1           0        3.153540    5.637043   -6.747821
     24          1           0        4.100147    6.962876   -7.417366
     25          1           0        2.964882    7.296096   -6.105608
     26          1           0        6.534022    7.170893   -4.756160
     27          1           0        5.055943    8.145050   -4.526171
     28          1           0        5.818531    8.023881   -6.119756
     29          1           0        2.335780    3.277473    3.025691
     30          1           0        0.904641    2.365480    2.459689
     31          1           0        1.068821    4.093584    2.081586
 ---------------------------------------------------------------------
                    Distance matrix (angstroms):
                    1          2          3          4          5
     1  C    0.000000
     2  N    1.450630   0.000000
     3  C    2.486169   1.387762   0.000000
     4  O    3.619150   2.300224   1.228167   0.000000
     5  O    2.697770   2.314465   1.397358   2.325776   0.000000
     6  C    4.097718   3.634371   2.438657   2.823610   1.406957
     7  C    4.830044   4.662760   3.611568   4.074299   2.388543
     8  C    6.209640   5.958847   4.796797   5.030294   3.674318
     9  C    6.893483   6.407757   5.115911   5.071180   4.217563
    10  C    6.364257   5.667090   4.332463   4.103888   3.713090
    11  C    5.030284   4.283983   2.965564   2.847258   2.448670
    12  N    8.295613   7.811810   6.506790   6.381958   5.625642
    13  C    9.071467   8.503611   7.192349   6.963787   6.423515
    14  C    8.985134   8.432305   7.102258   6.857832   6.325071
    15  C    2.478675   1.449809   2.444278   2.773362   3.658960
    16  H    1.093155   2.109596   2.665355   3.881709   2.345976
    17  H    1.093271   2.086702   3.334118   4.364287   3.690271
    18  H    1.093634   2.076883   2.966593   4.046413   3.071476
    19  H    4.569170   4.686557   3.882033   4.559374   2.603484
    20  H    6.914654   6.808880   5.723451   6.023813   4.537221
    21  H    7.136648   6.313261   4.980465   4.550649   4.569628
    22  H    4.961532   4.012537   2.760859   2.395390   2.723544
    23  H    8.794690   8.305716   7.064641   6.944173   6.247102
    24  H   10.101099   9.570573   8.260926   8.037080   7.453430
    25  H    9.177980   8.449494   7.104276   6.696273   6.532497
    26  H    8.813567   8.374230   7.105314   6.976236   6.246475
    27  H    8.881892   8.173576   6.812060   6.394816   6.232804
    28  H   10.058193   9.509480   8.173500   7.902162   7.391743
    29  H    2.767642   2.077860   3.038008   3.369131   4.137304
    30  H    2.709278   2.080375   3.244313   3.642985   4.356382
    31  H    3.417022   2.117278   2.559239   2.371191   3.937322
                    6          7          8          9         10
     6  C    0.000000
     7  C    1.390966   0.000000
     8  C    2.407960   1.399172   0.000000
     9  C    2.812284   2.444105   1.402744   0.000000
    10  C    2.408828   2.787016   2.401822   1.402479   0.000000
    11  C    1.390017   2.413998   2.780974   2.438411   1.395573
    12  N    4.221181   3.721049   2.428844   1.409323   2.468002
    13  C    5.050510   4.831527   3.677809   2.434941   2.877591
    14  C    4.953364   4.358850   3.085181   2.378249   3.373577
    15  C    4.872052   5.953665   7.201166   7.546874   6.692641
    16  H    3.630042   4.247571   5.597281   6.321667   5.886710
    17  H    5.080410   5.860003   7.226324   7.864987   7.264907
    18  H    4.405753   4.911098   6.308272   7.143586   6.769845
    19  H    2.152994   1.083020   2.157719   3.421792   3.869891
    20  H    3.390439   2.150607   1.089131   2.157688   3.392562
    21  H    3.372924   3.870154   3.400518   2.174198   1.084133
    22  H    2.168608   3.409436   3.868897   3.411242   2.142264
    23  H    4.949368   4.822772   3.817533   2.676047   2.922768
    24  H    6.069246   5.717580   4.459633   3.353547   3.956139
    25  H    5.197322   5.217484   4.201098   2.824131   2.823232
    26  H    4.946328   4.111480   2.875417   2.695033   3.870605
    27  H    4.910038   4.555720   3.486004   2.654459   3.254156
    28  H    6.007591   5.392570   4.066043   3.323903   4.281046
    29  H    5.354134   6.277688   7.551787   8.020152   7.286769
    30  H    5.619467   6.726440   7.991674   8.320406   7.419261
    31  H    4.937328   6.125555   7.252644   7.413723   6.435761
                   11         12         13         14         15
    11  C    0.000000
    12  N    3.741882   0.000000
    13  C    4.245746   1.463503   0.000000
    14  C    4.564705   1.465576   2.461046   0.000000
    15  C    5.326882   8.926957   9.566767   9.449190   0.000000
    16  H    4.625401   7.696930   8.450779   8.501378   3.390345
    17  H    5.909883   9.264505   9.965381  10.010033   2.621769
    18  H    5.496417   8.527712   9.444449   9.080703   2.883605
    19  H    3.396686   4.585234   5.773624   5.115797   6.009350
    20  H    3.869740   2.646208   4.003646   3.074249   8.076070
    21  H    2.124130   2.742327   2.626662   3.587732   7.209558
    22  H    1.088288   4.607845   4.874518   5.416858   4.867982
    23  H    4.141366   2.118055   1.096626   3.406191   9.420962
    24  H    5.327177   2.104420   1.094610   2.706706  10.646074
    25  H    4.177665   2.133001   1.095867   2.770591   9.386255
    26  H    4.860061   2.126148   3.391364   1.095103   9.424328
    27  H    4.376598   2.127294   2.870967   1.096596   9.060217
    28  H    5.553412   2.110326   2.614411   1.096189  10.522722
    29  H    5.957704   9.393894  10.154707   9.790099   1.093922
    30  H    6.034255   9.705551  10.266174  10.327177   1.093332
    31  H    5.129668   8.744246   9.293458   9.211409   1.093612
                   16         17         18         19         20
    16  H    0.000000
    17  H    1.773815   0.000000
    18  H    1.781875   1.790557   0.000000
    19  H    3.971023   5.602426   4.464091   0.000000
    20  H    6.264636   7.937708   6.901891   2.473575   0.000000
    21  H    6.706119   7.976290   7.617230   4.953071   4.312062
    22  H    4.685814   5.717441   5.568863   4.309162   4.957594
    23  H    8.095358   9.621538   9.260162   5.751445   4.214314
    24  H    9.453325  11.004100  10.443384   6.590507   4.565435
    25  H    8.657033  10.053937   9.586711   6.234546   4.694286
    26  H    8.338594   9.871549   8.785698   4.676845   2.573017
    27  H    8.514804   9.902009   8.983464   5.380823   3.718031
    28  H    9.546496  11.075808  10.163758   6.120328   3.913778
    29  H    3.800959   2.942697   2.750158   6.198382   8.346429
    30  H    3.599971   2.397719   3.281897   6.761384   8.873276
    31  H    4.199988   3.640915   3.846786   6.350245   8.192512
                   21         22         23         24         25
    21  H    0.000000
    22  H    2.415580   0.000000
    23  H    2.701148   4.703441   0.000000
    24  H    3.689233   5.968363   1.761304   0.000000
    25  H    2.209592   4.619862   1.788991   1.766514   0.000000
    26  H    4.324037   5.810203   4.212727   3.612346   3.817781
    27  H    3.315711   5.097869   3.852917   3.266511   2.754611
    28  H    4.323967   6.360550   3.632305   2.400493   2.945027
    29  H    7.869731   5.624961  10.087509  11.213948   9.996286
    30  H    7.896188   5.494737  10.026909  11.353570  10.095538
    31  H    6.816518   4.527682   9.202540  10.375542   8.993402
                   26         27         28         29         30
    26  H    0.000000
    27  H    1.785104   0.000000
    28  H    1.760373   1.770802   0.000000
    29  H    9.661323   9.387397  10.876449   0.000000
    30  H   10.336847   9.971910  11.391695   1.788924   0.000000
    31  H    9.278633   8.716305  10.260068   1.778358   1.776587
                   31
    31  H    0.000000
 Stoichiometry    C11H16N2O2
 Framework group  C1[X(C11H16N2O2)]
 Deg. of freedom    87
 Full point group                 C1      NOp   1
 Largest Abelian subgroup         C1      NOp   1
 Largest concise Abelian subgroup C1      NOp   1
                         Standard orientation:                         
 ---------------------------------------------------------------------
 Center     Atomic      Atomic             Coordinates (Angstroms)
 Number     Number       Type             X           Y           Z
 ---------------------------------------------------------------------
      1          6           0        4.242124    1.249941   -0.562290
      2          7           0        3.846284   -0.056950   -0.072727
      3          6           0        2.518421   -0.395558    0.146382
      4          8           0        2.174145   -1.461975    0.648997
      5          8           0        1.638808    0.616382   -0.247151
      6          6           0        0.246194    0.431474   -0.169926
      7          6           0       -0.527446    1.545082    0.140147
      8          6           0       -1.920619    1.421877    0.179776
      9          6           0       -2.556086    0.203897   -0.103770
     10          6           0       -1.747349   -0.897148   -0.420934
     11          6           0       -0.356976   -0.785424   -0.465717
     12          7           0       -3.963236    0.132174   -0.072547
     13          6           0       -4.572665   -0.854483   -0.965264
     14          6           0       -4.471828    0.098502    1.301539
     15          6           0        4.886129   -0.911050    0.466887
     16          1           0        3.488975    1.665824   -1.236676
     17          1           0        5.185259    1.163247   -1.108387
     18          1           0        4.366931    1.920088    0.292907
     19          1           0       -0.058957    2.501007    0.339289
     20          1           0       -2.523560    2.300723    0.404051
     21          1           0       -2.175088   -1.872099   -0.625514
     22          1           0        0.228901   -1.662311   -0.734398
     23          1           0       -4.206620   -0.730593   -1.991545
     24          1           0       -5.657458   -0.710890   -0.993112
     25          1           0       -4.384641   -1.882008   -0.633959
     26          1           0       -4.235035    1.022916    1.838791
     27          1           0       -4.065168   -0.753976    1.858703
     28          1           0       -5.563881    0.003492    1.296707
     29          1           0        5.303524   -0.435550    1.359270
     30          1           0        5.669373   -1.036232   -0.285596
     31          1           0        4.503076   -1.898127    0.740634
 ---------------------------------------------------------------------
 Rotational constants (GHZ):      1.9290096      0.2362941      0.2240017
 Leave Link  202 at Wed Sep 29 20:05:40 2021, MaxMem= 1342177280 cpu:       0.1
 (Enter /sw/target/amd/app/gaussian/Gaussian09RevA.02_gcc-4.9.2/g09/l301.exe)
 Standard basis: 6-31G(d) (6D, 7F)
 Ernie: Thresh=  0.10000D-02 Tol=  0.10000D-05 Strict=F.
 There are   257 symmetry adapted basis functions of A   symmetry.
 Integral buffers will be    131072 words long.
 Raffenetti 2 integral format.
 Two-electron integral symmetry is turned on.
   257 basis functions,   484 primitive gaussians,   257 cartesian basis functions
    56 alpha electrons       56 beta electrons
       nuclear repulsion energy       978.0378308375 Hartrees.
 IExCor=  402 DFT=T Ex+Corr=B3LYP ExCW=0 ScaHFX=  0.200000
 ScaDFX=  0.800000  0.720000  1.000000  0.810000 ScalE2=  1.000000  1.000000
 IRadAn=      0 IRanWt=     -1 IRanGd=            0 ICorTp=0
 NAtoms=   31 NActive=   31 NUniq=   31 SFac= 7.50D-01 NAtFMM=   80 NAOKFM=F Big=F
 Leave Link  301 at Wed Sep 29 20:05:40 2021, MaxMem= 1342177280 cpu:       0.1
 (Enter /sw/target/amd/app/gaussian/Gaussian09RevA.02_gcc-4.9.2/g09/l302.exe)
 NPDir=0 NMtPBC=     1 NCelOv=     1 NCel=       1 NClECP=     1 NCelD=      1
         NCelK=      1 NCelE2=     1 NClLst=     1 CellRange=     0.0.
 One-electron integrals computed using PRISM.
 NBasis=   257 RedAO= T  NBF=   257
 NBsUse=   257 1.00D-06 NBFU=   257
 Precomputing XC quadrature grid using
 IXCGrd= 2 IRadAn=           0 IRanWt=          -1 IRanGd=           0 AccXCQ= 1.00D-10.
 NRdTot=    1973 NPtTot=      251816 NUsed=      266043 NTot=      266075
 NSgBfM=   256   256   256   256   256 NAtAll=    31    31.
 Leave Link  302 at Wed Sep 29 20:05:45 2021, MaxMem= 1342177280 cpu:       2.7
 (Enter /sw/target/amd/app/gaussian/Gaussian09RevA.02_gcc-4.9.2/g09/l303.exe)
 DipDrv:  MaxL=1.
 Leave Link  303 at Wed Sep 29 20:05:47 2021, MaxMem= 1342177280 cpu:       0.2
 (Enter /sw/target/amd/app/gaussian/Gaussian09RevA.02_gcc-4.9.2/g09/l401.exe)
 Harris functional with IExCor=  402 diagonalized for initial guess.
 ExpMin= 1.61D-01 ExpMax= 5.48D+03 ExpMxC= 8.25D+02 IAcc=1 IRadAn=         1 AccDes= 0.00D+00
 HarFok:  IExCor=  402 AccDes= 0.00D+00 IRadAn=         1 IDoV= 1
 ScaDFX=  1.000000  1.000000  1.000000  1.000000
 FoFCou: FMM=F IPFlag=           0 FMFlag=      100000 FMFlg1=           0
         NFxFlg=           0 DoJE=T BraDBF=F KetDBF=T FulRan=T
         Omega=  0.000000  0.000000  1.000000  0.000000  0.000000 ICntrl=     500 IOpCl=  0
         NMat0=    1 NMatS0=    1 NMatT0=    0 NMatD0=    1 NMtDS0=    0 NMtDT0=    0
         I1Cent=           4 NGrid=           0.
 Petite list used in FoFCou.
 Harris En= -688.854759968996    
 Initial guess orbital symmetries:
       Occupied  (A) (A) (A) (A) (A) (A) (A) (A) (A) (A) (A) (A)
                 (A) (A) (A) (A) (A) (A) (A) (A) (A) (A) (A) (A)
                 (A) (A) (A) (A) (A) (A) (A) (A) (A) (A) (A) (A)
                 (A) (A) (A) (A) (A) (A) (A) (A) (A) (A) (A) (A)
                 (A) (A) (A) (A) (A) (A) (A) (A)
       Virtual   (A) (A) (A) (A) (A) (A) (A) (A) (A) (A) (A) (A)
                 (A) (A) (A) (A) (A) (A) (A) (A) (A) (A) (A) (A)
                 (A) (A) (A) (A) (A) (A) (A) (A) (A) (A) (A) (A)
                 (A) (A) (A) (A) (A) (A) (A) (A) (A) (A) (A) (A)
                 (A) (A) (A) (A) (A) (A) (A) (A) (A) (A) (A) (A)
                 (A) (A) (A) (A) (A) (A) (A) (A) (A) (A) (A) (A)
                 (A) (A) (A) (A) (A) (A) (A) (A) (A) (A) (A) (A)
                 (A) (A) (A) (A) (A) (A) (A) (A) (A) (A) (A) (A)
                 (A) (A) (A) (A) (A) (A) (A) (A) (A) (A) (A) (A)
                 (A) (A) (A) (A) (A) (A) (A) (A) (A) (A) (A) (A)
                 (A) (A) (A) (A) (A) (A) (A) (A) (A) (A) (A) (A)
                 (A) (A) (A) (A) (A) (A) (A) (A) (A) (A) (A) (A)
                 (A) (A) (A) (A) (A) (A) (A) (A) (A) (A) (A) (A)
                 (A) (A) (A) (A) (A) (A) (A) (A) (A) (A) (A) (A)
                 (A) (A) (A) (A) (A) (A) (A) (A) (A) (A) (A) (A)
                 (A) (A) (A) (A) (A) (A) (A) (A) (A) (A) (A) (A)
                 (A) (A) (A) (A) (A) (A) (A) (A) (A)
 The electronic state of the initial guess is 1-A.
 Leave Link  401 at Wed Sep 29 20:06:00 2021, MaxMem= 1342177280 cpu:      10.6
 (Enter /sw/target/amd/app/gaussian/Gaussian09RevA.02_gcc-4.9.2/g09/l502.exe)
 Closed shell SCF:
 Requested convergence on RMS density matrix=1.00D-08 within  64 cycles.
 Requested convergence on MAX density matrix=1.00D-06.
 Requested convergence on             energy=1.00D-06.
 No special actions if energy rises.
 Using DIIS extrapolation, IDIIS=  1040.
 Integral symmetry usage will be decided dynamically.
       265751 words used for storage of precomputed grid.
 Keep R1 ints in memory in canonical form, NReq=558636853.
 IEnd=      472931 IEndB=      472931 NGot=  1342177280 MDV=   792197571
 LenX=   792197571 LenY=   792131081
 Symmetry not used in FoFDir.
 MinBra= 0 MaxBra= 2 Meth= 1.
 IRaf=       0 NMat=   1 IRICut=       1 DoRegI=T DoRafI=F ISym2E= 0 JSym2E=0.
 Integral accuracy reduced to 1.0D-05 until final iterations.

 Cycle   1  Pass 0  IDiag  1:
 E= -688.333329489140    
 DIIS: error= 3.29D-02 at cycle   1 NSaved=   1.
 NSaved= 1 IEnMin= 1 EnMin= -688.333329489140     IErMin= 1 ErrMin= 3.29D-02
 ErrMax= 3.29D-02 EMaxC= 1.00D-01 BMatC= 4.28D-01 BMatP= 4.28D-01
 IDIUse=3 WtCom= 6.71D-01 WtEn= 3.29D-01
 Coeff-Com:  0.100D+01
 Coeff-En:   0.100D+01
 Coeff:      0.100D+01
 Gap=     0.224 Goal=   None    Shift=    0.000
 GapD=    0.224 DampG=1.000 DampE=0.500 DampFc=0.5000 IDamp=-1.
 Damping current iteration by 5.00D-01
 RMSDP=5.70D-03 MaxDP=2.18D-01              OVMax= 2.16D-01

 Cycle   2  Pass 0  IDiag  1:
 E= -688.475137139808     Delta-E=       -0.141807650668 Rises=F Damp=T
 DIIS: error= 9.60D-03 at cycle   2 NSaved=   2.
 NSaved= 2 IEnMin= 2 EnMin= -688.475137139808     IErMin= 2 ErrMin= 9.60D-03
 ErrMax= 9.60D-03 EMaxC= 1.00D-01 BMatC= 5.72D-02 BMatP= 4.28D-01
 IDIUse=3 WtCom= 9.04D-01 WtEn= 9.60D-02
 Coeff-Com:  0.183D+00 0.817D+00
 Coeff-En:   0.271D+00 0.729D+00
 Coeff:      0.191D+00 0.809D+00
 Gap=     0.209 Goal=   None    Shift=    0.000
 RMSDP=1.78D-03 MaxDP=7.30D-02 DE=-1.42D-01 OVMax= 1.74D-01

 Cycle   3  Pass 0  IDiag  1:
 E= -688.689248449257     Delta-E=       -0.214111309449 Rises=F Damp=F
 DIIS: error= 1.31D-02 at cycle   3 NSaved=   3.
 NSaved= 3 IEnMin= 3 EnMin= -688.689248449257     IErMin= 2 ErrMin= 9.60D-03
 ErrMax= 1.31D-02 EMaxC= 1.00D-01 BMatC= 7.33D-02 BMatP= 5.72D-02
 IDIUse=2 WtCom= 0.00D+00 WtEn= 1.00D+00
 Coeff-En:   0.000D+00 0.000D+00 0.100D+01
 Coeff:      0.000D+00 0.000D+00 0.100D+01
 Gap=     0.207 Goal=   None    Shift=    0.000
 RMSDP=3.10D-03 MaxDP=1.62D-01 DE=-2.14D-01 OVMax= 2.97D-01

 Cycle   4  Pass 0  IDiag  1:
 E= -688.390463507924     Delta-E=        0.298784941333 Rises=F Damp=F
 DIIS: error= 3.15D-02 at cycle   4 NSaved=   4.
 NSaved= 4 IEnMin= 3 EnMin= -688.689248449257     IErMin= 2 ErrMin= 9.60D-03
 ErrMax= 3.15D-02 EMaxC= 1.00D-01 BMatC= 4.52D-01 BMatP= 5.72D-02
 IDIUse=2 WtCom= 0.00D+00 WtEn= 1.00D+00
 Coeff-En:   0.000D+00 0.000D+00 0.801D+00 0.199D+00
 Coeff:      0.000D+00 0.000D+00 0.801D+00 0.199D+00
 Gap=     0.240 Goal=   None    Shift=    0.000
 RMSDP=1.66D-03 MaxDP=8.66D-02 DE= 2.99D-01 OVMax= 1.32D-01

 Cycle   5  Pass 0  IDiag  1:
 E= -688.725208742767     Delta-E=       -0.334745234843 Rises=F Damp=F
 DIIS: error= 8.17D-03 at cycle   5 NSaved=   5.
 NSaved= 5 IEnMin= 5 EnMin= -688.725208742767     IErMin= 5 ErrMin= 8.17D-03
 ErrMax= 8.17D-03 EMaxC= 1.00D-01 BMatC= 3.16D-02 BMatP= 5.72D-02
 IDIUse=3 WtCom= 9.18D-01 WtEn= 8.17D-02
 Coeff-Com: -0.669D-02 0.493D-01 0.314D+00-0.819D-01 0.725D+00
 Coeff-En:   0.000D+00 0.000D+00 0.338D+00 0.000D+00 0.662D+00
 Coeff:     -0.614D-02 0.453D-01 0.316D+00-0.752D-01 0.720D+00
 Gap=     0.202 Goal=   None    Shift=    0.000
 RMSDP=6.15D-04 MaxDP=2.83D-02 DE=-3.35D-01 OVMax= 3.83D-02

 Cycle   6  Pass 0  IDiag  1:
 E= -688.750707114655     Delta-E=       -0.025498371888 Rises=F Damp=F
 DIIS: error= 8.70D-04 at cycle   6 NSaved=   6.
 NSaved= 6 IEnMin= 6 EnMin= -688.750707114655     IErMin= 6 ErrMin= 8.70D-04
 ErrMax= 8.70D-04 EMaxC= 1.00D-01 BMatC= 3.56D-04 BMatP= 3.16D-02
 IDIUse=3 WtCom= 9.91D-01 WtEn= 8.70D-03
 Coeff-Com: -0.717D-02 0.263D-01 0.169D+00-0.661D-01 0.478D+00 0.400D+00
 Coeff-En:   0.000D+00 0.000D+00 0.000D+00 0.000D+00 0.000D+00 0.100D+01
 Coeff:     -0.711D-02 0.261D-01 0.168D+00-0.655D-01 0.474D+00 0.405D+00
 Gap=     0.199 Goal=   None    Shift=    0.000
 RMSDP=8.24D-05 MaxDP=2.92D-03 DE=-2.55D-02 OVMax= 6.55D-03

 Cycle   7  Pass 0  IDiag  1:
 E= -688.751032953724     Delta-E=       -0.000325839069 Rises=F Damp=F
 DIIS: error= 1.90D-04 at cycle   7 NSaved=   7.
 NSaved= 7 IEnMin= 7 EnMin= -688.751032953724     IErMin= 7 ErrMin= 1.90D-04
 ErrMax= 1.90D-04 EMaxC= 1.00D-01 BMatC= 1.05D-05 BMatP= 3.56D-04
 IDIUse=3 WtCom= 9.98D-01 WtEn= 1.90D-03
 Coeff-Com: -0.107D-02 0.219D-02 0.335D-01-0.138D-01 0.934D-01 0.152D+00
 Coeff-Com:  0.734D+00
 Coeff-En:   0.000D+00 0.000D+00 0.000D+00 0.000D+00 0.000D+00 0.000D+00
 Coeff-En:   0.100D+01
 Coeff:     -0.107D-02 0.218D-02 0.334D-01-0.138D-01 0.932D-01 0.152D+00
 Coeff:      0.734D+00
 Gap=     0.199 Goal=   None    Shift=    0.000
 RMSDP=1.63D-05 MaxDP=5.13D-04 DE=-3.26D-04 OVMax= 1.46D-03

 Cycle   8  Pass 0  IDiag  1:
 E= -688.751042625960     Delta-E=       -0.000009672236 Rises=F Damp=F
 DIIS: error= 5.49D-05 at cycle   8 NSaved=   8.
 NSaved= 8 IEnMin= 8 EnMin= -688.751042625960     IErMin= 8 ErrMin= 5.49D-05
 ErrMax= 5.49D-05 EMaxC= 1.00D-01 BMatC= 1.50D-06 BMatP= 1.05D-05
 IDIUse=1 WtCom= 1.00D+00 WtEn= 0.00D+00
 Coeff-Com: -0.171D-03-0.351D-03 0.113D-01-0.454D-02 0.295D-01 0.698D-01
 Coeff-Com:  0.452D+00 0.442D+00
 Coeff:     -0.171D-03-0.351D-03 0.113D-01-0.454D-02 0.295D-01 0.698D-01
 Coeff:      0.452D+00 0.442D+00
 Gap=     0.199 Goal=   None    Shift=    0.000
 RMSDP=4.88D-06 MaxDP=1.98D-04 DE=-9.67D-06 OVMax= 4.83D-04

 Initial convergence to 1.0D-05 achieved.  Increase integral accuracy.
 Cycle   9  Pass 1  IDiag  1:
 E= -688.751124558964     Delta-E=       -0.000081933005 Rises=F Damp=F
 DIIS: error= 1.82D-05 at cycle   1 NSaved=   1.
 NSaved= 1 IEnMin= 1 EnMin= -688.751124558964     IErMin= 1 ErrMin= 1.82D-05
 ErrMax= 1.82D-05 EMaxC= 1.00D-01 BMatC= 1.23D-07 BMatP= 1.23D-07
 IDIUse=1 WtCom= 1.00D+00 WtEn= 0.00D+00
 Coeff-Com:  0.100D+01
 Coeff:      0.100D+01
 Gap=     0.199 Goal=   None    Shift=    0.000
 RMSDP=4.88D-06 MaxDP=1.98D-04 DE=-8.19D-05 OVMax= 1.93D-04

 Cycle  10  Pass 1  IDiag  1:
 E= -688.751124571784     Delta-E=       -0.000000012820 Rises=F Damp=F
 DIIS: error= 2.01D-05 at cycle   2 NSaved=   2.
 NSaved= 2 IEnMin= 2 EnMin= -688.751124571784     IErMin= 1 ErrMin= 1.82D-05
 ErrMax= 2.01D-05 EMaxC= 1.00D-01 BMatC= 1.51D-07 BMatP= 1.23D-07
 IDIUse=1 WtCom= 1.00D+00 WtEn= 0.00D+00
 Coeff-Com:  0.533D+00 0.467D+00
 Coeff:      0.533D+00 0.467D+00
 Gap=     0.199 Goal=   None    Shift=    0.000
 RMSDP=2.05D-06 MaxDP=6.73D-05 DE=-1.28D-08 OVMax= 1.67D-04

 Cycle  11  Pass 1  IDiag  1:
 E= -688.751124687699     Delta-E=       -0.000000115915 Rises=F Damp=F
 DIIS: error= 8.67D-06 at cycle   3 NSaved=   3.
 NSaved= 3 IEnMin= 3 EnMin= -688.751124687699     IErMin= 3 ErrMin= 8.67D-06
 ErrMax= 8.67D-06 EMaxC= 1.00D-01 BMatC= 2.74D-08 BMatP= 1.23D-07
 IDIUse=1 WtCom= 1.00D+00 WtEn= 0.00D+00
 Coeff-Com:  0.168D-01 0.295D+00 0.689D+00
 Coeff:      0.168D-01 0.295D+00 0.689D+00
 Gap=     0.199 Goal=   None    Shift=    0.000
 RMSDP=7.79D-07 MaxDP=3.00D-05 DE=-1.16D-07 OVMax= 5.17D-05

 Cycle  12  Pass 1  IDiag  1:
 E= -688.751124711045     Delta-E=       -0.000000023346 Rises=F Damp=F
 DIIS: error= 2.76D-06 at cycle   4 NSaved=   4.
 NSaved= 4 IEnMin= 4 EnMin= -688.751124711045     IErMin= 4 ErrMin= 2.76D-06
 ErrMax= 2.76D-06 EMaxC= 1.00D-01 BMatC= 4.37D-09 BMatP= 2.74D-08
 IDIUse=1 WtCom= 1.00D+00 WtEn= 0.00D+00
 Coeff-Com: -0.151D-01 0.171D+00 0.457D+00 0.387D+00
 Coeff:     -0.151D-01 0.171D+00 0.457D+00 0.387D+00
 Gap=     0.199 Goal=   None    Shift=    0.000
 RMSDP=2.29D-07 MaxDP=1.28D-05 DE=-2.33D-08 OVMax= 1.55D-05

 Cycle  13  Pass 1  IDiag  1:
 E= -688.751124714424     Delta-E=       -0.000000003378 Rises=F Damp=F
 DIIS: error= 3.64D-07 at cycle   5 NSaved=   5.
 NSaved= 5 IEnMin= 5 EnMin= -688.751124714424     IErMin= 5 ErrMin= 3.64D-07
 ErrMax= 3.64D-07 EMaxC= 1.00D-01 BMatC= 9.87D-11 BMatP= 4.37D-09
 IDIUse=1 WtCom= 1.00D+00 WtEn= 0.00D+00
 Coeff-Com: -0.918D-02 0.599D-01 0.174D+00 0.187D+00 0.588D+00
 Coeff:     -0.918D-02 0.599D-01 0.174D+00 0.187D+00 0.588D+00
 Gap=     0.199 Goal=   None    Shift=    0.000
 RMSDP=4.57D-08 MaxDP=1.40D-06 DE=-3.38D-09 OVMax= 2.49D-06

 Cycle  14  Pass 1  IDiag  1:
 E= -688.751124714501     Delta-E=       -0.000000000077 Rises=F Damp=F
 DIIS: error= 1.21D-07 at cycle   6 NSaved=   6.
 NSaved= 6 IEnMin= 6 EnMin= -688.751124714501     IErMin= 6 ErrMin= 1.21D-07
 ErrMax= 1.21D-07 EMaxC= 1.00D-01 BMatC= 1.04D-11 BMatP= 9.87D-11
 IDIUse=1 WtCom= 1.00D+00 WtEn= 0.00D+00
 Coeff-Com: -0.403D-02 0.226D-01 0.686D-01 0.804D-01 0.330D+00 0.503D+00
 Coeff:     -0.403D-02 0.226D-01 0.686D-01 0.804D-01 0.330D+00 0.503D+00
 Gap=     0.199 Goal=   None    Shift=    0.000
 RMSDP=1.73D-08 MaxDP=5.63D-07 DE=-7.73D-11 OVMax= 1.24D-06

 Cycle  15  Pass 1  IDiag  1:
 E= -688.751124714479     Delta-E=        0.000000000022 Rises=F Damp=F
 DIIS: error= 4.75D-08 at cycle   7 NSaved=   7.
 NSaved= 7 IEnMin= 6 EnMin= -688.751124714501     IErMin= 7 ErrMin= 4.75D-08
 ErrMax= 4.75D-08 EMaxC= 1.00D-01 BMatC= 1.43D-12 BMatP= 1.04D-11
 IDIUse=1 WtCom= 1.00D+00 WtEn= 0.00D+00
 Coeff-Com: -0.731D-03 0.239D-02 0.885D-02 0.134D-01 0.857D-01 0.294D+00
 Coeff-Com:  0.597D+00
 Coeff:     -0.731D-03 0.239D-02 0.885D-02 0.134D-01 0.857D-01 0.294D+00
 Coeff:      0.597D+00
 Gap=     0.199 Goal=   None    Shift=    0.000
 RMSDP=6.05D-09 MaxDP=1.82D-07 DE= 2.21D-11 OVMax= 4.15D-07

 SCF Done:  E(RB3LYP) =  -688.751124714     A.U. after   15 cycles
             Convg  =    0.6051D-08             -V/T =  2.0097
 KE= 6.821538213018D+02 PE=-3.558385899263D+03 EE= 1.209443122409D+03
 Leave Link  502 at Wed Sep 29 20:14:14 2021, MaxMem= 1342177280 cpu:     259.3
 (Enter /sw/target/amd/app/gaussian/Gaussian09RevA.02_gcc-4.9.2/g09/l508.exe)
 QCSCF skips out because SCF is already converged.
 Leave Link  508 at Wed Sep 29 20:14:16 2021, MaxMem= 1342177280 cpu:       0.0
 (Enter /sw/target/amd/app/gaussian/Gaussian09RevA.02_gcc-4.9.2/g09/l601.exe)
 Copying SCF densities to generalized density rwf, IOpCl= 0 IROHF=0.

 **********************************************************************

            Population analysis using the SCF density.

 **********************************************************************

 Orbital symmetries:
       Occupied  (A) (A) (A) (A) (A) (A) (A) (A) (A) (A) (A) (A)
                 (A) (A) (A) (A) (A) (A) (A) (A) (A) (A) (A) (A)
                 (A) (A) (A) (A) (A) (A) (A) (A) (A) (A) (A) (A)
                 (A) (A) (A) (A) (A) (A) (A) (A) (A) (A) (A) (A)
                 (A) (A) (A) (A) (A) (A) (A) (A)
       Virtual   (A) (A) (A) (A) (A) (A) (A) (A) (A) (A) (A) (A)
                 (A) (A) (A) (A) (A) (A) (A) (A) (A) (A) (A) (A)
                 (A) (A) (A) (A) (A) (A) (A) (A) (A) (A) (A) (A)
                 (A) (A) (A) (A) (A) (A) (A) (A) (A) (A) (A) (A)
                 (A) (A) (A) (A) (A) (A) (A) (A) (A) (A) (A) (A)
                 (A) (A) (A) (A) (A) (A) (A) (A) (A) (A) (A) (A)
                 (A) (A) (A) (A) (A) (A) (A) (A) (A) (A) (A) (A)
                 (A) (A) (A) (A) (A) (A) (A) (A) (A) (A) (A) (A)
                 (A) (A) (A) (A) (A) (A) (A) (A) (A) (A) (A) (A)
                 (A) (A) (A) (A) (A) (A) (A) (A) (A) (A) (A) (A)
                 (A) (A) (A) (A) (A) (A) (A) (A) (A) (A) (A) (A)
                 (A) (A) (A) (A) (A) (A) (A) (A) (A) (A) (A) (A)
                 (A) (A) (A) (A) (A) (A) (A) (A) (A) (A) (A) (A)
                 (A) (A) (A) (A) (A) (A) (A) (A) (A) (A) (A) (A)
                 (A) (A) (A) (A) (A) (A) (A) (A) (A) (A) (A) (A)
                 (A) (A) (A) (A) (A) (A) (A) (A) (A) (A) (A) (A)
                 (A) (A) (A) (A) (A) (A) (A) (A) (A)
 The electronic state is 1-A.
 Alpha  occ. eigenvalues --  -19.19228 -19.11360 -14.36716 -14.32993 -10.33293
 Alpha  occ. eigenvalues --  -10.24210 -10.21996 -10.21653 -10.21074 -10.20440
 Alpha  occ. eigenvalues --  -10.20403 -10.18647 -10.18282 -10.18128 -10.18044
 Alpha  occ. eigenvalues --   -1.09041  -1.00523  -0.93588  -0.92937  -0.83815
 Alpha  occ. eigenvalues --   -0.74658  -0.74188  -0.72422  -0.70715  -0.69622
 Alpha  occ. eigenvalues --   -0.64553  -0.61245  -0.59014  -0.55516  -0.52718
 Alpha  occ. eigenvalues --   -0.50131  -0.48618  -0.48122  -0.46774  -0.45579
 Alpha  occ. eigenvalues --   -0.44828  -0.43944  -0.42940  -0.42241  -0.41557
 Alpha  occ. eigenvalues --   -0.41000  -0.40740  -0.40067  -0.39480  -0.38925
 Alpha  occ. eigenvalues --   -0.37633  -0.37117  -0.35965  -0.35696  -0.33970
 Alpha  occ. eigenvalues --   -0.31169  -0.26719  -0.24583  -0.24255  -0.23769
 Alpha  occ. eigenvalues --   -0.19496
 Alpha virt. eigenvalues --    0.00446   0.01011   0.05108   0.08884   0.09329
 Alpha virt. eigenvalues --    0.10964   0.12585   0.13054   0.13887   0.14221
 Alpha virt. eigenvalues --    0.15035   0.15935   0.16264   0.16485   0.16793
 Alpha virt. eigenvalues --    0.17157   0.17348   0.17827   0.18599   0.19373
 Alpha virt. eigenvalues --    0.20227   0.20703   0.23138   0.23611   0.24592
 Alpha virt. eigenvalues --    0.26206   0.27965   0.33128   0.34211   0.35207
 Alpha virt. eigenvalues --    0.35855   0.36776   0.39745   0.48152   0.48566
 Alpha virt. eigenvalues --    0.49418   0.49769   0.51398   0.51961   0.52616
 Alpha virt. eigenvalues --    0.53797   0.54566   0.56442   0.56748   0.57239
 Alpha virt. eigenvalues --    0.58410   0.59237   0.60015   0.60375   0.60780
 Alpha virt. eigenvalues --    0.62386   0.63904   0.64321   0.65893   0.67518
 Alpha virt. eigenvalues --    0.69567   0.69902   0.72068   0.72658   0.73562
 Alpha virt. eigenvalues --    0.76104   0.78602   0.79225   0.80067   0.80839
 Alpha virt. eigenvalues --    0.81814   0.82908   0.84004   0.84968   0.85092
 Alpha virt. eigenvalues --    0.87422   0.87766   0.88002   0.88616   0.88854
 Alpha virt. eigenvalues --    0.89465   0.90645   0.91037   0.92028   0.92607
 Alpha virt. eigenvalues --    0.94864   0.96285   0.96760   0.97267   0.98455
 Alpha virt. eigenvalues --    0.99142   0.99603   1.02020   1.04217   1.05284
 Alpha virt. eigenvalues --    1.06833   1.09221   1.10965   1.13753   1.15691
 Alpha virt. eigenvalues --    1.16508   1.18498   1.20220   1.23628   1.24841
 Alpha virt. eigenvalues --    1.28039   1.31850   1.34782   1.36795   1.37815
 Alpha virt. eigenvalues --    1.39982   1.40825   1.42040   1.42623   1.44510
 Alpha virt. eigenvalues --    1.46761   1.49102   1.49521   1.51980   1.52808
 Alpha virt. eigenvalues --    1.54335   1.59949   1.66366   1.68230   1.74023
 Alpha virt. eigenvalues --    1.76596   1.77145   1.78766   1.80126   1.81908
 Alpha virt. eigenvalues --    1.84832   1.85729   1.87320   1.90096   1.91540
 Alpha virt. eigenvalues --    1.92649   1.94357   1.95643   1.96129   1.98779
 Alpha virt. eigenvalues --    1.99239   2.00904   2.01426   2.03089   2.04768
 Alpha virt. eigenvalues --    2.06375   2.07127   2.07804   2.09384   2.09992
 Alpha virt. eigenvalues --    2.11457   2.13560   2.16068   2.17035   2.20013
 Alpha virt. eigenvalues --    2.20522   2.23794   2.24392   2.25536   2.26882
 Alpha virt. eigenvalues --    2.28218   2.29835   2.31586   2.33445   2.36129
 Alpha virt. eigenvalues --    2.42257   2.44019   2.44457   2.47161   2.52162
 Alpha virt. eigenvalues --    2.55411   2.57341   2.58745   2.59716   2.63903
 Alpha virt. eigenvalues --    2.65106   2.66721   2.68445   2.71316   2.75896
 Alpha virt. eigenvalues --    2.76449   2.77604   2.84981   2.87888   2.92708
 Alpha virt. eigenvalues --    2.96116   2.99048   3.10501   3.19645   3.27816
 Alpha virt. eigenvalues --    3.44291   3.99104   4.07596   4.09689   4.11538
 Alpha virt. eigenvalues --    4.13248   4.19940   4.23875   4.26343   4.29426
 Alpha virt. eigenvalues --    4.32600   4.35349   4.37055   4.49789   4.51400
 Alpha virt. eigenvalues --    4.79415
          Condensed to atoms (all electrons):
              1          2          3          4          5          6
     1  C    4.970953   0.287232  -0.028694   0.002655  -0.001719   0.000270
     2  N    0.287232   6.942724   0.327943  -0.088204  -0.087630   0.001800
     3  C   -0.028694   0.327943   4.160091   0.547473   0.258100  -0.011446
     4  O    0.002655  -0.088204   0.547473   8.102123  -0.069561  -0.001901
     5  O   -0.001719  -0.087630   0.258100  -0.069561   8.350310   0.203856
     6  C    0.000270   0.001800  -0.011446  -0.001901   0.203856   4.524326
     7  C   -0.000022  -0.000229   0.000297   0.000185  -0.048641   0.539280
     8  C    0.000000   0.000001  -0.000016   0.000001   0.003104  -0.017996
     9  C    0.000000   0.000000   0.000016   0.000004   0.000171  -0.033950
    10  C   -0.000000  -0.000001   0.000303  -0.000035   0.003803  -0.013178
    11  C    0.000016   0.000148  -0.001845  -0.001263  -0.047284   0.514255
    12  N   -0.000000   0.000000   0.000000   0.000000   0.000000   0.000287
    13  C    0.000000  -0.000000  -0.000000  -0.000000  -0.000000  -0.000000
    14  C   -0.000000   0.000000  -0.000000   0.000000  -0.000000   0.000028
    15  C   -0.052299   0.303364  -0.031108  -0.006911   0.002347  -0.000013
    16  H    0.376693  -0.027818  -0.005283   0.000103   0.009434   0.000105
    17  H    0.372323  -0.038394   0.002731  -0.000057   0.000346  -0.000002
    18  H    0.378584  -0.054640  -0.002142   0.000016   0.000744   0.000031
    19  H    0.000028  -0.000024   0.000032   0.000013  -0.000852  -0.039066
    20  H   -0.000000  -0.000000  -0.000000  -0.000000  -0.000051   0.004286
    21  H    0.000000  -0.000000  -0.000016  -0.000008  -0.000055   0.003585
    22  H   -0.000003  -0.000241   0.001249   0.010821  -0.006773  -0.032600
    23  H   -0.000000   0.000000  -0.000000  -0.000000   0.000000  -0.000008
    24  H   -0.000000   0.000000  -0.000000   0.000000  -0.000000  -0.000000
    25  H    0.000000  -0.000000   0.000000   0.000000   0.000000  -0.000002
    26  H   -0.000000   0.000000  -0.000000   0.000000  -0.000000  -0.000003
    27  H    0.000000  -0.000000   0.000000  -0.000000   0.000000  -0.000019
    28  H    0.000000  -0.000000   0.000000   0.000000   0.000000  -0.000000
    29  H    0.000629  -0.055411  -0.000961   0.000728   0.000001   0.000001
    30  H   -0.003489  -0.045247   0.003315   0.000494  -0.000032   0.000000
    31  H    0.004212  -0.028279  -0.002203   0.016420   0.000286  -0.000006
              7          8          9         10         11         12
     1  C   -0.000022   0.000000   0.000000  -0.000000   0.000016  -0.000000
     2  N   -0.000229   0.000001   0.000000  -0.000001   0.000148   0.000000
     3  C    0.000297  -0.000016   0.000016   0.000303  -0.001845   0.000000
     4  O    0.000185   0.000001   0.000004  -0.000035  -0.001263   0.000000
     5  O   -0.048641   0.003104   0.000171   0.003803  -0.047284   0.000000
     6  C    0.539280  -0.017996  -0.033950  -0.013178   0.514255   0.000287
     7  C    5.001814   0.499203  -0.021633  -0.040536  -0.064660   0.005131
     8  C    0.499203   4.980741   0.550135  -0.057995  -0.040149  -0.067883
     9  C   -0.021633   0.550135   4.583406   0.509779  -0.010282   0.305154
    10  C   -0.040536  -0.057995   0.509779   5.076097   0.460915  -0.080250
    11  C   -0.064660  -0.040149  -0.010282   0.460915   5.022285   0.006539
    12  N    0.005131  -0.067883   0.305154  -0.080250   0.006539   6.902346
    13  C   -0.000148   0.004782  -0.048318  -0.007587   0.000161   0.325221
    14  C   -0.000128  -0.007638  -0.048396  -0.000872  -0.000084   0.323207
    15  C    0.000003  -0.000000  -0.000000  -0.000000  -0.000002  -0.000000
    16  H   -0.000008  -0.000001   0.000000   0.000000   0.000006  -0.000000
    17  H   -0.000000   0.000000  -0.000000   0.000000   0.000001  -0.000000
    18  H   -0.000004   0.000000   0.000000  -0.000000  -0.000003   0.000000
    19  H    0.345385  -0.037558   0.003993   0.000140   0.006811  -0.000108
    20  H   -0.041507   0.346542  -0.039029   0.007458   0.000001  -0.002120
    21  H    0.000611   0.005335  -0.043054   0.355699  -0.040997  -0.011322
    22  H    0.005319   0.000472   0.003009  -0.034509   0.345934  -0.000116
    23  H   -0.000035   0.000284  -0.000064   0.002044  -0.000032  -0.035032
    24  H    0.000002  -0.000111   0.003686   0.000340   0.000005  -0.036697
    25  H    0.000017  -0.000176  -0.005113   0.002048  -0.000276  -0.052189
    26  H   -0.000221   0.003552  -0.002525  -0.000531   0.000030  -0.037677
    27  H    0.000047   0.000793  -0.000913   0.005621  -0.000348  -0.056093
    28  H    0.000002   0.000118   0.005068  -0.000142   0.000006  -0.033887
    29  H   -0.000000   0.000000   0.000000  -0.000000  -0.000001  -0.000000
    30  H   -0.000000  -0.000000  -0.000000   0.000000   0.000000   0.000000
    31  H    0.000000  -0.000000  -0.000000   0.000000  -0.000000  -0.000000
             13         14         15         16         17         18
     1  C    0.000000  -0.000000  -0.052299   0.376693   0.372323   0.378584
     2  N   -0.000000   0.000000   0.303364  -0.027818  -0.038394  -0.054640
     3  C   -0.000000  -0.000000  -0.031108  -0.005283   0.002731  -0.002142
     4  O   -0.000000   0.000000  -0.006911   0.000103  -0.000057   0.000016
     5  O   -0.000000  -0.000000   0.002347   0.009434   0.000346   0.000744
     6  C   -0.000000   0.000028  -0.000013   0.000105  -0.000002   0.000031
     7  C   -0.000148  -0.000128   0.000003  -0.000008  -0.000000  -0.000004
     8  C    0.004782  -0.007638  -0.000000  -0.000001   0.000000   0.000000
     9  C   -0.048318  -0.048396  -0.000000   0.000000  -0.000000   0.000000
    10  C   -0.007587  -0.000872  -0.000000   0.000000   0.000000  -0.000000
    11  C    0.000161  -0.000084  -0.000002   0.000006   0.000001  -0.000003
    12  N    0.325221   0.323207  -0.000000  -0.000000  -0.000000   0.000000
    13  C    4.974547  -0.057435   0.000000   0.000000   0.000000  -0.000000
    14  C   -0.057435   4.987387   0.000000   0.000000   0.000000  -0.000000
    15  C    0.000000   0.000000   4.966648   0.003803  -0.004073   0.000949
    16  H    0.000000   0.000000   0.003803   0.507120  -0.023188  -0.031311
    17  H    0.000000   0.000000  -0.004073  -0.023188   0.571062  -0.040294
    18  H   -0.000000  -0.000000   0.000949  -0.031311  -0.040294   0.587267
    19  H    0.000003   0.000001   0.000000   0.000059   0.000000   0.000009
    20  H   -0.000060   0.000376   0.000000   0.000000  -0.000000  -0.000000
    21  H    0.004780   0.000203   0.000000   0.000000   0.000000   0.000000
    22  H   -0.000003  -0.000000   0.000010   0.000003   0.000001  -0.000001
    23  H    0.380549   0.005186   0.000000   0.000000   0.000000  -0.000000
    24  H    0.378228  -0.003128   0.000000   0.000000   0.000000  -0.000000
    25  H    0.353373  -0.003968  -0.000000  -0.000000  -0.000000   0.000000
    26  H    0.005118   0.382038   0.000000   0.000000   0.000000  -0.000000
    27  H   -0.003754   0.357752  -0.000000  -0.000000  -0.000000   0.000000
    28  H   -0.002877   0.368523  -0.000000  -0.000000  -0.000000   0.000000
    29  H   -0.000000  -0.000000   0.381431  -0.000217  -0.002047   0.005701
    30  H    0.000000   0.000000   0.376513   0.000206   0.006572  -0.001265
    31  H    0.000000  -0.000000   0.372010  -0.000176   0.000089  -0.000223
             19         20         21         22         23         24
     1  C    0.000028  -0.000000   0.000000  -0.000003  -0.000000  -0.000000
     2  N   -0.000024  -0.000000  -0.000000  -0.000241   0.000000   0.000000
     3  C    0.000032  -0.000000  -0.000016   0.001249  -0.000000  -0.000000
     4  O    0.000013  -0.000000  -0.000008   0.010821  -0.000000   0.000000
     5  O   -0.000852  -0.000051  -0.000055  -0.006773   0.000000  -0.000000
     6  C   -0.039066   0.004286   0.003585  -0.032600  -0.000008  -0.000000
     7  C    0.345385  -0.041507   0.000611   0.005319  -0.000035   0.000002
     8  C   -0.037558   0.346542   0.005335   0.000472   0.000284  -0.000111
     9  C    0.003993  -0.039029  -0.043054   0.003009  -0.000064   0.003686
    10  C    0.000140   0.007458   0.355699  -0.034509   0.002044   0.000340
    11  C    0.006811   0.000001  -0.040997   0.345934  -0.000032   0.000005
    12  N   -0.000108  -0.002120  -0.011322  -0.000116  -0.035032  -0.036697
    13  C    0.000003  -0.000060   0.004780  -0.000003   0.380549   0.378228
    14  C    0.000001   0.000376   0.000203  -0.000000   0.005186  -0.003128
    15  C    0.000000   0.000000   0.000000   0.000010   0.000000   0.000000
    16  H    0.000059   0.000000   0.000000   0.000003   0.000000   0.000000
    17  H    0.000000  -0.000000   0.000000   0.000001   0.000000   0.000000
    18  H    0.000009  -0.000000   0.000000  -0.000001  -0.000000  -0.000000
    19  H    0.592233  -0.006692   0.000015  -0.000157   0.000000  -0.000000
    20  H   -0.006692   0.599270  -0.000172   0.000013  -0.000017  -0.000024
    21  H    0.000015  -0.000172   0.596778  -0.005744   0.000060  -0.000142
    22  H   -0.000157   0.000013  -0.005744   0.553098  -0.000005  -0.000000
    23  H    0.000000  -0.000017   0.000060  -0.000005   0.550259  -0.024527
    24  H   -0.000000  -0.000024  -0.000142  -0.000000  -0.024527   0.571487
    25  H   -0.000000   0.000031   0.004132   0.000016  -0.041519  -0.044799
    26  H    0.000007   0.000658  -0.000015  -0.000000  -0.000164   0.000199
    27  H   -0.000002   0.000400   0.000440   0.000006  -0.000391  -0.001220
    28  H   -0.000000  -0.000150  -0.000035  -0.000000   0.000091   0.004749
    29  H    0.000000  -0.000000   0.000000  -0.000001  -0.000000  -0.000000
    30  H   -0.000000  -0.000000  -0.000000   0.000000   0.000000   0.000000
    31  H   -0.000000   0.000000   0.000000   0.000009  -0.000000  -0.000000
             25         26         27         28         29         30
     1  C    0.000000  -0.000000   0.000000   0.000000   0.000629  -0.003489
     2  N   -0.000000   0.000000  -0.000000  -0.000000  -0.055411  -0.045247
     3  C    0.000000  -0.000000   0.000000   0.000000  -0.000961   0.003315
     4  O    0.000000   0.000000  -0.000000   0.000000   0.000728   0.000494
     5  O    0.000000  -0.000000   0.000000   0.000000   0.000001  -0.000032
     6  C   -0.000002  -0.000003  -0.000019  -0.000000   0.000001   0.000000
     7  C    0.000017  -0.000221   0.000047   0.000002  -0.000000  -0.000000
     8  C   -0.000176   0.003552   0.000793   0.000118   0.000000  -0.000000
     9  C   -0.005113  -0.002525  -0.000913   0.005068   0.000000  -0.000000
    10  C    0.002048  -0.000531   0.005621  -0.000142  -0.000000   0.000000
    11  C   -0.000276   0.000030  -0.000348   0.000006  -0.000001   0.000000
    12  N   -0.052189  -0.037677  -0.056093  -0.033887  -0.000000   0.000000
    13  C    0.353373   0.005118  -0.003754  -0.002877  -0.000000   0.000000
    14  C   -0.003968   0.382038   0.357752   0.368523  -0.000000   0.000000
    15  C   -0.000000   0.000000  -0.000000  -0.000000   0.381431   0.376513
    16  H   -0.000000   0.000000  -0.000000  -0.000000  -0.000217   0.000206
    17  H   -0.000000   0.000000  -0.000000  -0.000000  -0.002047   0.006572
    18  H    0.000000  -0.000000   0.000000   0.000000   0.005701  -0.001265
    19  H   -0.000000   0.000007  -0.000002  -0.000000   0.000000  -0.000000
    20  H    0.000031   0.000658   0.000400  -0.000150  -0.000000  -0.000000
    21  H    0.004132  -0.000015   0.000440  -0.000035   0.000000  -0.000000
    22  H    0.000016  -0.000000   0.000006  -0.000000  -0.000001   0.000000
    23  H   -0.041519  -0.000164  -0.000391   0.000091  -0.000000   0.000000
    24  H   -0.044799   0.000199  -0.001220   0.004749  -0.000000   0.000000
    25  H    0.649537  -0.000449   0.009798  -0.001263   0.000000  -0.000000
    26  H   -0.000449   0.559958  -0.042226  -0.026508  -0.000000   0.000000
    27  H    0.009798  -0.042226   0.631691  -0.038623   0.000000  -0.000000
    28  H   -0.001263  -0.026508  -0.038623   0.578681   0.000000  -0.000000
    29  H    0.000000  -0.000000   0.000000   0.000000   0.585513  -0.042645
    30  H   -0.000000   0.000000  -0.000000  -0.000000  -0.042645   0.574557
    31  H   -0.000000   0.000000   0.000000  -0.000000  -0.027283  -0.022769
             31
     1  C    0.004212
     2  N   -0.028279
     3  C   -0.002203
     4  O    0.016420
     5  O    0.000286
     6  C   -0.000006
     7  C    0.000000
     8  C   -0.000000
     9  C   -0.000000
    10  C    0.000000
    11  C   -0.000000
    12  N   -0.000000
    13  C    0.000000
    14  C   -0.000000
    15  C    0.372010
    16  H   -0.000176
    17  H    0.000089
    18  H   -0.000223
    19  H   -0.000000
    20  H    0.000000
    21  H    0.000000
    22  H    0.000009
    23  H   -0.000000
    24  H   -0.000000
    25  H   -0.000000
    26  H    0.000000
    27  H    0.000000
    28  H   -0.000000
    29  H   -0.027283
    30  H   -0.022769
    31  H    0.484268
 Mulliken atomic charges:
              1
     1  C   -0.307369
     2  N   -0.437095
     3  C    0.782165
     4  O   -0.513096
     5  O   -0.569905
     6  C    0.358083
     7  C   -0.179523
     8  C   -0.165541
     9  C    0.288856
    10  C   -0.188610
    11  C   -0.149886
    12  N   -0.454509
    13  C   -0.306577
    14  C   -0.303049
    15  C   -0.312671
    16  H    0.190467
    17  H    0.154929
    18  H    0.156582
    19  H    0.135728
    20  H    0.130787
    21  H    0.129922
    22  H    0.160194
    23  H    0.163320
    24  H    0.151952
    25  H    0.130804
    26  H    0.158760
    27  H    0.137041
    28  H    0.146247
    29  H    0.154560
    30  H    0.153789
    31  H    0.203644
 Sum of Mulliken atomic charges =  -0.00000
 Mulliken charges with hydrogens summed into heavy atoms:
              1
     1  C    0.194609
     2  N   -0.437095
     3  C    0.782165
     4  O   -0.513096
     5  O   -0.569905
     6  C    0.358083
     7  C   -0.043794
     8  C   -0.034754
     9  C    0.288856
    10  C   -0.058688
    11  C    0.010308
    12  N   -0.454509
    13  C    0.139498
    14  C    0.139000
    15  C    0.199322
 Sum of Mulliken charges with hydrogens summed into heavy atoms =  -0.00000
 Electronic spatial extent (au):  <R**2>=           4943.5107
 Charge=             -0.0000 electrons
 Dipole moment (field-independent basis, Debye):
    X=              0.9215    Y=              1.1075    Z=             -0.5414  Tot=              1.5391
 Quadrupole moment (field-independent basis, Debye-Ang):
   XX=            -66.2533   YY=            -87.9400   ZZ=            -89.7008
   XY=              6.4495   XZ=             -3.0079   YZ=              3.7453
 Traceless Quadrupole moment (field-independent basis, Debye-Ang):
   XX=             15.0447   YY=             -6.6420   ZZ=             -8.4027
   XY=              6.4495   XZ=             -3.0079   YZ=              3.7453
 Octapole moment (field-independent basis, Debye-Ang**2):
  XXX=             71.4982  YYY=              5.9012  ZZZ=              0.5638  XYY=              3.9152
  XXY=             -9.2212  XXZ=              3.8771  XZZ=              4.4673  YZZ=              0.0484
  YYZ=             -1.3372  XYZ=             -5.6976
 Hexadecapole moment (field-independent basis, Debye-Ang**3):
 XXXX=          -4989.5600 YYYY=           -592.3056 ZZZZ=           -304.9651 XXXY=             46.5657
 XXXZ=            -32.0345 YYYX=             -4.2338 YYYZ=              7.8768 ZZZX=              5.8958
 ZZZY=             -3.0492 XXYY=          -1032.2367 XXZZ=           -961.9252 YYZZ=           -155.0411
 XXYZ=             13.7398 YYXZ=             -8.8633 ZZXY=              3.6447
 N-N= 9.780378308375D+02 E-N=-3.558385906568D+03  KE= 6.821538213018D+02
 No NMR shielding tensors so no spin-rotation constants.
 Leave Link  601 at Wed Sep 29 20:14:18 2021, MaxMem= 1342177280 cpu:       1.7
 (Enter /sw/target/amd/app/gaussian/Gaussian09RevA.02_gcc-4.9.2/g09/l701.exe)
 Compute integral first derivatives.
 ... and contract with generalized density number  0.
 Leave Link  701 at Wed Sep 29 20:14:21 2021, MaxMem= 1342177280 cpu:       1.6
 (Enter /sw/target/amd/app/gaussian/Gaussian09RevA.02_gcc-4.9.2/g09/l702.exe)
 L702 exits ... SP integral derivatives will be done elsewhere.
 Leave Link  702 at Wed Sep 29 20:14:21 2021, MaxMem= 1342177280 cpu:       0.1
 (Enter /sw/target/amd/app/gaussian/Gaussian09RevA.02_gcc-4.9.2/g09/l703.exe)
 Compute integral first derivatives, UseDBF=F ICtDFT=           0.
 Integral derivatives from FoFDir, PRISM(SPDF).
 Calling FoFJK, ICntrl=      2127 FMM=F ISym2X=0 I1Cent= 0 IOpClX= 0 NMat=1 NMatS=1 NMatT=0.
 FoFCou: FMM=F IPFlag=           0 FMFlag=      100000 FMFlg1=         800
         NFxFlg=           0 DoJE=F BraDBF=F KetDBF=F FulRan=T
         Omega=  0.000000  0.000000  1.000000  0.000000  0.000000 ICntrl=    2127 IOpCl=  0
         NMat0=    1 NMatS0=    1 NMatT0=    0 NMatD0=    1 NMtDS0=    0 NMtDT0=    0
         I1Cent=           0 NGrid=           0.
 Symmetry not used in FoFCou.
 Leave Link  703 at Wed Sep 29 20:16:30 2021, MaxMem= 1342177280 cpu:     112.3
 (Enter /sw/target/amd/app/gaussian/Gaussian09RevA.02_gcc-4.9.2/g09/l716.exe)
 Dipole        = 3.62563892D-01 4.35728483D-01-2.13007043D-01
 ***** Axes restored to original set *****
 -------------------------------------------------------------------
 Center     Atomic                   Forces (Hartrees/Bohr)
 Number     Number              X              Y              Z
 -------------------------------------------------------------------
      1        6           0.002672403    0.001532814   -0.001093883
      2        7           0.001482695    0.011006211   -0.030866358
      3        6          -0.005742307    0.010892999    0.008356053
      4        8           0.009256702   -0.016204662   -0.003807246
      5        8          -0.006707665    0.000392020    0.009120858
      6        6          -0.009399524   -0.002527397    0.010016682
      7        6           0.002814432    0.005638284   -0.004429487
      8        6           0.001972755   -0.005485320    0.003800116
      9        6          -0.005639454   -0.007668891    0.006806069
     10        6          -0.000341766   -0.002806181    0.003985288
     11        6          -0.007609840    0.002896256   -0.004479301
     12        7           0.006562124    0.001377750   -0.011030585
     13        6           0.005205392    0.002100427    0.002861290
     14        6           0.000039998    0.001860028   -0.008446518
     15        6           0.000111684    0.001518716    0.000371149
     16        1          -0.000565849    0.002623119    0.001941883
     17        1           0.000112614   -0.000282068    0.001665925
     18        1           0.004343048   -0.006923748    0.002337790
     19        1           0.000293507   -0.000895344    0.002133309
     20        1          -0.002137171    0.000655224   -0.000290148
     21        1           0.000741861   -0.000136723   -0.002724664
     22        1           0.005755049   -0.001175058    0.001335629
     23        1           0.001142886    0.000753988    0.004121678
     24        1           0.002817844    0.000727622    0.000864598
     25        1          -0.006225456    0.003090895   -0.001375156
     26        1          -0.002462642   -0.001781610    0.001770557
     27        1          -0.000170222    0.004052959    0.003534841
     28        1          -0.000593781   -0.001672228   -0.001159483
     29        1          -0.001299462    0.000145292    0.006423910
     30        1          -0.000452813   -0.001377224    0.002644625
     31        1           0.004022960   -0.002328150   -0.004389424
 -------------------------------------------------------------------
 Cartesian Forces:  Max     0.030866358 RMS     0.005670954
 Leave Link  716 at Wed Sep 29 20:16:30 2021, MaxMem= 1342177280 cpu:       0.0
 (Enter /sw/target/amd/app/gaussian/Gaussian09RevA.02_gcc-4.9.2/g09/l103.exe)

 GradGradGradGradGradGradGradGradGradGradGradGradGradGradGradGradGradGrad
 Berny optimization.
 Internal  Forces:  Max     0.020526392 RMS     0.004638728
 Search for a local minimum.
 Step number   1 out of a maximum of  153
 All quantities printed in internal units (Hartrees-Bohrs-Radians)
 RMS Force = .46387D-02 SwitMx=.10000D-02 MixMth= 1
 Mixed Optimization -- RFO/linear search
 Second derivative matrix not updated -- first step.
     Eigenvalues ---    0.00824   0.00852   0.01022   0.01033   0.01326
     Eigenvalues ---    0.01568   0.01600   0.01727   0.01812   0.01854
     Eigenvalues ---    0.01904   0.02063   0.02079   0.02098   0.02108
     Eigenvalues ---    0.02129   0.02154   0.02184   0.02205   0.02364
     Eigenvalues ---    0.07118   0.07135   0.07402   0.07446   0.07468
     Eigenvalues ---    0.07511   0.07725   0.07756   0.15991   0.15998
     Eigenvalues ---    0.15999   0.16000   0.16000   0.16000   0.16000
     Eigenvalues ---    0.16000   0.16000   0.16000   0.16000   0.16000
     Eigenvalues ---    0.16000   0.16000   0.16000   0.16000   0.18853
     Eigenvalues ---    0.20262   0.21997   0.22971   0.23990   0.24322
     Eigenvalues ---    0.24565   0.24945   0.24998   0.24999   0.25000
     Eigenvalues ---    0.25000   0.34058   0.34061   0.34107   0.34143
     Eigenvalues ---    0.34230   0.34285   0.34363   0.34396   0.34398
     Eigenvalues ---    0.34430   0.34437   0.34451   0.34913   0.35011
     Eigenvalues ---    0.35500   0.35632   0.36275   0.36529   0.38163
     Eigenvalues ---    0.38270   0.41689   0.42152   0.44110   0.44487
     Eigenvalues ---    0.45359   0.46061   0.46093   0.46405   0.47075
     Eigenvalues ---    0.47710   0.918541000.000001000.000001000.00000
     Eigenvalues --- 1000.000001000.000001000.000001000.000001000.00000
     Eigenvalues --- 1000.000001000.000001000.000001000.000001000.00000
     Eigenvalues --- 1000.000001000.000001000.000001000.000001000.00000
     Eigenvalues --- 1000.000001000.000001000.000001000.000001000.00000
     Eigenvalues --- 1000.000001000.000001000.000001000.000001000.00000
     Eigenvalues --- 1000.000001000.000001000.000001000.000001000.00000
     Eigenvalues --- 1000.000001000.000001000.000001000.000001000.00000
     Eigenvalues --- 1000.000001000.000001000.000001000.000001000.00000
     Eigenvalues --- 1000.000001000.000001000.000001000.000001000.00000
     Eigenvalues --- 1000.000001000.000001000.000001000.000001000.00000
     Eigenvalues --- 1000.000001000.000001000.00000
 RFO step:  Lambda=-1.13017379D-02 EMin= 8.24341152D-03
 Linear search not attempted -- first point.
 Maximum step size (   0.300) exceeded in Quadratic search.
    -- Step size scaled by   0.977
 Iteration  1 RMS(Cart)=  0.09517855 RMS(Int)=  0.00252430
 Iteration  2 RMS(Cart)=  0.00456413 RMS(Int)=  0.00017816
 Iteration  3 RMS(Cart)=  0.00000651 RMS(Int)=  0.00017810
 Iteration  4 RMS(Cart)=  0.00000000 RMS(Int)=  0.00017810
 Variable       Old X    -DE/DX   Delta X   Delta X   Delta X     New X
                                 (Linear)    (Quad)   (Total)
    R1        2.74129   0.00584   0.00000   0.01453   0.01453   2.75582
    R2        2.06576  -0.00274   0.00000  -0.00751  -0.00751   2.05825
    R3        2.06598   0.00088   0.00000   0.00243   0.00243   2.06841
    R4        2.06667   0.00415   0.00000   0.01142   0.01142   2.07808
    R5        2.62249  -0.02053   0.00000  -0.04107  -0.04107   2.58142
    R6        2.73974   0.00248   0.00000   0.00614   0.00614   2.74588
    R7        2.32090  -0.01868   0.00000  -0.01963  -0.01963   2.30127
    R8        2.64062  -0.02022   0.00000  -0.04187  -0.04187   2.59876
    R9        2.65876  -0.00786   0.00000  -0.01685  -0.01685   2.64192
   R10        2.62855   0.00131   0.00000   0.00248   0.00248   2.63102
   R11        2.62675   0.00262   0.00000   0.00568   0.00570   2.63245
   R12        2.64405  -0.00583   0.00000  -0.01274  -0.01276   2.63129
   R13        2.04661   0.00164   0.00000   0.00435   0.00435   2.05096
   R14        2.65080   0.00057   0.00000   0.00079   0.00076   2.65157
   R15        2.05816  -0.00190   0.00000  -0.00516  -0.00516   2.05300
   R16        2.65030   0.00226   0.00000   0.00495   0.00495   2.65525
   R17        2.66324   0.01426   0.00000   0.03079   0.03079   2.69403
   R18        2.63725   0.00122   0.00000   0.00309   0.00311   2.64036
   R19        2.04871   0.00047   0.00000   0.00125   0.00125   2.04996
   R20        2.05657  -0.00498   0.00000  -0.01346  -0.01346   2.04311
   R21        2.76562  -0.00516   0.00000  -0.01339  -0.01339   2.75223
[...]
 Integrated density= 1.0456267243026335D+02 error=-7.4373275697366523D+00
 Molar volume = 1791.064 bohr**3/mol (159.833 cm**3/mol)
 Recommended a0 for SCRF calculation =  4.89 angstrom (  9.24 bohr)
 Leave Link  604 at Thu Sep 30 10:32:16 2021, MaxMem= 1342177280 cpu:       0.4
 (Enter /sw/target/amd/app/gaussian/Gaussian09RevA.02_gcc-4.9.2/g09/l607.exe)
 ******************************Gaussian NBO Version 3.1******************************
             N A T U R A L   A T O M I C   O R B I T A L   A N D
          N A T U R A L   B O N D   O R B I T A L   A N A L Y S I S
 ******************************Gaussian NBO Version 3.1******************************
       /RESON  / : Allow strongly delocalized NBO set

 Analyzing the CI density

 Job title: CN(C(=O)Oc1ccc(cc1)N(C)C)C_conf_0                               

 Storage needed:    201318 in NPA (1342172165 available)


 NATURAL POPULATIONS:  Natural atomic orbital occupancies 
                                                          
   NAO  Atom  No  lang   Type(AO)    Occupancy
 --------------------------------------------
     1    C    1  S      Cor( 1S)     1.99946
     2    C    1  S      Val( 2S)     1.08431
     3    C    1  S      Ryd( 3S)     0.00098
     4    C    1  S      Ryd( 4S)     0.00002
     5    C    1  px     Val( 2p)     1.23443
     6    C    1  px     Ryd( 3p)     0.00301
     7    C    1  py     Val( 2p)     0.99158
     8    C    1  py     Ryd( 3p)     0.00160
     9    C    1  pz     Val( 2p)     1.14861
    10    C    1  pz     Ryd( 3p)     0.00118
    11    C    1  dxy    Ryd( 3d)     0.00093
    12    C    1  dxz    Ryd( 3d)     0.00120
    13    C    1  dyz    Ryd( 3d)     0.00121
    14    C    1  dx2y2  Ryd( 3d)     0.00076
    15    C    1  dz2    Ryd( 3d)     0.00058

    16    N    2  S      Cor( 1S)     1.99932
    17    N    2  S      Val( 2S)     1.20532
    18    N    2  S      Ryd( 3S)     0.00114
    19    N    2  S      Ryd( 4S)     0.00004
    20    N    2  px     Val( 2p)     1.29751
    21    N    2  px     Ryd( 3p)     0.00090
    22    N    2  py     Val( 2p)     1.39768
    23    N    2  py     Ryd( 3p)     0.00232
    24    N    2  pz     Val( 2p)     1.57897
    25    N    2  pz     Ryd( 3p)     0.00364
    26    N    2  dxy    Ryd( 3d)     0.00060
    27    N    2  dxz    Ryd( 3d)     0.00066
    28    N    2  dyz    Ryd( 3d)     0.00053
    29    N    2  dx2y2  Ryd( 3d)     0.00068
    30    N    2  dz2    Ryd( 3d)     0.00043

    31    C    3  S      Cor( 1S)     1.99937
    32    C    3  S      Val( 2S)     0.69370
    33    C    3  S      Ryd( 3S)     0.00253
    34    C    3  S      Ryd( 4S)     0.00044
    35    C    3  px     Val( 2p)     0.77604
    36    C    3  px     Ryd( 3p)     0.00585
    37    C    3  py     Val( 2p)     0.74867
    38    C    3  py     Ryd( 3p)     0.01691
    39    C    3  pz     Val( 2p)     0.79284
    40    C    3  pz     Ryd( 3p)     0.00773
    41    C    3  dxy    Ryd( 3d)     0.00336
    42    C    3  dxz    Ryd( 3d)     0.00284
    43    C    3  dyz    Ryd( 3d)     0.00135
    44    C    3  dx2y2  Ryd( 3d)     0.00228
    45    C    3  dz2    Ryd( 3d)     0.00191

    46    O    4  S      Cor( 1S)     1.99978
    47    O    4  S      Val( 2S)     1.70431
    48    O    4  S      Ryd( 3S)     0.00044
    49    O    4  S      Ryd( 4S)     0.00012
    50    O    4  px     Val( 2p)     1.79726
    51    O    4  px     Ryd( 3p)     0.00085
    52    O    4  py     Val( 2p)     1.57025
    53    O    4  py     Ryd( 3p)     0.00056
    54    O    4  pz     Val( 2p)     1.55185
    55    O    4  pz     Ryd( 3p)     0.00075
    56    O    4  dxy    Ryd( 3d)     0.00356
    57    O    4  dxz    Ryd( 3d)     0.00178
    58    O    4  dyz    Ryd( 3d)     0.00416
    59    O    4  dx2y2  Ryd( 3d)     0.00369
    60    O    4  dz2    Ryd( 3d)     0.00307

    61    O    5  S      Cor( 1S)     1.99969
    62    O    5  S      Val( 2S)     1.59551
    63    O    5  S      Ryd( 3S)     0.00086
    64    O    5  S      Ryd( 4S)     0.00013
    65    O    5  px     Val( 2p)     1.43808
    66    O    5  px     Ryd( 3p)     0.00077
    67    O    5  py     Val( 2p)     1.75678
    68    O    5  py     Ryd( 3p)     0.00196
    69    O    5  pz     Val( 2p)     1.74929
    70    O    5  pz     Ryd( 3p)     0.00135
    71    O    5  dxy    Ryd( 3d)     0.00104
    72    O    5  dxz    Ryd( 3d)     0.00070
    73    O    5  dyz    Ryd( 3d)     0.00115
    74    O    5  dx2y2  Ryd( 3d)     0.00111
    75    O    5  dz2    Ryd( 3d)     0.00115

    76    C    6  S      Cor( 1S)     1.99866
    77    C    6  S      Val( 2S)     0.84219
    78    C    6  S      Ryd( 3S)     0.00126
    79    C    6  S      Ryd( 4S)     0.00011
    80    C    6  px     Val( 2p)     0.72941
    81    C    6  px     Ryd( 3p)     0.00658
    82    C    6  py     Val( 2p)     1.07820
    83    C    6  py     Ryd( 3p)     0.00603
    84    C    6  pz     Val( 2p)     0.96423
    85    C    6  pz     Ryd( 3p)     0.00222
    86    C    6  dxy    Ryd( 3d)     0.00130
    87    C    6  dxz    Ryd( 3d)     0.00133
    88    C    6  dyz    Ryd( 3d)     0.00104
    89    C    6  dx2y2  Ryd( 3d)     0.00175
    90    C    6  dz2    Ryd( 3d)     0.00087

    91    C    7  S      Cor( 1S)     1.99902
    92    C    7  S      Val( 2S)     0.94709
    93    C    7  S      Ryd( 3S)     0.00089
    94    C    7  S      Ryd( 4S)     0.00004
    95    C    7  px     Val( 2p)     1.08335
    96    C    7  px     Ryd( 3p)     0.00520
    97    C    7  py     Val( 2p)     1.16442
    98    C    7  py     Ryd( 3p)     0.00485
    99    C    7  pz     Val( 2p)     1.13935
   100    C    7  pz     Ryd( 3p)     0.00660
   101    C    7  dxy    Ryd( 3d)     0.00074
   102    C    7  dxz    Ryd( 3d)     0.00059
   103    C    7  dyz    Ryd( 3d)     0.00044
   104    C    7  dx2y2  Ryd( 3d)     0.00054
   105    C    7  dz2    Ryd( 3d)     0.00045

   106    C    8  S      Cor( 1S)     1.99909
   107    C    8  S      Val( 2S)     0.93627
   108    C    8  S      Ryd( 3S)     0.00065
   109    C    8  S      Ryd( 4S)     0.00004
   110    C    8  px     Val( 2p)     1.10279
   111    C    8  px     Ryd( 3p)     0.00373
   112    C    8  py     Val( 2p)     1.12608
   113    C    8  py     Ryd( 3p)     0.00451
   114    C    8  pz     Val( 2p)     1.15125
   115    C    8  pz     Ryd( 3p)     0.00639
   116    C    8  dxy    Ryd( 3d)     0.00077
   117    C    8  dxz    Ryd( 3d)     0.00069
   118    C    8  dyz    Ryd( 3d)     0.00045
   119    C    8  dx2y2  Ryd( 3d)     0.00052
   120    C    8  dz2    Ryd( 3d)     0.00040

   121    C    9  S      Cor( 1S)     1.99901
   122    C    9  S      Val( 2S)     0.83267
   123    C    9  S      Ryd( 3S)     0.00143
   124    C    9  S      Ryd( 4S)     0.00008
   125    C    9  px     Val( 2p)     0.86757
   126    C    9  px     Ryd( 3p)     0.00413
   127    C    9  py     Val( 2p)     1.10722
   128    C    9  py     Ryd( 3p)     0.00654
   129    C    9  pz     Val( 2p)     1.03326
   130    C    9  pz     Ryd( 3p)     0.00304
   131    C    9  dxy    Ryd( 3d)     0.00075
   132    C    9  dxz    Ryd( 3d)     0.00089
   133    C    9  dyz    Ryd( 3d)     0.00117
   134    C    9  dx2y2  Ryd( 3d)     0.00128
   135    C    9  dz2    Ryd( 3d)     0.00080

   136    C   10  S      Cor( 1S)     1.99909
   137    C   10  S      Val( 2S)     0.93623
   138    C   10  S      Ryd( 3S)     0.00069
   139    C   10  S      Ryd( 4S)     0.00004
   140    C   10  px     Val( 2p)     1.08712
   141    C   10  px     Ryd( 3p)     0.00399
   142    C   10  py     Val( 2p)     1.14476
   143    C   10  py     Ryd( 3p)     0.00429
   144    C   10  pz     Val( 2p)     1.14691
   145    C   10  pz     Ryd( 3p)     0.00622
   146    C   10  dxy    Ryd( 3d)     0.00078
   147    C   10  dxz    Ryd( 3d)     0.00070
   148    C   10  dyz    Ryd( 3d)     0.00040
   149    C   10  dx2y2  Ryd( 3d)     0.00054
   150    C   10  dz2    Ryd( 3d)     0.00043

   151    C   11  S      Cor( 1S)     1.99901
   152    C   11  S      Val( 2S)     0.94765
   153    C   11  S      Ryd( 3S)     0.00088
   154    C   11  S      Ryd( 4S)     0.00005
   155    C   11  px     Val( 2p)     1.09987
   156    C   11  px     Ryd( 3p)     0.00453
   157    C   11  py     Val( 2p)     1.14826
   158    C   11  py     Ryd( 3p)     0.00497
   159    C   11  pz     Val( 2p)     1.13488
   160    C   11  pz     Ryd( 3p)     0.00610
   161    C   11  dxy    Ryd( 3d)     0.00069
   162    C   11  dxz    Ryd( 3d)     0.00061
   163    C   11  dyz    Ryd( 3d)     0.00049
   164    C   11  dx2y2  Ryd( 3d)     0.00057
   165    C   11  dz2    Ryd( 3d)     0.00042

   166    N   12  S      Cor( 1S)     1.99933
   167    N   12  S      Val( 2S)     1.20893
   168    N   12  S      Ryd( 3S)     0.00071
   169    N   12  S      Ryd( 4S)     0.00002
   170    N   12  px     Val( 2p)     1.31091
   171    N   12  px     Ryd( 3p)     0.00106
   172    N   12  py     Val( 2p)     1.29008
   173    N   12  py     Ryd( 3p)     0.00173
   174    N   12  pz     Val( 2p)     1.43713
   175    N   12  pz     Ryd( 3p)     0.00362
   176    N   12  dxy    Ryd( 3d)     0.00066
   177    N   12  dxz    Ryd( 3d)     0.00070
   178    N   12  dyz    Ryd( 3d)     0.00057
   179    N   12  dx2y2  Ryd( 3d)     0.00082
   180    N   12  dz2    Ryd( 3d)     0.00058

   181    C   13  S      Cor( 1S)     1.99945
   182    C   13  S      Val( 2S)     1.08920
   183    C   13  S      Ryd( 3S)     0.00109
   184    C   13  S      Ryd( 4S)     0.00002
   185    C   13  px     Val( 2p)     1.17888
   186    C   13  px     Ryd( 3p)     0.00300
   187    C   13  py     Val( 2p)     0.94899
   188    C   13  py     Ryd( 3p)     0.00229
   189    C   13  pz     Val( 2p)     1.25458
   190    C   13  pz     Ryd( 3p)     0.00117
   191    C   13  dxy    Ryd( 3d)     0.00076
   192    C   13  dxz    Ryd( 3d)     0.00036
   193    C   13  dyz    Ryd( 3d)     0.00138
   194    C   13  dx2y2  Ryd( 3d)     0.00123
   195    C   13  dz2    Ryd( 3d)     0.00098

   196    C   14  S      Cor( 1S)     1.99945
   197    C   14  S      Val( 2S)     1.08898
   198    C   14  S      Ryd( 3S)     0.00109
   199    C   14  S      Ryd( 4S)     0.00002
   200    C   14  px     Val( 2p)     1.13324
   201    C   14  px     Ryd( 3p)     0.00287
   202    C   14  py     Val( 2p)     1.07972
   203    C   14  py     Ryd( 3p)     0.00213
   204    C   14  pz     Val( 2p)     1.16950
   205    C   14  pz     Ryd( 3p)     0.00147
   206    C   14  dxy    Ryd( 3d)     0.00082
   207    C   14  dxz    Ryd( 3d)     0.00051
   208    C   14  dyz    Ryd( 3d)     0.00096
   209    C   14  dx2y2  Ryd( 3d)     0.00108
   210    C   14  dz2    Ryd( 3d)     0.00136

   211    C   15  S      Cor( 1S)     1.99947
   212    C   15  S      Val( 2S)     1.08533
   213    C   15  S      Ryd( 3S)     0.00091
   214    C   15  S      Ryd( 4S)     0.00002
   215    C   15  px     Val( 2p)     1.04344
   216    C   15  px     Ryd( 3p)     0.00239
   217    C   15  py     Val( 2p)     1.14511
   218    C   15  py     Ryd( 3p)     0.00232
   219    C   15  pz     Val( 2p)     1.18287
   220    C   15  pz     Ryd( 3p)     0.00150
   221    C   15  dxy    Ryd( 3d)     0.00128
   222    C   15  dxz    Ryd( 3d)     0.00156
   223    C   15  dyz    Ryd( 3d)     0.00090
   224    C   15  dx2y2  Ryd( 3d)     0.00048
   225    C   15  dz2    Ryd( 3d)     0.00046

   226    H   16  S      Val( 1S)     0.74048
   227    H   16  S      Ryd( 2S)     0.00089

   228    H   17  S      Val( 1S)     0.77903
   229    H   17  S      Ryd( 2S)     0.00152

   230    H   18  S      Val( 1S)     0.78133
   231    H   18  S      Ryd( 2S)     0.00168

   232    H   19  S      Val( 1S)     0.76784
   233    H   19  S      Ryd( 2S)     0.00118

   234    H   20  S      Val( 1S)     0.78246
   235    H   20  S      Ryd( 2S)     0.00106

   236    H   21  S      Val( 1S)     0.78176
   237    H   21  S      Ryd( 2S)     0.00107

   238    H   22  S      Val( 1S)     0.75775
   239    H   22  S      Ryd( 2S)     0.00106

   240    H   23  S      Val( 1S)     0.74635
   241    H   23  S      Ryd( 2S)     0.00185

   242    H   24  S      Val( 1S)     0.76461
   243    H   24  S      Ryd( 2S)     0.00072

   244    H   25  S      Val( 1S)     0.75117
   245    H   25  S      Ryd( 2S)     0.00220

   246    H   26  S      Val( 1S)     0.74723
   247    H   26  S      Ryd( 2S)     0.00183

   248    H   27  S      Val( 1S)     0.75187
   249    H   27  S      Ryd( 2S)     0.00221

   250    H   28  S      Val( 1S)     0.76440
   251    H   28  S      Ryd( 2S)     0.00073

   252    H   29  S      Val( 1S)     0.78231
   253    H   29  S      Ryd( 2S)     0.00148

   254    H   30  S      Val( 1S)     0.78113
   255    H   30  S      Ryd( 2S)     0.00136

   256    H   31  S      Val( 1S)     0.73551
   257    H   31  S      Ryd( 2S)     0.00164

 WARNING:  1 low occupancy (<1.9990e) core orbital  found on  C    6


 Summary of Natural Population Analysis:                  
                                                          
                                       Natural Population 
                Natural  -----------------------------------------------
    Atom  No    Charge         Core      Valence    Rydberg      Total
 -----------------------------------------------------------------------
      C    1   -0.46987      1.99946     4.45893    0.01148     6.46987
      N    2   -0.48975      1.99932     5.47949    0.01094     7.48975
      C    3    0.94419      1.99937     3.01124    0.04519     5.05581
      O    4   -0.64243      1.99978     6.62367    0.01898     8.64243
      O    5   -0.54957      1.99969     6.53966    0.01023     8.54957
      C    6    0.36483      1.99866     3.61402    0.02249     5.63517
      C    7   -0.35356      1.99902     4.33421    0.02033     6.35356
      C    8   -0.33364      1.99909     4.31638    0.01816     6.33364
      C    9    0.14015      1.99901     3.84072    0.02011     5.85985
      C   10   -0.33220      1.99909     4.31502    0.01809     6.33220
      C   11   -0.34899      1.99901     4.33066    0.01931     6.34899
      N   12   -0.25685      1.99933     5.24704    0.01047     7.25685
      C   13   -0.48339      1.99945     4.47166    0.01229     6.48339
      C   14   -0.48319      1.99945     4.47144    0.01230     6.48319
      C   15   -0.46803      1.99947     4.45675    0.01181     6.46803
      H   16    0.25863      0.00000     0.74048    0.00089     0.74137
      H   17    0.21945      0.00000     0.77903    0.00152     0.78055
      H   18    0.21699      0.00000     0.78133    0.00168     0.78301
      H   19    0.23099      0.00000     0.76784    0.00118     0.76901
      H   20    0.21648      0.00000     0.78246    0.00106     0.78352
      H   21    0.21717      0.00000     0.78176    0.00107     0.78283
      H   22    0.24119      0.00000     0.75775    0.00106     0.75881
      H   23    0.25180      0.00000     0.74635    0.00185     0.74820
      H   24    0.23466      0.00000     0.76461    0.00072     0.76534
      H   25    0.24663      0.00000     0.75117    0.00220     0.75337
      H   26    0.25095      0.00000     0.74723    0.00183     0.74905
      H   27    0.24591      0.00000     0.75187    0.00221     0.75409
      H   28    0.23487      0.00000     0.76440    0.00073     0.76513
      H   29    0.21622      0.00000     0.78231    0.00148     0.78378
      H   30    0.21752      0.00000     0.78113    0.00136     0.78248
      H   31    0.26284      0.00000     0.73551    0.00164     0.73716
 =======================================================================
   * Total *    0.00000     29.98921    81.72613    0.28467   112.00000

                                 Natural Population      
 --------------------------------------------------------
   Core                      29.98921 ( 99.9640% of  30)
   Valence                   81.72613 ( 99.6660% of  82)
   Natural Minimal Basis    111.71533 ( 99.7458% of 112)
   Natural Rydberg Basis      0.28467 (  0.2542% of 112)
 --------------------------------------------------------

    Atom  No          Natural Electron Configuration
 ----------------------------------------------------------------------------
      C    1      [core]2S( 1.08)2p( 3.37)3p( 0.01)
      N    2      [core]2S( 1.21)2p( 4.27)3p( 0.01)
      C    3      [core]2S( 0.69)2p( 2.32)3p( 0.03)3d( 0.01)
      O    4      [core]2S( 1.70)2p( 4.92)3d( 0.02)
      O    5      [core]2S( 1.60)2p( 4.94)3d( 0.01)
      C    6      [core]2S( 0.84)2p( 2.77)3p( 0.01)3d( 0.01)
      C    7      [core]2S( 0.95)2p( 3.39)3p( 0.02)
      C    8      [core]2S( 0.94)2p( 3.38)3p( 0.01)
      C    9      [core]2S( 0.83)2p( 3.01)3p( 0.01)
      C   10      [core]2S( 0.94)2p( 3.38)3p( 0.01)
      C   11      [core]2S( 0.95)2p( 3.38)3p( 0.02)
      N   12      [core]2S( 1.21)2p( 4.04)3p( 0.01)
      C   13      [core]2S( 1.09)2p( 3.38)3p( 0.01)
      C   14      [core]2S( 1.09)2p( 3.38)3p( 0.01)
      C   15      [core]2S( 1.09)2p( 3.37)3p( 0.01)
      H   16            1S( 0.74)
      H   17            1S( 0.78)
      H   18            1S( 0.78)
      H   19            1S( 0.77)
      H   20            1S( 0.78)
      H   21            1S( 0.78)
      H   22            1S( 0.76)
      H   23            1S( 0.75)
      H   24            1S( 0.76)
      H   25            1S( 0.75)
      H   26            1S( 0.75)
      H   27            1S( 0.75)
      H   28            1S( 0.76)
      H   29            1S( 0.78)
      H   30            1S( 0.78)
      H   31            1S( 0.74)


 NBO analysis skipped by request.
 Leave Link  607 at Thu Sep 30 10:32:42 2021, MaxMem= 1342177280 cpu:      21.3
 (Enter /sw/target/amd/app/gaussian/Gaussian09RevA.02_gcc-4.9.2/g09/l9999.exe)
 1\1\GINC-HERMITE\SP\RTD-B3LYP-FC\6-31G(d)\C11H16N2O2\JSCHLEINITZ\30-Se
 p-2021\0\\#p TD(NStates=10, Root=1) b3lyp/6-31G* volume pop=NPA densit
 y=current Geom=AllCheck Guess=Read\\CN(C(=O)Oc1ccc(cc1)N(C)C)C_conf_0\
 \0,1\C,0,3.2166398625,1.5613482749,1.097965943\N,0,2.4264034009,2.7800
 855915,1.032257447\C,0,2.518095202,3.7184507309,0.041355462\O,0,1.8846
 27579,4.756446918,-0.0007900046\O,0,3.4226611626,3.3268736748,-0.91786
 55814\C,0,3.6495420027,4.1559008006,-2.0198010658\C,0,4.9719579547,4.4
 523577321,-2.3297727313\C,0,5.2804537786,5.1966970061,-3.4654154169\C,
 0,4.2650222384,5.6641440528,-4.3284516235\C,0,2.9297807139,5.360174789
 5,-3.9788135751\C,0,2.6257026997,4.6095546257,-2.847043579\N,0,4.56783
 89933,6.3828036419,-5.4857762854\C,0,3.4931740019,7.0554818995,-6.1951
 814652\C,0,5.9128403857,6.9052216689,-5.6532871279\C,0,1.5389723721,3.
 0380757106,2.153785736\H,0,3.8006990401,1.4427066136,0.1888008376\H,0,
 2.5553474952,0.692301529,1.2130977422\H,0,3.8973086207,1.5861832579,1.
 960842448\H,0,5.7630014993,4.0977493242,-1.6757440789\H,0,6.3218367843
 ,5.4116179966,-3.6716455201\H,0,2.1091427684,5.7111612902,-4.592455728
 \H,0,1.5925824577,4.3969372464,-2.5997124805\H,0,2.745650899,6.3343412
 544,-6.5454272242\H,0,3.9047579464,7.552279054,-7.0764587877\H,0,2.975
 0840907,7.8115031376,-5.5818166662\H,0,6.6477750473,6.0921199665,-5.68
 03682355\H,0,6.2086117303,7.6041952845,-4.8531033311\H,0,5.9744277433,
 7.4318806178,-6.6080752138\H,0,2.1098225609,3.1292390386,3.0883096704\
 H,0,0.8218413207,2.2145922701,2.2686581373\H,0,1.000472236,3.966388375
 5,1.9694882361\\Version=AM64L-G09RevA.02\State=1-A\HF=-688.7597864\RMS
 D=3.943e-09\Dipole=0.7288573,0.3651247,-1.2065704\Quadrupole=-7.582460
 7,-2.2107981,9.7932588,5.3614632,-4.0419941,-17.63151\PG=C01 [X(C11H16
 N2O2)]\\@


 THOSE WHO ARE UNABLE TO LEARN FROM PAST MEETINGS
 ARE CONDEMNED TO REPEAT THEM.
 Job cpu time:  0 days  4 hours  2 minutes 35.4 seconds.
 File lengths (MBytes):  RWF=    225 Int=      0 D2E=      0 Chk=     30 Scr=      1
 Normal termination of Gaussian 09 at Thu Sep 30 10:32:49 2021.
