 Entering Gaussian System, Link 0=g09
 Input=C11H14O_50db_conf_0.com
 Output=C11H14O_50db_conf_0.log
 Initial command:
 /sw/target/amd/app/gaussian/Gaussian09RevA.02_gcc-4.9.2/g09/l1.exe /home/jschleinitz/gaussian/Gau-2244030.inp -scrdir=/home/jschleinitz/gaussian/
 Entering Link 1 = /sw/target/amd/app/gaussian/Gaussian09RevA.02_gcc-4.9.2/g09/l1.exe PID=   2244032.
  
 Copyright (c) 1988,1990,1992,1993,1995,1998,2003,2009, Gaussian, Inc.
                  All Rights Reserved.
  
 This is part of the Gaussian(R) 09 program.  It is based on
 the Gaussian(R) 03 system (copyright 2003, Gaussian, Inc.),
 the Gaussian(R) 98 system (copyright 1998, Gaussian, Inc.),
 the Gaussian(R) 94 system (copyright 1995, Gaussian, Inc.),
 the Gaussian 92(TM) system (copyright 1992, Gaussian, Inc.),
 the Gaussian 90(TM) system (copyright 1990, Gaussian, Inc.),
 the Gaussian 88(TM) system (copyright 1988, Gaussian, Inc.),
 the Gaussian 86(TM) system (copyright 1986, Carnegie Mellon
 University), and the Gaussian 82(TM) system (copyright 1983,
 Carnegie Mellon University). Gaussian is a federally registered
 trademark of Gaussian, Inc.
  
 This software contains proprietary and confidential information,
 including trade secrets, belonging to Gaussian, Inc.
  
 This software is provided under written license and may be
 used, copied, transmitted, or stored only in accord with that
 written license.
  
 The following legend is applicable only to US Government
 contracts under FAR:
  
                    RESTRICTED RIGHTS LEGEND
  
 Use, reproduction and disclosure by the US Government is
 subject to restrictions as set forth in subparagraphs (a)
 and (c) of the Commercial Computer Software - Restricted
 Rights clause in FAR 52.227-19.
  
 Gaussian, Inc.
 340 Quinnipiac St., Bldg. 40, Wallingford CT 06492
  
  
 ---------------------------------------------------------------
 Warning -- This program may not be used in any manner that
 competes with the business of Gaussian, Inc. or will provide
 assistance to any competitor of Gaussian, Inc.  The licensee
 of this program is prohibited from giving any competitor of
 Gaussian, Inc. access to this program.  By using this program,
 the user acknowledges that Gaussian, Inc. is engaged in the
 business of creating and licensing software in the field of
 computational chemistry and represents and warrants to the
 licensee that it is not a competitor of Gaussian, Inc. and that
 it will not use this program in any manner prohibited above.
 ---------------------------------------------------------------
  

 Cite this work as:
 Gaussian 09, Revision A.02,
 M. J. Frisch, G. W. Trucks, H. B. Schlegel, G. E. Scuseria, 
 M. A. Robb, J. R. Cheeseman, G. Scalmani, V. Barone, B. Mennucci, 
 G. A. Petersson, H. Nakatsuji, M. Caricato, X. Li, H. P. Hratchian, 
 A. F. Izmaylov, J. Bloino, G. Zheng, J. L. Sonnenberg, M. Hada, 
 M. Ehara, K. Toyota, R. Fukuda, J. Hasegawa, M. Ishida, T. Nakajima, 
 Y. Honda, O. Kitao, H. Nakai, T. Vreven, J. A. Montgomery, Jr., 
 J. E. Peralta, F. Ogliaro, M. Bearpark, J. J. Heyd, E. Brothers, 
 K. N. Kudin, V. N. Staroverov, R. Kobayashi, J. Normand, 
 K. Raghavachari, A. Rendell, J. C. Burant, S. S. Iyengar, J. Tomasi, 
 M. Cossi, N. Rega, J. M. Millam, M. Klene, J. E. Knox, J. B. Cross, 
 V. Bakken, C. Adamo, J. Jaramillo, R. Gomperts, R. E. Stratmann, 
 O. Yazyev, A. J. Austin, R. Cammi, C. Pomelli, J. W. Ochterski, 
 R. L. Martin, K. Morokuma, V. G. Zakrzewski, G. A. Voth, 
 P. Salvador, J. J. Dannenberg, S. Dapprich, A. D. Daniels, 
 O. Farkas, J. B. Foresman, J. V. Ortiz, J. Cioslowski, 
 and D. J. Fox, Gaussian, Inc., Wallingford CT, 2009.
 
 ******************************************
 Gaussian 09:  AM64L-G09RevA.02 11-Jun-2009
                30-Sep-2021 
 ******************************************
 %nproc=4
 Will use up to    4 processors via shared memory.
 %mem=8gb
 %chk=C11H14O_50db_conf_0.chk
 -----------------------------------
 #p opt b3lyp/6-31G* scf=(xqc,tight)
 -----------------------------------
 1/14=-1,18=20,19=15,26=3,38=1/1,3;
 2/9=110,12=2,17=6,18=5,40=1/2;
 3/5=1,6=6,7=1,11=2,16=1,25=1,30=1,71=1,74=-5/1,2,3;
 4//1;
 5/5=2,8=3,13=1,32=2,38=5/2,8;
 6/7=2,8=2,9=2,10=2,28=1/1;
 7//1,2,3,16;
 1/14=-1,18=20,19=15/3(2);
 2/9=110/2;
 99//99;
 2/9=110/2;
 3/5=1,6=6,7=1,11=2,16=1,25=1,30=1,71=1,74=-5/1,2,3;
 4/5=5,16=3/1;
 5/5=2,8=3,13=1,32=2,38=5/2,8;
 7//1,2,3,16;
 1/14=-1,18=20,19=15/3(-5);
 2/9=110/2;
 6/7=2,8=2,9=2,10=2,19=2,28=1/1;
 99/9=1/99;
 Leave Link    1 at Thu Sep 30 07:40:19 2021, MaxMem= 1073741824 cpu:       0.1
 (Enter /sw/target/amd/app/gaussian/Gaussian09RevA.02_gcc-4.9.2/g09/l101.exe)
 -------------------------
 COc1ccc2c(c1)CCCC2_conf_0
 -------------------------
 Symbolic Z-matrix:
 Charge =  0 Multiplicity = 1
 C                     1.18465   0.17344   0.43762 
 O                     2.48922   0.08404  -0.1213 
 C                     3.12869   1.26663  -0.37335 
 C                     4.27671   1.15589  -1.15662 
 C                     5.01221   2.29051  -1.5034 
 C                     4.61041   3.55869  -1.06594 
 C                     3.47878   3.67429  -0.23962 
 C                     2.73797   2.52417   0.08937 
 C                     2.99958   5.01797   0.25589 
 C                     4.05273   6.11836   0.13859 
 C                     4.70639   6.08526  -1.23661 
 C                     5.43957   4.76151  -1.44419 
 H                     0.76304  -0.83599   0.4648 
 H                     0.52705   0.79144  -0.18333 
 H                     1.22275   0.54619   1.46616 
 H                     4.59678   0.17832  -1.50802 
 H                     5.90027   2.17708  -2.12052 
 H                     1.85986   2.63986   0.71682 
 H                     2.69028   4.93888   1.30504 
 H                     2.11571   5.29946  -0.3301 
 H                     4.81953   5.98584   0.91246 
 H                     3.586     7.09426   0.31299 
 H                     5.41175   6.91715  -1.34118 
 H                     3.93954   6.21399  -2.01113 
 H                     6.3517    4.75197  -0.8345 
 H                     5.7426    4.6891   -2.49566 
 
 NAtoms=     26 NQM=     26 NQMF=      0 NMic=      0 NMicF=      0 NTot=     26.
                    Isotopes and Nuclear Properties:
 (Nuclear quadrupole moments (NQMom) in fm**2, nuclear magnetic moments (NMagM)
  in nuclear magnetons)

  Atom         1           2           3           4           5           6           7           8           9          10
 IAtWgt=          12          16          12          12          12          12          12          12          12          12
 AtmWgt=  12.0000000  15.9949146  12.0000000  12.0000000  12.0000000  12.0000000  12.0000000  12.0000000  12.0000000  12.0000000
 NucSpn=           0           0           0           0           0           0           0           0           0           0
 AtZEff=   0.0000000   0.0000000   0.0000000   0.0000000   0.0000000   0.0000000   0.0000000   0.0000000   0.0000000   0.0000000
 NQMom=    0.0000000   0.0000000   0.0000000   0.0000000   0.0000000   0.0000000   0.0000000   0.0000000   0.0000000   0.0000000
 NMagM=    0.0000000   0.0000000   0.0000000   0.0000000   0.0000000   0.0000000   0.0000000   0.0000000   0.0000000   0.0000000

  Atom        11          12          13          14          15          16          17          18          19          20
 IAtWgt=          12          12           1           1           1           1           1           1           1           1
 AtmWgt=  12.0000000  12.0000000   1.0078250   1.0078250   1.0078250   1.0078250   1.0078250   1.0078250   1.0078250   1.0078250
 NucSpn=           0           0           1           1           1           1           1           1           1           1
 AtZEff=   0.0000000   0.0000000   0.0000000   0.0000000   0.0000000   0.0000000   0.0000000   0.0000000   0.0000000   0.0000000
 NQMom=    0.0000000   0.0000000   0.0000000   0.0000000   0.0000000   0.0000000   0.0000000   0.0000000   0.0000000   0.0000000
 NMagM=    0.0000000   0.0000000   2.7928460   2.7928460   2.7928460   2.7928460   2.7928460   2.7928460   2.7928460   2.7928460

  Atom        21          22          23          24          25          26
 IAtWgt=           1           1           1           1           1           1
 AtmWgt=   1.0078250   1.0078250   1.0078250   1.0078250   1.0078250   1.0078250
 NucSpn=           1           1           1           1           1           1
 AtZEff=   0.0000000   0.0000000   0.0000000   0.0000000   0.0000000   0.0000000
 NQMom=    0.0000000   0.0000000   0.0000000   0.0000000   0.0000000   0.0000000
 NMagM=    2.7928460   2.7928460   2.7928460   2.7928460   2.7928460   2.7928460
 Leave Link  101 at Thu Sep 30 07:40:20 2021, MaxMem= 1073741824 cpu:       0.2
 (Enter /sw/target/amd/app/gaussian/Gaussian09RevA.02_gcc-4.9.2/g09/l103.exe)

 GradGradGradGradGradGradGradGradGradGradGradGradGradGradGradGradGradGrad
 Berny optimization.
 Initialization pass.
                           ----------------------------
                           !    Initial Parameters    !
                           ! (Angstroms and Degrees)  !
 --------------------------                            --------------------------
 ! Name  Definition              Value          Derivative Info.                !
 --------------------------------------------------------------------------------
 ! R1    R(1,2)                  1.4221         estimate D2E/DX2                !
 ! R2    R(1,13)                 1.0943         estimate D2E/DX2                !
 ! R3    R(1,14)                 1.0954         estimate D2E/DX2                !
 ! R4    R(1,15)                 1.0947         estimate D2E/DX2                !
 ! R5    R(2,3)                  1.3678         estimate D2E/DX2                !
 ! R6    R(3,4)                  1.3942         estimate D2E/DX2                !
 ! R7    R(3,8)                  1.3958         estimate D2E/DX2                !
 ! R8    R(4,5)                  1.3959         estimate D2E/DX2                !
 ! R9    R(4,16)                 1.087          estimate D2E/DX2                !
 ! R10   R(5,6)                  1.4004         estimate D2E/DX2                !
 ! R11   R(5,17)                 1.0874         estimate D2E/DX2                !
 ! R12   R(6,7)                  1.406          estimate D2E/DX2                !
 ! R13   R(6,12)                 1.5091         estimate D2E/DX2                !
 ! R14   R(7,8)                  1.4071         estimate D2E/DX2                !
 ! R15   R(7,9)                  1.5102         estimate D2E/DX2                !
 ! R16   R(8,18)                 1.0854         estimate D2E/DX2                !
 ! R17   R(9,10)                 1.5277         estimate D2E/DX2                !
 ! R18   R(9,19)                 1.0966         estimate D2E/DX2                !
 ! R19   R(9,20)                 1.0972         estimate D2E/DX2                !
 ! R20   R(10,11)                1.523          estimate D2E/DX2                !
 ! R21   R(10,21)                1.0975         estimate D2E/DX2                !
 ! R22   R(10,22)                1.0957         estimate D2E/DX2                !
 ! R23   R(11,12)                1.5274         estimate D2E/DX2                !
 ! R24   R(11,23)                1.0957         estimate D2E/DX2                !
 ! R25   R(11,24)                1.0975         estimate D2E/DX2                !
 ! R26   R(12,25)                1.0972         estimate D2E/DX2                !
 ! R27   R(12,26)                1.0967         estimate D2E/DX2                !
 ! A1    A(2,1,13)             107.7717         estimate D2E/DX2                !
 ! A2    A(2,1,14)             111.3085         estimate D2E/DX2                !
 ! A3    A(2,1,15)             111.0245         estimate D2E/DX2                !
 ! A4    A(13,1,14)            107.6506         estimate D2E/DX2                !
 ! A5    A(13,1,15)            107.7088         estimate D2E/DX2                !
 ! A6    A(14,1,15)            111.1867         estimate D2E/DX2                !
 ! A7    A(1,2,3)              116.5481         estimate D2E/DX2                !
 ! A8    A(2,3,4)              114.8228         estimate D2E/DX2                !
 ! A9    A(2,3,8)              125.9436         estimate D2E/DX2                !
 ! A10   A(4,3,8)              119.2305         estimate D2E/DX2                !
 ! A11   A(3,4,5)              120.5886         estimate D2E/DX2                !
 ! A12   A(3,4,16)             119.7043         estimate D2E/DX2                !
 ! A13   A(5,4,16)             119.7047         estimate D2E/DX2                !
 ! A14   A(4,5,6)              120.484          estimate D2E/DX2                !
 ! A15   A(4,5,17)             119.112          estimate D2E/DX2                !
 ! A16   A(6,5,17)             120.4038         estimate D2E/DX2                !
 ! A17   A(5,6,7)              119.2739         estimate D2E/DX2                !
 ! A18   A(5,6,12)             119.0685         estimate D2E/DX2                !
 ! A19   A(7,6,12)             121.6018         estimate D2E/DX2                !
 ! A20   A(6,7,8)              119.6022         estimate D2E/DX2                !
 ! A21   A(6,7,9)              121.4255         estimate D2E/DX2                !
 ! A22   A(8,7,9)              118.914          estimate D2E/DX2                !
 ! A23   A(3,8,7)              120.7669         estimate D2E/DX2                !
 ! A24   A(3,8,18)             120.9397         estimate D2E/DX2                !
 ! A25   A(7,8,18)             118.2922         estimate D2E/DX2                !
 ! A26   A(7,9,10)             113.3878         estimate D2E/DX2                !
 ! A27   A(7,9,19)             109.83           estimate D2E/DX2                !
 ! A28   A(7,9,20)             107.9779         estimate D2E/DX2                !
 ! A29   A(10,9,19)            108.653          estimate D2E/DX2                !
 ! A30   A(10,9,20)            109.2411         estimate D2E/DX2                !
 ! A31   A(19,9,20)            107.5924         estimate D2E/DX2                !
 ! A32   A(9,10,11)            110.4601         estimate D2E/DX2                !
 ! A33   A(9,10,21)            109.9109         estimate D2E/DX2                !
 ! A34   A(9,10,22)            109.6132         estimate D2E/DX2                !
 ! A35   A(11,10,21)           109.5244         estimate D2E/DX2                !
 ! A36   A(11,10,22)           110.2358         estimate D2E/DX2                !
 ! A37   A(21,10,22)           107.0336         estimate D2E/DX2                !
 ! A38   A(10,11,12)           110.3389         estimate D2E/DX2                !
 ! A39   A(10,11,23)           110.2418         estimate D2E/DX2                !
 ! A40   A(10,11,24)           109.5597         estimate D2E/DX2                !
 ! A41   A(12,11,23)           109.6343         estimate D2E/DX2                !
 ! A42   A(12,11,24)           109.9464         estimate D2E/DX2                !
 ! A43   A(23,11,24)           107.0622         estimate D2E/DX2                !
 ! A44   A(6,12,11)            113.1394         estimate D2E/DX2                !
 ! A45   A(6,12,25)            108.0928         estimate D2E/DX2                !
 ! A46   A(6,12,26)            109.8477         estimate D2E/DX2                !
 ! A47   A(11,12,25)           109.334          estimate D2E/DX2                !
 ! A48   A(11,12,26)           108.673          estimate D2E/DX2                !
 ! A49   A(25,12,26)           107.608          estimate D2E/DX2                !
 ! D1    D(13,1,2,3)           173.1647         estimate D2E/DX2                !
 ! D2    D(14,1,2,3)            55.3386         estimate D2E/DX2                !
 ! D3    D(15,1,2,3)           -69.0994         estimate D2E/DX2                !
 ! D4    D(1,2,3,4)           -167.7984         estimate D2E/DX2                !
 ! D5    D(1,2,3,8)             12.8501         estimate D2E/DX2                !
 ! D6    D(2,3,4,5)            179.0758         estimate D2E/DX2                !
 ! D7    D(2,3,4,16)            -0.359          estimate D2E/DX2                !
 ! D8    D(8,3,4,5)             -1.5259         estimate D2E/DX2                !
 ! D9    D(8,3,4,16)           179.0394         estimate D2E/DX2                !
 ! D10   D(2,3,8,7)           -179.8939         estimate D2E/DX2                !
 ! D11   D(2,3,8,18)             0.5103         estimate D2E/DX2                !
 ! D12   D(4,3,8,7)              0.7806         estimate D2E/DX2                !
 ! D13   D(4,3,8,18)          -178.8152         estimate D2E/DX2                !
 ! D14   D(3,4,5,6)              0.2045         estimate D2E/DX2                !
 ! D15   D(3,4,5,17)          -179.6193         estimate D2E/DX2                !
 ! D16   D(16,4,5,6)           179.6393         estimate D2E/DX2                !
 ! D17   D(16,4,5,17)           -0.1845         estimate D2E/DX2                !
 ! D18   D(4,5,6,7)              1.8584         estimate D2E/DX2                !
 ! D19   D(4,5,6,12)           179.1868         estimate D2E/DX2                !
 ! D20   D(17,5,6,7)          -178.3201         estimate D2E/DX2                !
 ! D21   D(17,5,6,12)           -0.9917         estimate D2E/DX2                !
 ! D22   D(5,6,7,8)             -2.5767         estimate D2E/DX2                !
 ! D23   D(5,6,7,9)           -179.7696         estimate D2E/DX2                !
 ! D24   D(12,6,7,8)          -179.8349         estimate D2E/DX2                !
 ! D25   D(12,6,7,9)             2.9721         estimate D2E/DX2                !
 ! D26   D(5,6,12,11)          164.3954         estimate D2E/DX2                !
 ! D27   D(5,6,12,25)          -74.3804         estimate D2E/DX2                !
 ! D28   D(5,6,12,26)           42.7661         estimate D2E/DX2                !
 ! D29   D(7,6,12,11)          -18.3408         estimate D2E/DX2                !
 ! D30   D(7,6,12,25)          102.8834         estimate D2E/DX2                !
 ! D31   D(7,6,12,26)         -139.9701         estimate D2E/DX2                !
 ! D32   D(6,7,8,3)              1.2756         estimate D2E/DX2                !
 ! D33   D(6,7,8,18)          -179.1181         estimate D2E/DX2                !
 ! D34   D(9,7,8,3)            178.5392         estimate D2E/DX2                !
 ! D35   D(9,7,8,18)            -1.8545         estimate D2E/DX2                !
 ! D36   D(6,7,9,10)           -17.3087         estimate D2E/DX2                !
 ! D37   D(6,7,9,19)          -139.0707         estimate D2E/DX2                !
 ! D38   D(6,7,9,20)           103.8769         estimate D2E/DX2                !
 ! D39   D(8,7,9,10)           165.4795         estimate D2E/DX2                !
 ! D40   D(8,7,9,19)            43.7175         estimate D2E/DX2                !
 ! D41   D(8,7,9,20)           -73.3348         estimate D2E/DX2                !
 ! D42   D(7,9,10,11)           46.6275         estimate D2E/DX2                !
 ! D43   D(7,9,10,21)          -74.3383         estimate D2E/DX2                !
 ! D44   D(7,9,10,22)          168.2864         estimate D2E/DX2                !
 ! D45   D(19,9,10,11)         169.0447         estimate D2E/DX2                !
 ! D46   D(19,9,10,21)          48.0789         estimate D2E/DX2                !
 ! D47   D(19,9,10,22)         -69.2964         estimate D2E/DX2                !
 ! D48   D(20,9,10,11)         -73.8453         estimate D2E/DX2                !
 ! D49   D(20,9,10,21)         165.1888         estimate D2E/DX2                !
 ! D50   D(20,9,10,22)          47.8136         estimate D2E/DX2                !
 ! D51   D(9,10,11,12)         -62.5907         estimate D2E/DX2                !
 ! D52   D(9,10,11,23)         176.1683         estimate D2E/DX2                !
 ! D53   D(9,10,11,24)          58.5945         estimate D2E/DX2                !
 ! D54   D(21,10,11,12)         58.6049         estimate D2E/DX2                !
 ! D55   D(21,10,11,23)        -62.636          estimate D2E/DX2                !
 ! D56   D(21,10,11,24)        179.7901         estimate D2E/DX2                !
 ! D57   D(22,10,11,12)        176.119          estimate D2E/DX2                !
 ! D58   D(22,10,11,23)         54.8781         estimate D2E/DX2                !
 ! D59   D(22,10,11,24)        -62.6958         estimate D2E/DX2                !
 ! D60   D(10,11,12,6)          47.5996         estimate D2E/DX2                !
 ! D61   D(10,11,12,25)        -72.9213         estimate D2E/DX2                !
 ! D62   D(10,11,12,26)        169.8868         estimate D2E/DX2                !
 ! D63   D(23,11,12,6)         169.2012         estimate D2E/DX2                !
 ! D64   D(23,11,12,25)         48.6803         estimate D2E/DX2                !
 ! D65   D(23,11,12,26)        -68.5115         estimate D2E/DX2                !
 ! D66   D(24,11,12,6)         -73.3552         estimate D2E/DX2                !
 ! D67   D(24,11,12,25)        166.1239         estimate D2E/DX2                !
 ! D68   D(24,11,12,26)         48.9321         estimate D2E/DX2                !
 --------------------------------------------------------------------------------
 Trust Radius=3.00D-01 FncErr=1.00D-07 GrdErr=1.00D-06
 Number of steps in this run= 154 maximum allowed number of steps= 156.
 GradGradGradGradGradGradGradGradGradGradGradGradGradGradGradGradGradGrad

 Leave Link  103 at Thu Sep 30 07:40:20 2021, MaxMem= 1073741824 cpu:       0.0
 (Enter /sw/target/amd/app/gaussian/Gaussian09RevA.02_gcc-4.9.2/g09/l202.exe)
                          Input orientation:                          
 ---------------------------------------------------------------------
 Center     Atomic      Atomic             Coordinates (Angstroms)
 Number     Number       Type             X           Y           Z
 ---------------------------------------------------------------------
      1          6           0        1.184650    0.173441    0.437618
      2          8           0        2.489221    0.084039   -0.121299
      3          6           0        3.128695    1.266630   -0.373346
      4          6           0        4.276709    1.155888   -1.156620
      5          6           0        5.012209    2.290513   -1.503401
      6          6           0        4.610412    3.558689   -1.065939
      7          6           0        3.478777    3.674285   -0.239623
      8          6           0        2.737975    2.524165    0.089374
      9          6           0        2.999576    5.017970    0.255887
     10          6           0        4.052727    6.118363    0.138591
     11          6           0        4.706388    6.085263   -1.236607
     12          6           0        5.439571    4.761509   -1.444190
     13          1           0        0.763038   -0.835992    0.464805
     14          1           0        0.527054    0.791436   -0.183333
     15          1           0        1.222750    0.546193    1.466161
     16          1           0        4.596781    0.178322   -1.508022
     17          1           0        5.900268    2.177082   -2.120524
     18          1           0        1.859863    2.639860    0.716823
     19          1           0        2.690278    4.938884    1.305040
     20          1           0        2.115705    5.299460   -0.330100
     21          1           0        4.819532    5.985843    0.912463
     22          1           0        3.585997    7.094262    0.312986
     23          1           0        5.411755    6.917146   -1.341182
     24          1           0        3.939539    6.213990   -2.011128
     25          1           0        6.351698    4.751966   -0.834495
     26          1           0        5.742603    4.689104   -2.495656
 ---------------------------------------------------------------------
                    Distance matrix (angstroms):
                    1          2          3          4          5
     1  C    0.000000
     2  O    1.422071   0.000000
     3  C    2.373191   1.367836   0.000000
     4  C    3.614917   2.327201   1.394173   0.000000
     5  C    4.785369   3.625493   2.423424   1.395919   0.000000
     6  C    5.045436   4.179113   2.815795   2.427556   1.400387
     7  C    4.239998   3.726001   2.436646   2.796409   2.421441
     8  C    2.839013   2.461803   1.395767   2.406738   2.786336
     9  C    5.176528   4.974576   3.805937   4.306033   3.819007
    10  C    6.607373   6.239003   4.965403   5.133605   4.274247
    11  C    7.082041   6.494184   5.143302   4.948712   3.816390
    12  C    6.534211   5.686240   4.324469   3.799400   2.508379
    13  H    1.094280   2.041980   3.274117   4.352297   5.630658
    14  H    1.095413   2.086710   2.651499   3.891019   4.909829
    15  H    1.094668   2.082682   2.745076   4.071532   5.120639
    16  H    3.927871   2.524619   2.151089   1.086999   2.152662
    17  H    5.726755   4.473586   3.400467   2.146600   1.087362
    18  H    2.572371   2.762383   2.164293   3.398986   3.871527
    19  H    5.072355   5.064028   4.061358   4.784097   4.504727
    20  H    5.266149   5.232946   4.158334   4.745763   4.338218
    21  H    6.871816   6.428864   5.175249   5.282445   4.419161
    22  H    7.326647   7.108779   5.885700   6.156387   5.330042
    23  H    8.155372   7.531312   6.170689   5.874902   4.646685
    24  H    7.076298   6.576562   5.274104   5.140842   4.099034
    25  H    7.019939   6.100567   4.769483   4.164266   2.881044
    26  H    7.054803   6.117899   4.801047   4.052836   2.696533
                    6          7          8          9         10
     6  C    0.000000
     7  C    1.405973   0.000000
     8  C    2.431257   1.407054   0.000000
     9  C    2.543919   1.510183   2.513011   0.000000
    10  C    2.883373   2.538894   3.827435   1.527662   0.000000
    11  C    2.534150   2.883369   4.279520   2.505965   1.523003
    12  C    1.509091   2.545143   3.828335   2.984898   2.503915
    13  H    6.038102   5.311690   3.915607   6.270136   7.700099
    14  H    5.011037   4.126336   2.822213   4.916286   6.396105
    15  H    5.192583   4.217145   2.846721   4.961719   6.389076
    16  H    3.409179   3.883366   3.392612   5.393018   6.188007
    17  H    2.164421   3.412188   3.873528   4.704466   4.904153
    18  H    3.404116   2.146091   1.085430   2.677091   4.152468
    19  H    3.348640   2.146374   2.703883   1.096649   2.146635
    20  H    3.129746   2.123051   2.874968   1.097198   2.154606
    21  H    3.138293   2.910022   4.122326   2.163356   1.097465
    22  H    3.930794   3.465994   4.653485   2.158272   1.095732
    23  H    3.463689   3.932681   5.337965   3.460651   2.162115
    24  H    2.897253   3.130596   4.412558   2.730083   2.154820
    25  H    2.123571   3.125531   4.344609   3.535027   2.845911
    26  H    2.145644   3.353276   4.516319   3.899147   3.440599
                   11         12         13         14         15
    11  C    0.000000
    12  C    1.527407   0.000000
    13  H    8.145463   7.539644   0.000000
    14  H    6.826479   6.440812   1.767566   0.000000
    15  H    7.079688   6.634803   1.767621   1.806922   0.000000
    16  H    5.914189   4.660469   4.429273   4.323585   4.512780
    17  H    4.180974   2.710892   6.492585   5.877427   6.115822
    18  H    4.877437   4.688889   3.653503   2.450169   2.313193
    19  H    3.440763   3.892086   6.145684   4.908779   4.634148
    20  H    2.854974   3.546643   6.332878   4.782011   5.159212
    21  H    2.154342   2.727134   7.949400   6.827004   6.544708
    22  H    2.162080   3.459066   8.419089   7.023466   7.056341
    23  H    1.095677   2.158276   9.218638   7.919926   8.125145
    24  H    1.097502   2.163612   8.119276   6.662580   7.183063
    25  H    2.155556   1.097175   8.009155   7.073633   7.020516
    26  H    2.146674   1.096655   8.005441   6.909458   7.299917
                   16         17         18         19         20
    16  H    0.000000
    17  H    2.463591   0.000000
    18  H    4.301143   4.958788   0.000000
    19  H    5.849019   5.446657   2.514179   0.000000
    20  H    5.811136   5.222814   2.869664   1.770263   0.000000
    21  H    6.295687   4.987350   4.471411   2.404987   3.053811
    22  H    7.222741   5.954535   4.794196   2.536166   2.407619
    23  H    6.789975   4.828481   5.928448   4.280473   3.808299
    24  H    6.092157   4.489216   4.953905   3.766100   2.643594
    25  H    4.944855   2.913363   5.200400   4.244825   4.300907
    26  H    4.757677   2.544767   5.440138   4.881021   4.268086
                   21         22         23         24         25
    21  H    0.000000
    22  H    1.763399   0.000000
    23  H    2.509377   2.470027   0.000000
    24  H    3.061670   2.510254   1.763711   0.000000
    25  H    2.630941   3.801601   2.414172   3.056222   0.000000
    26  H    3.761499   4.280678   2.531094   2.410619   1.770425
                   26
    26  H    0.000000
 Stoichiometry    C11H14O
 Framework group  C1[X(C11H14O)]
 Deg. of freedom    72
 Full point group                 C1      NOp   1
 Largest Abelian subgroup         C1      NOp   1
 Largest concise Abelian subgroup C1      NOp   1
                         Standard orientation:                         
 ---------------------------------------------------------------------
 Center     Atomic      Atomic             Coordinates (Angstroms)
 Number     Number       Type             X           Y           Z
 ---------------------------------------------------------------------
      1          6           0       -3.746605   -1.119600    0.195500
      2          8           0       -3.228553    0.175460   -0.081496
      3          6           0       -1.866923    0.304932   -0.068202
      4          6           0       -1.403915    1.619946   -0.077105
      5          6           0       -0.034974    1.891263   -0.045846
      6          6           0        0.895842    0.845639   -0.009316
      7          6           0        0.438539   -0.483428   -0.044168
      8          6           0       -0.944378   -0.742451   -0.059999
      9          6           0        1.399094   -1.647994   -0.002068
     10          6           0        2.837530   -1.260142   -0.340034
     11          6           0        3.243579   -0.005394    0.421719
     12          6           0        2.368459    1.175106    0.005115
     13          1           0       -4.835103   -1.035101    0.269530
     14          1           0       -3.376994   -1.499513    1.154137
     15          1           0       -3.521265   -1.815226   -0.619131
     16          1           0       -2.115468    2.441386   -0.099358
     17          1           0        0.299443    2.925923   -0.047312
     18          1           0       -1.273988   -1.776552   -0.072218
     19          1           0        1.071735   -2.425749   -0.702477
     20          1           0        1.367824   -2.076441    1.007536
     21          1           0        2.932838   -1.081366   -1.418637
     22          1           0        3.509994   -2.088746   -0.091366
     23          1           0        4.296127    0.230734    0.229638
     24          1           0        3.144900   -0.182315    1.500362
     25          1           0        2.654483    1.501513   -1.002577
     26          1           0        2.556399    2.010512    0.690262
 ---------------------------------------------------------------------
 Rotational constants (GHZ):      2.1297090      0.5805862      0.4676054
 Leave Link  202 at Thu Sep 30 07:40:20 2021, MaxMem= 1073741824 cpu:       0.0
 (Enter /sw/target/amd/app/gaussian/Gaussian09RevA.02_gcc-4.9.2/g09/l301.exe)
 Standard basis: 6-31G(d) (6D, 7F)
 Ernie: Thresh=  0.10000D-02 Tol=  0.10000D-05 Strict=F.
 There are   208 symmetry adapted basis functions of A   symmetry.
 Integral buffers will be    131072 words long.
 Raffenetti 2 integral format.
 Two-electron integral symmetry is turned on.
   208 basis functions,   392 primitive gaussians,   208 cartesian basis functions
    44 alpha electrons       44 beta electrons
       nuclear repulsion energy       685.7909942211 Hartrees.
 IExCor=  402 DFT=T Ex+Corr=B3LYP ExCW=0 ScaHFX=  0.200000
 ScaDFX=  0.800000  0.720000  1.000000  0.810000 ScalE2=  1.000000  1.000000
 IRadAn=      0 IRanWt=     -1 IRanGd=            0 ICorTp=0
 NAtoms=   26 NActive=   26 NUniq=   26 SFac= 7.50D-01 NAtFMM=   80 NAOKFM=F Big=F
 Leave Link  301 at Thu Sep 30 07:40:21 2021, MaxMem= 1073741824 cpu:       0.1
 (Enter /sw/target/amd/app/gaussian/Gaussian09RevA.02_gcc-4.9.2/g09/l302.exe)
 NPDir=0 NMtPBC=     1 NCelOv=     1 NCel=       1 NClECP=     1 NCelD=      1
         NCelK=      1 NCelE2=     1 NClLst=     1 CellRange=     0.0.
 One-electron integrals computed using PRISM.
 NBasis=   208 RedAO= T  NBF=   208
 NBsUse=   208 1.00D-06 NBFU=   208
 Precomputing XC quadrature grid using
 IXCGrd= 2 IRadAn=           0 IRanWt=          -1 IRanGd=           0 AccXCQ= 1.00D-10.
 NRdTot=    1642 NPtTot=      209006 NUsed=      220851 NTot=      220883
 NSgBfM=   207   207   207   207   207 NAtAll=    26    26.
 Leave Link  302 at Thu Sep 30 07:40:25 2021, MaxMem= 1073741824 cpu:       1.9
 (Enter /sw/target/amd/app/gaussian/Gaussian09RevA.02_gcc-4.9.2/g09/l303.exe)
 DipDrv:  MaxL=1.
 Leave Link  303 at Thu Sep 30 07:40:26 2021, MaxMem= 1073741824 cpu:       0.2
 (Enter /sw/target/amd/app/gaussian/Gaussian09RevA.02_gcc-4.9.2/g09/l401.exe)
 Harris functional with IExCor=  402 diagonalized for initial guess.
 ExpMin= 1.61D-01 ExpMax= 5.48D+03 ExpMxC= 8.25D+02 IAcc=1 IRadAn=         1 AccDes= 0.00D+00
 HarFok:  IExCor=  402 AccDes= 0.00D+00 IRadAn=         1 IDoV= 1
 ScaDFX=  1.000000  1.000000  1.000000  1.000000
 FoFCou: FMM=F IPFlag=           0 FMFlag=      100000 FMFlg1=           0
         NFxFlg=           0 DoJE=T BraDBF=F KetDBF=T FulRan=T
         Omega=  0.000000  0.000000  1.000000  0.000000  0.000000 ICntrl=     500 IOpCl=  0
         NMat0=    1 NMatS0=    1 NMatT0=    0 NMatD0=    1 NMtDS0=    0 NMtDT0=    0
         I1Cent=           4 NGrid=           0.
 Petite list used in FoFCou.
 Harris En= -502.899944868970    
 Initial guess orbital symmetries:
       Occupied  (A) (A) (A) (A) (A) (A) (A) (A) (A) (A) (A) (A)
                 (A) (A) (A) (A) (A) (A) (A) (A) (A) (A) (A) (A)
                 (A) (A) (A) (A) (A) (A) (A) (A) (A) (A) (A) (A)
                 (A) (A) (A) (A) (A) (A) (A) (A)
       Virtual   (A) (A) (A) (A) (A) (A) (A) (A) (A) (A) (A) (A)
                 (A) (A) (A) (A) (A) (A) (A) (A) (A) (A) (A) (A)
                 (A) (A) (A) (A) (A) (A) (A) (A) (A) (A) (A) (A)
                 (A) (A) (A) (A) (A) (A) (A) (A) (A) (A) (A) (A)
                 (A) (A) (A) (A) (A) (A) (A) (A) (A) (A) (A) (A)
                 (A) (A) (A) (A) (A) (A) (A) (A) (A) (A) (A) (A)
                 (A) (A) (A) (A) (A) (A) (A) (A) (A) (A) (A) (A)
                 (A) (A) (A) (A) (A) (A) (A) (A) (A) (A) (A) (A)
                 (A) (A) (A) (A) (A) (A) (A) (A) (A) (A) (A) (A)
                 (A) (A) (A) (A) (A) (A) (A) (A) (A) (A) (A) (A)
                 (A) (A) (A) (A) (A) (A) (A) (A) (A) (A) (A) (A)
                 (A) (A) (A) (A) (A) (A) (A) (A) (A) (A) (A) (A)
                 (A) (A) (A) (A) (A) (A) (A) (A) (A) (A) (A) (A)
                 (A) (A) (A) (A) (A) (A) (A) (A)
 The electronic state of the initial guess is 1-A.
 Leave Link  401 at Thu Sep 30 07:40:40 2021, MaxMem= 1073741824 cpu:       8.4
 (Enter /sw/target/amd/app/gaussian/Gaussian09RevA.02_gcc-4.9.2/g09/l502.exe)
 Closed shell SCF:
 Requested convergence on RMS density matrix=1.00D-08 within  64 cycles.
 Requested convergence on MAX density matrix=1.00D-06.
 Requested convergence on             energy=1.00D-06.
 No special actions if energy rises.
 Using DIIS extrapolation, IDIIS=  1040.
 Integral symmetry usage will be decided dynamically.
       220604 words used for storage of precomputed grid.
 Keep R1 ints in memory in canonical form, NReq=241161056.
 IEnd=      358766 IEndB=      358766 NGot=  1073741824 MDV=   837193011
 LenX=   837193011 LenY=   837149306
 Symmetry not used in FoFDir.
 MinBra= 0 MaxBra= 2 Meth= 1.
 IRaf=       0 NMat=   1 IRICut=       1 DoRegI=T DoRafI=F ISym2E= 0 JSym2E=0.
 Integral accuracy reduced to 1.0D-05 until final iterations.

 Cycle   1  Pass 0  IDiag  1:
 E= -502.507695653179    
 DIIS: error= 3.56D-02 at cycle   1 NSaved=   1.
 NSaved= 1 IEnMin= 1 EnMin= -502.507695653179     IErMin= 1 ErrMin= 3.56D-02
 ErrMax= 3.56D-02 EMaxC= 1.00D-01 BMatC= 2.88D-01 BMatP= 2.88D-01
 IDIUse=3 WtCom= 6.44D-01 WtEn= 3.56D-01
 Coeff-Com:  0.100D+01
 Coeff-En:   0.100D+01
 Coeff:      0.100D+01
 Gap=     0.231 Goal=   None    Shift=    0.000
 GapD=    0.231 DampG=1.000 DampE=0.500 DampFc=0.5000 IDamp=-1.
 Damping current iteration by 5.00D-01
 RMSDP=6.33D-03 MaxDP=1.48D-01              OVMax= 1.79D-01

 Cycle   2  Pass 0  IDiag  1:
 E= -502.653596783910     Delta-E=       -0.145901130730 Rises=F Damp=T
 DIIS: error= 6.80D-03 at cycle   2 NSaved=   2.
 NSaved= 2 IEnMin= 2 EnMin= -502.653596783910     IErMin= 2 ErrMin= 6.80D-03
 ErrMax= 6.80D-03 EMaxC= 1.00D-01 BMatC= 1.59D-02 BMatP= 2.88D-01
 IDIUse=3 WtCom= 9.32D-01 WtEn= 6.80D-02
 Coeff-Com:  0.391D-01 0.961D+00
 Coeff-En:   0.658D-01 0.934D+00
 Coeff:      0.409D-01 0.959D+00
 Gap=     0.218 Goal=   None    Shift=    0.000
 RMSDP=1.95D-03 MaxDP=3.42D-02 DE=-1.46D-01 OVMax= 1.38D-01

 Cycle   3  Pass 0  IDiag  1:
 E= -502.814617079113     Delta-E=       -0.161020295203 Rises=F Damp=F
 DIIS: error= 7.29D-03 at cycle   3 NSaved=   3.
 NSaved= 3 IEnMin= 3 EnMin= -502.814617079113     IErMin= 2 ErrMin= 6.80D-03
 ErrMax= 7.29D-03 EMaxC= 1.00D-01 BMatC= 1.11D-02 BMatP= 1.59D-02
 IDIUse=3 WtCom= 9.27D-01 WtEn= 7.29D-02
 Coeff-Com: -0.182D-01 0.449D+00 0.569D+00
 Coeff-En:   0.000D+00 0.000D+00 0.100D+01
 Coeff:     -0.169D-01 0.417D+00 0.600D+00
 Gap=     0.213 Goal=   None    Shift=    0.000
 RMSDP=1.05D-03 MaxDP=2.78D-02 DE=-1.61D-01 OVMax= 7.62D-02

 Cycle   4  Pass 0  IDiag  1:
 E= -502.820920023682     Delta-E=       -0.006302944569 Rises=F Damp=F
 DIIS: error= 6.17D-03 at cycle   4 NSaved=   4.
 NSaved= 4 IEnMin= 4 EnMin= -502.820920023682     IErMin= 4 ErrMin= 6.17D-03
 ErrMax= 6.17D-03 EMaxC= 1.00D-01 BMatC= 5.17D-03 BMatP= 1.11D-02
 IDIUse=3 WtCom= 9.38D-01 WtEn= 6.17D-02
 Coeff-Com: -0.151D-01 0.119D+00 0.407D+00 0.489D+00
 Coeff-En:   0.000D+00 0.000D+00 0.354D+00 0.646D+00
 Coeff:     -0.141D-01 0.112D+00 0.404D+00 0.499D+00
 Gap=     0.210 Goal=   None    Shift=    0.000
 RMSDP=4.41D-04 MaxDP=1.32D-02 DE=-6.30D-03 OVMax= 3.55D-02

 Cycle   5  Pass 0  IDiag  1:
 E= -502.826500513218     Delta-E=       -0.005580489536 Rises=F Damp=F
 DIIS: error= 7.67D-04 at cycle   5 NSaved=   5.
 NSaved= 5 IEnMin= 5 EnMin= -502.826500513218     IErMin= 5 ErrMin= 7.67D-04
 ErrMax= 7.67D-04 EMaxC= 1.00D-01 BMatC= 1.79D-04 BMatP= 5.17D-03
 IDIUse=3 WtCom= 9.92D-01 WtEn= 7.67D-03
 Coeff-Com: -0.439D-02 0.190D-01 0.145D+00 0.245D+00 0.595D+00
 Coeff-En:   0.000D+00 0.000D+00 0.000D+00 0.000D+00 0.100D+01
 Coeff:     -0.435D-02 0.189D-01 0.144D+00 0.243D+00 0.599D+00
 Gap=     0.209 Goal=   None    Shift=    0.000
 RMSDP=8.48D-05 MaxDP=2.69D-03 DE=-5.58D-03 OVMax= 5.84D-03

 Cycle   6  Pass 0  IDiag  1:
 E= -502.826666041505     Delta-E=       -0.000165528288 Rises=F Damp=F
 DIIS: error= 2.19D-04 at cycle   6 NSaved=   6.
 NSaved= 6 IEnMin= 6 EnMin= -502.826666041505     IErMin= 6 ErrMin= 2.19D-04
 ErrMax= 2.19D-04 EMaxC= 1.00D-01 BMatC= 1.97D-05 BMatP= 1.79D-04
 IDIUse=3 WtCom= 9.98D-01 WtEn= 2.19D-03
 Coeff-Com: -0.113D-02 0.128D-02 0.478D-01 0.958D-01 0.333D+00 0.523D+00
 Coeff-En:   0.000D+00 0.000D+00 0.000D+00 0.000D+00 0.214D-01 0.979D+00
 Coeff:     -0.113D-02 0.127D-02 0.477D-01 0.956D-01 0.332D+00 0.524D+00
 Gap=     0.209 Goal=   None    Shift=    0.000
 RMSDP=2.61D-05 MaxDP=8.06D-04 DE=-1.66D-04 OVMax= 1.56D-03

 Cycle   7  Pass 0  IDiag  1:
 E= -502.826684811741     Delta-E=       -0.000018770236 Rises=F Damp=F
 DIIS: error= 5.42D-05 at cycle   7 NSaved=   7.
 NSaved= 7 IEnMin= 7 EnMin= -502.826684811741     IErMin= 7 ErrMin= 5.42D-05
 ErrMax= 5.42D-05 EMaxC= 1.00D-01 BMatC= 8.46D-07 BMatP= 1.97D-05
 IDIUse=1 WtCom= 1.00D+00 WtEn= 0.00D+00
 Coeff-Com: -0.306D-03-0.291D-03 0.176D-01 0.372D-01 0.143D+00 0.269D+00
 Coeff-Com:  0.533D+00
 Coeff:     -0.306D-03-0.291D-03 0.176D-01 0.372D-01 0.143D+00 0.269D+00
 Coeff:      0.533D+00
 Gap=     0.209 Goal=   None    Shift=    0.000
 RMSDP=6.97D-06 MaxDP=2.54D-04 DE=-1.88D-05 OVMax= 4.89D-04

 Initial convergence to 1.0D-05 achieved.  Increase integral accuracy.
 Cycle   8  Pass 1  IDiag  1:
 E= -502.826635784782     Delta-E=        0.000049026960 Rises=F Damp=F
 DIIS: error= 2.34D-05 at cycle   1 NSaved=   1.
 NSaved= 1 IEnMin= 1 EnMin= -502.826635784782     IErMin= 1 ErrMin= 2.34D-05
 ErrMax= 2.34D-05 EMaxC= 1.00D-01 BMatC= 2.37D-07 BMatP= 2.37D-07
 IDIUse=1 WtCom= 1.00D+00 WtEn= 0.00D+00
 Coeff-Com:  0.100D+01
 Coeff:      0.100D+01
 Gap=     0.209 Goal=   None    Shift=    0.000
 RMSDP=6.97D-06 MaxDP=2.54D-04 DE= 4.90D-05 OVMax= 4.49D-04

 Cycle   9  Pass 1  IDiag  1:
 E= -502.826635497035     Delta-E=        0.000000287746 Rises=F Damp=F
 DIIS: error= 4.75D-05 at cycle   2 NSaved=   2.
 NSaved= 2 IEnMin= 1 EnMin= -502.826635784782     IErMin= 1 ErrMin= 2.34D-05
 ErrMax= 4.75D-05 EMaxC= 1.00D-01 BMatC= 5.20D-07 BMatP= 2.37D-07
 IDIUse=1 WtCom= 1.00D+00 WtEn= 0.00D+00
 Coeff-Com:  0.608D+00 0.392D+00
 Coeff:      0.608D+00 0.392D+00
 Gap=     0.209 Goal=   None    Shift=    0.000
 RMSDP=4.57D-06 MaxDP=1.38D-04 DE= 2.88D-07 OVMax= 3.50D-04

 Cycle  10  Pass 1  IDiag  1:
 E= -502.826636044522     Delta-E=       -0.000000547487 Rises=F Damp=F
 DIIS: error= 8.28D-06 at cycle   3 NSaved=   3.
 NSaved= 3 IEnMin= 3 EnMin= -502.826636044522     IErMin= 3 ErrMin= 8.28D-06
 ErrMax= 8.28D-06 EMaxC= 1.00D-01 BMatC= 1.68D-08 BMatP= 2.37D-07
 IDIUse=1 WtCom= 1.00D+00 WtEn= 0.00D+00
 Coeff-Com:  0.702D-01 0.161D+00 0.769D+00
 Coeff:      0.702D-01 0.161D+00 0.769D+00
 Gap=     0.209 Goal=   None    Shift=    0.000
 RMSDP=1.04D-06 MaxDP=2.50D-05 DE=-5.47D-07 OVMax= 7.75D-05

 Cycle  11  Pass 1  IDiag  1:
 E= -502.826636060214     Delta-E=       -0.000000015691 Rises=F Damp=F
 DIIS: error= 2.24D-06 at cycle   4 NSaved=   4.
 NSaved= 4 IEnMin= 4 EnMin= -502.826636060214     IErMin= 4 ErrMin= 2.24D-06
 ErrMax= 2.24D-06 EMaxC= 1.00D-01 BMatC= 3.13D-09 BMatP= 1.68D-08
 IDIUse=1 WtCom= 1.00D+00 WtEn= 0.00D+00
 Coeff-Com: -0.105D-01 0.575D-01 0.428D+00 0.525D+00
 Coeff:     -0.105D-01 0.575D-01 0.428D+00 0.525D+00
 Gap=     0.209 Goal=   None    Shift=    0.000
 RMSDP=3.36D-07 MaxDP=9.76D-06 DE=-1.57D-08 OVMax= 1.86D-05

 Cycle  12  Pass 1  IDiag  1:
 E= -502.826636063296     Delta-E=       -0.000000003083 Rises=F Damp=F
 DIIS: error= 8.70D-07 at cycle   5 NSaved=   5.
 NSaved= 5 IEnMin= 5 EnMin= -502.826636063296     IErMin= 5 ErrMin= 8.70D-07
 ErrMax= 8.70D-07 EMaxC= 1.00D-01 BMatC= 1.51D-10 BMatP= 3.13D-09
 IDIUse=1 WtCom= 1.00D+00 WtEn= 0.00D+00
 Coeff-Com: -0.853D-02 0.221D-01 0.187D+00 0.276D+00 0.523D+00
 Coeff:     -0.853D-02 0.221D-01 0.187D+00 0.276D+00 0.523D+00
 Gap=     0.209 Goal=   None    Shift=    0.000
 RMSDP=8.44D-08 MaxDP=2.99D-06 DE=-3.08D-09 OVMax= 7.25D-06

 Cycle  13  Pass 1  IDiag  1:
 E= -502.826636063439     Delta-E=       -0.000000000143 Rises=F Damp=F
 DIIS: error= 3.95D-07 at cycle   6 NSaved=   6.
 NSaved= 6 IEnMin= 6 EnMin= -502.826636063439     IErMin= 6 ErrMin= 3.95D-07
 ErrMax= 3.95D-07 EMaxC= 1.00D-01 BMatC= 2.30D-11 BMatP= 1.51D-10
 IDIUse=1 WtCom= 1.00D+00 WtEn= 0.00D+00
 Coeff-Com: -0.445D-02 0.934D-02 0.846D-01 0.131D+00 0.328D+00 0.452D+00
 Coeff:     -0.445D-02 0.934D-02 0.846D-01 0.131D+00 0.328D+00 0.452D+00
 Gap=     0.209 Goal=   None    Shift=    0.000
 RMSDP=3.19D-08 MaxDP=9.11D-07 DE=-1.43D-10 OVMax= 2.20D-06

 Cycle  14  Pass 1  IDiag  1:
 E= -502.826636063465     Delta-E=       -0.000000000026 Rises=F Damp=F
 DIIS: error= 4.23D-08 at cycle   7 NSaved=   7.
 NSaved= 7 IEnMin= 7 EnMin= -502.826636063465     IErMin= 7 ErrMin= 4.23D-08
 ErrMax= 4.23D-08 EMaxC= 1.00D-01 BMatC= 7.46D-13 BMatP= 2.30D-11
 IDIUse=1 WtCom= 1.00D+00 WtEn= 0.00D+00
 Coeff-Com: -0.958D-03 0.138D-02 0.148D-01 0.235D-01 0.763D-01 0.185D+00
 Coeff-Com:  0.700D+00
 Coeff:     -0.958D-03 0.138D-02 0.148D-01 0.235D-01 0.763D-01 0.185D+00
 Coeff:      0.700D+00
 Gap=     0.209 Goal=   None    Shift=    0.000
 RMSDP=6.89D-09 MaxDP=1.71D-07 DE=-2.61D-11 OVMax= 4.98D-07

 SCF Done:  E(RB3LYP) =  -502.826636063     A.U. after   14 cycles
             Convg  =    0.6892D-08             -V/T =  2.0095
 KE= 4.980954489693D+02 PE=-2.538301040869D+03 EE= 8.515879616153D+02
 Leave Link  502 at Thu Sep 30 07:46:16 2021, MaxMem= 1073741824 cpu:     173.1
 (Enter /sw/target/amd/app/gaussian/Gaussian09RevA.02_gcc-4.9.2/g09/l508.exe)
 QCSCF skips out because SCF is already converged.
 Leave Link  508 at Thu Sep 30 07:46:16 2021, MaxMem= 1073741824 cpu:       0.0
 (Enter /sw/target/amd/app/gaussian/Gaussian09RevA.02_gcc-4.9.2/g09/l601.exe)
 Copying SCF densities to generalized density rwf, IOpCl= 0 IROHF=0.

 **********************************************************************

            Population analysis using the SCF density.

 **********************************************************************

 Orbital symmetries:
       Occupied  (A) (A) (A) (A) (A) (A) (A) (A) (A) (A) (A) (A)
                 (A) (A) (A) (A) (A) (A) (A) (A) (A) (A) (A) (A)
                 (A) (A) (A) (A) (A) (A) (A) (A) (A) (A) (A) (A)
                 (A) (A) (A) (A) (A) (A) (A) (A)
       Virtual   (A) (A) (A) (A) (A) (A) (A) (A) (A) (A) (A) (A)
                 (A) (A) (A) (A) (A) (A) (A) (A) (A) (A) (A) (A)
                 (A) (A) (A) (A) (A) (A) (A) (A) (A) (A) (A) (A)
                 (A) (A) (A) (A) (A) (A) (A) (A) (A) (A) (A) (A)
                 (A) (A) (A) (A) (A) (A) (A) (A) (A) (A) (A) (A)
                 (A) (A) (A) (A) (A) (A) (A) (A) (A) (A) (A) (A)
                 (A) (A) (A) (A) (A) (A) (A) (A) (A) (A) (A) (A)
                 (A) (A) (A) (A) (A) (A) (A) (A) (A) (A) (A) (A)
                 (A) (A) (A) (A) (A) (A) (A) (A) (A) (A) (A) (A)
                 (A) (A) (A) (A) (A) (A) (A) (A) (A) (A) (A) (A)
                 (A) (A) (A) (A) (A) (A) (A) (A) (A) (A) (A) (A)
                 (A) (A) (A) (A) (A) (A) (A) (A) (A) (A) (A) (A)
                 (A) (A) (A) (A) (A) (A) (A) (A) (A) (A) (A) (A)
                 (A) (A) (A) (A) (A) (A) (A) (A)
 The electronic state is 1-A.
 Alpha  occ. eigenvalues --  -19.16965 -10.23529 -10.23520 -10.18646 -10.18118
 Alpha  occ. eigenvalues --  -10.17828 -10.17758 -10.17727 -10.17702 -10.17652
 Alpha  occ. eigenvalues --  -10.17587 -10.17274  -1.05468  -0.85351  -0.80413
 Alpha  occ. eigenvalues --   -0.76092  -0.74137  -0.70874  -0.69002  -0.62119
 Alpha  occ. eigenvalues --   -0.59981  -0.58859  -0.54041  -0.51196  -0.48786
 Alpha  occ. eigenvalues --   -0.46767  -0.46417  -0.44496  -0.43760  -0.42775
 Alpha  occ. eigenvalues --   -0.41349  -0.40710  -0.38959  -0.37919  -0.36761
 Alpha  occ. eigenvalues --   -0.35682  -0.35484  -0.32991  -0.32869  -0.30761
 Alpha  occ. eigenvalues --   -0.30207  -0.29519  -0.23328  -0.20440
 Alpha virt. eigenvalues --    0.00484   0.02298   0.09532   0.10363   0.11413
 Alpha virt. eigenvalues --    0.12733   0.13319   0.14363   0.14739   0.15710
 Alpha virt. eigenvalues --    0.16425   0.17088   0.17282   0.17452   0.18885
 Alpha virt. eigenvalues --    0.19425   0.20217   0.22390   0.22597   0.23666
 Alpha virt. eigenvalues --    0.25373   0.27896   0.28584   0.29870   0.33690
 Alpha virt. eigenvalues --    0.34968   0.36787   0.41672   0.47915   0.49863
 Alpha virt. eigenvalues --    0.51426   0.52487   0.53773   0.54336   0.54983
 Alpha virt. eigenvalues --    0.56058   0.56259   0.57585   0.58650   0.59681
 Alpha virt. eigenvalues --    0.60856   0.61898   0.62647   0.63576   0.66571
 Alpha virt. eigenvalues --    0.66729   0.68650   0.68977   0.73001   0.73500
 Alpha virt. eigenvalues --    0.73559   0.76427   0.78559   0.79940   0.79996
 Alpha virt. eigenvalues --    0.83632   0.84224   0.84794   0.85357   0.85732
 Alpha virt. eigenvalues --    0.87350   0.87601   0.88975   0.90299   0.92433
 Alpha virt. eigenvalues --    0.93383   0.93857   0.94747   0.95645   0.96637
 Alpha virt. eigenvalues --    0.96678   0.98474   0.99646   1.02930   1.06740
 Alpha virt. eigenvalues --    1.08199   1.10007   1.11460   1.16745   1.19552
 Alpha virt. eigenvalues --    1.21994   1.22949   1.23192   1.26595   1.31184
 Alpha virt. eigenvalues --    1.37023   1.38966   1.39574   1.43975   1.46871
 Alpha virt. eigenvalues --    1.47721   1.49222   1.49355   1.53198   1.60145
 Alpha virt. eigenvalues --    1.66570   1.67989   1.69407   1.71697   1.73895
 Alpha virt. eigenvalues --    1.78233   1.80200   1.84938   1.85401   1.88290
 Alpha virt. eigenvalues --    1.89420   1.89591   1.91291   1.93436   1.94130
 Alpha virt. eigenvalues --    1.95568   1.97460   1.99813   2.01328   2.02800
 Alpha virt. eigenvalues --    2.05713   2.08501   2.10675   2.12171   2.13065
 Alpha virt. eigenvalues --    2.17912   2.19007   2.22482   2.22644   2.26076
 Alpha virt. eigenvalues --    2.27669   2.28032   2.30207   2.32460   2.35045
 Alpha virt. eigenvalues --    2.37752   2.39497   2.41050   2.43440   2.44059
 Alpha virt. eigenvalues --    2.52952   2.55207   2.59382   2.60262   2.62378
 Alpha virt. eigenvalues --    2.66906   2.70472   2.71875   2.74175   2.76252
 Alpha virt. eigenvalues --    2.83366   2.86364   2.95950   2.99830   3.01993
 Alpha virt. eigenvalues --    3.21702   3.44200   4.06093   4.11533   4.13228
 Alpha virt. eigenvalues --    4.19076   4.22176   4.27895   4.32067   4.37315
 Alpha virt. eigenvalues --    4.46099   4.51542   4.57948   4.80760
          Condensed to atoms (all electrons):
              1          2          3          4          5          6
     1  C    4.893963   0.250985  -0.044692   0.004140  -0.000130   0.000001
     2  O    0.250985   8.206285   0.273647  -0.055471   0.003096   0.000333
     3  C   -0.044692   0.273647   4.529448   0.540333  -0.010647  -0.038081
     4  C    0.004140  -0.055471   0.540333   4.999711   0.506095  -0.023874
     5  C   -0.000130   0.003096  -0.010647   0.506095   5.024128   0.496009
     6  C    0.000001   0.000333  -0.038081  -0.023874   0.496009   4.741911
     7  C    0.000495   0.003149   0.006925  -0.038147  -0.015255   0.581204
     8  C   -0.007309  -0.057875   0.442539  -0.065255  -0.061261  -0.025315
     9  C   -0.000018  -0.000048   0.005145   0.000138   0.010076  -0.049069
    10  C    0.000000   0.000000  -0.000131   0.000003   0.000176  -0.010208
    11  C    0.000000  -0.000000   0.000008  -0.000211   0.003695  -0.031882
    12  C   -0.000000   0.000001   0.000040   0.006921  -0.076053   0.347719
    13  H    0.383183  -0.031505   0.003223  -0.000107   0.000003  -0.000000
    14  H    0.361473  -0.036094  -0.003583   0.000392  -0.000019  -0.000001
    15  H    0.365732  -0.036678  -0.005280  -0.000127   0.000009  -0.000002
    16  H   -0.000188  -0.000168  -0.036490   0.342073  -0.040417   0.004094
    17  H    0.000003  -0.000063   0.004138  -0.042829   0.355114  -0.044907
    18  H    0.005906  -0.007088  -0.049224   0.004689   0.000616   0.004880
    19  H   -0.000000  -0.000001   0.000085   0.000023  -0.000168   0.002399
    20  H   -0.000002   0.000000  -0.000198   0.000067  -0.000309  -0.002098
    21  H   -0.000000  -0.000000   0.000001  -0.000003  -0.000181  -0.000868
    22  H    0.000000  -0.000000   0.000002  -0.000000   0.000005   0.000441
    23  H    0.000000   0.000000  -0.000000   0.000002  -0.000130   0.003804
    24  H   -0.000000   0.000000  -0.000003  -0.000001   0.000042  -0.001223
    25  H    0.000000  -0.000000   0.000051  -0.000177  -0.002784  -0.032209
    26  H   -0.000000  -0.000000   0.000018   0.000167  -0.004149  -0.034451
              7          8          9         10         11         12
     1  C    0.000495  -0.007309  -0.000018   0.000000   0.000000  -0.000000
     2  O    0.003149  -0.057875  -0.000048   0.000000  -0.000000   0.000001
     3  C    0.006925   0.442539   0.005145  -0.000131   0.000008   0.000040
     4  C   -0.038147  -0.065255   0.000138   0.000003  -0.000211   0.006921
     5  C   -0.015255  -0.061261   0.010076   0.000176   0.003695  -0.076053
     6  C    0.581204  -0.025315  -0.049069  -0.010208  -0.031882   0.347719
     7  C    4.734399   0.452737   0.346431  -0.031861  -0.009955  -0.048912
     8  C    0.452737   5.280779  -0.067215   0.003321   0.000129   0.010784
     9  C    0.346431  -0.067215   5.164089   0.360876  -0.043405  -0.030913
    10  C   -0.031861   0.003321   0.360876   5.013842   0.376223  -0.043171
    11  C   -0.009955   0.000129  -0.043405   0.376223   5.013586   0.359745
    12  C   -0.048912   0.010784  -0.030913  -0.043171   0.359745   5.167496
    13  H    0.000003   0.000187  -0.000000   0.000000  -0.000000  -0.000000
    14  H   -0.000335   0.006341   0.000003   0.000000  -0.000000   0.000000
    15  H   -0.000020   0.003733  -0.000004  -0.000000   0.000000  -0.000000
    16  H    0.000464   0.007378   0.000009  -0.000000   0.000002  -0.000168
    17  H    0.004857   0.000512  -0.000195   0.000013   0.000151  -0.008333
    18  H   -0.042273   0.347139  -0.008444   0.000135   0.000012  -0.000185
    19  H   -0.033079  -0.004455   0.362122  -0.034659   0.005671   0.000052
    20  H   -0.031397  -0.003274   0.357079  -0.034219  -0.005711   0.000911
    21  H   -0.001733   0.000028  -0.039519   0.376643  -0.043417  -0.003540
    22  H    0.003864  -0.000121  -0.030771   0.367813  -0.034590   0.004913
    23  H    0.000449   0.000006   0.004938  -0.034736   0.367192  -0.030522
    24  H   -0.000915  -0.000217  -0.003205  -0.044320   0.376550  -0.039970
    25  H   -0.002556  -0.000318   0.001039  -0.006289  -0.034533   0.356909
    26  H    0.002433  -0.000152   0.000034   0.005771  -0.034164   0.363668
             13         14         15         16         17         18
     1  C    0.383183   0.361473   0.365732  -0.000188   0.000003   0.005906
     2  O   -0.031505  -0.036094  -0.036678  -0.000168  -0.000063  -0.007088
     3  C    0.003223  -0.003583  -0.005280  -0.036490   0.004138  -0.049224
     4  C   -0.000107   0.000392  -0.000127   0.342073  -0.042829   0.004689
     5  C    0.000003  -0.000019   0.000009  -0.040417   0.355114   0.000616
     6  C   -0.000000  -0.000001  -0.000002   0.004094  -0.044907   0.004880
     7  C    0.000003  -0.000335  -0.000020   0.000464   0.004857  -0.042273
     8  C    0.000187   0.006341   0.003733   0.007378   0.000512   0.347139
     9  C   -0.000000   0.000003  -0.000004   0.000009  -0.000195  -0.008444
    10  C    0.000000   0.000000  -0.000000  -0.000000   0.000013   0.000135
    11  C   -0.000000  -0.000000   0.000000   0.000002   0.000151   0.000012
    12  C   -0.000000   0.000000  -0.000000  -0.000168  -0.008333  -0.000185
    13  H    0.549160  -0.032404  -0.036404  -0.000029  -0.000000  -0.000121
    14  H   -0.032404   0.598309  -0.046899   0.000036   0.000000   0.001551
    15  H   -0.036404  -0.046899   0.603978   0.000026  -0.000000   0.002057
    16  H   -0.000029   0.000036   0.000026   0.599691  -0.006190  -0.000177
    17  H   -0.000000   0.000000  -0.000000  -0.006190   0.611090   0.000021
    18  H   -0.000121   0.001551   0.002057  -0.000177   0.000021   0.615064
    19  H    0.000000  -0.000005   0.000006  -0.000000   0.000003   0.004652
    20  H    0.000000   0.000005  -0.000001  -0.000000   0.000003   0.001433
    21  H   -0.000000  -0.000000   0.000000   0.000000  -0.000000  -0.000000
    22  H   -0.000000   0.000000  -0.000000   0.000000  -0.000000  -0.000006
    23  H    0.000000  -0.000000   0.000000  -0.000000  -0.000006  -0.000000
    24  H   -0.000000  -0.000000   0.000000   0.000000  -0.000001   0.000000
    25  H   -0.000000  -0.000000   0.000000   0.000001   0.001207   0.000003
    26  H    0.000000   0.000000  -0.000000  -0.000007   0.004375   0.000003
             19         20         21         22         23         24
     1  C   -0.000000  -0.000002  -0.000000   0.000000   0.000000  -0.000000
     2  O   -0.000001   0.000000  -0.000000  -0.000000   0.000000   0.000000
     3  C    0.000085  -0.000198   0.000001   0.000002  -0.000000  -0.000003
     4  C    0.000023   0.000067  -0.000003  -0.000000   0.000002  -0.000001
     5  C   -0.000168  -0.000309  -0.000181   0.000005  -0.000130   0.000042
     6  C    0.002399  -0.002098  -0.000868   0.000441   0.003804  -0.001223
     7  C   -0.033079  -0.031397  -0.001733   0.003864   0.000449  -0.000915
     8  C   -0.004455  -0.003274   0.000028  -0.000121   0.000006  -0.000217
     9  C    0.362122   0.357079  -0.039519  -0.030771   0.004938  -0.003205
    10  C   -0.034659  -0.034219   0.376643   0.367813  -0.034736  -0.044320
    11  C    0.005671  -0.005711  -0.043417  -0.034590   0.367192   0.376550
    12  C    0.000052   0.000911  -0.003540   0.004913  -0.030522  -0.039970
    13  H    0.000000   0.000000  -0.000000  -0.000000   0.000000  -0.000000
    14  H   -0.000005   0.000005  -0.000000   0.000000  -0.000000  -0.000000
    15  H    0.000006  -0.000001   0.000000  -0.000000   0.000000   0.000000
    16  H   -0.000000  -0.000000   0.000000   0.000000  -0.000000   0.000000
    17  H    0.000003   0.000003  -0.000000  -0.000000  -0.000006  -0.000001
    18  H    0.004652   0.001433  -0.000000  -0.000006  -0.000000   0.000000
    19  H    0.596908  -0.035055  -0.005568  -0.001448  -0.000167   0.000105
    20  H   -0.035055   0.599107   0.005814  -0.005769  -0.000109   0.004027
    21  H   -0.005568   0.005814   0.605617  -0.036405  -0.003523   0.006084
    22  H   -0.001448  -0.005769  -0.036405   0.608764  -0.003640  -0.003526
    23  H   -0.000167  -0.000109  -0.003523  -0.003640   0.609454  -0.036326
    24  H    0.000105   0.004027   0.006084  -0.003526  -0.036326   0.607846
    25  H    0.000090  -0.000039   0.004273  -0.000104  -0.005446   0.005910
    26  H    0.000002   0.000081   0.000092  -0.000170  -0.001629  -0.005632
             25         26
     1  C    0.000000  -0.000000
     2  O   -0.000000  -0.000000
     3  C    0.000051   0.000018
     4  C   -0.000177   0.000167
     5  C   -0.002784  -0.004149
     6  C   -0.032209  -0.034451
     7  C   -0.002556   0.002433
     8  C   -0.000318  -0.000152
     9  C    0.001039   0.000034
    10  C   -0.006289   0.005771
    11  C   -0.034533  -0.034164
    12  C    0.356909   0.363668
    13  H   -0.000000   0.000000
    14  H   -0.000000   0.000000
    15  H    0.000000  -0.000000
    16  H    0.000001  -0.000007
    17  H    0.001207   0.004375
    18  H    0.000003   0.000003
    19  H    0.000090   0.000002
    20  H   -0.000039   0.000081
    21  H    0.004273   0.000092
    22  H   -0.000104  -0.000170
    23  H   -0.005446  -0.001629
    24  H    0.005910  -0.005632
    25  H    0.603846  -0.035927
    26  H   -0.035927   0.598586
 Mulliken atomic charges:
              1
     1  C   -0.213542
     2  O   -0.512505
     3  C    0.382730
     4  C   -0.178549
     5  C   -0.187560
     6  C    0.111394
     7  C    0.119026
     8  C   -0.262845
     9  C   -0.339173
    10  C   -0.265222
    11  C   -0.265096
    12  C   -0.337391
    13  H    0.164811
    14  H    0.151230
    15  H    0.149875
    16  H    0.130060
    17  H    0.121037
    18  H    0.119358
    19  H    0.142487
    20  H    0.149654
    21  H    0.136205
    22  H    0.130750
    23  H    0.130388
    24  H    0.134775
    25  H    0.147053
    26  H    0.141049
 Sum of Mulliken atomic charges =  -0.00000
 Mulliken charges with hydrogens summed into heavy atoms:
              1
     1  C    0.252375
     2  O   -0.512505
     3  C    0.382730
     4  C   -0.048489
     5  C   -0.066523
     6  C    0.111394
     7  C    0.119026
     8  C   -0.143487
     9  C   -0.047032
    10  C    0.001732
    11  C    0.000067
    12  C   -0.049289
 Sum of Mulliken charges with hydrogens summed into heavy atoms =  -0.00000
 Electronic spatial extent (au):  <R**2>=           2418.9607
 Charge=              0.0000 electrons
 Dipole moment (field-independent basis, Debye):
    X=              0.3066    Y=             -1.3883    Z=              0.3171  Tot=              1.4567
 Quadrupole moment (field-independent basis, Debye-Ang):
   XX=            -67.2401   YY=            -67.1807   ZZ=            -73.5939
   XY=              5.0515   XZ=             -1.1980   YZ=             -0.2469
 Traceless Quadrupole moment (field-independent basis, Debye-Ang):
   XX=              2.0981   YY=              2.1575   ZZ=             -4.2557
   XY=              5.0515   XZ=             -1.1980   YZ=             -0.2469
 Octapole moment (field-independent basis, Debye-Ang**2):
  XXX=            -28.7081  YYY=              4.5071  ZZZ=              0.6390  XYY=            -10.2251
  XXY=            -18.7385  XXZ=              4.2571  XZZ=             -2.3647  YZZ=             -3.1068
  YYZ=             -0.0677  XYZ=              0.3351
 Hexadecapole moment (field-independent basis, Debye-Ang**3):
 XXXX=          -2271.2566 YYYY=           -700.9293 ZZZZ=           -124.4778 XXXY=             77.3031
 XXXZ=            -21.2760 YYYX=             -0.1053 YYYZ=              1.2386 ZZZX=             -1.2337
 ZZZY=             -1.0996 XXYY=           -494.1790 XXZZ=           -418.0481 YYZZ=           -145.4261
 XXYZ=             -4.5686 YYXZ=              2.7243 ZZXY=              3.7810
 N-N= 6.857909942211D+02 E-N=-2.538301049333D+03  KE= 4.980954489693D+02
 No NMR shielding tensors so no spin-rotation constants.
 Leave Link  601 at Thu Sep 30 07:46:19 2021, MaxMem= 1073741824 cpu:       1.3
 (Enter /sw/target/amd/app/gaussian/Gaussian09RevA.02_gcc-4.9.2/g09/l701.exe)
 Compute integral first derivatives.
 ... and contract with generalized density number  0.
 Leave Link  701 at Thu Sep 30 07:46:21 2021, MaxMem= 1073741824 cpu:       1.2
 (Enter /sw/target/amd/app/gaussian/Gaussian09RevA.02_gcc-4.9.2/g09/l702.exe)
 L702 exits ... SP integral derivatives will be done elsewhere.
 Leave Link  702 at Thu Sep 30 07:46:22 2021, MaxMem= 1073741824 cpu:       0.1
 (Enter /sw/target/amd/app/gaussian/Gaussian09RevA.02_gcc-4.9.2/g09/l703.exe)
 Compute integral first derivatives, UseDBF=F ICtDFT=           0.
 Integral derivatives from FoFDir, PRISM(SPDF).
 Calling FoFJK, ICntrl=      2127 FMM=F ISym2X=0 I1Cent= 0 IOpClX= 0 NMat=1 NMatS=1 NMatT=0.
 FoFCou: FMM=F IPFlag=           0 FMFlag=      100000 FMFlg1=         800
         NFxFlg=           0 DoJE=F BraDBF=F KetDBF=F FulRan=T
         Omega=  0.000000  0.000000  1.000000  0.000000  0.000000 ICntrl=    2127 IOpCl=  0
         NMat0=    1 NMatS0=    1 NMatT0=    0 NMatD0=    1 NMtDS0=    0 NMtDT0=    0
         I1Cent=           0 NGrid=           0.
 Symmetry not used in FoFCou.
 Leave Link  703 at Thu Sep 30 07:47:36 2021, MaxMem= 1073741824 cpu:      64.2
 (Enter /sw/target/amd/app/gaussian/Gaussian09RevA.02_gcc-4.9.2/g09/l716.exe)
 Dipole        = 1.20622569D-01-5.46210992D-01 1.24740217D-01
 ***** Axes restored to original set *****
 -------------------------------------------------------------------
 Center     Atomic                   Forces (Hartrees/Bohr)
 Number     Number              X              Y              Z
 -------------------------------------------------------------------
      1        6           0.000832172   -0.006141501    0.000336886
      2        8          -0.008444816    0.000247058    0.002045129
      3        6           0.001890743   -0.000128269   -0.000309307
      4        6           0.013959092    0.002802979   -0.008857810
      5        6          -0.010961681   -0.008432524    0.005991043
      6        6          -0.000071299    0.000408615    0.002295729
      7        6           0.001850592   -0.008829770   -0.005006420
      8        6           0.000037811    0.001194559    0.000694189
      9        6           0.001388654    0.001129372    0.003162486
     10        6          -0.002020525    0.003337084   -0.000470132
     11        6           0.003601176    0.002857818    0.000631875
     12        6          -0.001518050    0.002814266   -0.002649384
     13        1           0.004226279   -0.000963247   -0.001372308
     14        1          -0.000067258    0.003758759    0.001391251
     15        1          -0.001916468    0.003538570    0.000929444
     16        1          -0.002553183   -0.000545717    0.001287990
     17        1          -0.000040589    0.001216508   -0.000329764
     18        1          -0.000398332   -0.000552810    0.000001079
     19        1          -0.003898232   -0.001234525   -0.000463411
     20        1          -0.002790070    0.001957714    0.001281059
     21        1           0.000779327   -0.000084017    0.000687205
     22        1          -0.000201024    0.000750627    0.001618503
     23        1           0.000238127    0.001068782   -0.001392431
     24        1          -0.000772727    0.000051074   -0.000725819
     25        1           0.003482684    0.001871009   -0.001156136
     26        1           0.003367596   -0.002092414    0.000379056
 -------------------------------------------------------------------
 Cartesian Forces:  Max     0.013959092 RMS     0.003477506
 Leave Link  716 at Thu Sep 30 07:47:36 2021, MaxMem= 1073741824 cpu:       0.1
 (Enter /sw/target/amd/app/gaussian/Gaussian09RevA.02_gcc-4.9.2/g09/l103.exe)

 GradGradGradGradGradGradGradGradGradGradGradGradGradGradGradGradGradGrad
 Berny optimization.
 Internal  Forces:  Max     0.007949424 RMS     0.002092518
 Search for a local minimum.
 Step number   1 out of a maximum of  154
 All quantities printed in internal units (Hartrees-Bohrs-Radians)
 RMS Force = .20925D-02 SwitMx=.10000D-02 MixMth= 1
 Mixed Optimization -- RFO/linear search
 Second derivative matrix not updated -- first step.
     Eigenvalues ---    0.00574   0.00706   0.01134   0.01297   0.01400
     Eigenvalues ---    0.01586   0.02066   0.02087   0.02111   0.02117
     Eigenvalues ---    0.02143   0.02150   0.02156   0.02804   0.03110
     Eigenvalues ---    0.04164   0.04387   0.04968   0.05346   0.05828
     Eigenvalues ---    0.06055   0.07294   0.07984   0.08003   0.09322
     Eigenvalues ---    0.09440   0.09472   0.09981   0.10542   0.11640
     Eigenvalues ---    0.12167   0.15999   0.16000   0.16000   0.16000
     Eigenvalues ---    0.16000   0.16000   0.18421   0.19081   0.22456
     Eigenvalues ---    0.23502   0.24170   0.24697   0.24998   0.25000
     Eigenvalues ---    0.28712   0.28782   0.28950   0.30824   0.31145
     Eigenvalues ---    0.33960   0.33964   0.33994   0.33996   0.34055
     Eigenvalues ---    0.34055   0.34159   0.34165   0.34195   0.34279
     Eigenvalues ---    0.34323   0.35119   0.35162   0.35346   0.40143
     Eigenvalues ---    0.41470   0.42150   0.44511   0.45557   0.45941
     Eigenvalues ---    0.46427   0.513951000.000001000.000001000.00000
     Eigenvalues --- 1000.000001000.000001000.000001000.000001000.00000
     Eigenvalues --- 1000.000001000.000001000.000001000.000001000.00000
     Eigenvalues --- 1000.000001000.000001000.000001000.000001000.00000
     Eigenvalues --- 1000.000001000.000001000.000001000.000001000.00000
     Eigenvalues --- 1000.000001000.000001000.000001000.000001000.00000
     Eigenvalues --- 1000.000001000.000001000.000001000.000001000.00000
     Eigenvalues --- 1000.000001000.000001000.000001000.000001000.00000
     Eigenvalues --- 1000.000001000.000001000.000001000.000001000.00000
     Eigenvalues --- 1000.000001000.000001000.000001000.000001000.00000
     Eigenvalues --- 1000.000001000.000001000.000001000.000001000.00000
     Eigenvalues --- 1000.000001000.000001000.000001000.000001000.00000
     Eigenvalues --- 1000.000001000.000001000.000001000.000001000.00000
     Eigenvalues --- 1000.000001000.000001000.000001000.000001000.00000
     Eigenvalues --- 1000.000001000.000001000.000001000.00000
 RFO step:  Lambda=-3.38009478D-03 EMin= 5.73560969D-03
 Linear search not attempted -- first point.
 Iteration  1 RMS(Cart)=  0.04672950 RMS(Int)=  0.00095850
 Iteration  2 RMS(Cart)=  0.00147261 RMS(Int)=  0.00007746
 Iteration  3 RMS(Cart)=  0.00000164 RMS(Int)=  0.00007745
 Iteration  4 RMS(Cart)=  0.00000000 RMS(Int)=  0.00007745
 Variable       Old X    -DE/DX   Delta X   Delta X   Delta X     New X
                                 (Linear)    (Quad)   (Total)
    R1        2.68732  -0.00230   0.00000  -0.00542  -0.00542   2.68190
    R2        2.06789  -0.00077   0.00000  -0.00223  -0.00223   2.06566
    R3        2.07003   0.00137   0.00000   0.00397   0.00397   2.07401
    R4        2.06862   0.00201   0.00000   0.00581   0.00581   2.07443
    R5        2.58484   0.00274   0.00000   0.00530   0.00530   2.59014
    R6        2.63461   0.00535   0.00000   0.01183   0.01183   2.64643
    R7        2.63762  -0.00043   0.00000  -0.00056  -0.00058   2.63704
    R8        2.63790  -0.00624   0.00000  -0.01329  -0.01327   2.62463
    R9        2.05413  -0.00068   0.00000  -0.00191  -0.00191   2.05222
   R10        2.64635   0.00339   0.00000   0.00704   0.00706   2.65341
   R11        2.05482   0.00003   0.00000   0.00008   0.00008   2.05489
   R12        2.65690  -0.00146   0.00000  -0.00421  -0.00421   2.65269
   R13        2.85177   0.00795   0.00000   0.02498   0.02497   2.87674
   R14        2.65895  -0.00134   0.00000  -0.00307  -0.00308   2.65586
   R15        2.85383   0.00649   0.00000   0.01990   0.01989   2.87373
   R16        2.05117   0.00026   0.00000   0.00074   0.00074   2.05190
   R17        2.88686   0.00496   0.00000   0.01593   0.01592   2.90279
   R18        2.07237   0.00075   0.00000   0.00217   0.00217   2.07454
   R19        2.07340   0.00207   0.00000   0.00601   0.00601   2.07942
   R20        2.87806   0.00498   0.00000   0.01840   0.01843   2.89649
   R21        2.07391   0.00104   0.00000   0.00303   0.00303   2.07694
   R22        2.07063   0.00101   0.00000   0.00293   0.00293   2.07357
   R23        2.88638   0.00464   0.00000   0.01535   0.01534   2.90172
   R24        2.07053   0.00110   0.00000   0.00318   0.00318   2.07371
   R25        2.07398   0.00106   0.00000   0.00308   0.00308   2.07706
   R26        2.07336   0.00224   0.00000   0.00651   0.00651   2.07987
   R27        2.07238   0.00071   0.00000   0.00205   0.00205   2.07443
    A1        1.88097  -0.00599   0.00000  -0.03384  -0.03376   1.84721
    A2        1.94270   0.00049   0.00000   0.00160   0.00164   1.94434
    A3        1.93774   0.00275   0.00000   0.01527   0.01535   1.95309
    A4        1.87886   0.00382   0.00000   0.02630   0.02634   1.90519
    A5        1.87987   0.00263   0.00000   0.01871   0.01883   1.89871
    A6        1.94057  -0.00366   0.00000  -0.02731  -0.02727   1.91330
    A7        2.03415   0.00538   0.00000   0.02124   0.02124   2.05539
    A8        2.00404   0.00490   0.00000   0.01878   0.01883   2.02287
    A9        2.19813  -0.00488   0.00000  -0.01985  -0.01979   2.17834
   A10        2.08096  -0.00002   0.00000   0.00103   0.00091   2.08187
   A11        2.10467  -0.00363   0.00000  -0.01557  -0.01567   2.08899
   A12        2.08923  -0.00108   0.00000  -0.00988  -0.00986   2.07938
   A13        2.08924   0.00471   0.00000   0.02555   0.02557   2.11481
   A14        2.10284   0.00535   0.00000   0.02294   0.02287   2.12571
   A15        2.07890  -0.00145   0.00000  -0.00400  -0.00397   2.07493
   A16        2.10144  -0.00389   0.00000  -0.01894  -0.01891   2.08254
   A17        2.08172  -0.00360   0.00000  -0.01499  -0.01518   2.06654
   A18        2.07814   0.00285   0.00000   0.01302   0.01294   2.09108
   A19        2.12235   0.00077   0.00000   0.00304   0.00301   2.12537
   A20        2.08745   0.00106   0.00000   0.00432   0.00408   2.09153
   A21        2.11927   0.00056   0.00000   0.00122   0.00120   2.12047
   A22        2.07544  -0.00159   0.00000  -0.00437  -0.00445   2.07099
   A23        2.10778   0.00087   0.00000   0.00406   0.00392   2.11170
   A24        2.11080  -0.00106   0.00000  -0.00583  -0.00577   2.10503
   A25        2.06459   0.00019   0.00000   0.00179   0.00186   2.06644
   A26        1.97899  -0.00033   0.00000   0.00253   0.00249   1.98148
   A27        1.91690  -0.00104   0.00000  -0.00508  -0.00525   1.91165
   A28        1.88457   0.00141   0.00000   0.01281   0.01282   1.89739
   A29        1.89635   0.00239   0.00000   0.02385   0.02386   1.92021
   A30        1.90662  -0.00062   0.00000  -0.00701  -0.00702   1.89959
   A31        1.87784  -0.00195   0.00000  -0.02933  -0.02923   1.84861
   A32        1.92789   0.00014   0.00000   0.00375   0.00375   1.93164
   A33        1.91831   0.00013   0.00000  -0.00529  -0.00531   1.91300
   A34        1.91311  -0.00045   0.00000   0.00166   0.00156   1.91468
   A35        1.91156  -0.00062   0.00000  -0.00679  -0.00677   1.90479
   A36        1.92398   0.00111   0.00000   0.01285   0.01278   1.93676
   A37        1.86809  -0.00032   0.00000  -0.00654  -0.00651   1.86158
   A38        1.92578  -0.00009   0.00000   0.00232   0.00231   1.92808
   A39        1.92408   0.00109   0.00000   0.01234   0.01226   1.93634
   A40        1.91218  -0.00062   0.00000  -0.00754  -0.00754   1.90464
   A41        1.91348  -0.00009   0.00000   0.00563   0.00553   1.91901
   A42        1.91893   0.00005   0.00000  -0.00687  -0.00691   1.91202
   A43        1.86859  -0.00035   0.00000  -0.00616  -0.00610   1.86249
   A44        1.97466  -0.00065   0.00000   0.00272   0.00268   1.97734
   A45        1.88658   0.00187   0.00000   0.01711   0.01714   1.90371
   A46        1.91720  -0.00079   0.00000  -0.00383  -0.00399   1.91321
   A47        1.90824  -0.00095   0.00000  -0.01149  -0.01150   1.89674
   A48        1.89670   0.00238   0.00000   0.02297   0.02297   1.91967
   A49        1.87811  -0.00197   0.00000  -0.02965  -0.02952   1.84859
    D1        3.02229  -0.00001   0.00000  -0.00264  -0.00257   3.01972
    D2        0.96584  -0.00127   0.00000  -0.01484  -0.01484   0.95100
    D3       -1.20601   0.00111   0.00000   0.00824   0.00817  -1.19784
    D4       -2.92864  -0.00178   0.00000  -0.07047  -0.07041  -2.99905
    D5        0.22428  -0.00157   0.00000  -0.06573  -0.06579   0.15849
    D6        3.12546   0.00072   0.00000   0.02971   0.02963  -3.12809
    D7       -0.00627   0.00048   0.00000   0.01795   0.01805   0.01179
    D8       -0.02663   0.00049   0.00000   0.02515   0.02512  -0.00151
    D9        3.12483   0.00025   0.00000   0.01339   0.01354   3.13837
   D10       -3.13974  -0.00039   0.00000  -0.01306  -0.01304   3.13040
   D11        0.00891  -0.00029   0.00000  -0.01634  -0.01638  -0.00748
   D12        0.01362  -0.00019   0.00000  -0.00822  -0.00837   0.00526
   D13       -3.12091  -0.00010   0.00000  -0.01150  -0.01171  -3.13262
   D14        0.00357  -0.00022   0.00000  -0.00716  -0.00705  -0.00348
   D15       -3.13495  -0.00002   0.00000  -0.00622  -0.00618  -3.14112
   D16        3.13530  -0.00001   0.00000   0.00440   0.00456   3.13986
   D17       -0.00322   0.00019   0.00000   0.00534   0.00544   0.00222
   D18        0.03244  -0.00037   0.00000  -0.02786  -0.02778   0.00465
   D19        3.12740   0.00019   0.00000  -0.00223  -0.00231   3.12509
   D20       -3.11227  -0.00057   0.00000  -0.02878  -0.02864  -3.14091
   D21       -0.01731  -0.00001   0.00000  -0.00316  -0.00317  -0.02048
   D22       -0.04497   0.00065   0.00000   0.04426   0.04410  -0.00087
   D23       -3.13757   0.00009   0.00000   0.01627   0.01600  -3.12158
   D24       -3.13871   0.00002   0.00000   0.01770   0.01784  -3.12087
   D25        0.05187  -0.00054   0.00000  -0.01028  -0.01026   0.04161
   D26        2.86924   0.00003   0.00000  -0.01281  -0.01287   2.85637
   D27       -1.29818  -0.00029   0.00000  -0.01363  -0.01364  -1.31182
   D28        0.74641  -0.00201   0.00000  -0.04146  -0.04149   0.70492
   D29       -0.32011   0.00048   0.00000   0.01295   0.01299  -0.30712
   D30        1.79565   0.00017   0.00000   0.01212   0.01223   1.80788
   D31       -2.44294  -0.00156   0.00000  -0.01570  -0.01563  -2.45857
   D32        0.02226  -0.00027   0.00000  -0.02610  -0.02632  -0.00405
   D33       -3.12620  -0.00037   0.00000  -0.02294  -0.02308   3.13391
   D34        3.11610   0.00034   0.00000   0.00133   0.00114   3.11724
   D35       -0.03237   0.00024   0.00000   0.00449   0.00438  -0.02799
   D36       -0.30209   0.00052   0.00000   0.00772   0.00771  -0.29439
   D37       -2.42724  -0.00158   0.00000  -0.02109  -0.02107  -2.44831
   D38        1.81299   0.00051   0.00000   0.00947   0.00949   1.82249
   D39        2.88816  -0.00011   0.00000  -0.02031  -0.02030   2.86786
   D40        0.76301  -0.00221   0.00000  -0.04912  -0.04908   0.71394
   D41       -1.27993  -0.00012   0.00000  -0.01857  -0.01852  -1.29845
   D42        0.81380  -0.00043   0.00000  -0.00902  -0.00904   0.80476
   D43       -1.29745   0.00017   0.00000   0.00048   0.00044  -1.29701
   D44        2.93715   0.00075   0.00000   0.01056   0.01052   2.94767
   D45        2.95039  -0.00024   0.00000   0.00351   0.00361   2.95399
   D46        0.83914   0.00036   0.00000   0.01301   0.01309   0.85222
   D47       -1.20945   0.00094   0.00000   0.02308   0.02316  -1.18629
   D48       -1.28884  -0.00157   0.00000  -0.02204  -0.02203  -1.31088
   D49        2.88309  -0.00097   0.00000  -0.01254  -0.01255   2.87054
   D50        0.83450  -0.00039   0.00000  -0.00246  -0.00248   0.83203
   D51       -1.09241   0.00030   0.00000   0.01442   0.01446  -1.07795
   D52        3.07472  -0.00025   0.00000  -0.00226  -0.00227   3.07245
   D53        1.02267  -0.00010   0.00000   0.00247   0.00251   1.02518
   D54        1.02285   0.00014   0.00000   0.00582   0.00586   1.02871
   D55       -1.09321  -0.00040   0.00000  -0.01085  -0.01087  -1.10407
   D56        3.13793  -0.00025   0.00000  -0.00613  -0.00609   3.13184
   D57        3.07386   0.00004   0.00000   0.00138   0.00136   3.07522
   D58        0.95780  -0.00051   0.00000  -0.01530  -0.01536   0.94244
   D59       -1.09425  -0.00036   0.00000  -0.01057  -0.01059  -1.10483
   D60        0.83077  -0.00060   0.00000  -0.01558  -0.01561   0.81515
   D61       -1.27272  -0.00189   0.00000  -0.03105  -0.03105  -1.30377
   D62        2.96508  -0.00034   0.00000  -0.00213  -0.00204   2.96305
   D63        2.95312   0.00064   0.00000   0.00500   0.00496   2.95808
   D64        0.84963  -0.00065   0.00000  -0.01048  -0.01047   0.83916
   D65       -1.19575   0.00090   0.00000   0.01845   0.01854  -1.17721
   D66       -1.28029   0.00019   0.00000  -0.00321  -0.00327  -1.28356
   D67        2.89941  -0.00109   0.00000  -0.01868  -0.01870   2.88071
   D68        0.85403   0.00046   0.00000   0.01024   0.01031   0.86434
         Item               Value     Threshold  Converged?
 Maximum Force            0.007949     0.000450     NO 
 RMS     Force            0.002093     0.000300     NO 
 Maximum Displacement     0.245283     0.001800     NO 
 RMS     Displacement     0.046693     0.001200     NO 
 Predicted change in Energy=-1.762048D-03
 GradGradGradGradGradGradGradGradGradGradGradGradGradGradGradGradGradGrad

 Leave Link  103 at Thu Sep 30 07:47:46 2021, MaxMem= 1073741824 cpu:       5.3
 (Enter /sw/target/amd/app/gaussian/Gaussian09RevA.02_gcc-4.9.2/g09/l202.exe)
                          Input orientation:                          
 ---------------------------------------------------------------------
 Center     Atomic      Atomic             Coordinates (Angstroms)
 Number     Number       Type             X           Y           Z
 ---------------------------------------------------------------------
[...]
 Mulliken charges with hydrogens summed into heavy atoms:
              1
     1  C    0.290021
     2  O   -0.456860
     3  C    0.361373
     4  C   -0.059866
     5  C   -0.115643
     6  C    0.146782
     7  C    0.101139
     8  C   -0.161669
     9  C   -0.065191
    10  C   -0.002206
    11  C    0.002199
    12  C   -0.040080
 Sum of Mulliken charges with hydrogens summed into heavy atoms =  -0.00000
 Electronic spatial extent (au):  <R**2>=           2428.4091
 Charge=             -0.0000 electrons
 Dipole moment (field-independent basis, Debye):
    X=             -0.7420    Y=             -1.6853    Z=              0.0064  Tot=              1.8415
 Quadrupole moment (field-independent basis, Debye-Ang):
   XX=            -62.3481   YY=            -69.2205   ZZ=            -74.0632
   XY=              6.9010   XZ=             -0.3648   YZ=             -0.2038
 Traceless Quadrupole moment (field-independent basis, Debye-Ang):
   XX=              6.1958   YY=             -0.6765   ZZ=             -5.5193
   XY=              6.9010   XZ=             -0.3648   YZ=             -0.2038
 Octapole moment (field-independent basis, Debye-Ang**2):
  XXX=            -46.2405  YYY=              0.4423  ZZZ=              0.0788  XYY=            -11.3291
  XXY=            -20.1657  XXZ=             -0.1566  XZZ=             -3.2002  YZZ=             -3.2432
  YYZ=             -0.0013  XYZ=             -0.3085
 Hexadecapole moment (field-independent basis, Debye-Ang**3):
 XXXX=          -2204.9290 YYYY=           -725.4751 ZZZZ=           -121.3733 XXXY=             94.7407
 XXXZ=             -6.5694 YYYX=              9.4036 YYYZ=              1.1087 ZZZX=             -1.3294
 ZZZY=             -0.6450 XXYY=           -492.3023 XXZZ=           -417.8932 YYZZ=           -149.5665
 XXYZ=             -2.8056 YYXZ=              1.2192 ZZXY=              6.1516
 N-N= 6.843304000603D+02 E-N=-2.535145226727D+03  KE= 4.981564120388D+02
 No NMR shielding tensors so no spin-rotation constants.
 Leave Link  601 at Thu Sep 30 12:25:44 2021, MaxMem= 1073741824 cpu:       1.2
 (Enter /sw/target/amd/app/gaussian/Gaussian09RevA.02_gcc-4.9.2/g09/l604.exe)
 Evaluate density.
 Using the total density.
 Monte-Carlo method of calculating molar volume:
 based on  0.001 e/bohr**3 density envelope.
 Number of points per bohr**3 =   20 CutOff= 1.00D-04
 Using the CI density.
 There are       390 points.  Will hold       390 in memory.
 LenV=  1073615672 MDV=  1073741824.
 Box volume = 7445.005 fraction occupied=0.190
 Integrated density= 1.7076468372528632D+02 error= 8.2764683725286318D+01
 Molar volume = 1412.642 bohr**3/mol (126.063 cm**3/mol)
 Recommended a0 for SCRF calculation =  4.55 angstrom (  8.61 bohr)
 Leave Link  604 at Thu Sep 30 12:25:45 2021, MaxMem= 1073741824 cpu:       0.3
 (Enter /sw/target/amd/app/gaussian/Gaussian09RevA.02_gcc-4.9.2/g09/l607.exe)
 ******************************Gaussian NBO Version 3.1******************************
             N A T U R A L   A T O M I C   O R B I T A L   A N D
          N A T U R A L   B O N D   O R B I T A L   A N A L Y S I S
 ******************************Gaussian NBO Version 3.1******************************
       /RESON  / : Allow strongly delocalized NBO set

 Analyzing the CI density

 Job title: COc1ccc2c(c1)CCCC2_conf_0                                       

 Storage needed:    132054 in NPA (1073738184 available)


 NATURAL POPULATIONS:  Natural atomic orbital occupancies 
                                                          
   NAO  Atom  No  lang   Type(AO)    Occupancy
 --------------------------------------------
     1    C    1  S      Cor( 1S)     1.99942
     2    C    1  S      Val( 2S)     1.10265
     3    C    1  S      Ryd( 3S)     0.00149
     4    C    1  S      Ryd( 4S)     0.00003
     5    C    1  px     Val( 2p)     1.16377
     6    C    1  px     Ryd( 3p)     0.00242
     7    C    1  py     Val( 2p)     0.81182
     8    C    1  py     Ryd( 3p)     0.00335
     9    C    1  pz     Val( 2p)     1.23218
    10    C    1  pz     Ryd( 3p)     0.00031
    11    C    1  dxy    Ryd( 3d)     0.00127
    12    C    1  dxz    Ryd( 3d)     0.00048
    13    C    1  dyz    Ryd( 3d)     0.00185
    14    C    1  dx2y2  Ryd( 3d)     0.00182
    15    C    1  dz2    Ryd( 3d)     0.00111

    16    O    2  S      Cor( 1S)     1.99975
    17    O    2  S      Val( 2S)     1.59791
    18    O    2  S      Ryd( 3S)     0.00078
    19    O    2  S      Ryd( 4S)     0.00006
    20    O    2  px     Val( 2p)     1.51795
    21    O    2  px     Ryd( 3p)     0.00151
    22    O    2  py     Val( 2p)     1.58929
    23    O    2  py     Ryd( 3p)     0.00166
    24    O    2  pz     Val( 2p)     1.72120
    25    O    2  pz     Ryd( 3p)     0.00224
    26    O    2  dxy    Ryd( 3d)     0.00133
    27    O    2  dxz    Ryd( 3d)     0.00100
    28    O    2  dyz    Ryd( 3d)     0.00105
    29    O    2  dx2y2  Ryd( 3d)     0.00133
    30    O    2  dz2    Ryd( 3d)     0.00076

    31    C    3  S      Cor( 1S)     1.99878
    32    C    3  S      Val( 2S)     0.83952
    33    C    3  S      Ryd( 3S)     0.00150
    34    C    3  S      Ryd( 4S)     0.00013
    35    C    3  px     Val( 2p)     0.74670
    36    C    3  px     Ryd( 3p)     0.00786
    37    C    3  py     Val( 2p)     1.08505
    38    C    3  py     Ryd( 3p)     0.00527
    39    C    3  pz     Val( 2p)     0.96947
    40    C    3  pz     Ryd( 3p)     0.00181
    41    C    3  dxy    Ryd( 3d)     0.00126
    42    C    3  dxz    Ryd( 3d)     0.00168
    43    C    3  dyz    Ryd( 3d)     0.00135
    44    C    3  dx2y2  Ryd( 3d)     0.00187
    45    C    3  dz2    Ryd( 3d)     0.00049

    46    C    4  S      Cor( 1S)     1.99906
    47    C    4  S      Val( 2S)     0.95794
    48    C    4  S      Ryd( 3S)     0.00085
    49    C    4  S      Ryd( 4S)     0.00005
    50    C    4  px     Val( 2p)     1.12553
    51    C    4  px     Ryd( 3p)     0.00522
    52    C    4  py     Val( 2p)     1.11476
    53    C    4  py     Ryd( 3p)     0.00466
    54    C    4  pz     Val( 2p)     1.08668
    55    C    4  pz     Ryd( 3p)     0.00621
    56    C    4  dxy    Ryd( 3d)     0.00078
    57    C    4  dxz    Ryd( 3d)     0.00060
    58    C    4  dyz    Ryd( 3d)     0.00045
    59    C    4  dx2y2  Ryd( 3d)     0.00061
    60    C    4  dz2    Ryd( 3d)     0.00046

    61    C    5  S      Cor( 1S)     1.99908
    62    C    5  S      Val( 2S)     0.94419
    63    C    5  S      Ryd( 3S)     0.00069
    64    C    5  S      Ryd( 4S)     0.00005
    65    C    5  px     Val( 2p)     1.06763
    66    C    5  px     Ryd( 3p)     0.00440
    67    C    5  py     Val( 2p)     1.17009
    68    C    5  py     Ryd( 3p)     0.00490
    69    C    5  pz     Val( 2p)     1.09084
    70    C    5  pz     Ryd( 3p)     0.00603
    71    C    5  dxy    Ryd( 3d)     0.00071
    72    C    5  dxz    Ryd( 3d)     0.00064
    73    C    5  dyz    Ryd( 3d)     0.00035
    74    C    5  dx2y2  Ryd( 3d)     0.00075
    75    C    5  dz2    Ryd( 3d)     0.00044

    76    C    6  S      Cor( 1S)     1.99899
    77    C    6  S      Val( 2S)     0.88242
    78    C    6  S      Ryd( 3S)     0.00069
    79    C    6  S      Ryd( 4S)     0.00005
    80    C    6  px     Val( 2p)     1.05886
    81    C    6  px     Ryd( 3p)     0.00428
    82    C    6  py     Val( 2p)     1.08476
    83    C    6  py     Ryd( 3p)     0.00401
    84    C    6  pz     Val( 2p)     0.91510
    85    C    6  pz     Ryd( 3p)     0.00286
    86    C    6  dxy    Ryd( 3d)     0.00081
    87    C    6  dxz    Ryd( 3d)     0.00055
    88    C    6  dyz    Ryd( 3d)     0.00108
    89    C    6  dx2y2  Ryd( 3d)     0.00074
    90    C    6  dz2    Ryd( 3d)     0.00034

    91    C    7  S      Cor( 1S)     1.99901
    92    C    7  S      Val( 2S)     0.86792
    93    C    7  S      Ryd( 3S)     0.00082
    94    C    7  S      Ryd( 4S)     0.00006
    95    C    7  px     Val( 2p)     1.06392
    96    C    7  px     Ryd( 3p)     0.00442
    97    C    7  py     Val( 2p)     1.06694
    98    C    7  py     Ryd( 3p)     0.00444
    99    C    7  pz     Val( 2p)     1.04400
   100    C    7  pz     Ryd( 3p)     0.00443
   101    C    7  dxy    Ryd( 3d)     0.00064
   102    C    7  dxz    Ryd( 3d)     0.00068
   103    C    7  dyz    Ryd( 3d)     0.00061
   104    C    7  dx2y2  Ryd( 3d)     0.00080
   105    C    7  dz2    Ryd( 3d)     0.00035

   106    C    8  S      Cor( 1S)     1.99900
   107    C    8  S      Val( 2S)     0.94432
   108    C    8  S      Ryd( 3S)     0.00068
   109    C    8  S      Ryd( 4S)     0.00006
   110    C    8  px     Val( 2p)     1.08190
   111    C    8  px     Ryd( 3p)     0.00353
   112    C    8  py     Val( 2p)     1.17400
   113    C    8  py     Ryd( 3p)     0.00359
   114    C    8  pz     Val( 2p)     1.13142
   115    C    8  pz     Ryd( 3p)     0.00680
   116    C    8  dxy    Ryd( 3d)     0.00078
   117    C    8  dxz    Ryd( 3d)     0.00059
   118    C    8  dyz    Ryd( 3d)     0.00040
   119    C    8  dx2y2  Ryd( 3d)     0.00059
   120    C    8  dz2    Ryd( 3d)     0.00046

   121    C    9  S      Cor( 1S)     1.99929
   122    C    9  S      Val( 2S)     1.02649
   123    C    9  S      Ryd( 3S)     0.00067
   124    C    9  S      Ryd( 4S)     0.00002
   125    C    9  px     Val( 2p)     1.05773
   126    C    9  px     Ryd( 3p)     0.00271
   127    C    9  py     Val( 2p)     1.14574
   128    C    9  py     Ryd( 3p)     0.00252
   129    C    9  pz     Val( 2p)     1.22717
   130    C    9  pz     Ryd( 3p)     0.00189
   131    C    9  dxy    Ryd( 3d)     0.00081
   132    C    9  dxz    Ryd( 3d)     0.00049
   133    C    9  dyz    Ryd( 3d)     0.00103
   134    C    9  dx2y2  Ryd( 3d)     0.00054
   135    C    9  dz2    Ryd( 3d)     0.00087

   136    C   10  S      Cor( 1S)     1.99934
   137    C   10  S      Val( 2S)     1.03146
   138    C   10  S      Ryd( 3S)     0.00061
   139    C   10  S      Ryd( 4S)     0.00002
   140    C   10  px     Val( 2p)     1.08865
   141    C   10  px     Ryd( 3p)     0.00242
   142    C   10  py     Val( 2p)     1.12912
   143    C   10  py     Ryd( 3p)     0.00343
   144    C   10  pz     Val( 2p)     1.19350
   145    C   10  pz     Ryd( 3p)     0.00219
   146    C   10  dxy    Ryd( 3d)     0.00097
   147    C   10  dxz    Ryd( 3d)     0.00033
   148    C   10  dyz    Ryd( 3d)     0.00043
   149    C   10  dx2y2  Ryd( 3d)     0.00054
   150    C   10  dz2    Ryd( 3d)     0.00127

   151    C   11  S      Cor( 1S)     1.99933
   152    C   11  S      Val( 2S)     1.03198
   153    C   11  S      Ryd( 3S)     0.00066
   154    C   11  S      Ryd( 4S)     0.00002
   155    C   11  px     Val( 2p)     1.18084
   156    C   11  px     Ryd( 3p)     0.00414
   157    C   11  py     Val( 2p)     1.03684
   158    C   11  py     Ryd( 3p)     0.00186
   159    C   11  pz     Val( 2p)     1.19417
   160    C   11  pz     Ryd( 3p)     0.00209
   161    C   11  dxy    Ryd( 3d)     0.00062
   162    C   11  dxz    Ryd( 3d)     0.00025
   163    C   11  dyz    Ryd( 3d)     0.00050
   164    C   11  dx2y2  Ryd( 3d)     0.00088
   165    C   11  dz2    Ryd( 3d)     0.00128

   166    C   12  S      Cor( 1S)     1.99927
   167    C   12  S      Val( 2S)     1.03104
   168    C   12  S      Ryd( 3S)     0.00071
   169    C   12  S      Ryd( 4S)     0.00002
   170    C   12  px     Val( 2p)     1.05108
   171    C   12  px     Ryd( 3p)     0.00173
   172    C   12  py     Val( 2p)     1.16042
   173    C   12  py     Ryd( 3p)     0.00390
   174    C   12  pz     Val( 2p)     1.22448
   175    C   12  pz     Ryd( 3p)     0.00187
   176    C   12  dxy    Ryd( 3d)     0.00054
   177    C   12  dxz    Ryd( 3d)     0.00051
   178    C   12  dyz    Ryd( 3d)     0.00086
   179    C   12  dx2y2  Ryd( 3d)     0.00085
   180    C   12  dz2    Ryd( 3d)     0.00087

   181    H   13  S      Val( 1S)     0.76927
   182    H   13  S      Ryd( 2S)     0.00054

   183    H   14  S      Val( 1S)     0.78264
   184    H   14  S      Ryd( 2S)     0.00192

   185    H   15  S      Val( 1S)     0.78274
   186    H   15  S      Ryd( 2S)     0.00196

   187    H   16  S      Val( 1S)     0.76269
   188    H   16  S      Ryd( 2S)     0.00123

   189    H   17  S      Val( 1S)     0.77383
   190    H   17  S      Ryd( 2S)     0.00103

   191    H   18  S      Val( 1S)     0.77563
   192    H   18  S      Ryd( 2S)     0.00116

   193    H   19  S      Val( 1S)     0.76226
   194    H   19  S      Ryd( 2S)     0.00285

   195    H   20  S      Val( 1S)     0.76721
   196    H   20  S      Ryd( 2S)     0.00424

   197    H   21  S      Val( 1S)     0.77102
   198    H   21  S      Ryd( 2S)     0.00200

   199    H   22  S      Val( 1S)     0.76157
   200    H   22  S      Ryd( 2S)     0.00173

   201    H   23  S      Val( 1S)     0.76083
   202    H   23  S      Ryd( 2S)     0.00134

   203    H   24  S      Val( 1S)     0.76937
   204    H   24  S      Ryd( 2S)     0.00203

   205    H   25  S      Val( 1S)     0.74730
   206    H   25  S      Ryd( 2S)     0.00210

   207    H   26  S      Val( 1S)     0.74942
   208    H   26  S      Ryd( 2S)     0.00234

 WARNING:  1 low occupancy (<1.9990e) core orbital  found on  C    3
           1 low occupancy (<1.9990e) core orbital  found on  C    6
           1 low occupancy (<1.9990e) core orbital  found on  C    8


 Summary of Natural Population Analysis:                  
                                                          
                                       Natural Population 
                Natural  -----------------------------------------------
    Atom  No    Charge         Core      Valence    Rydberg      Total
 -----------------------------------------------------------------------
      C    1   -0.32397      1.99942     4.31042    0.01413     6.32397
      O    2   -0.43781      1.99975     6.42634    0.01172     8.43781
      C    3    0.33725      1.99878     3.64073    0.02323     5.66275
      C    4   -0.30386      1.99906     4.28491    0.01989     6.30386
      C    5   -0.29078      1.99908     4.27274    0.01896     6.29078
      C    6    0.04442      1.99899     3.94115    0.01543     5.95558
      C    7   -0.05904      1.99901     4.04278    0.01725     6.05904
      C    8   -0.34809      1.99900     4.33163    0.01746     6.34809
      C    9   -0.46797      1.99929     4.45712    0.01156     6.46797
      C   10   -0.45427      1.99934     4.44273    0.01220     6.45427
      C   11   -0.45547      1.99933     4.44384    0.01230     6.45547
      C   12   -0.47815      1.99927     4.46702    0.01186     6.47815
      H   13    0.23019      0.00000     0.76927    0.00054     0.76981
      H   14    0.21544      0.00000     0.78264    0.00192     0.78456
      H   15    0.21530      0.00000     0.78274    0.00196     0.78470
      H   16    0.23607      0.00000     0.76269    0.00123     0.76393
      H   17    0.22514      0.00000     0.77383    0.00103     0.77486
      H   18    0.22321      0.00000     0.77563    0.00116     0.77679
      H   19    0.23489      0.00000     0.76226    0.00285     0.76511
      H   20    0.22855      0.00000     0.76721    0.00424     0.77145
      H   21    0.22698      0.00000     0.77102    0.00200     0.77302
      H   22    0.23670      0.00000     0.76157    0.00173     0.76330
      H   23    0.23782      0.00000     0.76083    0.00134     0.76218
      H   24    0.22860      0.00000     0.76937    0.00203     0.77140
      H   25    0.25060      0.00000     0.74730    0.00210     0.74940
      H   26    0.24824      0.00000     0.74942    0.00234     0.75176
 =======================================================================
   * Total *    0.00000     23.99032    63.79722    0.21246    88.00000

                                 Natural Population      
 --------------------------------------------------------
   Core                      23.99032 ( 99.9597% of  24)
   Valence                   63.79722 ( 99.6831% of  64)
   Natural Minimal Basis     87.78754 ( 99.7586% of  88)
   Natural Rydberg Basis      0.21246 (  0.2414% of  88)
 --------------------------------------------------------

    Atom  No          Natural Electron Configuration
 ----------------------------------------------------------------------------
      C    1      [core]2S( 1.10)2p( 3.21)3p( 0.01)3d( 0.01)
      O    2      [core]2S( 1.60)2p( 4.83)3p( 0.01)3d( 0.01)
      C    3      [core]2S( 0.84)2p( 2.80)3p( 0.01)3d( 0.01)
      C    4      [core]2S( 0.96)2p( 3.33)3p( 0.02)
      C    5      [core]2S( 0.94)2p( 3.33)3p( 0.02)
      C    6      [core]2S( 0.88)2p( 3.06)3p( 0.01)
      C    7      [core]2S( 0.87)2p( 3.17)3p( 0.01)
      C    8      [core]2S( 0.94)2p( 3.39)3p( 0.01)
      C    9      [core]2S( 1.03)2p( 3.43)3p( 0.01)
      C   10      [core]2S( 1.03)2p( 3.41)3p( 0.01)
      C   11      [core]2S( 1.03)2p( 3.41)3p( 0.01)
      C   12      [core]2S( 1.03)2p( 3.44)3p( 0.01)
      H   13            1S( 0.77)
      H   14            1S( 0.78)
      H   15            1S( 0.78)
      H   16            1S( 0.76)
      H   17            1S( 0.77)
      H   18            1S( 0.78)
      H   19            1S( 0.76)
      H   20            1S( 0.77)
      H   21            1S( 0.77)
      H   22            1S( 0.76)
      H   23            1S( 0.76)
      H   24            1S( 0.77)
      H   25            1S( 0.75)
      H   26            1S( 0.75)


 NBO analysis skipped by request.
 Leave Link  607 at Thu Sep 30 12:26:07 2021, MaxMem= 1073741824 cpu:      15.0
 (Enter /sw/target/amd/app/gaussian/Gaussian09RevA.02_gcc-4.9.2/g09/l9999.exe)
 1\1\GINC-HERMITE\SP\RTD-B3LYP-FC\6-31G(d)\C11H14O1\JSCHLEINITZ\30-Sep-
 2021\0\\#p TD(NStates=10, Root=1) b3lyp/6-31G* volume pop=NPA density=
 current Geom=AllCheck Guess=Read\\COc1ccc2c(c1)CCCC2_conf_0\\0,1\C,0,1
 .2258936619,0.1614745972,0.5455897133\O,0,2.4125774848,0.1021942202,-0
 .2258604706\C,0,3.0846300459,1.2692423681,-0.4687339423\C,0,4.24890071
 98,1.1513433066,-1.2423151919\C,0,4.9913955318,2.2848883876,-1.5341267
 104\C,0,4.6144115487,3.5593311681,-1.0778811706\C,0,3.4483515079,3.672
 3564175,-0.3074483322\C,0,2.6926948186,2.5257593639,-0.0072725953\C,0,
 2.9548175756,5.02229253,0.1886811476\C,0,4.03098146,6.1148714436,0.150
 5403322\C,0,4.7577105208,6.1011119549,-1.1988013069\C,0,5.4832626983,4
 .7643048446,-1.397928434\H,0,0.8584562868,-0.8646116774,0.6116402472\H
 ,0,0.461699667,0.78912011,0.0671703193\H,0,1.4182314412,0.5422600952,1
 .5579237244\H,0,4.5439010667,0.1693816658,-1.5990141331\H,0,5.89338978
 43,2.1859300864,-2.135239654\H,0,1.7948895144,2.6391230884,0.592198387
 3\H,0,2.5538242286,4.9176122723,1.205281047\H,0,2.1051898404,5.3387926
 232,-0.4361580666\H,0,4.7601653307,5.9462839273,0.9557522658\H,0,3.573
 3341933,7.0938109326,0.3385672807\H,0,5.4744014894,6.928802478,-1.2646
 466766\H,0,4.0256947135,6.2502164546,-2.0053569874\H,0,6.3752108579,4.
 7468397968,-0.7520201488\H,0,5.8597556858,4.6855768876,-2.4262564252\\
 Version=AM64L-G09RevA.02\State=1-A\HF=-502.828675\RMSD=2.852e-09\Dipol
 e=-0.601159,0.0040945,0.4043219\Quadrupole=2.5529699,-0.1996491,-2.353
 3208,4.7588816,-3.3979143,-2.3097669\PG=C01 [X(C11H14O1)]\\@


 WE HAVE SEEN THAT MAN ON THE AVERAGE DOES NOT LIVE ABOVE
 TWO-AND-TWENTY YEARS.  DURING THESE TWO AND TWENTY
 YEARS HE IS LIABLE TO TWO AND TWENTY THOUSAND EVILS,
 MANY OF WHICH ARE INCURABLE.  YET EVEN IN THIS DREADFUL STATE
 MEN STILL STRUT AND POSE ON THE STAGE OF LIFE.
 THEY MAKE LOVE AT THE RISK OF DESTRUCTION,
 INTRIGUE, CARRY ON WAR, AND FORM PROJECTS, JUST AS IF THEY
 WERE TO LIVE IN LUXURY AND HAPPINESS FOR A THOUSAND
 AGES.

                                              -- VOLTAIRE
 Job cpu time:  0 days  2 hours 20 minutes 23.6 seconds.
 File lengths (MBytes):  RWF=    146 Int=      0 D2E=      0 Chk=     20 Scr=      1
 Normal termination of Gaussian 09 at Thu Sep 30 12:26:11 2021.
