 Entering Gaussian System, Link 0=g09
 Input=C11H11NO_0e3a_conf_0.com
 Output=C11H11NO_0e3a_conf_0.log
 Initial command:
 /sw/target/amd/app/gaussian/Gaussian09RevA.02_gcc-4.9.2/g09/l1.exe /home/jschleinitz/gaussian/Gau-972808.inp -scrdir=/home/jschleinitz/gaussian/
 Entering Link 1 = /sw/target/amd/app/gaussian/Gaussian09RevA.02_gcc-4.9.2/g09/l1.exe PID=    972814.
  
 Copyright (c) 1988,1990,1992,1993,1995,1998,2003,2009, Gaussian, Inc.
                  All Rights Reserved.
  
 This is part of the Gaussian(R) 09 program.  It is based on
 the Gaussian(R) 03 system (copyright 2003, Gaussian, Inc.),
 the Gaussian(R) 98 system (copyright 1998, Gaussian, Inc.),
 the Gaussian(R) 94 system (copyright 1995, Gaussian, Inc.),
 the Gaussian 92(TM) system (copyright 1992, Gaussian, Inc.),
 the Gaussian 90(TM) system (copyright 1990, Gaussian, Inc.),
 the Gaussian 88(TM) system (copyright 1988, Gaussian, Inc.),
 the Gaussian 86(TM) system (copyright 1986, Carnegie Mellon
 University), and the Gaussian 82(TM) system (copyright 1983,
 Carnegie Mellon University). Gaussian is a federally registered
 trademark of Gaussian, Inc.
  
 This software contains proprietary and confidential information,
 including trade secrets, belonging to Gaussian, Inc.
  
 This software is provided under written license and may be
 used, copied, transmitted, or stored only in accord with that
 written license.
  
 The following legend is applicable only to US Government
 contracts under FAR:
  
                    RESTRICTED RIGHTS LEGEND
  
 Use, reproduction and disclosure by the US Government is
 subject to restrictions as set forth in subparagraphs (a)
 and (c) of the Commercial Computer Software - Restricted
 Rights clause in FAR 52.227-19.
  
 Gaussian, Inc.
 340 Quinnipiac St., Bldg. 40, Wallingford CT 06492
  
  
 ---------------------------------------------------------------
 Warning -- This program may not be used in any manner that
 competes with the business of Gaussian, Inc. or will provide
 assistance to any competitor of Gaussian, Inc.  The licensee
 of this program is prohibited from giving any competitor of
 Gaussian, Inc. access to this program.  By using this program,
 the user acknowledges that Gaussian, Inc. is engaged in the
 business of creating and licensing software in the field of
 computational chemistry and represents and warrants to the
 licensee that it is not a competitor of Gaussian, Inc. and that
 it will not use this program in any manner prohibited above.
 ---------------------------------------------------------------
  

 Cite this work as:
 Gaussian 09, Revision A.02,
 M. J. Frisch, G. W. Trucks, H. B. Schlegel, G. E. Scuseria, 
 M. A. Robb, J. R. Cheeseman, G. Scalmani, V. Barone, B. Mennucci, 
 G. A. Petersson, H. Nakatsuji, M. Caricato, X. Li, H. P. Hratchian, 
 A. F. Izmaylov, J. Bloino, G. Zheng, J. L. Sonnenberg, M. Hada, 
 M. Ehara, K. Toyota, R. Fukuda, J. Hasegawa, M. Ishida, T. Nakajima, 
 Y. Honda, O. Kitao, H. Nakai, T. Vreven, J. A. Montgomery, Jr., 
 J. E. Peralta, F. Ogliaro, M. Bearpark, J. J. Heyd, E. Brothers, 
 K. N. Kudin, V. N. Staroverov, R. Kobayashi, J. Normand, 
 K. Raghavachari, A. Rendell, J. C. Burant, S. S. Iyengar, J. Tomasi, 
 M. Cossi, N. Rega, J. M. Millam, M. Klene, J. E. Knox, J. B. Cross, 
 V. Bakken, C. Adamo, J. Jaramillo, R. Gomperts, R. E. Stratmann, 
 O. Yazyev, A. J. Austin, R. Cammi, C. Pomelli, J. W. Ochterski, 
 R. L. Martin, K. Morokuma, V. G. Zakrzewski, G. A. Voth, 
 P. Salvador, J. J. Dannenberg, S. Dapprich, A. D. Daniels, 
 O. Farkas, J. B. Foresman, J. V. Ortiz, J. Cioslowski, 
 and D. J. Fox, Gaussian, Inc., Wallingford CT, 2009.
 
 ******************************************
 Gaussian 09:  AM64L-G09RevA.02 11-Jun-2009
                 4-Oct-2021 
 ******************************************
 %nproc=4
 Will use up to    4 processors via shared memory.
 %mem=8gb
 %chk=C11H11NO_0e3a_conf_0.chk
 -----------------------------------
 #p opt b3lyp/6-31G* scf=(xqc,tight)
 -----------------------------------
 1/14=-1,18=20,19=15,26=3,38=1/1,3;
 2/9=110,12=2,17=6,18=5,40=1/2;
 3/5=1,6=6,7=1,11=2,16=1,25=1,30=1,71=1,74=-5/1,2,3;
 4//1;
 5/5=2,8=3,13=1,32=2,38=5/2,8;
 6/7=2,8=2,9=2,10=2,28=1/1;
 7//1,2,3,16;
 1/14=-1,18=20,19=15/3(2);
 2/9=110/2;
 99//99;
 2/9=110/2;
 3/5=1,6=6,7=1,11=2,16=1,25=1,30=1,71=1,74=-5/1,2,3;
 4/5=5,16=3/1;
 5/5=2,8=3,13=1,32=2,38=5/2,8;
 7//1,2,3,16;
 1/14=-1,18=20,19=15/3(-5);
 2/9=110/2;
 6/7=2,8=2,9=2,10=2,19=2,28=1/1;
 99/9=1/99;
 Leave Link    1 at Mon Oct  4 08:27:08 2021, MaxMem= 1073741824 cpu:       0.1
 (Enter /sw/target/amd/app/gaussian/Gaussian09RevA.02_gcc-4.9.2/g09/l101.exe)
 -----------------------------
 CC(=O)c1cn(c2c1cccc2)C_conf_0
 -----------------------------
 Symbolic Z-matrix:
 Charge =  0 Multiplicity = 1
 C                     2.99289  -1.3986    0.29948 
 C                     2.50458   0.01996   0.17706 
 O                     1.4122    0.32657   0.65926 
 C                     3.33672   1.01621  -0.50405 
 C                     3.04695   2.37083  -0.47307 
 N                     4.00984   3.04575  -1.16419 
 C                     4.9308    2.16236  -1.68157 
 C                     4.53306   0.87565  -1.29085 
 C                     5.3253   -0.21386  -1.72257 
 C                     6.46678   0.0074   -2.50289 
 C                     6.8373    1.29601  -2.86358 
 C                     6.07706   2.39451  -2.46067 
 C                     4.05288   4.48226  -1.3246 
 H                     2.33833  -1.94952   0.98222 
 H                     4.00202  -1.41684   0.71908 
 H                     2.96516  -1.89027  -0.67558 
 H                     2.22641   2.89092   0.00696 
 H                     5.06665  -1.23593  -1.46738 
 H                     7.06644  -0.83873  -2.82981 
 H                     7.72691   1.45239  -3.4692 
 H                     6.3706    3.39871  -2.75009 
 H                     3.19339   4.93368  -0.82236 
 H                     4.0201    4.71322  -2.39231 
 H                     4.97854   4.85161  -0.87564 
 
 NAtoms=     24 NQM=     24 NQMF=      0 NMic=      0 NMicF=      0 NTot=     24.
                    Isotopes and Nuclear Properties:
 (Nuclear quadrupole moments (NQMom) in fm**2, nuclear magnetic moments (NMagM)
  in nuclear magnetons)

  Atom         1           2           3           4           5           6           7           8           9          10
 IAtWgt=          12          12          16          12          12          14          12          12          12          12
 AtmWgt=  12.0000000  12.0000000  15.9949146  12.0000000  12.0000000  14.0030740  12.0000000  12.0000000  12.0000000  12.0000000
 NucSpn=           0           0           0           0           0           2           0           0           0           0
 AtZEff=   0.0000000   0.0000000   0.0000000   0.0000000   0.0000000   0.0000000   0.0000000   0.0000000   0.0000000   0.0000000
 NQMom=    0.0000000   0.0000000   0.0000000   0.0000000   0.0000000   2.0440000   0.0000000   0.0000000   0.0000000   0.0000000
 NMagM=    0.0000000   0.0000000   0.0000000   0.0000000   0.0000000   0.4037610   0.0000000   0.0000000   0.0000000   0.0000000

  Atom        11          12          13          14          15          16          17          18          19          20
 IAtWgt=          12          12          12           1           1           1           1           1           1           1
 AtmWgt=  12.0000000  12.0000000  12.0000000   1.0078250   1.0078250   1.0078250   1.0078250   1.0078250   1.0078250   1.0078250
 NucSpn=           0           0           0           1           1           1           1           1           1           1
 AtZEff=   0.0000000   0.0000000   0.0000000   0.0000000   0.0000000   0.0000000   0.0000000   0.0000000   0.0000000   0.0000000
 NQMom=    0.0000000   0.0000000   0.0000000   0.0000000   0.0000000   0.0000000   0.0000000   0.0000000   0.0000000   0.0000000
 NMagM=    0.0000000   0.0000000   0.0000000   2.7928460   2.7928460   2.7928460   2.7928460   2.7928460   2.7928460   2.7928460

  Atom        21          22          23          24
 IAtWgt=           1           1           1           1
 AtmWgt=   1.0078250   1.0078250   1.0078250   1.0078250
 NucSpn=           1           1           1           1
 AtZEff=   0.0000000   0.0000000   0.0000000   0.0000000
 NQMom=    0.0000000   0.0000000   0.0000000   0.0000000
 NMagM=    2.7928460   2.7928460   2.7928460   2.7928460
 Leave Link  101 at Mon Oct  4 08:27:09 2021, MaxMem= 1073741824 cpu:       0.2
 (Enter /sw/target/amd/app/gaussian/Gaussian09RevA.02_gcc-4.9.2/g09/l103.exe)

 GradGradGradGradGradGradGradGradGradGradGradGradGradGradGradGradGradGrad
 Berny optimization.
 Initialization pass.
                           ----------------------------
                           !    Initial Parameters    !
                           ! (Angstroms and Degrees)  !
 --------------------------                            --------------------------
 ! Name  Definition              Value          Derivative Info.                !
 --------------------------------------------------------------------------------
 ! R1    R(1,2)                  1.5052         estimate D2E/DX2                !
 ! R2    R(1,14)                 1.0946         estimate D2E/DX2                !
 ! R3    R(1,15)                 1.093          estimate D2E/DX2                !
 ! R4    R(1,16)                 1.0924         estimate D2E/DX2                !
 ! R5    R(2,3)                  1.2328         estimate D2E/DX2                !
 ! R6    R(2,4)                  1.4659         estimate D2E/DX2                !
 ! R7    R(4,5)                  1.3856         estimate D2E/DX2                !
 ! R8    R(4,8)                  1.4388         estimate D2E/DX2                !
 ! R9    R(5,6)                  1.3639         estimate D2E/DX2                !
 ! R10   R(5,17)                 1.0836         estimate D2E/DX2                !
 ! R11   R(6,7)                  1.377          estimate D2E/DX2                !
 ! R12   R(6,13)                 1.4461         estimate D2E/DX2                !
 ! R13   R(7,8)                  1.4023         estimate D2E/DX2                !
 ! R14   R(7,12)                 1.4053         estimate D2E/DX2                !
 ! R15   R(8,9)                  1.4146         estimate D2E/DX2                !
 ! R16   R(9,10)                 1.4003         estimate D2E/DX2                !
 ! R17   R(9,18)                 1.0847         estimate D2E/DX2                !
 ! R18   R(10,11)                1.3885         estimate D2E/DX2                !
 ! R19   R(10,19)                1.0874         estimate D2E/DX2                !
 ! R20   R(11,12)                1.3953         estimate D2E/DX2                !
 ! R21   R(11,20)                1.0875         estimate D2E/DX2                !
 ! R22   R(12,21)                1.0855         estimate D2E/DX2                !
 ! R23   R(13,22)                1.093          estimate D2E/DX2                !
 ! R24   R(13,23)                1.0929         estimate D2E/DX2                !
 ! R25   R(13,24)                1.0931         estimate D2E/DX2                !
 ! A1    A(2,1,14)             109.3337         estimate D2E/DX2                !
 ! A2    A(2,1,15)             110.2702         estimate D2E/DX2                !
 ! A3    A(2,1,16)             110.0808         estimate D2E/DX2                !
 ! A4    A(14,1,15)            107.713          estimate D2E/DX2                !
 ! A5    A(14,1,16)            108.3635         estimate D2E/DX2                !
 ! A6    A(15,1,16)            111.0136         estimate D2E/DX2                !
 ! A7    A(1,2,3)              119.3421         estimate D2E/DX2                !
 ! A8    A(1,2,4)              119.6112         estimate D2E/DX2                !
 ! A9    A(3,2,4)              121.0454         estimate D2E/DX2                !
 ! A10   A(2,4,5)              122.3647         estimate D2E/DX2                !
 ! A11   A(2,4,8)              131.278          estimate D2E/DX2                !
 ! A12   A(5,4,8)              106.3573         estimate D2E/DX2                !
 ! A13   A(4,5,6)              108.9531         estimate D2E/DX2                !
 ! A14   A(4,5,17)             129.6049         estimate D2E/DX2                !
 ! A15   A(6,5,17)             121.436          estimate D2E/DX2                !
 ! A16   A(5,6,7)              110.1875         estimate D2E/DX2                !
 ! A17   A(5,6,13)             124.6648         estimate D2E/DX2                !
 ! A18   A(7,6,13)             125.1476         estimate D2E/DX2                !
 ! A19   A(6,7,8)              107.1125         estimate D2E/DX2                !
 ! A20   A(6,7,12)             130.3805         estimate D2E/DX2                !
 ! A21   A(8,7,12)             122.507          estimate D2E/DX2                !
 ! A22   A(4,8,7)              107.3718         estimate D2E/DX2                !
 ! A23   A(4,8,9)              135.058          estimate D2E/DX2                !
 ! A24   A(7,8,9)              117.5694         estimate D2E/DX2                !
 ! A25   A(8,9,10)             120.3249         estimate D2E/DX2                !
 ! A26   A(8,9,18)             121.3566         estimate D2E/DX2                !
 ! A27   A(10,9,18)            118.3174         estimate D2E/DX2                !
 ! A28   A(9,10,11)            120.5926         estimate D2E/DX2                !
 ! A29   A(9,10,19)            119.6117         estimate D2E/DX2                !
 ! A30   A(11,10,19)           119.7957         estimate D2E/DX2                !
 ! A31   A(10,11,12)           120.6791         estimate D2E/DX2                !
 ! A32   A(10,11,20)           119.7625         estimate D2E/DX2                !
 ! A33   A(12,11,20)           119.5581         estimate D2E/DX2                !
 ! A34   A(7,12,11)            118.3238         estimate D2E/DX2                !
 ! A35   A(7,12,21)            121.4134         estimate D2E/DX2                !
 ! A36   A(11,12,21)           120.2625         estimate D2E/DX2                !
 ! A37   A(6,13,22)            109.6262         estimate D2E/DX2                !
 ! A38   A(6,13,23)            108.5065         estimate D2E/DX2                !
 ! A39   A(6,13,24)            108.379          estimate D2E/DX2                !
 ! A40   A(22,13,23)           109.7575         estimate D2E/DX2                !
 ! A41   A(22,13,24)           109.732          estimate D2E/DX2                !
 ! A42   A(23,13,24)           110.8086         estimate D2E/DX2                !
 ! D1    D(14,1,2,3)            -9.6495         estimate D2E/DX2                !
 ! D2    D(14,1,2,4)           169.9399         estimate D2E/DX2                !
 ! D3    D(15,1,2,3)          -127.8981         estimate D2E/DX2                !
 ! D4    D(15,1,2,4)            51.6913         estimate D2E/DX2                !
 ! D5    D(16,1,2,3)           109.2807         estimate D2E/DX2                !
 ! D6    D(16,1,2,4)           -71.1299         estimate D2E/DX2                !
 ! D7    D(1,2,4,5)           -169.8534         estimate D2E/DX2                !
 ! D8    D(1,2,4,8)             10.068          estimate D2E/DX2                !
 ! D9    D(3,2,4,5)              9.7289         estimate D2E/DX2                !
 ! D10   D(3,2,4,8)           -170.3497         estimate D2E/DX2                !
 ! D11   D(2,4,5,6)            178.5665         estimate D2E/DX2                !
 ! D12   D(2,4,5,17)            -0.5386         estimate D2E/DX2                !
 ! D13   D(8,4,5,6)             -1.3719         estimate D2E/DX2                !
 ! D14   D(8,4,5,17)           179.523          estimate D2E/DX2                !
 ! D15   D(2,4,8,7)           -178.7987         estimate D2E/DX2                !
 ! D16   D(2,4,8,9)              1.5428         estimate D2E/DX2                !
 ! D17   D(5,4,8,7)              1.1321         estimate D2E/DX2                !
 ! D18   D(5,4,8,9)           -178.5264         estimate D2E/DX2                !
 ! D19   D(4,5,6,7)              1.1199         estimate D2E/DX2                !
 ! D20   D(4,5,6,13)          -178.7756         estimate D2E/DX2                !
 ! D21   D(17,5,6,7)          -179.6882         estimate D2E/DX2                !
 ! D22   D(17,5,6,13)            0.4162         estimate D2E/DX2                !
 ! D23   D(5,6,7,8)             -0.3769         estimate D2E/DX2                !
 ! D24   D(5,6,7,12)           179.5513         estimate D2E/DX2                !
 ! D25   D(13,6,7,8)           179.518          estimate D2E/DX2                !
 ! D26   D(13,6,7,12)           -0.5538         estimate D2E/DX2                !
 ! D27   D(5,6,13,22)           -0.8176         estimate D2E/DX2                !
 ! D28   D(5,6,13,23)         -120.6737         estimate D2E/DX2                !
 ! D29   D(5,6,13,24)          118.9307         estimate D2E/DX2                !
 ! D30   D(7,6,13,22)          179.3023         estimate D2E/DX2                !
 ! D31   D(7,6,13,23)           59.4462         estimate D2E/DX2                !
 ! D32   D(7,6,13,24)          -60.9493         estimate D2E/DX2                !
 ! D33   D(6,7,8,4)             -0.4772         estimate D2E/DX2                !
 ! D34   D(6,7,8,9)            179.2506         estimate D2E/DX2                !
 ! D35   D(12,7,8,4)           179.5876         estimate D2E/DX2                !
 ! D36   D(12,7,8,9)            -0.6845         estimate D2E/DX2                !
 ! D37   D(6,7,12,11)         -179.4845         estimate D2E/DX2                !
 ! D38   D(6,7,12,21)            0.3071         estimate D2E/DX2                !
 ! D39   D(8,7,12,11)            0.4341         estimate D2E/DX2                !
 ! D40   D(8,7,12,21)         -179.7743         estimate D2E/DX2                !
 ! D41   D(4,8,9,10)          -179.9111         estimate D2E/DX2                !
 ! D42   D(4,8,9,18)             0.474          estimate D2E/DX2                !
 ! D43   D(7,8,9,10)             0.4566         estimate D2E/DX2                !
 ! D44   D(7,8,9,18)          -179.1583         estimate D2E/DX2                !
 ! D45   D(8,9,10,11)            0.0052         estimate D2E/DX2                !
 ! D46   D(8,9,10,19)         -179.8976         estimate D2E/DX2                !
 ! D47   D(18,9,10,11)         179.6316         estimate D2E/DX2                !
 ! D48   D(18,9,10,19)          -0.2712         estimate D2E/DX2                !
 ! D49   D(9,10,11,12)          -0.2708         estimate D2E/DX2                !
 ! D50   D(9,10,11,20)         179.945          estimate D2E/DX2                !
 ! D51   D(19,10,11,12)        179.6318         estimate D2E/DX2                !
 ! D52   D(19,10,11,20)         -0.1524         estimate D2E/DX2                !
 ! D53   D(10,11,12,7)           0.0575         estimate D2E/DX2                !
 ! D54   D(10,11,12,21)       -179.7366         estimate D2E/DX2                !
 ! D55   D(20,11,12,7)         179.8421         estimate D2E/DX2                !
 ! D56   D(20,11,12,21)          0.048          estimate D2E/DX2                !
 --------------------------------------------------------------------------------
 Trust Radius=3.00D-01 FncErr=1.00D-07 GrdErr=1.00D-06
 Number of steps in this run= 133 maximum allowed number of steps= 144.
 GradGradGradGradGradGradGradGradGradGradGradGradGradGradGradGradGradGrad

 Leave Link  103 at Mon Oct  4 08:27:09 2021, MaxMem= 1073741824 cpu:       0.0
 (Enter /sw/target/amd/app/gaussian/Gaussian09RevA.02_gcc-4.9.2/g09/l202.exe)
                          Input orientation:                          
 ---------------------------------------------------------------------
 Center     Atomic      Atomic             Coordinates (Angstroms)
 Number     Number       Type             X           Y           Z
 ---------------------------------------------------------------------
      1          6           0        2.992893   -1.398602    0.299483
      2          6           0        2.504583    0.019964    0.177061
      3          8           0        1.412204    0.326568    0.659262
      4          6           0        3.336722    1.016208   -0.504047
      5          6           0        3.046947    2.370828   -0.473071
      6          7           0        4.009843    3.045746   -1.164189
      7          6           0        4.930800    2.162365   -1.681574
      8          6           0        4.533061    0.875652   -1.290850
      9          6           0        5.325300   -0.213863   -1.722574
     10          6           0        6.466783    0.007401   -2.502892
     11          6           0        6.837301    1.296015   -2.863575
     12          6           0        6.077059    2.394508   -2.460670
     13          6           0        4.052880    4.482261   -1.324600
     14          1           0        2.338331   -1.949525    0.982221
     15          1           0        4.002019   -1.416842    0.719084
     16          1           0        2.965161   -1.890273   -0.675585
     17          1           0        2.226410    2.890917    0.006955
     18          1           0        5.066652   -1.235932   -1.467376
     19          1           0        7.066436   -0.838726   -2.829805
     20          1           0        7.726909    1.452386   -3.469201
     21          1           0        6.370596    3.398706   -2.750092
     22          1           0        3.193386    4.933676   -0.822356
     23          1           0        4.020103    4.713224   -2.392305
     24          1           0        4.978543    4.851609   -0.875645
 ---------------------------------------------------------------------
                    Distance matrix (angstroms):
                    1          2          3          4          5
     1  C    0.000000
     2  C    1.505246   0.000000
     3  O    2.367326   1.232808   0.000000
     4  C    2.568110   1.465901   2.352161   0.000000
     5  C    3.848164   2.498678   2.851941   1.385613   0.000000
     6  N    4.788398   3.635948   4.179311   2.237835   1.363939
     7  C    4.512267   3.732416   4.607622   2.289395   2.247852
     8  C    3.173879   2.646070   3.720777   1.438764   2.261161
     9  C    3.306424   3.408773   4.612757   2.636726   3.665075
    10  C    4.679536   4.783444   5.970750   3.848422   4.626147
    11  C    5.660863   5.444835   6.540787   4.230806   4.608310
    12  C    5.614108   5.035739   5.980905   3.638342   3.623905
    13  C    6.192396   4.956238   5.308358   3.633140   2.489006
    14  H    1.094577   2.134200   2.478429   3.464296   4.613617
    15  H    1.093039   2.144882   3.122531   2.803284   4.084096
    16  H    1.092367   2.141995   3.017926   2.935151   4.266694
    17  H    4.367270   2.889410   2.768452   2.237957   1.083605
    18  H    2.729236   3.293273   4.507659   2.998799   4.251655
    19  H    5.167171   5.530741   6.745505   4.770817   5.657890
    20  H    6.688948   6.528380   7.628052   5.315650   5.632262
    21  H    6.612333   5.910176   6.756285   4.463788   4.157884
    22  H    6.434008   5.061407   5.156864   3.932991   2.590682
    23  H    6.756871   5.561037   5.946087   4.207191   3.180772
    24  H    6.662497   5.529327   5.962442   4.188551   3.169764
                    6          7          8          9         10
     6  N    0.000000
     7  C    1.377029   0.000000
     8  C    2.235868   1.402316   0.000000
     9  C    3.559111   2.409101   1.414592   0.000000
    10  C    4.130402   2.770862   2.441759   1.400299   0.000000
    11  C    3.734165   2.404670   2.821293   2.422347   1.388489
    12  C    2.525540   1.405273   2.461571   2.813100   2.419080
    13  C    1.446083   2.506011   3.638590   4.881702   5.219164
    14  H    5.688037   5.542953   4.238551   4.387530   5.746276
    15  H    4.843705   4.408686   3.094733   3.026537   4.299379
    16  H    5.068962   4.615151   3.238395   3.078440   4.381960
    17  H    2.139202   3.270420   3.326594   4.715300   5.709182
    18  H    4.420581   3.407749   2.185101   1.084734   2.139751
    19  H    5.215952   3.858228   3.424247   2.155915   1.087376
    20  H    4.654938   3.393804   3.908772   3.405117   2.147010
    21  H    2.865802   2.177908   3.445537   3.898602   3.401663
    22  H    2.085121   3.381867   4.299043   5.643811   6.148781
    23  H    2.070956   2.800249   4.025331   5.140843   5.305021
    24  H    2.069487   2.807817   4.022323   5.147479   5.322513
                   11         12         13         14         15
    11  C    0.000000
    12  C    1.395346   0.000000
    13  C    4.502622   3.121965   0.000000
    14  H    6.750141   6.685971   7.044783   0.000000
    15  H    5.313555   5.379872   6.243288   1.766593   0.000000
    16  H    5.471124   5.588362   6.497194   1.773343   1.801198
    17  H    5.660740   4.600336   2.764309   4.938982   4.713460
    18  H    3.390475   3.897133   5.809117   3.735436   2.438603
    19  H    2.147268   3.401314   6.297624   6.174172   4.724350
    20  H    1.087491   2.150985   5.222829   7.773347   6.296746
    21  H    2.156851   1.085515   2.928809   7.667653   6.390215
    22  H    5.538707   4.176962   1.093048   7.167012   6.584755
    23  H    4.453765   3.100352   1.092892   7.655587   6.874503
    24  H    4.477622   3.123521   1.093083   7.528466   6.541425
                   16         17         18         19         20
    16  H    0.000000
    17  H    4.885836   0.000000
    18  H    2.339094   5.222213   0.000000
    19  H    4.750460   6.736713   2.452166   0.000000
    20  H    6.453828   6.663972   4.279173   2.468653   0.000000
    21  H    6.623735   5.003343   4.982519   4.294925   2.478884
    22  H    6.829341   2.407418   6.479910   7.235398   6.299047
    23  H    6.904071   3.506364   6.110909   6.347890   5.053037
    24  H    7.038941   3.492496   6.116867   6.368513   5.082791
                   21         22         23         24
    21  H    0.000000
    22  H    4.020815   0.000000
    23  H    2.716760   1.787960   0.000000
    24  H    2.749962   1.787836   1.799449   0.000000
 Stoichiometry    C11H11NO
 Framework group  C1[X(C11H11NO)]
 Deg. of freedom    66
 Full point group                 C1      NOp   1
 Largest Abelian subgroup         C1      NOp   1
 Largest concise Abelian subgroup C1      NOp   1
                         Standard orientation:                         
 ---------------------------------------------------------------------
 Center     Atomic      Atomic             Coordinates (Angstroms)
 Number     Number       Type             X           Y           Z
 ---------------------------------------------------------------------
      1          6           0       -2.869888   -1.549106    0.202474
      2          6           0       -2.495506   -0.107852   -0.017502
      3          8           0       -3.385359    0.728340   -0.187090
      4          6           0       -1.082244    0.281451   -0.017927
      5          6           0       -0.677955    1.606737   -0.008353
      6          7           0        0.684853    1.653955    0.020888
      7          6           0        1.204947    0.379009    0.005895
      8          6           0        0.119986   -0.508880   -0.025763
      9          6           0        0.407870   -1.893381   -0.062509
     10          6           0        1.735041   -2.339950   -0.056858
     11          6           0        2.785601   -1.433042   -0.015108
     12          6           0        2.539891   -0.059860    0.016339
     13          6           0        1.464946    2.870822    0.063863
     14          1           0       -3.951996   -1.624098    0.349163
     15          1           0       -2.384741   -1.933096    1.103539
     16          1           0       -2.599088   -2.144677   -0.672299
     17          1           0       -1.274925    2.511073   -0.007485
     18          1           0       -0.383972   -2.633712   -0.101800
     19          1           0        1.943091   -3.406810   -0.087059
     20          1           0        3.811159   -1.794767   -0.010327
     21          1           0        3.366416    0.643275    0.044604
     22          1           0        0.796758    3.735801    0.054412
     23          1           0        2.115561    2.896974   -0.813878
     24          1           0        2.054495    2.869946    0.984332
 ---------------------------------------------------------------------
 Rotational constants (GHZ):      1.2062910      0.7117263      0.4513644
 Leave Link  202 at Mon Oct  4 08:27:09 2021, MaxMem= 1073741824 cpu:       0.0
 (Enter /sw/target/amd/app/gaussian/Gaussian09RevA.02_gcc-4.9.2/g09/l301.exe)
 Standard basis: 6-31G(d) (6D, 7F)
 Ernie: Thresh=  0.10000D-02 Tol=  0.10000D-05 Strict=F.
 There are   217 symmetry adapted basis functions of A   symmetry.
 Integral buffers will be    131072 words long.
 Raffenetti 2 integral format.
 Two-electron integral symmetry is turned on.
   217 basis functions,   408 primitive gaussians,   217 cartesian basis functions
    46 alpha electrons       46 beta electrons
       nuclear repulsion energy       746.9313550923 Hartrees.
 IExCor=  402 DFT=T Ex+Corr=B3LYP ExCW=0 ScaHFX=  0.200000
 ScaDFX=  0.800000  0.720000  1.000000  0.810000 ScalE2=  1.000000  1.000000
 IRadAn=      0 IRanWt=     -1 IRanGd=            0 ICorTp=0
 NAtoms=   24 NActive=   24 NUniq=   24 SFac= 7.50D-01 NAtFMM=   80 NAOKFM=F Big=F
 Leave Link  301 at Mon Oct  4 08:27:10 2021, MaxMem= 1073741824 cpu:       0.1
 (Enter /sw/target/amd/app/gaussian/Gaussian09RevA.02_gcc-4.9.2/g09/l302.exe)
 NPDir=0 NMtPBC=     1 NCelOv=     1 NCel=       1 NClECP=     1 NCelD=      1
         NCelK=      1 NCelE2=     1 NClLst=     1 CellRange=     0.0.
 One-electron integrals computed using PRISM.
 NBasis=   217 RedAO= T  NBF=   217
 NBsUse=   217 1.00D-06 NBFU=   217
 Precomputing XC quadrature grid using
 IXCGrd= 2 IRadAn=           0 IRanWt=          -1 IRanGd=           0 AccXCQ= 1.00D-10.
 NRdTot=    1508 NPtTot=      191818 NUsed=      202699 NTot=      202731
 NSgBfM=   216   216   216   216   216 NAtAll=    24    24.
 Leave Link  302 at Mon Oct  4 08:27:14 2021, MaxMem= 1073741824 cpu:       1.7
 (Enter /sw/target/amd/app/gaussian/Gaussian09RevA.02_gcc-4.9.2/g09/l303.exe)
 DipDrv:  MaxL=1.
 Leave Link  303 at Mon Oct  4 08:27:14 2021, MaxMem= 1073741824 cpu:       0.2
 (Enter /sw/target/amd/app/gaussian/Gaussian09RevA.02_gcc-4.9.2/g09/l401.exe)
 Harris functional with IExCor=  402 diagonalized for initial guess.
 ExpMin= 1.61D-01 ExpMax= 5.48D+03 ExpMxC= 8.25D+02 IAcc=1 IRadAn=         1 AccDes= 0.00D+00
 HarFok:  IExCor=  402 AccDes= 0.00D+00 IRadAn=         1 IDoV= 1
 ScaDFX=  1.000000  1.000000  1.000000  1.000000
 FoFCou: FMM=F IPFlag=           0 FMFlag=      100000 FMFlg1=           0
         NFxFlg=           0 DoJE=T BraDBF=F KetDBF=T FulRan=T
         Omega=  0.000000  0.000000  1.000000  0.000000  0.000000 ICntrl=     500 IOpCl=  0
         NMat0=    1 NMatS0=    1 NMatT0=    0 NMatD0=    1 NMtDS0=    0 NMtDT0=    0
         I1Cent=           4 NGrid=           0.
 Petite list used in FoFCou.
 Harris En= -555.859034322253    
 Initial guess orbital symmetries:
       Occupied  (A) (A) (A) (A) (A) (A) (A) (A) (A) (A) (A) (A)
                 (A) (A) (A) (A) (A) (A) (A) (A) (A) (A) (A) (A)
                 (A) (A) (A) (A) (A) (A) (A) (A) (A) (A) (A) (A)
                 (A) (A) (A) (A) (A) (A) (A) (A) (A) (A)
       Virtual   (A) (A) (A) (A) (A) (A) (A) (A) (A) (A) (A) (A)
                 (A) (A) (A) (A) (A) (A) (A) (A) (A) (A) (A) (A)
                 (A) (A) (A) (A) (A) (A) (A) (A) (A) (A) (A) (A)
                 (A) (A) (A) (A) (A) (A) (A) (A) (A) (A) (A) (A)
                 (A) (A) (A) (A) (A) (A) (A) (A) (A) (A) (A) (A)
                 (A) (A) (A) (A) (A) (A) (A) (A) (A) (A) (A) (A)
                 (A) (A) (A) (A) (A) (A) (A) (A) (A) (A) (A) (A)
                 (A) (A) (A) (A) (A) (A) (A) (A) (A) (A) (A) (A)
                 (A) (A) (A) (A) (A) (A) (A) (A) (A) (A) (A) (A)
                 (A) (A) (A) (A) (A) (A) (A) (A) (A) (A) (A) (A)
                 (A) (A) (A) (A) (A) (A) (A) (A) (A) (A) (A) (A)
                 (A) (A) (A) (A) (A) (A) (A) (A) (A) (A) (A) (A)
                 (A) (A) (A) (A) (A) (A) (A) (A) (A) (A) (A) (A)
                 (A) (A) (A) (A) (A) (A) (A) (A) (A) (A) (A) (A)
                 (A) (A) (A)
 The electronic state of the initial guess is 1-A.
 Leave Link  401 at Mon Oct  4 08:27:32 2021, MaxMem= 1073741824 cpu:       8.2
 (Enter /sw/target/amd/app/gaussian/Gaussian09RevA.02_gcc-4.9.2/g09/l502.exe)
 Closed shell SCF:
 Requested convergence on RMS density matrix=1.00D-08 within  64 cycles.
 Requested convergence on MAX density matrix=1.00D-06.
 Requested convergence on             energy=1.00D-06.
 No special actions if energy rises.
 Using DIIS extrapolation, IDIIS=  1040.
 Integral symmetry usage will be decided dynamically.
       202470 words used for storage of precomputed grid.
 Keep R1 ints in memory in canonical form, NReq=285276270.
 IEnd=      352218 IEndB=      352218 NGot=  1073741824 MDV=   793697078
 LenX=   793697078 LenY=   793649548
 Symmetry not used in FoFDir.
 MinBra= 0 MaxBra= 2 Meth= 1.
 IRaf=       0 NMat=   1 IRICut=       1 DoRegI=T DoRafI=F ISym2E= 0 JSym2E=0.
 Integral accuracy reduced to 1.0D-05 until final iterations.

 Cycle   1  Pass 0  IDiag  1:
 E= -555.444947313235    
 DIIS: error= 3.67D-02 at cycle   1 NSaved=   1.
 NSaved= 1 IEnMin= 1 EnMin= -555.444947313235     IErMin= 1 ErrMin= 3.67D-02
 ErrMax= 3.67D-02 EMaxC= 1.00D-01 BMatC= 3.24D-01 BMatP= 3.24D-01
 IDIUse=3 WtCom= 6.33D-01 WtEn= 3.67D-01
 Coeff-Com:  0.100D+01
 Coeff-En:   0.100D+01
 Coeff:      0.100D+01
 Gap=     0.168 Goal=   None    Shift=    0.000
 GapD=    0.168 DampG=1.000 DampE=0.500 DampFc=0.5000 IDamp=-1.
 Damping current iteration by 5.00D-01
 RMSDP=7.29D-03 MaxDP=2.09D-01              OVMax= 2.82D-01

 Cycle   2  Pass 0  IDiag  1:
 E= -555.573737107394     Delta-E=       -0.128789794158 Rises=F Damp=T
 DIIS: error= 1.14D-02 at cycle   2 NSaved=   2.
 NSaved= 2 IEnMin= 2 EnMin= -555.573737107394     IErMin= 2 ErrMin= 1.14D-02
 ErrMax= 1.14D-02 EMaxC= 1.00D-01 BMatC= 3.67D-02 BMatP= 3.24D-01
 IDIUse=3 WtCom= 8.86D-01 WtEn= 1.14D-01
 Coeff-Com:  0.139D+00 0.861D+00
 Coeff-En:   0.199D+00 0.801D+00
 Coeff:      0.146D+00 0.854D+00
 Gap=     0.228 Goal=   None    Shift=    0.000
 RMSDP=2.45D-03 MaxDP=8.27D-02 DE=-1.29D-01 OVMax= 2.42D-01

 Cycle   3  Pass 0  IDiag  1:
 E= -555.727862530828     Delta-E=       -0.154125423435 Rises=F Damp=F
 DIIS: error= 1.84D-02 at cycle   3 NSaved=   3.
 NSaved= 3 IEnMin= 3 EnMin= -555.727862530828     IErMin= 2 ErrMin= 1.14D-02
 ErrMax= 1.84D-02 EMaxC= 1.00D-01 BMatC= 5.50D-02 BMatP= 3.67D-02
 IDIUse=2 WtCom= 0.00D+00 WtEn= 1.00D+00
 Coeff-En:   0.000D+00 0.000D+00 0.100D+01
 Coeff:      0.000D+00 0.000D+00 0.100D+01
 Gap=     0.186 Goal=   None    Shift=    0.000
 RMSDP=3.98D-03 MaxDP=1.68D-01 DE=-1.54D-01 OVMax= 2.87D-01

 Cycle   4  Pass 0  IDiag  1:
 E= -555.503445556857     Delta-E=        0.224416973971 Rises=F Damp=F
 DIIS: error= 4.76D-02 at cycle   4 NSaved=   4.
 NSaved= 4 IEnMin= 3 EnMin= -555.727862530828     IErMin= 2 ErrMin= 1.14D-02
 ErrMax= 4.76D-02 EMaxC= 1.00D-01 BMatC= 3.12D-01 BMatP= 3.67D-02
 IDIUse=2 WtCom= 0.00D+00 WtEn= 1.00D+00
 Coeff-En:   0.000D+00 0.000D+00 0.792D+00 0.208D+00
 Coeff:      0.000D+00 0.000D+00 0.792D+00 0.208D+00
 Gap=     0.169 Goal=   None    Shift=    0.000
 RMSDP=2.28D-03 MaxDP=8.87D-02 DE= 2.24D-01 OVMax= 1.23D-01

 Cycle   5  Pass 0  IDiag  1:
 E= -555.757717270083     Delta-E=       -0.254271713226 Rises=F Damp=F
 DIIS: error= 1.17D-02 at cycle   5 NSaved=   5.
 NSaved= 5 IEnMin= 5 EnMin= -555.757717270083     IErMin= 2 ErrMin= 1.14D-02
 ErrMax= 1.17D-02 EMaxC= 1.00D-01 BMatC= 2.21D-02 BMatP= 3.67D-02
 IDIUse=3 WtCom= 8.83D-01 WtEn= 1.17D-01
 Coeff-Com: -0.104D-02 0.264D-01 0.333D+00-0.543D-01 0.696D+00
 Coeff-En:   0.000D+00 0.000D+00 0.333D+00 0.000D+00 0.667D+00
 Coeff:     -0.921D-03 0.233D-01 0.333D+00-0.479D-01 0.693D+00
 Gap=     0.194 Goal=   None    Shift=    0.000
 RMSDP=7.63D-04 MaxDP=2.95D-02 DE=-2.54D-01 OVMax= 5.91D-02

 Cycle   6  Pass 0  IDiag  1:
 E= -555.777348602693     Delta-E=       -0.019631332610 Rises=F Damp=F
 DIIS: error= 1.64D-03 at cycle   6 NSaved=   6.
 NSaved= 6 IEnMin= 6 EnMin= -555.777348602693     IErMin= 6 ErrMin= 1.64D-03
 ErrMax= 1.64D-03 EMaxC= 1.00D-01 BMatC= 3.29D-04 BMatP= 2.21D-02
 IDIUse=3 WtCom= 9.84D-01 WtEn= 1.64D-02
 Coeff-Com: -0.544D-02 0.202D-01 0.161D+00-0.649D-01 0.478D+00 0.411D+00
 Coeff-En:   0.000D+00 0.000D+00 0.000D+00 0.000D+00 0.000D+00 0.100D+01
 Coeff:     -0.535D-02 0.199D-01 0.158D+00-0.639D-01 0.470D+00 0.421D+00
 Gap=     0.175 Goal=   None    Shift=    0.000
 RMSDP=1.07D-04 MaxDP=3.87D-03 DE=-1.96D-02 OVMax= 1.01D-02

 Cycle   7  Pass 0  IDiag  1:
 E= -555.777680825851     Delta-E=       -0.000332223158 Rises=F Damp=F
 DIIS: error= 2.93D-04 at cycle   7 NSaved=   7.
 NSaved= 7 IEnMin= 7 EnMin= -555.777680825851     IErMin= 7 ErrMin= 2.93D-04
 ErrMax= 2.93D-04 EMaxC= 1.00D-01 BMatC= 1.48D-05 BMatP= 3.29D-04
 IDIUse=3 WtCom= 9.97D-01 WtEn= 2.93D-03
 Coeff-Com: -0.169D-02 0.527D-02 0.511D-01-0.247D-01 0.160D+00 0.203D+00
 Coeff-Com:  0.607D+00
 Coeff-En:   0.000D+00 0.000D+00 0.000D+00 0.000D+00 0.000D+00 0.000D+00
 Coeff-En:   0.100D+01
 Coeff:     -0.168D-02 0.525D-02 0.509D-01-0.246D-01 0.160D+00 0.202D+00
 Coeff:      0.609D+00
 Gap=     0.175 Goal=   None    Shift=    0.000
 RMSDP=2.22D-05 MaxDP=6.19D-04 DE=-3.32D-04 OVMax= 1.69D-03

 Cycle   8  Pass 0  IDiag  1:
 E= -555.777693989038     Delta-E=       -0.000013163188 Rises=F Damp=F
 DIIS: error= 9.80D-05 at cycle   8 NSaved=   8.
 NSaved= 8 IEnMin= 8 EnMin= -555.777693989038     IErMin= 8 ErrMin= 9.80D-05
 ErrMax= 9.80D-05 EMaxC= 1.00D-01 BMatC= 2.16D-06 BMatP= 1.48D-05
 IDIUse=1 WtCom= 1.00D+00 WtEn= 0.00D+00
 Coeff-Com: -0.198D-04-0.239D-03 0.121D-01-0.577D-02 0.341D-01 0.681D-01
 Coeff-Com:  0.360D+00 0.532D+00
 Coeff:     -0.198D-04-0.239D-03 0.121D-01-0.577D-02 0.341D-01 0.681D-01
 Coeff:      0.360D+00 0.532D+00
 Gap=     0.175 Goal=   None    Shift=    0.000
 RMSDP=8.63D-06 MaxDP=2.98D-04 DE=-1.32D-05 OVMax= 5.63D-04

 Initial convergence to 1.0D-05 achieved.  Increase integral accuracy.
 Cycle   9  Pass 1  IDiag  1:
 E= -555.777659733419     Delta-E=        0.000034255620 Rises=F Damp=F
 DIIS: error= 1.71D-05 at cycle   1 NSaved=   1.
 NSaved= 1 IEnMin= 1 EnMin= -555.777659733419     IErMin= 1 ErrMin= 1.71D-05
 ErrMax= 1.71D-05 EMaxC= 1.00D-01 BMatC= 1.58D-07 BMatP= 1.58D-07
 IDIUse=1 WtCom= 1.00D+00 WtEn= 0.00D+00
 Coeff-Com:  0.100D+01
 Coeff:      0.100D+01
 Gap=     0.175 Goal=   None    Shift=    0.000
 RMSDP=8.63D-06 MaxDP=2.98D-04 DE= 3.43D-05 OVMax= 2.85D-04

 Cycle  10  Pass 1  IDiag  1:
 E= -555.777659653122     Delta-E=        0.000000080297 Rises=F Damp=F
 DIIS: error= 3.03D-05 at cycle   2 NSaved=   2.
 NSaved= 2 IEnMin= 1 EnMin= -555.777659733419     IErMin= 1 ErrMin= 1.71D-05
 ErrMax= 3.03D-05 EMaxC= 1.00D-01 BMatC= 2.69D-07 BMatP= 1.58D-07
 IDIUse=1 WtCom= 1.00D+00 WtEn= 0.00D+00
 Coeff-Com:  0.579D+00 0.421D+00
 Coeff:      0.579D+00 0.421D+00
 Gap=     0.175 Goal=   None    Shift=    0.000
 RMSDP=3.15D-06 MaxDP=8.76D-05 DE= 8.03D-08 OVMax= 2.30D-04

 Cycle  11  Pass 1  IDiag  1:
 E= -555.777659899841     Delta-E=       -0.000000246719 Rises=F Damp=F
 DIIS: error= 7.64D-06 at cycle   3 NSaved=   3.
 NSaved= 3 IEnMin= 3 EnMin= -555.777659899841     IErMin= 3 ErrMin= 7.64D-06
 ErrMax= 7.64D-06 EMaxC= 1.00D-01 BMatC= 2.00D-08 BMatP= 1.58D-07
 IDIUse=1 WtCom= 1.00D+00 WtEn= 0.00D+00
 Coeff-Com:  0.588D-01 0.214D+00 0.728D+00
 Coeff:      0.588D-01 0.214D+00 0.728D+00
 Gap=     0.175 Goal=   None    Shift=    0.000
 RMSDP=9.53D-07 MaxDP=3.36D-05 DE=-2.47D-07 OVMax= 8.25D-05

 Cycle  12  Pass 1  IDiag  1:
 E= -555.777659914032     Delta-E=       -0.000000014191 Rises=F Damp=F
 DIIS: error= 4.05D-06 at cycle   4 NSaved=   4.
 NSaved= 4 IEnMin= 4 EnMin= -555.777659914032     IErMin= 4 ErrMin= 4.05D-06
 ErrMax= 4.05D-06 EMaxC= 1.00D-01 BMatC= 6.03D-09 BMatP= 2.00D-08
 IDIUse=1 WtCom= 1.00D+00 WtEn= 0.00D+00
 Coeff-Com: -0.121D-01 0.103D+00 0.479D+00 0.430D+00
 Coeff:     -0.121D-01 0.103D+00 0.479D+00 0.430D+00
 Gap=     0.175 Goal=   None    Shift=    0.000
 RMSDP=4.00D-07 MaxDP=1.59D-05 DE=-1.42D-08 OVMax= 3.46D-05

 Cycle  13  Pass 1  IDiag  1:
 E= -555.777659919533     Delta-E=       -0.000000005501 Rises=F Damp=F
 DIIS: error= 8.60D-07 at cycle   5 NSaved=   5.
 NSaved= 5 IEnMin= 5 EnMin= -555.777659919533     IErMin= 5 ErrMin= 8.60D-07
 ErrMax= 8.60D-07 EMaxC= 1.00D-01 BMatC= 1.72D-10 BMatP= 6.03D-09
 IDIUse=1 WtCom= 1.00D+00 WtEn= 0.00D+00
 Coeff-Com: -0.969D-02 0.466D-01 0.231D+00 0.238D+00 0.494D+00
 Coeff:     -0.969D-02 0.466D-01 0.231D+00 0.238D+00 0.494D+00
 Gap=     0.175 Goal=   None    Shift=    0.000
 RMSDP=8.75D-08 MaxDP=2.63D-06 DE=-5.50D-09 OVMax= 6.10D-06

 Cycle  14  Pass 1  IDiag  1:
 E= -555.777659919703     Delta-E=       -0.000000000169 Rises=F Damp=F
 DIIS: error= 2.61D-07 at cycle   6 NSaved=   6.
 NSaved= 6 IEnMin= 6 EnMin= -555.777659919703     IErMin= 6 ErrMin= 2.61D-07
 ErrMax= 2.61D-07 EMaxC= 1.00D-01 BMatC= 1.65D-11 BMatP= 1.72D-10
 IDIUse=1 WtCom= 1.00D+00 WtEn= 0.00D+00
 Coeff-Com: -0.390D-02 0.144D-01 0.742D-01 0.819D-01 0.277D+00 0.557D+00
 Coeff:     -0.390D-02 0.144D-01 0.742D-01 0.819D-01 0.277D+00 0.557D+00
 Gap=     0.175 Goal=   None    Shift=    0.000
 RMSDP=2.57D-08 MaxDP=8.31D-07 DE=-1.69D-10 OVMax= 1.68D-06

 Cycle  15  Pass 1  IDiag  1:
 E= -555.777659919713     Delta-E=       -0.000000000010 Rises=F Damp=F
 DIIS: error= 8.50D-08 at cycle   7 NSaved=   7.
 NSaved= 7 IEnMin= 7 EnMin= -555.777659919713     IErMin= 7 ErrMin= 8.50D-08
 ErrMax= 8.50D-08 EMaxC= 1.00D-01 BMatC= 1.57D-12 BMatP= 1.65D-11
 IDIUse=1 WtCom= 1.00D+00 WtEn= 0.00D+00
 Coeff-Com: -0.138D-02 0.456D-02 0.236D-01 0.268D-01 0.118D+00 0.316D+00
 Coeff-Com:  0.512D+00
 Coeff:     -0.138D-02 0.456D-02 0.236D-01 0.268D-01 0.118D+00 0.316D+00
 Coeff:      0.512D+00
 Gap=     0.175 Goal=   None    Shift=    0.000
 RMSDP=9.63D-09 MaxDP=2.42D-07 DE=-1.05D-11 OVMax= 6.06D-07

 SCF Done:  E(RB3LYP) =  -555.777659920     A.U. after   15 cycles
             Convg  =    0.9632D-08             -V/T =  2.0094
 KE= 5.506238520615D+02 PE=-2.784404289745D+03 EE= 9.310714226715D+02
 Leave Link  502 at Mon Oct  4 08:34:35 2021, MaxMem= 1073741824 cpu:     172.0
 (Enter /sw/target/amd/app/gaussian/Gaussian09RevA.02_gcc-4.9.2/g09/l508.exe)
 QCSCF skips out because SCF is already converged.
 Leave Link  508 at Mon Oct  4 08:34:38 2021, MaxMem= 1073741824 cpu:       0.0
 (Enter /sw/target/amd/app/gaussian/Gaussian09RevA.02_gcc-4.9.2/g09/l601.exe)
 Copying SCF densities to generalized density rwf, IOpCl= 0 IROHF=0.

 **********************************************************************

            Population analysis using the SCF density.

 **********************************************************************

 Orbital symmetries:
       Occupied  (A) (A) (A) (A) (A) (A) (A) (A) (A) (A) (A) (A)
                 (A) (A) (A) (A) (A) (A) (A) (A) (A) (A) (A) (A)
                 (A) (A) (A) (A) (A) (A) (A) (A) (A) (A) (A) (A)
                 (A) (A) (A) (A) (A) (A) (A) (A) (A) (A)
       Virtual   (A) (A) (A) (A) (A) (A) (A) (A) (A) (A) (A) (A)
                 (A) (A) (A) (A) (A) (A) (A) (A) (A) (A) (A) (A)
                 (A) (A) (A) (A) (A) (A) (A) (A) (A) (A) (A) (A)
                 (A) (A) (A) (A) (A) (A) (A) (A) (A) (A) (A) (A)
                 (A) (A) (A) (A) (A) (A) (A) (A) (A) (A) (A) (A)
                 (A) (A) (A) (A) (A) (A) (A) (A) (A) (A) (A) (A)
                 (A) (A) (A) (A) (A) (A) (A) (A) (A) (A) (A) (A)
                 (A) (A) (A) (A) (A) (A) (A) (A) (A) (A) (A) (A)
                 (A) (A) (A) (A) (A) (A) (A) (A) (A) (A) (A) (A)
                 (A) (A) (A) (A) (A) (A) (A) (A) (A) (A) (A) (A)
                 (A) (A) (A) (A) (A) (A) (A) (A) (A) (A) (A) (A)
                 (A) (A) (A) (A) (A) (A) (A) (A) (A) (A) (A) (A)
                 (A) (A) (A) (A) (A) (A) (A) (A) (A) (A) (A) (A)
                 (A) (A) (A) (A) (A) (A) (A) (A) (A) (A) (A) (A)
                 (A) (A) (A)
 The electronic state is 1-A.
 Alpha  occ. eigenvalues --  -19.10968 -14.39785 -10.25772 -10.24299 -10.23077
 Alpha  occ. eigenvalues --  -10.22227 -10.19662 -10.19170 -10.19039 -10.18898
 Alpha  occ. eigenvalues --  -10.18527 -10.18048 -10.17510  -1.01023  -1.00290
 Alpha  occ. eigenvalues --   -0.85078  -0.81126  -0.75500  -0.73727  -0.72974
 Alpha  occ. eigenvalues --   -0.69781  -0.63062  -0.60916  -0.57868  -0.54551
 Alpha  occ. eigenvalues --   -0.50291  -0.49013  -0.48527  -0.47696  -0.45251
 Alpha  occ. eigenvalues --   -0.43556  -0.43436  -0.42787  -0.41997  -0.41330
 Alpha  occ. eigenvalues --   -0.40113  -0.38671  -0.37433  -0.35875  -0.34592
 Alpha  occ. eigenvalues --   -0.33940  -0.33071  -0.27428  -0.23256  -0.22914
 Alpha  occ. eigenvalues --   -0.20780
 Alpha virt. eigenvalues --   -0.03306  -0.00206   0.02221   0.07956   0.09996
 Alpha virt. eigenvalues --    0.10149   0.11237   0.12308   0.14388   0.14790
 Alpha virt. eigenvalues --    0.15022   0.15645   0.16615   0.17114   0.18582
 Alpha virt. eigenvalues --    0.19944   0.21329   0.22784   0.24479   0.25492
 Alpha virt. eigenvalues --    0.28343   0.30810   0.32459   0.34866   0.35416
 Alpha virt. eigenvalues --    0.37503   0.38286   0.44064   0.48380   0.48857
 Alpha virt. eigenvalues --    0.50857   0.51918   0.52839   0.53460   0.54745
 Alpha virt. eigenvalues --    0.54868   0.55644   0.58534   0.59315   0.60211
 Alpha virt. eigenvalues --    0.60606   0.61390   0.61900   0.62246   0.63403
 Alpha virt. eigenvalues --    0.66154   0.67018   0.68580   0.69761   0.70923
 Alpha virt. eigenvalues --    0.71777   0.73857   0.77232   0.77549   0.79968
 Alpha virt. eigenvalues --    0.80296   0.82235   0.83593   0.84696   0.85149
 Alpha virt. eigenvalues --    0.85851   0.86099   0.88383   0.89429   0.90623
 Alpha virt. eigenvalues --    0.90909   0.91906   0.93270   0.96181   0.96583
 Alpha virt. eigenvalues --    0.98381   0.98879   1.01312   1.04127   1.04866
 Alpha virt. eigenvalues --    1.05604   1.10772   1.12919   1.15770   1.17736
 Alpha virt. eigenvalues --    1.19313   1.22929   1.23546   1.26208   1.28839
 Alpha virt. eigenvalues --    1.30376   1.32469   1.34422   1.37545   1.39366
 Alpha virt. eigenvalues --    1.42099   1.43950   1.45349   1.45894   1.48898
 Alpha virt. eigenvalues --    1.50073   1.50369   1.55439   1.59056   1.63584
 Alpha virt. eigenvalues --    1.69436   1.73697   1.74782   1.79247   1.81365
 Alpha virt. eigenvalues --    1.82595   1.83082   1.87885   1.88587   1.90632
 Alpha virt. eigenvalues --    1.91836   1.92729   1.96417   1.96906   1.97772
 Alpha virt. eigenvalues --    1.98063   1.98473   2.01597   2.07123   2.07903
 Alpha virt. eigenvalues --    2.11117   2.12481   2.12776   2.16392   2.18322
 Alpha virt. eigenvalues --    2.20161   2.22457   2.24834   2.25251   2.26318
 Alpha virt. eigenvalues --    2.27418   2.28248   2.31574   2.34564   2.36145
 Alpha virt. eigenvalues --    2.41170   2.42550   2.48416   2.50619   2.54384
 Alpha virt. eigenvalues --    2.58543   2.62508   2.63488   2.64736   2.67409
 Alpha virt. eigenvalues --    2.69581   2.70177   2.76597   2.77893   2.81635
 Alpha virt. eigenvalues --    2.88754   2.90192   2.96804   2.99362   3.11279
 Alpha virt. eigenvalues --    3.21633   3.31096   3.45510   3.98258   4.03718
 Alpha virt. eigenvalues --    4.09161   4.10367   4.17304   4.18009   4.24059
 Alpha virt. eigenvalues --    4.28651   4.40872   4.42054   4.42535   4.62016
 Alpha virt. eigenvalues --    4.81837
          Condensed to atoms (all electrons):
              1          2          3          4          5          6
     1  C    5.414934   0.320482  -0.101213  -0.131945   0.011075  -0.000060
     2  C    0.320482   4.565601   0.597173   0.274938  -0.058739   0.006007
     3  O   -0.101213   0.597173   8.062000  -0.095501   0.006030   0.000511
     4  C   -0.131945   0.274938  -0.095501   5.342101   0.421471  -0.061460
     5  C    0.011075  -0.058739   0.006030   0.421471   5.084572   0.335754
     6  N   -0.000060   0.006007   0.000511  -0.061460   0.335754   6.932348
     7  C   -0.000652   0.008362  -0.000109  -0.007662  -0.125068   0.282205
     8  C   -0.013047  -0.038732   0.003555   0.380348  -0.043129  -0.035123
     9  C    0.001963  -0.015536   0.000015  -0.102236   0.015172   0.011484
    10  C    0.000090   0.000119   0.000000   0.007271  -0.000293  -0.000264
    11  C    0.000002   0.000000   0.000000  -0.000116  -0.000068   0.005352
    12  C    0.000005  -0.000141   0.000000   0.011539   0.005673  -0.095317
    13  C    0.000003  -0.000045   0.000002   0.006182  -0.049590   0.291259
    14  H    0.345123  -0.018580   0.006300   0.005429  -0.000192   0.000000
    15  H    0.344128  -0.021233   0.002370   0.005225  -0.000416  -0.000004
    16  H    0.347741  -0.017424   0.001152   0.001978  -0.000224   0.000002
    17  H    0.000269  -0.002009   0.006739  -0.026285   0.361588  -0.046848
    18  H    0.001769   0.000291   0.000010  -0.005581  -0.000305  -0.000094
    19  H   -0.000002  -0.000001  -0.000000  -0.000158   0.000005   0.000004
    20  H    0.000000   0.000000   0.000000   0.000014   0.000001  -0.000102
    21  H   -0.000000   0.000001  -0.000000  -0.000185  -0.000122  -0.007804
    22  H    0.000000  -0.000015   0.000001  -0.000159  -0.000860  -0.030461
    23  H   -0.000000   0.000004  -0.000000  -0.000004   0.001158  -0.042914
    24  H   -0.000000   0.000005  -0.000000   0.000073   0.001243  -0.043574
              7          8          9         10         11         12
     1  C   -0.000652  -0.013047   0.001963   0.000090   0.000002   0.000005
     2  C    0.008362  -0.038732  -0.015536   0.000119   0.000000  -0.000141
     3  O   -0.000109   0.003555   0.000015   0.000000   0.000000   0.000000
     4  C   -0.007662   0.380348  -0.102236   0.007271  -0.000116   0.011539
     5  C   -0.125068  -0.043129   0.015172  -0.000293  -0.000068   0.005673
     6  N    0.282205  -0.035123   0.011484  -0.000264   0.005352  -0.095317
     7  C    4.769601   0.451218  -0.058341  -0.042722   0.001541   0.475793
     8  C    0.451218   4.858685   0.492111  -0.002763  -0.037159  -0.055995
     9  C   -0.058341   0.492111   5.137370   0.508711  -0.023589  -0.059866
    10  C   -0.042722  -0.002763   0.508711   4.881798   0.530208  -0.029235
    11  C    0.001541  -0.037159  -0.023589   0.530208   4.862047   0.528854
    12  C    0.475793  -0.055995  -0.059866  -0.029235   0.528854   5.068470
    13  C   -0.041757   0.007388  -0.000197   0.000017  -0.000160  -0.004397
    14  H    0.000011   0.000083   0.000012  -0.000003  -0.000000   0.000000
    15  H   -0.000009   0.000770   0.000324   0.000046   0.000002  -0.000006
    16  H    0.000022   0.000797  -0.001243   0.000047   0.000002  -0.000003
    17  H    0.004889   0.002567  -0.000127   0.000003   0.000002  -0.000105
    18  H    0.005183  -0.039782   0.349787  -0.045200   0.004823   0.000544
    19  H    0.000944   0.002346  -0.037894   0.359382  -0.041647   0.004821
    20  H    0.002668   0.001066   0.004567  -0.040022   0.357535  -0.039708
    21  H   -0.039436   0.004234   0.000501   0.004517  -0.041042   0.349825
    22  H    0.002162   0.000049   0.000007  -0.000000   0.000001   0.000047
    23  H   -0.000830  -0.000254  -0.000010  -0.000002   0.000012   0.003194
    24  H   -0.000902  -0.000225  -0.000009  -0.000002   0.000018   0.003047
             13         14         15         16         17         18
     1  C    0.000003   0.345123   0.344128   0.347741   0.000269   0.001769
     2  C   -0.000045  -0.018580  -0.021233  -0.017424  -0.002009   0.000291
     3  O    0.000002   0.006300   0.002370   0.001152   0.006739   0.000010
     4  C    0.006182   0.005429   0.005225   0.001978  -0.026285  -0.005581
     5  C   -0.049590  -0.000192  -0.000416  -0.000224   0.361588  -0.000305
     6  N    0.291259   0.000000  -0.000004   0.000002  -0.046848  -0.000094
     7  C   -0.041757   0.000011  -0.000009   0.000022   0.004889   0.005183
     8  C    0.007388   0.000083   0.000770   0.000797   0.002567  -0.039782
     9  C   -0.000197   0.000012   0.000324  -0.001243  -0.000127   0.349787
    10  C    0.000017  -0.000003   0.000046   0.000047   0.000003  -0.045200
    11  C   -0.000160  -0.000000   0.000002   0.000002   0.000002   0.004823
    12  C   -0.004397   0.000000  -0.000006  -0.000003  -0.000105   0.000544
    13  C    4.986659  -0.000000  -0.000000  -0.000000  -0.002847   0.000003
    14  H   -0.000000   0.533714  -0.024454  -0.021592  -0.000002   0.000097
    15  H   -0.000000  -0.024454   0.551595  -0.026241  -0.000014   0.002465
    16  H   -0.000000  -0.021592  -0.026241   0.539928  -0.000006   0.004114
    17  H   -0.002847  -0.000002  -0.000014  -0.000006   0.514565  -0.000003
    18  H    0.000003   0.000097   0.002465   0.004114  -0.000003   0.597415
    19  H   -0.000000   0.000000  -0.000003  -0.000003  -0.000000  -0.005424
    20  H   -0.000000  -0.000000   0.000000   0.000000  -0.000000  -0.000200
    21  H    0.004376   0.000000   0.000000   0.000000  -0.000001   0.000018
    22  H    0.378902  -0.000000  -0.000000  -0.000000   0.004503  -0.000000
    23  H    0.374268   0.000000   0.000000  -0.000000   0.000021  -0.000000
    24  H    0.374747   0.000000   0.000000   0.000000  -0.000007   0.000000
             19         20         21         22         23         24
     1  C   -0.000002   0.000000  -0.000000   0.000000  -0.000000  -0.000000
     2  C   -0.000001   0.000000   0.000001  -0.000015   0.000004   0.000005
     3  O   -0.000000   0.000000  -0.000000   0.000001  -0.000000  -0.000000
     4  C   -0.000158   0.000014  -0.000185  -0.000159  -0.000004   0.000073
     5  C    0.000005   0.000001  -0.000122  -0.000860   0.001158   0.001243
     6  N    0.000004  -0.000102  -0.007804  -0.030461  -0.042914  -0.043574
     7  C    0.000944   0.002668  -0.039436   0.002162  -0.000830  -0.000902
     8  C    0.002346   0.001066   0.004234   0.000049  -0.000254  -0.000225
     9  C   -0.037894   0.004567   0.000501   0.000007  -0.000010  -0.000009
    10  C    0.359382  -0.040022   0.004517  -0.000000  -0.000002  -0.000002
    11  C   -0.041647   0.357535  -0.041042   0.000001   0.000012   0.000018
    12  C    0.004821  -0.039708   0.349825   0.000047   0.003194   0.003047
    13  C   -0.000000  -0.000000   0.004376   0.378902   0.374268   0.374747
    14  H    0.000000  -0.000000   0.000000  -0.000000   0.000000   0.000000
    15  H   -0.000003   0.000000   0.000000  -0.000000   0.000000   0.000000
    16  H   -0.000003   0.000000   0.000000  -0.000000  -0.000000   0.000000
    17  H   -0.000000  -0.000000  -0.000001   0.004503   0.000021  -0.000007
    18  H   -0.005424  -0.000200   0.000018  -0.000000  -0.000000   0.000000
    19  H    0.596241  -0.005443  -0.000186  -0.000000   0.000000   0.000000
    20  H   -0.005443   0.597156  -0.005391  -0.000000  -0.000000  -0.000000
    21  H   -0.000186  -0.005391   0.602636  -0.000049   0.000745   0.000607
    22  H   -0.000000  -0.000000  -0.000049   0.518667  -0.025301  -0.025644
    23  H    0.000000  -0.000000   0.000745  -0.025301   0.549874  -0.038583
    24  H    0.000000  -0.000000   0.000607  -0.025644  -0.038583   0.550843
 Mulliken atomic charges:
              1
     1  C   -0.540663
     2  C    0.399471
     3  O   -0.489035
     4  C   -0.025279
     5  C    0.035265
     6  N   -0.500901
     7  C    0.312887
     8  C    0.060991
     9  C   -0.222975
    10  C   -0.131704
    11  C   -0.146617
    12  C   -0.167039
    13  C   -0.324812
    14  H    0.174055
    15  H    0.165454
    16  H    0.170955
    17  H    0.183107
    18  H    0.130069
    19  H    0.127018
    20  H    0.127859
    21  H    0.126756
    22  H    0.178150
    23  H    0.178623
    24  H    0.178364
 Sum of Mulliken atomic charges =  -0.00000
 Mulliken charges with hydrogens summed into heavy atoms:
              1
     1  C   -0.030199
     2  C    0.399471
     3  O   -0.489035
     4  C   -0.025279
     5  C    0.218372
     6  N   -0.500901
     7  C    0.312887
     8  C    0.060991
     9  C   -0.092906
    10  C   -0.004685
    11  C   -0.018758
    12  C   -0.040283
    13  C    0.210325
 Sum of Mulliken charges with hydrogens summed into heavy atoms =  -0.00000
 Electronic spatial extent (au):  <R**2>=           2425.2232
 Charge=             -0.0000 electrons
 Dipole moment (field-independent basis, Debye):
    X=              3.8394    Y=              0.9747    Z=              0.4297  Tot=              3.9844
 Quadrupole moment (field-independent basis, Debye-Ang):
   XX=            -82.4219   YY=            -62.2565   ZZ=            -77.7409
   XY=              8.8335   XZ=             -1.2789   YZ=              0.7210
 Traceless Quadrupole moment (field-independent basis, Debye-Ang):
   XX=             -8.2822   YY=             11.8832   ZZ=             -3.6011
   XY=              8.8335   XZ=             -1.2789   YZ=              0.7210
 Octapole moment (field-independent basis, Debye-Ang**2):
  XXX=             56.7343  YYY=             27.9053  ZZZ=             -0.0125  XYY=              7.2278
  XXY=            -16.6284  XXZ=              5.2677  XZZ=             -8.9045  YZZ=              5.5114
  YYZ=             -0.4405  XYZ=             -0.9407
 Hexadecapole moment (field-independent basis, Debye-Ang**3):
 XXXX=          -2011.3803 YYYY=          -1101.2247 ZZZZ=            -94.0166 XXXY=             72.3728
 XXXZ=            -16.5010 YYYX=             -1.9462 YYYZ=              4.7366 ZZZX=              2.8580
 ZZZY=             -0.7818 XXYY=           -491.7230 XXZZ=           -339.3846 YYZZ=           -228.0083
 XXYZ=              4.2938 YYXZ=              0.6839 ZZXY=             11.1349
 N-N= 7.469313550923D+02 E-N=-2.784404282195D+03  KE= 5.506238520615D+02
 No NMR shielding tensors so no spin-rotation constants.
 Leave Link  601 at Mon Oct  4 08:34:41 2021, MaxMem= 1073741824 cpu:       1.2
 (Enter /sw/target/amd/app/gaussian/Gaussian09RevA.02_gcc-4.9.2/g09/l701.exe)
 Compute integral first derivatives.
 ... and contract with generalized density number  0.
 Leave Link  701 at Mon Oct  4 08:34:44 2021, MaxMem= 1073741824 cpu:       1.2
 (Enter /sw/target/amd/app/gaussian/Gaussian09RevA.02_gcc-4.9.2/g09/l702.exe)
 L702 exits ... SP integral derivatives will be done elsewhere.
 Leave Link  702 at Mon Oct  4 08:34:45 2021, MaxMem= 1073741824 cpu:       0.1
 (Enter /sw/target/amd/app/gaussian/Gaussian09RevA.02_gcc-4.9.2/g09/l703.exe)
 Compute integral first derivatives, UseDBF=F ICtDFT=           0.
 Integral derivatives from FoFDir, PRISM(SPDF).
 Calling FoFJK, ICntrl=      2127 FMM=F ISym2X=0 I1Cent= 0 IOpClX= 0 NMat=1 NMatS=1 NMatT=0.
 FoFCou: FMM=F IPFlag=           0 FMFlag=      100000 FMFlg1=         800
         NFxFlg=           0 DoJE=F BraDBF=F KetDBF=F FulRan=T
         Omega=  0.000000  0.000000  1.000000  0.000000  0.000000 ICntrl=    2127 IOpCl=  0
         NMat0=    1 NMatS0=    1 NMatT0=    0 NMatD0=    1 NMtDS0=    0 NMtDT0=    0
         I1Cent=           0 NGrid=           0.
 Symmetry not used in FoFCou.
 Leave Link  703 at Mon Oct  4 08:37:10 2021, MaxMem= 1073741824 cpu:      80.8
 (Enter /sw/target/amd/app/gaussian/Gaussian09RevA.02_gcc-4.9.2/g09/l716.exe)
 Dipole        = 1.51052389D+00 3.83463003D-01 1.69051155D-01
 ***** Axes restored to original set *****
 -------------------------------------------------------------------
 Center     Atomic                   Forces (Hartrees/Bohr)
 Number     Number              X              Y              Z
 -------------------------------------------------------------------
      1        6          -0.000818623   -0.004584088    0.006898464
      2        6          -0.014551499    0.004691864    0.004648368
      3        8           0.005131285    0.002602718   -0.001557183
      4        6          -0.007993730   -0.001507829    0.003332115
      5        6           0.005855808   -0.006825885   -0.002301305
      6        7          -0.010396729    0.013824175    0.004080005
      7        6           0.010401916    0.004267199   -0.007438453
      8        6           0.009786496   -0.023015343   -0.001562045
      9        6           0.003823088   -0.001404943   -0.002511007
     10        6          -0.012389301   -0.011444485    0.009148589
     11        6           0.001233703    0.016215639   -0.002254639
     12        6          -0.000865324    0.001424865    0.000128193
     13        6           0.002428078   -0.003042820   -0.001023978
     14        1          -0.001494460    0.002032763   -0.001935053
     15        1           0.004052277   -0.002635496   -0.004531843
     16        1           0.004580392   -0.002395022   -0.001976338
     17        1           0.001682016   -0.002102475   -0.000533862
     18        1          -0.001272589    0.000757187    0.001222550
     19        1          -0.000966979    0.000041173    0.000659108
     20        1          -0.000692642    0.001009046    0.000426852
     21        1          -0.000433388    0.000837599    0.000145243
     22        1           0.001301930   -0.000460929   -0.000846953
     23        1           0.001187893    0.005804618   -0.000449749
     24        1           0.000410384    0.005910468   -0.001767076
 -------------------------------------------------------------------
 Cartesian Forces:  Max     0.023015343 RMS     0.005898118
 Leave Link  716 at Mon Oct  4 08:37:11 2021, MaxMem= 1073741824 cpu:       0.1
 (Enter /sw/target/amd/app/gaussian/Gaussian09RevA.02_gcc-4.9.2/g09/l103.exe)

 GradGradGradGradGradGradGradGradGradGradGradGradGradGradGradGradGradGrad
 Berny optimization.
 Internal  Forces:  Max     0.018441245 RMS     0.004000508
 Search for a local minimum.
 Step number   1 out of a maximum of  133
 All quantities printed in internal units (Hartrees-Bohrs-Radians)
 RMS Force = .40005D-02 SwitMx=.10000D-02 MixMth= 1
 Mixed Optimization -- RFO/linear search
 Second derivative matrix not updated -- first step.
     Eigenvalues ---    0.00697   0.00909   0.01082   0.01217   0.01600
     Eigenvalues ---    0.01683   0.01835   0.01914   0.01977   0.02001
     Eigenvalues ---    0.02053   0.02080   0.02114   0.02154   0.02167
     Eigenvalues ---    0.02201   0.02231   0.07281   0.07539   0.07789
     Eigenvalues ---    0.07875   0.15997   0.16000   0.16000   0.16000
     Eigenvalues ---    0.16000   0.16000   0.16000   0.16000   0.16000
     Eigenvalues ---    0.16000   0.16000   0.22000   0.22587   0.23784
     Eigenvalues ---    0.24517   0.24997   0.24999   0.25000   0.25000
     Eigenvalues ---    0.25000   0.31833   0.34289   0.34459   0.34463
     Eigenvalues ---    0.34464   0.34481   0.34541   0.35104   0.35118
     Eigenvalues ---    0.35336   0.35428   0.35562   0.36235   0.37545
     Eigenvalues ---    0.38763   0.38907   0.40739   0.43440   0.45205
     Eigenvalues ---    0.45278   0.46116   0.47002   0.48275   0.50572
     Eigenvalues ---    0.899261000.000001000.000001000.000001000.00000
     Eigenvalues --- 1000.000001000.000001000.000001000.000001000.00000
     Eigenvalues --- 1000.000001000.000001000.000001000.000001000.00000
     Eigenvalues --- 1000.000001000.000001000.000001000.000001000.00000
     Eigenvalues --- 1000.000001000.000001000.000001000.000001000.00000
     Eigenvalues --- 1000.000001000.000001000.000001000.000001000.00000
     Eigenvalues --- 1000.000001000.000001000.000001000.000001000.00000
     Eigenvalues --- 1000.000001000.000001000.000001000.000001000.00000
     Eigenvalues --- 1000.000001000.000001000.000001000.000001000.00000
     Eigenvalues --- 1000.000001000.000001000.000001000.000001000.00000
     Eigenvalues --- 1000.000001000.000001000.000001000.000001000.00000
     Eigenvalues --- 1000.000001000.000001000.00000
 RFO step:  Lambda=-6.94012483D-03 EMin= 6.96558424D-03
 Linear search not attempted -- first point.
 Iteration  1 RMS(Cart)=  0.04962373 RMS(Int)=  0.00111473
 Iteration  2 RMS(Cart)=  0.00151217 RMS(Int)=  0.00020288
 Iteration  3 RMS(Cart)=  0.00000126 RMS(Int)=  0.00020288
 Iteration  4 RMS(Cart)=  0.00000000 RMS(Int)=  0.00020288
 Variable       Old X    -DE/DX   Delta X   Delta X   Delta X     New X
                                 (Linear)    (Quad)   (Total)
    R1        2.84450   0.00906   0.00000   0.02785   0.02785   2.87235
    R2        2.06845  -0.00134   0.00000  -0.00382  -0.00382   2.06463
    R3        2.06554   0.00204   0.00000   0.00581   0.00581   2.07135
    R4        2.06427   0.00273   0.00000   0.00773   0.00773   2.07201
    R5        2.32967  -0.00451   0.00000  -0.00497  -0.00497   2.32470
    R6        2.77015   0.00268   0.00000   0.00724   0.00724   2.77740
    R7        2.61843   0.00167   0.00000   0.00119   0.00121   2.61964
    R8        2.71887   0.00678   0.00000   0.01717   0.01712   2.73599
    R9        2.57747   0.00355   0.00000   0.00516   0.00522   2.58269
   R10        2.04772  -0.00252   0.00000  -0.00695  -0.00695   2.04077
   R11        2.60221   0.00795   0.00000   0.01686   0.01688   2.61908
   R12        2.73270   0.00877   0.00000   0.02223   0.02223   2.75493
   R13        2.64999   0.01844   0.00000   0.04328   0.04320   2.69319
   R14        2.65558  -0.00669   0.00000  -0.01422  -0.01423   2.64135
   R15        2.67319  -0.00678   0.00000  -0.01534  -0.01536   2.65783
   R16        2.64618  -0.00811   0.00000  -0.01801  -0.01800   2.62818
   R17        2.04985  -0.00012   0.00000  -0.00033  -0.00033   2.04952
   R18        2.62386   0.01756   0.00000   0.03585   0.03587   2.65974
   R19        2.05484  -0.00076   0.00000  -0.00213  -0.00213   2.05271
   R20        2.63682  -0.00488   0.00000  -0.01045  -0.01043   2.62639
   R21        2.05506  -0.00066   0.00000  -0.00184  -0.00184   2.05322
   R22        2.05133   0.00062   0.00000   0.00171   0.00171   2.05304
   R23        2.06556  -0.00161   0.00000  -0.00457  -0.00457   2.06099
   R24        2.06527   0.00163   0.00000   0.00464   0.00464   2.06990
   R25        2.06563   0.00162   0.00000   0.00461   0.00461   2.07024
    A1        1.90823  -0.00330   0.00000  -0.01278  -0.01281   1.89542
    A2        1.92458   0.00385   0.00000   0.02236   0.02235   1.94692
    A3        1.92127   0.00275   0.00000   0.01003   0.01008   1.93135
    A4        1.87995   0.00228   0.00000   0.02656   0.02647   1.90642
    A5        1.89130   0.00043   0.00000   0.00367   0.00370   1.89500
    A6        1.93755  -0.00611   0.00000  -0.04963  -0.04957   1.88798
    A7        2.08291   0.00520   0.00000   0.02022   0.02018   2.10310
    A8        2.08761  -0.00203   0.00000  -0.00792  -0.00795   2.07965
    A9        2.11264  -0.00318   0.00000  -0.01239  -0.01242   2.10022
   A10        2.13567  -0.00302   0.00000  -0.00995  -0.00989   2.12578
   A11        2.29123   0.00428   0.00000   0.01846   0.01850   2.30973
   A12        1.85628  -0.00126   0.00000  -0.00852  -0.00866   1.84763
   A13        1.90159   0.01036   0.00000   0.03782   0.03772   1.93932
   A14        2.26203  -0.00625   0.00000  -0.02522  -0.02527   2.23677
   A15        2.11946  -0.00410   0.00000  -0.01232  -0.01237   2.10709
   A16        1.92313  -0.00805   0.00000  -0.03251  -0.03254   1.89059
   A17        2.17581   0.00714   0.00000   0.02835   0.02836   2.20417
   A18        2.18424   0.00092   0.00000   0.00415   0.00416   2.18840
   A19        1.86947   0.00378   0.00000   0.01923   0.01911   1.88858
   A20        2.27557  -0.00538   0.00000  -0.02552  -0.02542   2.25015
   A21        2.13815   0.00160   0.00000   0.00629   0.00630   2.14445
   A22        1.87399  -0.00480   0.00000  -0.01520  -0.01538   1.85861
   A23        2.35721   0.00197   0.00000   0.00409   0.00421   2.36142
   A24        2.05197   0.00283   0.00000   0.01106   0.01107   2.06304
   A25        2.10007  -0.00484   0.00000  -0.02076  -0.02081   2.07926
   A26        2.11807   0.00049   0.00000  -0.00117  -0.00115   2.11692
   A27        2.06503   0.00435   0.00000   0.02194   0.02197   2.08700
   A28        2.10474   0.00348   0.00000   0.01463   0.01463   2.11936
   A29        2.08762  -0.00266   0.00000  -0.01280  -0.01280   2.07482
   A30        2.09083  -0.00082   0.00000  -0.00183  -0.00183   2.08900
   A31        2.10625   0.00137   0.00000   0.00615   0.00617   2.11242
   A32        2.09025   0.00046   0.00000   0.00377   0.00376   2.09400
   A33        2.08668  -0.00183   0.00000  -0.00991  -0.00992   2.07676
   A34        2.06514  -0.00443   0.00000  -0.01731  -0.01732   2.04782
   A35        2.11906   0.00148   0.00000   0.00423   0.00423   2.12329
   A36        2.09898   0.00296   0.00000   0.01310   0.01310   2.11207
   A37        1.91334  -0.00232   0.00000  -0.01552  -0.01540   1.89794
   A38        1.89380   0.00711   0.00000   0.04320   0.04264   1.93643
   A39        1.89157   0.00759   0.00000   0.04650   0.04593   1.93751
   A40        1.91563  -0.00286   0.00000  -0.01925  -0.01913   1.89650
   A41        1.91518  -0.00290   0.00000  -0.01861  -0.01849   1.89669
   A42        1.93398  -0.00638   0.00000  -0.03487  -0.03603   1.89795
    D1       -0.16842   0.00114   0.00000   0.02258   0.02268  -0.14573
    D2        2.96601   0.00089   0.00000   0.00756   0.00755   2.97356
    D3       -2.23224  -0.00194   0.00000  -0.01544  -0.01544  -2.24769
    D4        0.90218  -0.00219   0.00000  -0.03046  -0.03058   0.87161
    D5        1.90731   0.00131   0.00000   0.02530   0.02536   1.93267
    D6       -1.24145   0.00106   0.00000   0.01028   0.01023  -1.23122
    D7       -2.96450  -0.00092   0.00000  -0.04763  -0.04771  -3.01221
    D8        0.17572  -0.00117   0.00000  -0.05820  -0.05830   0.11742
    D9        0.16980  -0.00114   0.00000  -0.06278  -0.06268   0.10712
   D10       -2.97316  -0.00139   0.00000  -0.07334  -0.07327  -3.04643
   D11        3.11657   0.00054   0.00000   0.02314   0.02370   3.14028
   D12       -0.00940   0.00002   0.00000   0.00189   0.00225  -0.00715
   D13       -0.02395   0.00073   0.00000   0.03139   0.03182   0.00788
   D14        3.13327   0.00021   0.00000   0.01015   0.01037  -3.13955
   D15       -3.12063  -0.00062   0.00000  -0.02045  -0.01993  -3.14055
   D16        0.02693  -0.00027   0.00000  -0.00918  -0.00893   0.01800
   D17        0.01976  -0.00084   0.00000  -0.02976  -0.02929  -0.00953
   D18       -3.11587  -0.00049   0.00000  -0.01849  -0.01829  -3.13417
   D19        0.01955  -0.00060   0.00000  -0.02249  -0.02255  -0.00301
   D20       -3.12022  -0.00044   0.00000  -0.01725  -0.01745  -3.13767
   D21       -3.13615  -0.00016   0.00000  -0.00349  -0.00311  -3.13926
   D22        0.00726  -0.00001   0.00000   0.00174   0.00199   0.00926
   D23       -0.00658   0.00018   0.00000   0.00356   0.00328  -0.00330
   D24        3.13376   0.00021   0.00000   0.00590   0.00569   3.13945
   D25        3.13318   0.00003   0.00000  -0.00167  -0.00174   3.13144
   D26       -0.00967   0.00006   0.00000   0.00066   0.00067  -0.00900
   D27       -0.01427  -0.00016   0.00000  -0.00356  -0.00354  -0.01781
   D28       -2.10615   0.00039   0.00000   0.00293   0.00347  -2.10268
   D29        2.07573  -0.00049   0.00000  -0.00731  -0.00778   2.06795
   D30        3.12942   0.00002   0.00000   0.00248   0.00244   3.13185
   D31        1.03753   0.00058   0.00000   0.00897   0.00945   1.04698
   D32       -1.06377  -0.00030   0.00000  -0.00127  -0.00181  -1.06558
   D33       -0.00833   0.00041   0.00000   0.01631   0.01631   0.00798
   D34        3.12851   0.00014   0.00000   0.00732   0.00752   3.13603
   D35        3.13440   0.00039   0.00000   0.01423   0.01411  -3.13468
   D36       -0.01195   0.00012   0.00000   0.00524   0.00532  -0.00663
   D37       -3.13260  -0.00021   0.00000  -0.00742  -0.00746  -3.14006
   D38        0.00536  -0.00011   0.00000  -0.00427  -0.00431   0.00104
   D39        0.00758  -0.00017   0.00000  -0.00477  -0.00474   0.00284
   D40       -3.13765  -0.00007   0.00000  -0.00162  -0.00159  -3.13924
   D41       -3.14004  -0.00046   0.00000  -0.01461  -0.01449   3.12866
   D42        0.00827  -0.00052   0.00000  -0.01698  -0.01685  -0.00857
   D43        0.00797  -0.00007   0.00000  -0.00241  -0.00245   0.00552
   D44       -3.12690  -0.00012   0.00000  -0.00478  -0.00481  -3.13172
   D45        0.00009  -0.00006   0.00000  -0.00114  -0.00109  -0.00100
   D46       -3.13981  -0.00004   0.00000  -0.00091  -0.00089  -3.14069
   D47        3.13516  -0.00002   0.00000   0.00108   0.00115   3.13631
   D48       -0.00473   0.00000   0.00000   0.00131   0.00135  -0.00338
   D49       -0.00473   0.00004   0.00000   0.00180   0.00182  -0.00291
   D50        3.14063  -0.00000   0.00000  -0.00009  -0.00011   3.14053
   D51        3.13517   0.00002   0.00000   0.00156   0.00160   3.13677
   D52       -0.00266  -0.00003   0.00000  -0.00034  -0.00032  -0.00298
   D53        0.00100   0.00003   0.00000   0.00096   0.00095   0.00195
   D54       -3.13700  -0.00007   0.00000  -0.00214  -0.00215  -3.13915
   D55        3.13884   0.00008   0.00000   0.00288   0.00288  -3.14146
   D56        0.00084  -0.00002   0.00000  -0.00022  -0.00022   0.00062
         Item               Value     Threshold  Converged?
 Maximum Force            0.018441     0.000450     NO 
 RMS     Force            0.004001     0.000300     NO 
 Maximum Displacement     0.198079     0.001800     NO 
 RMS     Displacement     0.049987     0.001200     NO 
 Predicted change in Energy=-3.638849D-03
 GradGradGradGradGradGradGradGradGradGradGradGradGradGradGradGradGradGrad

 Leave Link  103 at Mon Oct  4 08:37:22 2021, MaxMem= 1073741824 cpu:       4.9
 (Enter /sw/target/amd/app/gaussian/Gaussian09RevA.02_gcc-4.9.2/g09/l202.exe)
                          Input orientation:                          
 ---------------------------------------------------------------------
 Center     Atomic      Atomic             Coordinates (Angstroms)
 Number     Number       Type             X           Y           Z
 ---------------------------------------------------------------------
      1          6           0        2.943207   -1.433255    0.279515
      2          6           0        2.500940    0.019041    0.204778
      3          8           0        1.451892    0.380350    0.736085
      4          6           0        3.356843    0.993509   -0.486569
      5          6           0        3.085952    2.352758   -0.458926
      6          7           0        4.018725    3.055213   -1.169115
      7          6           0        4.940657    2.157766   -1.684396
      8          6           0        4.564264    0.846549   -1.271891
      9          6           0        5.360488   -0.235480   -1.688284
     10          6           0        6.480427    0.011335   -2.475094
     11          6           0        6.831426    1.317995   -2.862929
     12          6           0        6.065779    2.410824   -2.474176
     13          6           0        4.054346    4.501007   -1.352771
     14          1           0        2.280766   -1.964315    0.967139
     15          1           0        3.976845   -1.521661    0.633411
     16          1           0        2.877369   -1.908887   -0.706215
     17          1           0        2.267480    2.860161    0.029837
     18          1           0        5.115150   -1.254900   -1.411055
     19          1           0        7.091963   -0.827463   -2.795060
     20          1           0        7.712142    1.483862   -3.477212
     21          1           0        6.335743    3.419076   -2.775606
     22          1           0        3.196797    4.940416   -0.841884
     23          1           0        4.001040    4.762264   -2.415166
     24          1           0        4.970678    4.928108   -0.930757
 ---------------------------------------------------------------------
                    Distance matrix (angstroms):
                    1          2          3          4          5
     1  C    0.000000
     2  C    1.519983   0.000000
     3  O    2.391995   1.230177   0.000000
     4  C    2.578209   1.469735   2.345142   0.000000
     5  C    3.859996   2.495792   2.826411   1.386256   0.000000
     6  N    4.837522   3.661912   4.168131   2.270371   1.366703
     7  C    4.554359   3.754377   4.603197   2.301902   2.231531
     8  C    3.198780   2.668825   3.733118   1.447823   2.261633
     9  C    3.339184   3.438820   4.640468   2.639910   3.658389
    10  C    4.710269   4.797716   5.977793   3.830883   4.590169
    11  C    5.706363   5.463627   6.539990   4.221978   4.569304
    12  C    5.666587   5.060187   5.976333   3.646600   3.597773
    13  C    6.254155   4.992700   5.302443   3.679587   2.520261
    14  H    1.092557   2.136205   2.497573   3.466978   4.617262
    15  H    1.096113   2.176185   3.162843   2.822204   4.122865
    16  H    1.096460   2.165297   3.058238   2.949922   4.273906
    17  H    4.353431   2.856059   2.704336   2.222111   1.079928
    18  H    2.758110   3.326850   4.550133   3.000276   4.247280
    19  H    5.199247   5.549152   6.763003   4.753545   5.623118
    20  H    6.735378   6.546707   7.626293   5.305942   5.591660
    21  H    6.662445   5.928629   6.739275   4.471790   4.131002
    22  H    6.476537   5.079336   5.131169   3.966099   2.618190
    23  H    6.838478   5.622507   5.969063   4.282289   3.235735
    24  H    6.785451   5.611416   5.986846   4.275844   3.226026
                    6          7          8          9         10
     6  N    0.000000
     7  C    1.385960   0.000000
     8  C    2.277361   1.425174   0.000000
     9  C    3.591452   2.429795   1.406465   0.000000
    10  C    4.126833   2.757401   2.411837   1.390772   0.000000
    11  C    3.714596   2.381000   2.809571   2.440642   1.407472
    12  C    2.511743   1.397744   2.479313   2.849208   2.435052
    13  C    1.457847   2.527113   3.690748   4.924722   5.225192
    14  H    5.725361   5.576488   4.257767   4.418692   5.778349
    15  H    4.919211   4.454138   3.095748   2.993159   4.275605
    16  H    5.114613   4.663868   3.279944   3.151291   4.449518
    17  H    2.131289   3.252357   3.320293   4.701237   5.669162
    18  H    4.453960   3.428040   2.176909   1.084557   2.144647
    19  H    5.211878   3.843603   3.392879   2.138551   1.086250
    20  H    4.630096   3.368897   3.895991   3.418578   2.165572
    21  H    2.842847   2.174374   3.466582   3.935628   3.424024
    22  H    2.082459   3.390283   4.337582   5.673434   6.143732
    23  H    2.113523   2.863620   4.117903   5.230097   5.359317
    24  H    2.114418   2.871179   4.115904   5.233397   5.370193
                   11         12         13         14         15
    11  C    0.000000
    12  C    1.389827   0.000000
    13  C    4.486014   3.110029   0.000000
    14  H    6.793489   6.731331   7.094221   0.000000
    15  H    5.332605   5.430026   6.342197   1.784377   0.000000
    16  H    5.540645   5.652570   6.549050   1.777392   1.775778
    17  H    5.619250   4.571549   2.792288   4.914701   4.742003
    18  H    3.416626   3.933377   5.853133   3.767335   2.355152
    19  H    2.162285   3.412114   6.300787   6.212423   4.684046
    20  H    1.086516   2.139124   5.195757   7.819337   6.315286
    21  H    2.160525   1.086422   2.898242   7.709208   6.449548
    22  H    5.515169   4.158638   1.090631   7.196319   6.674085
    23  H    4.480466   3.129841   1.095345   7.723096   6.984420
    24  H    4.497620   3.149303   1.095525   7.638268   6.710727
                   16         17         18         19         20
    16  H    0.000000
[...]
    19  H    0.116807
    20  H    0.121129
    21  H    0.123151
    22  H    0.171780
    23  H    0.170518
    24  H    0.170487
 Sum of Mulliken atomic charges =  -0.00000
 Mulliken charges with hydrogens summed into heavy atoms:
              1
     1  C    0.045307
     2  C    0.319823
     3  O   -0.329932
     4  C   -0.001749
     5  C    0.121907
     6  N   -0.496982
     7  C    0.304908
     8  C    0.052187
     9  C   -0.102740
    10  C   -0.026897
    11  C   -0.027294
    12  C   -0.050296
    13  C    0.191757
 Sum of Mulliken charges with hydrogens summed into heavy atoms =  -0.00000
 Electronic spatial extent (au):  <R**2>=           2435.5413
 Charge=             -0.0000 electrons
 Dipole moment (field-independent basis, Debye):
    X=              0.6651    Y=              0.5516    Z=              0.0010  Tot=              0.8641
 Quadrupole moment (field-independent basis, Debye-Ang):
   XX=            -72.2223   YY=            -64.2248   ZZ=            -79.2087
   XY=              9.1558   XZ=             -0.0003   YZ=             -0.0025
 Traceless Quadrupole moment (field-independent basis, Debye-Ang):
   XX=             -0.3371   YY=              7.6605   ZZ=             -7.3234
   XY=              9.1558   XZ=             -0.0003   YZ=             -0.0025
 Octapole moment (field-independent basis, Debye-Ang**2):
  XXX=              7.2077  YYY=             23.0442  ZZZ=              0.0176  XYY=              1.1052
  XXY=            -13.0505  XXZ=             -0.0085  XZZ=             -7.8778  YZZ=              4.6958
  YYZ=             -0.0137  XYZ=              0.0028
 Hexadecapole moment (field-independent basis, Debye-Ang**3):
 XXXX=          -1858.6293 YYYY=          -1129.4259 ZZZZ=            -92.3448 XXXY=             69.3144
 XXXZ=             -0.0615 YYYX=             10.7918 YYYZ=             -0.0979 ZZZX=              0.0174
 ZZZY=              0.0412 XXYY=           -489.0449 XXZZ=           -347.1985 YYZZ=           -231.4696
 XXYZ=             -0.0371 YYXZ=              0.0195 ZZXY=             11.6044
 N-N= 7.448917620239D+02 E-N=-2.780186575684D+03  KE= 5.505919794907D+02
 No NMR shielding tensors so no spin-rotation constants.
 Leave Link  601 at Mon Oct  4 14:05:19 2021, MaxMem= 1073741824 cpu:       1.2
 (Enter /sw/target/amd/app/gaussian/Gaussian09RevA.02_gcc-4.9.2/g09/l604.exe)
 Evaluate density.
 Using the total density.
 Monte-Carlo method of calculating molar volume:
 based on  0.001 e/bohr**3 density envelope.
 Number of points per bohr**3 =   20 CutOff= 1.00D-04
 Using the CI density.
 There are       384 points.  Will hold       384 in memory.
 LenV=  1073609654 MDV=  1073741824.
 Box volume = 7099.103 fraction occupied=0.182
 Integrated density= 7.1530126479326768D+01 error=-2.0469873520673232D+01
 Molar volume = 1294.107 bohr**3/mol (115.485 cm**3/mol)
 Recommended a0 for SCRF calculation =  4.44 angstrom (  8.39 bohr)
 Leave Link  604 at Mon Oct  4 14:05:21 2021, MaxMem= 1073741824 cpu:       0.3
 (Enter /sw/target/amd/app/gaussian/Gaussian09RevA.02_gcc-4.9.2/g09/l607.exe)
 ******************************Gaussian NBO Version 3.1******************************
             N A T U R A L   A T O M I C   O R B I T A L   A N D
          N A T U R A L   B O N D   O R B I T A L   A N A L Y S I S
 ******************************Gaussian NBO Version 3.1******************************
       /RESON  / : Allow strongly delocalized NBO set

 Analyzing the CI density

 Job title: CC(=O)c1cn(c2c1cccc2)C_conf_0                                   

 Storage needed:    143236 in NPA (1073738704 available)


 NATURAL POPULATIONS:  Natural atomic orbital occupancies 
                                                          
   NAO  Atom  No  lang   Type(AO)    Occupancy
 --------------------------------------------
     1    C    1  S      Cor( 1S)     1.99933
     2    C    1  S      Val( 2S)     1.12647
     3    C    1  S      Ryd( 3S)     0.00012
     4    C    1  S      Ryd( 4S)     0.00001
     5    C    1  px     Val( 2p)     1.25461
     6    C    1  px     Ryd( 3p)     0.00189
     7    C    1  py     Val( 2p)     1.05563
     8    C    1  py     Ryd( 3p)     0.00104
     9    C    1  pz     Val( 2p)     1.25910
    10    C    1  pz     Ryd( 3p)     0.00007
    11    C    1  dxy    Ryd( 3d)     0.00033
    12    C    1  dxz    Ryd( 3d)     0.00051
    13    C    1  dyz    Ryd( 3d)     0.00105
    14    C    1  dx2y2  Ryd( 3d)     0.00094
    15    C    1  dz2    Ryd( 3d)     0.00070

    16    C    2  S      Cor( 1S)     1.99924
    17    C    2  S      Val( 2S)     0.82660
    18    C    2  S      Ryd( 3S)     0.00427
    19    C    2  S      Ryd( 4S)     0.00020
    20    C    2  px     Val( 2p)     0.90596
    21    C    2  px     Ryd( 3p)     0.00858
    22    C    2  py     Val( 2p)     0.88399
    23    C    2  py     Ryd( 3p)     0.00934
    24    C    2  pz     Val( 2p)     1.00641
    25    C    2  pz     Ryd( 3p)     0.00351
    26    C    2  dxy    Ryd( 3d)     0.00134
    27    C    2  dxz    Ryd( 3d)     0.00171
    28    C    2  dyz    Ryd( 3d)     0.00111
    29    C    2  dx2y2  Ryd( 3d)     0.00115
    30    C    2  dz2    Ryd( 3d)     0.00032

    31    O    3  S      Cor( 1S)     1.99982
    32    O    3  S      Val( 2S)     1.70589
    33    O    3  S      Ryd( 3S)     0.00011
    34    O    3  S      Ryd( 4S)     0.00000
    35    O    3  px     Val( 2p)     1.36457
    36    O    3  px     Ryd( 3p)     0.00081
    37    O    3  py     Val( 2p)     1.35927
    38    O    3  py     Ryd( 3p)     0.00093
    39    O    3  pz     Val( 2p)     1.81982
    40    O    3  pz     Ryd( 3p)     0.00361
    41    O    3  dxy    Ryd( 3d)     0.00401
    42    O    3  dxz    Ryd( 3d)     0.00212
    43    O    3  dyz    Ryd( 3d)     0.00238
    44    O    3  dx2y2  Ryd( 3d)     0.00245
    45    O    3  dz2    Ryd( 3d)     0.00126

    46    C    4  S      Cor( 1S)     1.99885
    47    C    4  S      Val( 2S)     0.87191
    48    C    4  S      Ryd( 3S)     0.00066
    49    C    4  S      Ryd( 4S)     0.00004
    50    C    4  px     Val( 2p)     1.04944
    51    C    4  px     Ryd( 3p)     0.00440
    52    C    4  py     Val( 2p)     1.08123
    53    C    4  py     Ryd( 3p)     0.00602
    54    C    4  pz     Val( 2p)     1.19111
    55    C    4  pz     Ryd( 3p)     0.00117
    56    C    4  dxy    Ryd( 3d)     0.00059
    57    C    4  dxz    Ryd( 3d)     0.00082
    58    C    4  dyz    Ryd( 3d)     0.00079
    59    C    4  dx2y2  Ryd( 3d)     0.00070
    60    C    4  dz2    Ryd( 3d)     0.00038

    61    C    5  S      Cor( 1S)     1.99908
    62    C    5  S      Val( 2S)     0.90482
    63    C    5  S      Ryd( 3S)     0.00132
    64    C    5  S      Ryd( 4S)     0.00010
    65    C    5  px     Val( 2p)     0.87154
    66    C    5  px     Ryd( 3p)     0.00462
    67    C    5  py     Val( 2p)     1.14493
    68    C    5  py     Ryd( 3p)     0.00450
    69    C    5  pz     Val( 2p)     1.11127
    70    C    5  pz     Ryd( 3p)     0.00580
    71    C    5  dxy    Ryd( 3d)     0.00091
    72    C    5  dxz    Ryd( 3d)     0.00113
    73    C    5  dyz    Ryd( 3d)     0.00059
    74    C    5  dx2y2  Ryd( 3d)     0.00118
    75    C    5  dz2    Ryd( 3d)     0.00049

    76    N    6  S      Cor( 1S)     1.99927
    77    N    6  S      Val( 2S)     1.16446
    78    N    6  S      Ryd( 3S)     0.00050
    79    N    6  S      Ryd( 4S)     0.00002
    80    N    6  px     Val( 2p)     1.31145
    81    N    6  px     Ryd( 3p)     0.00169
    82    N    6  py     Val( 2p)     1.29399
    83    N    6  py     Ryd( 3p)     0.00226
    84    N    6  pz     Val( 2p)     1.59297
    85    N    6  pz     Ryd( 3p)     0.00329
    86    N    6  dxy    Ryd( 3d)     0.00072
    87    N    6  dxz    Ryd( 3d)     0.00102
    88    N    6  dyz    Ryd( 3d)     0.00058
    89    N    6  dx2y2  Ryd( 3d)     0.00073
    90    N    6  dz2    Ryd( 3d)     0.00054

    91    C    7  S      Cor( 1S)     1.99901
    92    C    7  S      Val( 2S)     0.81869
    93    C    7  S      Ryd( 3S)     0.00151
    94    C    7  S      Ryd( 4S)     0.00007
    95    C    7  px     Val( 2p)     1.08474
    96    C    7  px     Ryd( 3p)     0.00548
    97    C    7  py     Val( 2p)     0.87610
    98    C    7  py     Ryd( 3p)     0.00551
    99    C    7  pz     Val( 2p)     1.03880
   100    C    7  pz     Ryd( 3p)     0.00109
   101    C    7  dxy    Ryd( 3d)     0.00095
   102    C    7  dxz    Ryd( 3d)     0.00079
   103    C    7  dyz    Ryd( 3d)     0.00121
   104    C    7  dx2y2  Ryd( 3d)     0.00103
   105    C    7  dz2    Ryd( 3d)     0.00040

   106    C    8  S      Cor( 1S)     1.99898
   107    C    8  S      Val( 2S)     0.85799
   108    C    8  S      Ryd( 3S)     0.00067
   109    C    8  S      Ryd( 4S)     0.00006
   110    C    8  px     Val( 2p)     1.05037
   111    C    8  px     Ryd( 3p)     0.00527
   112    C    8  py     Val( 2p)     1.10409
   113    C    8  py     Ryd( 3p)     0.00448
   114    C    8  pz     Val( 2p)     1.04781
   115    C    8  pz     Ryd( 3p)     0.00057
   116    C    8  dxy    Ryd( 3d)     0.00083
   117    C    8  dxz    Ryd( 3d)     0.00062
   118    C    8  dyz    Ryd( 3d)     0.00065
   119    C    8  dx2y2  Ryd( 3d)     0.00057
   120    C    8  dz2    Ryd( 3d)     0.00037

   121    C    9  S      Cor( 1S)     1.99904
   122    C    9  S      Val( 2S)     0.94239
   123    C    9  S      Ryd( 3S)     0.00065
   124    C    9  S      Ryd( 4S)     0.00004
   125    C    9  px     Val( 2p)     1.14222
   126    C    9  px     Ryd( 3p)     0.00385
   127    C    9  py     Val( 2p)     1.10906
   128    C    9  py     Ryd( 3p)     0.00435
   129    C    9  pz     Val( 2p)     1.02010
   130    C    9  pz     Ryd( 3p)     0.00073
   131    C    9  dxy    Ryd( 3d)     0.00087
   132    C    9  dxz    Ryd( 3d)     0.00047
   133    C    9  dyz    Ryd( 3d)     0.00046
   134    C    9  dx2y2  Ryd( 3d)     0.00061
   135    C    9  dz2    Ryd( 3d)     0.00041

   136    C   10  S      Cor( 1S)     1.99912
   137    C   10  S      Val( 2S)     0.95487
   138    C   10  S      Ryd( 3S)     0.00057
   139    C   10  S      Ryd( 4S)     0.00003
   140    C   10  px     Val( 2p)     1.06383
   141    C   10  px     Ryd( 3p)     0.00445
   142    C   10  py     Val( 2p)     1.18703
   143    C   10  py     Ryd( 3p)     0.00513
   144    C   10  pz     Val( 2p)     1.04369
   145    C   10  pz     Ryd( 3p)     0.00113
   146    C   10  dxy    Ryd( 3d)     0.00064
   147    C   10  dxz    Ryd( 3d)     0.00056
   148    C   10  dyz    Ryd( 3d)     0.00029
   149    C   10  dx2y2  Ryd( 3d)     0.00082
   150    C   10  dz2    Ryd( 3d)     0.00043

   151    C   11  S      Cor( 1S)     1.99912
   152    C   11  S      Val( 2S)     0.95655
   153    C   11  S      Ryd( 3S)     0.00056
   154    C   11  S      Ryd( 4S)     0.00003
   155    C   11  px     Val( 2p)     1.18000
   156    C   11  px     Ryd( 3p)     0.00525
   157    C   11  py     Val( 2p)     1.06950
   158    C   11  py     Ryd( 3p)     0.00450
   159    C   11  pz     Val( 2p)     1.01539
   160    C   11  pz     Ryd( 3p)     0.00085
   161    C   11  dxy    Ryd( 3d)     0.00069
   162    C   11  dxz    Ryd( 3d)     0.00031
   163    C   11  dyz    Ryd( 3d)     0.00063
   164    C   11  dx2y2  Ryd( 3d)     0.00079
   165    C   11  dz2    Ryd( 3d)     0.00044

   166    C   12  S      Cor( 1S)     1.99900
   167    C   12  S      Val( 2S)     0.94567
   168    C   12  S      Ryd( 3S)     0.00075
   169    C   12  S      Ryd( 4S)     0.00004
   170    C   12  px     Val( 2p)     1.12578
   171    C   12  px     Ryd( 3p)     0.00423
   172    C   12  py     Val( 2p)     1.13568
   173    C   12  py     Ryd( 3p)     0.00372
   174    C   12  pz     Val( 2p)     1.05810
   175    C   12  pz     Ryd( 3p)     0.00101
   176    C   12  dxy    Ryd( 3d)     0.00083
   177    C   12  dxz    Ryd( 3d)     0.00044
   178    C   12  dyz    Ryd( 3d)     0.00049
   179    C   12  dx2y2  Ryd( 3d)     0.00058
   180    C   12  dz2    Ryd( 3d)     0.00043

   181    C   13  S      Cor( 1S)     1.99948
   182    C   13  S      Val( 2S)     1.08199
   183    C   13  S      Ryd( 3S)     0.00101
   184    C   13  S      Ryd( 4S)     0.00001
   185    C   13  px     Val( 2p)     1.14751
   186    C   13  px     Ryd( 3p)     0.00278
   187    C   13  py     Val( 2p)     0.97660
   188    C   13  py     Ryd( 3p)     0.00209
   189    C   13  pz     Val( 2p)     1.24425
   190    C   13  pz     Ryd( 3p)     0.00081
   191    C   13  dxy    Ryd( 3d)     0.00134
   192    C   13  dxz    Ryd( 3d)     0.00140
   193    C   13  dyz    Ryd( 3d)     0.00059
   194    C   13  dx2y2  Ryd( 3d)     0.00049
   195    C   13  dz2    Ryd( 3d)     0.00089

   196    H   14  S      Val( 1S)     0.74606
   197    H   14  S      Ryd( 2S)     0.00113

   198    H   15  S      Val( 1S)     0.74384
   199    H   15  S      Ryd( 2S)     0.00140

   200    H   16  S      Val( 1S)     0.74383
   201    H   16  S      Ryd( 2S)     0.00140

   202    H   17  S      Val( 1S)     0.76752
   203    H   17  S      Ryd( 2S)     0.00040

   204    H   18  S      Val( 1S)     0.77100
   205    H   18  S      Ryd( 2S)     0.00097

   206    H   19  S      Val( 1S)     0.76650
   207    H   19  S      Ryd( 2S)     0.00079

   208    H   20  S      Val( 1S)     0.76529
   209    H   20  S      Ryd( 2S)     0.00078

   210    H   21  S      Val( 1S)     0.76384
   211    H   21  S      Ryd( 2S)     0.00090

   212    H   22  S      Val( 1S)     0.75933
   213    H   22  S      Ryd( 2S)     0.00064

   214    H   23  S      Val( 1S)     0.76773
   215    H   23  S      Ryd( 2S)     0.00156

   216    H   24  S      Val( 1S)     0.76788
   217    H   24  S      Ryd( 2S)     0.00158

 WARNING:  1 low occupancy (<1.9990e) core orbital  found on  C    4
           1 low occupancy (<1.9990e) core orbital  found on  C    8


 Summary of Natural Population Analysis:                  
                                                          
                                       Natural Population 
                Natural  -----------------------------------------------
    Atom  No    Charge         Core      Valence    Rydberg      Total
 -----------------------------------------------------------------------
      C    1   -0.70181      1.99933     4.69581    0.00667     6.70181
      C    2    0.34626      1.99924     3.62296    0.03154     5.65374
      O    3   -0.26704      1.99982     6.24955    0.01768     8.26704
      C    4   -0.20810      1.99885     4.19369    0.01557     6.20810
      C    5   -0.05229      1.99908     4.03256    0.02064     6.05229
      N    6   -0.37349      1.99927     5.36288    0.01135     7.37349
      C    7    0.16464      1.99901     3.81833    0.01802     5.83536
      C    8   -0.07334      1.99898     4.06027    0.01408     6.07334
      C    9   -0.22528      1.99904     4.21377    0.01246     6.22528
      C   10   -0.26258      1.99912     4.24941    0.01405     6.26258
      C   11   -0.23461      1.99912     4.22144    0.01405     6.23461
      C   12   -0.27674      1.99900     4.26523    0.01251     6.27674
      C   13   -0.46125      1.99948     4.45036    0.01142     6.46125
      H   14    0.25281      0.00000     0.74606    0.00113     0.74719
      H   15    0.25476      0.00000     0.74384    0.00140     0.74524
      H   16    0.25477      0.00000     0.74383    0.00140     0.74523
      H   17    0.23208      0.00000     0.76752    0.00040     0.76792
      H   18    0.22803      0.00000     0.77100    0.00097     0.77197
      H   19    0.23271      0.00000     0.76650    0.00079     0.76729
      H   20    0.23392      0.00000     0.76529    0.00078     0.76608
      H   21    0.23526      0.00000     0.76384    0.00090     0.76474
      H   22    0.24003      0.00000     0.75933    0.00064     0.75997
      H   23    0.23071      0.00000     0.76773    0.00156     0.76929
      H   24    0.23054      0.00000     0.76788    0.00158     0.76946
 =======================================================================
   * Total *    0.00000     25.98935    65.79907    0.21158    92.00000

                                 Natural Population      
 --------------------------------------------------------
   Core                      25.98935 ( 99.9590% of  26)
   Valence                   65.79907 ( 99.6956% of  66)
   Natural Minimal Basis     91.78842 ( 99.7700% of  92)
   Natural Rydberg Basis      0.21158 (  0.2300% of  92)
 --------------------------------------------------------

    Atom  No          Natural Electron Configuration
 ----------------------------------------------------------------------------
      C    1      [core]2S( 1.13)2p( 3.57)
      C    2      [core]2S( 0.83)2p( 2.80)3p( 0.02)3d( 0.01)
      O    3      [core]2S( 1.71)2p( 4.54)3p( 0.01)3d( 0.01)
      C    4      [core]2S( 0.87)2p( 3.32)3p( 0.01)
      C    5      [core]2S( 0.90)2p( 3.13)3p( 0.01)
      N    6      [core]2S( 1.16)2p( 4.20)3p( 0.01)
      C    7      [core]2S( 0.82)2p( 3.00)3p( 0.01)
      C    8      [core]2S( 0.86)2p( 3.20)3p( 0.01)
      C    9      [core]2S( 0.94)2p( 3.27)3p( 0.01)
      C   10      [core]2S( 0.95)2p( 3.29)3p( 0.01)
      C   11      [core]2S( 0.96)2p( 3.26)3p( 0.01)
      C   12      [core]2S( 0.95)2p( 3.32)3p( 0.01)
      C   13      [core]2S( 1.08)2p( 3.37)3p( 0.01)
      H   14            1S( 0.75)
      H   15            1S( 0.74)
      H   16            1S( 0.74)
      H   17            1S( 0.77)
      H   18            1S( 0.77)
      H   19            1S( 0.77)
      H   20            1S( 0.77)
      H   21            1S( 0.76)
      H   22            1S( 0.76)
      H   23            1S( 0.77)
      H   24            1S( 0.77)


 NBO analysis skipped by request.
 Leave Link  607 at Mon Oct  4 14:05:45 2021, MaxMem= 1073741824 cpu:      16.1
 (Enter /sw/target/amd/app/gaussian/Gaussian09RevA.02_gcc-4.9.2/g09/l9999.exe)
 1\1\GINC-HERMITE\SP\RTD-B3LYP-FC\6-31G(d)\C11H11N1O1\JSCHLEINITZ\04-Oc
 t-2021\0\\#p TD(NStates=10, Root=1) b3lyp/6-31G* volume pop=NPA densit
 y=current Geom=AllCheck Guess=Read\\CC(=O)c1cn(c2c1cccc2)C_conf_0\\0,1
 \C,0,2.9020796826,-1.4350171978,0.2277764179\C,0,2.535399475,0.0391606
 449,0.2746878353\O,0,1.5496838019,0.4148881219,0.902452985\C,0,3.38329
 04575,1.0030073831,-0.4448519331\C,0,3.097417151,2.3561787929,-0.43676
 21014\N,0,4.0153502266,3.0520638453,-1.1677084505\C,0,4.9442196291,2.1
 54572366,-1.6826268771\C,0,4.5808028058,0.8486723285,-1.2494919047\C,0
 ,5.3882238747,-0.2286336653,-1.6561004875\C,0,6.4991170439,0.015320064
 5,-2.4563808648\C,0,6.8339718998,1.3182046204,-2.8691576347\C,0,6.0587
 025134,2.4073990405,-2.4864449828\C,0,4.0334177015,4.4871783871,-1.378
 0414164\H,0,2.1717181643,-2.0001733618,0.8101331883\H,0,3.9047528201,-
 1.6015204096,0.6403418184\H,0,2.9084918487,-1.8035525249,-0.8053576799
 \H,0,2.2769175421,2.8553401854,0.0594299736\H,0,5.1559724981,-1.244083
 9444,-1.3540352732\H,0,7.1222038938,-0.8178368962,-2.7698438693\H,0,7.
 7083388129,1.4759777308,-3.4941701124\H,0,6.3133757036,3.4149516376,-2
 .8024939086\H,0,3.180270916,4.9315917931,-0.8621136621\H,0,3.962339079
 7,4.7237020382,-2.4455985876\H,0,4.9548629698,4.9268798212,-0.97998349
 56\\Version=AM64L-G09RevA.02\State=1-A\HF=-555.7812829\RMSD=7.679e-09\
 Dipole=0.0871045,0.3119997,-0.1031369\Quadrupole=-4.9375997,9.8168621,
 -4.8792624,0.1441024,-0.3692075,-2.2302687\PG=C01 [X(C11H11N1O1)]\\@


 GARLIC THEN HAVE POWER TO SAVE FROM DEATH
 BEAR WITH IT THOUGH IT MAKETH UNSAVORY BREATH,
 AND SCORN NOT GARLIC LIKE SOME THAT THINK
 IT ONLY MAKETH MEN WINK AND DRINK AND STINK.
   --  SIR JOHN HARRINGTON,
       "THE ENGLISHMAN'S DOCTOR", 1609
 Job cpu time:  0 days  1 hours 43 minutes 47.6 seconds.
 File lengths (MBytes):  RWF=    139 Int=      0 D2E=      0 Chk=     22 Scr=      1
 Normal termination of Gaussian 09 at Mon Oct  4 14:06:26 2021.
