 Entering Gaussian System, Link 0=g09
 Input=C11H16O2_4c16_conf_0.com
 Output=C11H16O2_4c16_conf_0.log
 Initial command:
 /sw/target/amd/app/gaussian/Gaussian09RevA.02_gcc-4.9.2/g09/l1.exe /home/jschleinitz/gaussian/Gau-2591128.inp -scrdir=/home/jschleinitz/gaussian/
 Entering Link 1 = /sw/target/amd/app/gaussian/Gaussian09RevA.02_gcc-4.9.2/g09/l1.exe PID=   2591130.
  
 Copyright (c) 1988,1990,1992,1993,1995,1998,2003,2009, Gaussian, Inc.
                  All Rights Reserved.
  
 This is part of the Gaussian(R) 09 program.  It is based on
 the Gaussian(R) 03 system (copyright 2003, Gaussian, Inc.),
 the Gaussian(R) 98 system (copyright 1998, Gaussian, Inc.),
 the Gaussian(R) 94 system (copyright 1995, Gaussian, Inc.),
 the Gaussian 92(TM) system (copyright 1992, Gaussian, Inc.),
 the Gaussian 90(TM) system (copyright 1990, Gaussian, Inc.),
 the Gaussian 88(TM) system (copyright 1988, Gaussian, Inc.),
 the Gaussian 86(TM) system (copyright 1986, Carnegie Mellon
 University), and the Gaussian 82(TM) system (copyright 1983,
 Carnegie Mellon University). Gaussian is a federally registered
 trademark of Gaussian, Inc.
  
 This software contains proprietary and confidential information,
 including trade secrets, belonging to Gaussian, Inc.
  
 This software is provided under written license and may be
 used, copied, transmitted, or stored only in accord with that
 written license.
  
 The following legend is applicable only to US Government
 contracts under FAR:
  
                    RESTRICTED RIGHTS LEGEND
  
 Use, reproduction and disclosure by the US Government is
 subject to restrictions as set forth in subparagraphs (a)
 and (c) of the Commercial Computer Software - Restricted
 Rights clause in FAR 52.227-19.
  
 Gaussian, Inc.
 340 Quinnipiac St., Bldg. 40, Wallingford CT 06492
  
  
 ---------------------------------------------------------------
 Warning -- This program may not be used in any manner that
 competes with the business of Gaussian, Inc. or will provide
 assistance to any competitor of Gaussian, Inc.  The licensee
 of this program is prohibited from giving any competitor of
 Gaussian, Inc. access to this program.  By using this program,
 the user acknowledges that Gaussian, Inc. is engaged in the
 business of creating and licensing software in the field of
 computational chemistry and represents and warrants to the
 licensee that it is not a competitor of Gaussian, Inc. and that
 it will not use this program in any manner prohibited above.
 ---------------------------------------------------------------
  

 Cite this work as:
 Gaussian 09, Revision A.02,
 M. J. Frisch, G. W. Trucks, H. B. Schlegel, G. E. Scuseria, 
 M. A. Robb, J. R. Cheeseman, G. Scalmani, V. Barone, B. Mennucci, 
 G. A. Petersson, H. Nakatsuji, M. Caricato, X. Li, H. P. Hratchian, 
 A. F. Izmaylov, J. Bloino, G. Zheng, J. L. Sonnenberg, M. Hada, 
 M. Ehara, K. Toyota, R. Fukuda, J. Hasegawa, M. Ishida, T. Nakajima, 
 Y. Honda, O. Kitao, H. Nakai, T. Vreven, J. A. Montgomery, Jr., 
 J. E. Peralta, F. Ogliaro, M. Bearpark, J. J. Heyd, E. Brothers, 
 K. N. Kudin, V. N. Staroverov, R. Kobayashi, J. Normand, 
 K. Raghavachari, A. Rendell, J. C. Burant, S. S. Iyengar, J. Tomasi, 
 M. Cossi, N. Rega, J. M. Millam, M. Klene, J. E. Knox, J. B. Cross, 
 V. Bakken, C. Adamo, J. Jaramillo, R. Gomperts, R. E. Stratmann, 
 O. Yazyev, A. J. Austin, R. Cammi, C. Pomelli, J. W. Ochterski, 
 R. L. Martin, K. Morokuma, V. G. Zakrzewski, G. A. Voth, 
 P. Salvador, J. J. Dannenberg, S. Dapprich, A. D. Daniels, 
 O. Farkas, J. B. Foresman, J. V. Ortiz, J. Cioslowski, 
 and D. J. Fox, Gaussian, Inc., Wallingford CT, 2009.
 
 ******************************************
 Gaussian 09:  AM64L-G09RevA.02 11-Jun-2009
                29-Sep-2021 
 ******************************************
 %nproc=4
 Will use up to    4 processors via shared memory.
 %mem=8gb
 %chk=C11H16O2_4c16_conf_0.chk
 -----------------------------------
 #p opt b3lyp/6-31G* scf=(xqc,tight)
 -----------------------------------
 1/14=-1,18=20,19=15,26=3,38=1/1,3;
 2/9=110,12=2,17=6,18=5,40=1/2;
 3/5=1,6=6,7=1,11=2,16=1,25=1,30=1,71=1,74=-5/1,2,3;
 4//1;
 5/5=2,8=3,13=1,32=2,38=5/2,8;
 6/7=2,8=2,9=2,10=2,28=1/1;
 7//1,2,3,16;
 1/14=-1,18=20,19=15/3(2);
 2/9=110/2;
 99//99;
 2/9=110/2;
 3/5=1,6=6,7=1,11=2,16=1,25=1,30=1,71=1,74=-5/1,2,3;
 4/5=5,16=3/1;
 5/5=2,8=3,13=1,32=2,38=5/2,8;
 7//1,2,3,16;
 1/14=-1,18=20,19=15/3(-5);
 2/9=110/2;
 6/7=2,8=2,9=2,10=2,19=2,28=1/1;
 99/9=1/99;
 Leave Link    1 at Wed Sep 29 10:18:31 2021, MaxMem= 1073741824 cpu:       0.1
 (Enter /sw/target/amd/app/gaussian/Gaussian09RevA.02_gcc-4.9.2/g09/l101.exe)
 --------------------------
 CC(OCOc1ccccc1)(C)C_conf_0
 --------------------------
 Symbolic Z-matrix:
 Charge =  0 Multiplicity = 1
 C                     1.69686  -5.02127  -1.05927 
 C                     3.15311  -4.68622  -0.71008 
 O                     3.33949  -3.30453  -0.37007 
 C                     2.49717  -2.74206   0.63368 
 O                     2.66027  -3.29008   1.93999 
 C                     3.66202  -2.76539   2.70635 
 C                     3.51129  -2.93819   4.08477 
 C                     4.45846  -2.42669   4.97257 
 C                     5.57388  -1.7505    4.4821 
 C                     5.74653  -1.60483   3.10619 
 C                     4.79841  -2.11873   2.21899 
 C                     3.67855  -5.60983   0.39392 
 C                     4.01172  -4.90518  -1.96704 
 H                     1.0502   -4.97538  -0.17649 
 H                     1.60742  -6.03045  -1.47583 
 H                     1.29596  -4.30788  -1.78805 
 H                     1.44686  -2.85603   0.3486 
 H                     2.66403  -1.65732   0.6469 
 H                     2.64119  -3.46567   4.47124 
 H                     4.32613  -2.55437   6.04335 
 H                     6.3114   -1.34446   5.16924 
 H                     6.62562  -1.09414   2.72054 
 H                     4.97537  -2.01341   1.15207 
 H                     3.02866  -5.60255   1.27335 
 H                     4.67374  -5.2934    0.72477 
 H                     3.73985  -6.64865   0.05114 
 H                     3.66975  -4.2655   -2.78961 
 H                     3.97882  -5.94635  -2.30648 
 H                     5.05759  -4.63601  -1.77822 
 
 NAtoms=     29 NQM=     29 NQMF=      0 NMic=      0 NMicF=      0 NTot=     29.
                    Isotopes and Nuclear Properties:
 (Nuclear quadrupole moments (NQMom) in fm**2, nuclear magnetic moments (NMagM)
  in nuclear magnetons)

  Atom         1           2           3           4           5           6           7           8           9          10
 IAtWgt=          12          12          16          12          16          12          12          12          12          12
 AtmWgt=  12.0000000  12.0000000  15.9949146  12.0000000  15.9949146  12.0000000  12.0000000  12.0000000  12.0000000  12.0000000
 NucSpn=           0           0           0           0           0           0           0           0           0           0
 AtZEff=   0.0000000   0.0000000   0.0000000   0.0000000   0.0000000   0.0000000   0.0000000   0.0000000   0.0000000   0.0000000
 NQMom=    0.0000000   0.0000000   0.0000000   0.0000000   0.0000000   0.0000000   0.0000000   0.0000000   0.0000000   0.0000000
 NMagM=    0.0000000   0.0000000   0.0000000   0.0000000   0.0000000   0.0000000   0.0000000   0.0000000   0.0000000   0.0000000

  Atom        11          12          13          14          15          16          17          18          19          20
 IAtWgt=          12          12          12           1           1           1           1           1           1           1
 AtmWgt=  12.0000000  12.0000000  12.0000000   1.0078250   1.0078250   1.0078250   1.0078250   1.0078250   1.0078250   1.0078250
 NucSpn=           0           0           0           1           1           1           1           1           1           1
 AtZEff=   0.0000000   0.0000000   0.0000000   0.0000000   0.0000000   0.0000000   0.0000000   0.0000000   0.0000000   0.0000000
 NQMom=    0.0000000   0.0000000   0.0000000   0.0000000   0.0000000   0.0000000   0.0000000   0.0000000   0.0000000   0.0000000
 NMagM=    0.0000000   0.0000000   0.0000000   2.7928460   2.7928460   2.7928460   2.7928460   2.7928460   2.7928460   2.7928460

  Atom        21          22          23          24          25          26          27          28          29
 IAtWgt=           1           1           1           1           1           1           1           1           1
 AtmWgt=   1.0078250   1.0078250   1.0078250   1.0078250   1.0078250   1.0078250   1.0078250   1.0078250   1.0078250
 NucSpn=           1           1           1           1           1           1           1           1           1
 AtZEff=   0.0000000   0.0000000   0.0000000   0.0000000   0.0000000   0.0000000   0.0000000   0.0000000   0.0000000
 NQMom=    0.0000000   0.0000000   0.0000000   0.0000000   0.0000000   0.0000000   0.0000000   0.0000000   0.0000000
 NMagM=    2.7928460   2.7928460   2.7928460   2.7928460   2.7928460   2.7928460   2.7928460   2.7928460   2.7928460
 Leave Link  101 at Wed Sep 29 10:18:32 2021, MaxMem= 1073741824 cpu:       0.2
 (Enter /sw/target/amd/app/gaussian/Gaussian09RevA.02_gcc-4.9.2/g09/l103.exe)

 GradGradGradGradGradGradGradGradGradGradGradGradGradGradGradGradGradGrad
 Berny optimization.
 Initialization pass.
                           ----------------------------
                           !    Initial Parameters    !
                           ! (Angstroms and Degrees)  !
 --------------------------                            --------------------------
 ! Name  Definition              Value          Derivative Info.                !
 --------------------------------------------------------------------------------
 ! R1    R(1,2)                  1.5346         estimate D2E/DX2                !
 ! R2    R(1,14)                 1.0953         estimate D2E/DX2                !
 ! R3    R(1,15)                 1.0954         estimate D2E/DX2                !
 ! R4    R(1,16)                 1.0958         estimate D2E/DX2                !
 ! R5    R(2,3)                  1.4351         estimate D2E/DX2                !
 ! R6    R(2,12)                 1.5323         estimate D2E/DX2                !
 ! R7    R(2,13)                 1.5379         estimate D2E/DX2                !
 ! R8    R(3,4)                  1.426          estimate D2E/DX2                !
 ! R9    R(4,5)                  1.426          estimate D2E/DX2                !
 ! R10   R(4,17)                 1.0943         estimate D2E/DX2                !
 ! R11   R(4,18)                 1.0976         estimate D2E/DX2                !
 ! R12   R(5,6)                  1.3661         estimate D2E/DX2                !
 ! R13   R(6,7)                  1.3974         estimate D2E/DX2                !
 ! R14   R(6,11)                 1.3954         estimate D2E/DX2                !
 ! R15   R(7,8)                  1.3953         estimate D2E/DX2                !
 ! R16   R(7,19)                 1.0884         estimate D2E/DX2                !
 ! R17   R(8,9)                  1.3935         estimate D2E/DX2                !
 ! R18   R(8,20)                 1.0865         estimate D2E/DX2                !
 ! R19   R(9,10)                 1.3943         estimate D2E/DX2                !
 ! R20   R(9,21)                 1.0867         estimate D2E/DX2                !
 ! R21   R(10,11)                1.3965         estimate D2E/DX2                !
 ! R22   R(10,22)                1.0873         estimate D2E/DX2                !
 ! R23   R(11,23)                1.0866         estimate D2E/DX2                !
 ! R24   R(12,24)                1.0935         estimate D2E/DX2                !
 ! R25   R(12,25)                1.0954         estimate D2E/DX2                !
 ! R26   R(12,26)                1.0956         estimate D2E/DX2                !
 ! R27   R(13,27)                1.0967         estimate D2E/DX2                !
 ! R28   R(13,28)                1.0956         estimate D2E/DX2                !
 ! R29   R(13,29)                1.0963         estimate D2E/DX2                !
 ! A1    A(2,1,14)             111.5764         estimate D2E/DX2                !
 ! A2    A(2,1,15)             111.4175         estimate D2E/DX2                !
 ! A3    A(2,1,16)             110.8778         estimate D2E/DX2                !
 ! A4    A(14,1,15)            107.2714         estimate D2E/DX2                !
 ! A5    A(14,1,16)            107.0232         estimate D2E/DX2                !
 ! A6    A(15,1,16)            108.4809         estimate D2E/DX2                !
 ! A7    A(1,2,3)              112.7913         estimate D2E/DX2                !
 ! A8    A(1,2,12)             110.9618         estimate D2E/DX2                !
 ! A9    A(1,2,13)             108.2251         estimate D2E/DX2                !
 ! A10   A(3,2,12)             111.4139         estimate D2E/DX2                !
 ! A11   A(3,2,13)             104.9646         estimate D2E/DX2                !
 ! A12   A(12,2,13)            108.1562         estimate D2E/DX2                !
 ! A13   A(2,3,4)              118.0241         estimate D2E/DX2                !
 ! A14   A(3,4,5)              115.194          estimate D2E/DX2                !
 ! A15   A(3,4,17)             110.029          estimate D2E/DX2                !
 ! A16   A(3,4,18)             107.9692         estimate D2E/DX2                !
 ! A17   A(5,4,17)             107.9643         estimate D2E/DX2                !
 ! A18   A(5,4,18)             110.5734         estimate D2E/DX2                !
 ! A19   A(17,4,18)            104.5955         estimate D2E/DX2                !
 ! A20   A(4,5,6)              116.7557         estimate D2E/DX2                !
 ! A21   A(5,6,7)              115.2647         estimate D2E/DX2                !
 ! A22   A(5,6,11)             125.399          estimate D2E/DX2                !
 ! A23   A(7,6,11)             119.3202         estimate D2E/DX2                !
 ! A24   A(6,7,8)              120.6031         estimate D2E/DX2                !
 ! A25   A(6,7,19)             119.763          estimate D2E/DX2                !
 ! A26   A(8,7,19)             119.6295         estimate D2E/DX2                !
 ! A27   A(7,8,9)              119.8197         estimate D2E/DX2                !
 ! A28   A(7,8,20)             120.0875         estimate D2E/DX2                !
 ! A29   A(9,8,20)             120.0928         estimate D2E/DX2                !
 ! A30   A(8,9,10)             119.8096         estimate D2E/DX2                !
 ! A31   A(8,9,21)             120.1304         estimate D2E/DX2                !
 ! A32   A(10,9,21)            120.0583         estimate D2E/DX2                !
 ! A33   A(9,10,11)            120.2918         estimate D2E/DX2                !
 ! A34   A(9,10,22)            119.9446         estimate D2E/DX2                !
 ! A35   A(11,10,22)           119.7627         estimate D2E/DX2                !
 ! A36   A(6,11,10)            120.1037         estimate D2E/DX2                !
 ! A37   A(6,11,23)            121.3651         estimate D2E/DX2                !
 ! A38   A(10,11,23)           118.5264         estimate D2E/DX2                !
 ! A39   A(2,12,24)            111.8153         estimate D2E/DX2                !
 ! A40   A(2,12,25)            110.7939         estimate D2E/DX2                !
 ! A41   A(2,12,26)            111.4247         estimate D2E/DX2                !
 ! A42   A(24,12,25)           107.1635         estimate D2E/DX2                !
 ! A43   A(24,12,26)           106.9284         estimate D2E/DX2                !
 ! A44   A(25,12,26)           108.515          estimate D2E/DX2                !
 ! A45   A(2,13,27)            110.8481         estimate D2E/DX2                !
 ! A46   A(2,13,28)            111.8243         estimate D2E/DX2                !
 ! A47   A(2,13,29)            110.909          estimate D2E/DX2                !
 ! A48   A(27,13,28)           108.2132         estimate D2E/DX2                !
 ! A49   A(27,13,29)           106.4659         estimate D2E/DX2                !
 ! A50   A(28,13,29)           108.3807         estimate D2E/DX2                !
 ! D1    D(14,1,2,3)           -69.7247         estimate D2E/DX2                !
 ! D2    D(14,1,2,12)           56.0827         estimate D2E/DX2                !
 ! D3    D(14,1,2,13)          174.6022         estimate D2E/DX2                !
 ! D4    D(15,1,2,3)           170.4031         estimate D2E/DX2                !
 ! D5    D(15,1,2,12)          -63.7896         estimate D2E/DX2                !
 ! D6    D(15,1,2,13)           54.7299         estimate D2E/DX2                !
 ! D7    D(16,1,2,3)            49.4697         estimate D2E/DX2                !
 ! D8    D(16,1,2,12)          175.277          estimate D2E/DX2                !
 ! D9    D(16,1,2,13)          -66.2035         estimate D2E/DX2                !
 ! D10   D(1,2,3,4)             52.4256         estimate D2E/DX2                !
 ! D11   D(12,2,3,4)           -73.1378         estimate D2E/DX2                !
 ! D12   D(13,2,3,4)           170.0359         estimate D2E/DX2                !
 ! D13   D(1,2,12,24)          -53.7632         estimate D2E/DX2                !
 ! D14   D(1,2,12,25)         -173.2362         estimate D2E/DX2                !
 ! D15   D(1,2,12,26)           65.8398         estimate D2E/DX2                !
 ! D16   D(3,2,12,24)           72.8088         estimate D2E/DX2                !
 ! D17   D(3,2,12,25)          -46.6642         estimate D2E/DX2                !
 ! D18   D(3,2,12,26)         -167.5882         estimate D2E/DX2                !
 ! D19   D(13,2,12,24)        -172.3243         estimate D2E/DX2                !
 ! D20   D(13,2,12,25)          68.2027         estimate D2E/DX2                !
 ! D21   D(13,2,12,26)         -52.7214         estimate D2E/DX2                !
 ! D22   D(1,2,13,27)           59.4986         estimate D2E/DX2                !
 ! D23   D(1,2,13,28)          -61.3505         estimate D2E/DX2                !
 ! D24   D(1,2,13,29)          177.5442         estimate D2E/DX2                !
 ! D25   D(3,2,13,27)          -61.1759         estimate D2E/DX2                !
 ! D26   D(3,2,13,28)          177.975          estimate D2E/DX2                !
 ! D27   D(3,2,13,29)           56.8696         estimate D2E/DX2                !
 ! D28   D(12,2,13,27)         179.7871         estimate D2E/DX2                !
 ! D29   D(12,2,13,28)          58.938          estimate D2E/DX2                !
 ! D30   D(12,2,13,29)         -62.1674         estimate D2E/DX2                !
 ! D31   D(2,3,4,5)             64.9566         estimate D2E/DX2                !
 ! D32   D(2,3,4,17)           -57.3389         estimate D2E/DX2                !
 ! D33   D(2,3,4,18)          -170.9295         estimate D2E/DX2                !
 ! D34   D(3,4,5,6)             84.4311         estimate D2E/DX2                !
 ! D35   D(17,4,5,6)          -152.1723         estimate D2E/DX2                !
 ! D36   D(18,4,5,6)           -38.303          estimate D2E/DX2                !
 ! D37   D(4,5,6,7)            157.6235         estimate D2E/DX2                !
 ! D38   D(4,5,6,11)           -23.8519         estimate D2E/DX2                !
 ! D39   D(5,6,7,8)           -178.9392         estimate D2E/DX2                !
 ! D40   D(5,6,7,19)             0.2969         estimate D2E/DX2                !
 ! D41   D(11,6,7,8)             2.4401         estimate D2E/DX2                !
 ! D42   D(11,6,7,19)         -178.3238         estimate D2E/DX2                !
 ! D43   D(5,6,11,10)          179.0275         estimate D2E/DX2                !
 ! D44   D(5,6,11,23)           -1.7809         estimate D2E/DX2                !
 ! D45   D(7,6,11,10)           -2.5028         estimate D2E/DX2                !
 ! D46   D(7,6,11,23)          176.6888         estimate D2E/DX2                !
 ! D47   D(6,7,8,9)             -0.7536         estimate D2E/DX2                !
 ! D48   D(6,7,8,20)           179.1823         estimate D2E/DX2                !
 ! D49   D(19,7,8,9)          -179.9907         estimate D2E/DX2                !
 ! D50   D(19,7,8,20)           -0.0548         estimate D2E/DX2                !
 ! D51   D(7,8,9,10)            -0.8777         estimate D2E/DX2                !
 ! D52   D(7,8,9,21)           179.6026         estimate D2E/DX2                !
 ! D53   D(20,8,9,10)          179.1864         estimate D2E/DX2                !
 ! D54   D(20,8,9,21)           -0.3332         estimate D2E/DX2                !
 ! D55   D(8,9,10,11)            0.8068         estimate D2E/DX2                !
 ! D56   D(8,9,10,22)         -178.8385         estimate D2E/DX2                !
 ! D57   D(21,9,10,11)        -179.6732         estimate D2E/DX2                !
 ! D58   D(21,9,10,22)           0.6815         estimate D2E/DX2                !
 ! D59   D(9,10,11,6)            0.898          estimate D2E/DX2                !
 ! D60   D(9,10,11,23)        -178.3164         estimate D2E/DX2                !
 ! D61   D(22,10,11,6)        -179.4561         estimate D2E/DX2                !
 ! D62   D(22,10,11,23)          1.3295         estimate D2E/DX2                !
 --------------------------------------------------------------------------------
 Trust Radius=3.00D-01 FncErr=1.00D-07 GrdErr=1.00D-06
 Number of steps in this run= 151 maximum allowed number of steps= 174.
 GradGradGradGradGradGradGradGradGradGradGradGradGradGradGradGradGradGrad

 Leave Link  103 at Wed Sep 29 10:18:32 2021, MaxMem= 1073741824 cpu:       0.0
 (Enter /sw/target/amd/app/gaussian/Gaussian09RevA.02_gcc-4.9.2/g09/l202.exe)
                          Input orientation:                          
 ---------------------------------------------------------------------
 Center     Atomic      Atomic             Coordinates (Angstroms)
 Number     Number       Type             X           Y           Z
 ---------------------------------------------------------------------
      1          6           0        1.696862   -5.021274   -1.059268
      2          6           0        3.153113   -4.686220   -0.710083
      3          8           0        3.339486   -3.304533   -0.370073
      4          6           0        2.497167   -2.742056    0.633684
      5          8           0        2.660265   -3.290082    1.939993
      6          6           0        3.662020   -2.765393    2.706352
      7          6           0        3.511293   -2.938187    4.084773
      8          6           0        4.458460   -2.426690    4.972568
      9          6           0        5.573876   -1.750499    4.482095
     10          6           0        5.746530   -1.604830    3.106192
     11          6           0        4.798405   -2.118734    2.218987
     12          6           0        3.678550   -5.609834    0.393922
     13          6           0        4.011724   -4.905176   -1.967040
     14          1           0        1.050201   -4.975378   -0.176490
     15          1           0        1.607421   -6.030447   -1.475826
     16          1           0        1.295958   -4.307879   -1.788049
     17          1           0        1.446862   -2.856027    0.348595
     18          1           0        2.664029   -1.657325    0.646895
     19          1           0        2.641186   -3.465674    4.471244
     20          1           0        4.326128   -2.554370    6.043348
     21          1           0        6.311403   -1.344456    5.169242
     22          1           0        6.625619   -1.094142    2.720542
     23          1           0        4.975365   -2.013414    1.152066
     24          1           0        3.028663   -5.602548    1.273347
     25          1           0        4.673735   -5.293397    0.724770
     26          1           0        3.739850   -6.648648    0.051142
     27          1           0        3.669749   -4.265500   -2.789607
     28          1           0        3.978821   -5.946350   -2.306484
     29          1           0        5.057594   -4.636008   -1.778219
 ---------------------------------------------------------------------
                    Distance matrix (angstroms):
                    1          2          3          4          5
     1  C    0.000000
     2  C    1.534555   0.000000
     3  O    2.473945   1.435062   0.000000
     4  C    2.949814   2.452702   1.425977   0.000000
     5  O    3.594543   3.035623   2.407894   1.425965   0.000000
     6  C    4.809443   3.952290   3.139919   2.377684   1.366059
     7  C    5.838884   5.116108   4.473185   3.602352   2.334130
     8  C    7.123295   6.253154   5.528700   4.772006   3.629802
     9  C    7.512384   6.437179   5.563367   5.025892   4.161938
    10  C    6.739656   5.548399   4.557112   4.238507   3.704743
    11  C    5.365749   4.228289   3.199655   2.863113   2.453882
    12  C    2.526906   1.532310   2.452155   3.110836   2.967910
    13  C    2.489200   1.537886   2.358870   3.706311   4.438455
    14  H    1.095250   2.188737   2.840778   2.781692   3.148337
    15  H    1.095423   2.186886   3.413700   4.006893   4.503987
    16  H    1.095800   2.180408   2.682045   3.124019   4.098237
    17  H    2.594778   2.716928   2.073564   1.094260   2.047754
    18  H    3.893913   3.354818   2.050307   1.097570   2.082789
    19  H    5.822216   5.347705   4.894071   3.907842   2.537405
    20  H    7.965287   7.178411   6.532087   5.713561   4.489308
    21  H    8.579471   7.463823   6.584694   6.088758   5.248268
    22  H    7.348604   6.060570   5.023584   4.910674   4.599504
    23  H    4.968481   3.732572   2.580697   2.634598   2.758695
    24  H    2.748212   2.188411   2.842238   2.978938   2.434673
    25  H    3.481180   2.177099   2.633340   3.354860   3.089353
    26  H    2.838161   2.185142   3.394233   4.140661   4.001653
    27  H    2.730851   2.183652   2.624247   3.926162   4.933519
    28  H    2.760191   2.195044   3.337310   4.594278   5.179471
    29  H    3.458301   2.184144   2.589903   3.995012   4.624263
                    6          7          8          9         10
     6  C    0.000000
     7  C    1.397362   0.000000
     8  C    2.425855   1.395326   0.000000
     9  C    2.799726   2.413031   1.393539   0.000000
    10  C    2.419083   2.780602   2.412040   1.394323   0.000000
    11  C    1.395373   2.410253   2.791524   2.420457   1.396485
    12  C    3.665850   4.559393   5.630690   5.932950   5.260514
    13  C    5.151850   6.383097   7.382454   7.347357   6.295993
    14  H    4.473970   5.325925   6.680182   7.250234   6.647713
    15  H    5.689689   6.641315   7.918161   8.339517   7.596920
    16  H    5.308216   6.424470   7.697157   8.009712   7.146164
    17  H    3.236380   4.269385   5.534905   5.944767   5.258990
    18  H    2.542668   3.765298   4.745877   4.815044   3.943692
    19  H    2.155768   1.088434   2.152510   3.397442   3.869014
    20  H    3.408975   2.155756   1.086455   2.154204   3.397948
    21  H    3.886402   3.399510   2.154834   1.086733   2.154774
    22  H    3.402382   3.867901   3.397629   2.154075   1.087348
    23  H    2.169367   3.405802   3.877399   3.393587   2.140151
    24  H    3.241002   3.903315   5.080810   5.622495   5.169900
    25  H    3.367647   4.264729   5.129146   5.242125   4.519689
    26  H    4.704877   5.485430   6.523938   6.854842   6.228980
    27  H    5.697012   7.003140   8.015899   7.926448   6.793572
    28  H    5.945366   7.079252   8.099547   8.138438   7.160353
    29  H    5.055513   6.296692   7.128336   6.912615   5.789659
                   11         12         13         14         15
    11  C    0.000000
    12  C    4.095451   0.000000
    13  C    5.089789   2.486300   0.000000
    14  H    5.286563   2.763353   3.461447   0.000000
    15  H    6.255839   2.821780   2.699666   1.764069   0.000000
    16  H    5.754635   3.483221   2.786429   1.761555   1.778127
    17  H    3.908300   3.544847   4.017424   2.219167   3.664864
    18  H    2.690712   4.088469   4.381493   3.780460   4.974592
    19  H    3.397132   4.722087   6.738104   5.139247   6.558534
    20  H    3.877958   6.455326   8.354128   7.435008   8.718512
    21  H    3.404802   6.923081   8.300228   8.333108   9.393768
    22  H    2.154079   5.872806   6.582542   7.385260   8.195054
    23  H    1.086613   3.897531   4.361160   5.093643   5.863908
    24  H    4.020346   1.093524   3.457289   2.531735   3.124256
    25  H    3.510942   1.095439   2.799074   3.747453   3.845536
    26  H    5.132272   1.095623   2.680796   3.175824   2.694635
    27  H    5.564933   3.455744   1.096699   3.767537   3.015668
    28  H    5.983498   2.737809   1.095604   3.749197   2.514081
    29  H    4.730910   2.751054   1.096334   4.328961   3.733577
                   16         17         18         19         20
    16  H    0.000000
    17  H    2.587643   0.000000
    18  H    3.850456   1.734176   0.000000
    19  H    6.457375   4.335240   4.230400   0.000000
    20  H    8.578315   6.388378   5.717426   2.478107   0.000000
    21  H    9.074165   7.013362   5.818319   4.296192   2.483802
    22  H    7.685101   5.962373   4.506814   4.956292   4.296622
    23  H    5.238977   3.715629   2.392545   4.309802   4.963746
    24  H    3.748411   3.301612   4.011258   3.865606   5.807556
    25  H    4.323758   4.061402   4.155238   4.637661   5.992526
    26  H    3.851549   4.441874   5.140586   5.556590   7.281028
    27  H    2.576780   4.095870   4.429853   7.376829   9.021080
    28  H    3.186082   4.796912   5.370928   7.340342   9.019193
    29  H    3.775933   4.552917   4.525802   6.801801   8.126818
                   21         22         23         24         25
    21  H    0.000000
    22  H    2.481435   0.000000
    23  H    4.286048   2.455303   0.000000
    24  H    6.639708   5.946275   4.084880   0.000000
    25  H    6.166801   5.042490   3.321423   1.761469   0.000000
    26  H    7.806554   6.804844   4.921781   1.758948   1.778376
    27  H    8.879983   7.011164   4.723697   4.325076   3.796762
    28  H    9.083218   7.471309   5.331290   3.719703   3.177696
    29  H    7.789324   5.936529   3.933362   3.789831   2.616192
                   26         27         28         29
    26  H    0.000000
    27  H    3.708660   0.000000
    28  H    2.471584   1.776005   0.000000
    29  H    3.022207   1.756785   1.777586   0.000000
 Stoichiometry    C11H16O2
 Framework group  C1[X(C11H16O2)]
 Deg. of freedom    81
 Full point group                 C1      NOp   1
 Largest Abelian subgroup         C1      NOp   1
 Largest concise Abelian subgroup C1      NOp   1
                         Standard orientation:                         
 ---------------------------------------------------------------------
 Center     Atomic      Atomic             Coordinates (Angstroms)
 Number     Number       Type             X           Y           Z
 ---------------------------------------------------------------------
      1          6           0        3.402014   -1.021769   -0.161165
      2          6           0        2.511895    0.166085    0.228130
      3          8           0        1.557156    0.502211   -0.789167
      4          6           0        0.721681   -0.537423   -1.293697
      5          8           0       -0.186816   -1.098553   -0.348635
      6          6           0       -1.372548   -0.443677   -0.171735
      7          6           0       -2.411232   -1.220650    0.347947
      8          6           0       -3.676666   -0.669566    0.552685
      9          6           0       -3.905351    0.671717    0.251666
     10          6           0       -2.863537    1.460237   -0.235156
     11          6           0       -1.597241    0.907500   -0.438002
     12          6           0        1.828525   -0.080006    1.577359
     13          6           0        3.403807    1.411656    0.362814
     14          1           0        2.836734   -1.959691   -0.179462
     15          1           0        4.226730   -1.152867    0.547783
     16          1           0        3.823891   -0.881875   -1.162778
     17          1           0        1.335221   -1.349604   -1.695363
     18          1           0        0.179602   -0.144221   -2.163297
     19          1           0       -2.236093   -2.268651    0.583975
     20          1           0       -4.481741   -1.284816    0.944738
     21          1           0       -4.890637    1.104469    0.403080
     22          1           0       -3.034700    2.511728   -0.452865
     23          1           0       -0.799252    1.554509   -0.792008
     24          1           0        1.284134   -1.028304    1.590181
     25          1           0        1.103851    0.711739    1.796388
     26          1           0        2.557836   -0.119765    2.394008
     27          1           0        3.919183    1.626580   -0.581084
     28          1           0        4.160314    1.288192    1.145630
     29          1           0        2.804119    2.298685    0.598408
 ---------------------------------------------------------------------
 Rotational constants (GHZ):      1.9086276      0.4023495      0.3818374
 Leave Link  202 at Wed Sep 29 10:18:33 2021, MaxMem= 1073741824 cpu:       0.0
 (Enter /sw/target/amd/app/gaussian/Gaussian09RevA.02_gcc-4.9.2/g09/l301.exe)
 Standard basis: 6-31G(d) (6D, 7F)
 Ernie: Thresh=  0.10000D-02 Tol=  0.10000D-05 Strict=F.
 There are   227 symmetry adapted basis functions of A   symmetry.
 Integral buffers will be    131072 words long.
 Raffenetti 2 integral format.
 Two-electron integral symmetry is turned on.
   227 basis functions,   428 primitive gaussians,   227 cartesian basis functions
    49 alpha electrons       49 beta electrons
       nuclear repulsion energy       811.0724183158 Hartrees.
 IExCor=  402 DFT=T Ex+Corr=B3LYP ExCW=0 ScaHFX=  0.200000
 ScaDFX=  0.800000  0.720000  1.000000  0.810000 ScalE2=  1.000000  1.000000
 IRadAn=      0 IRanWt=     -1 IRanGd=            0 ICorTp=0
 NAtoms=   29 NActive=   29 NUniq=   29 SFac= 7.50D-01 NAtFMM=   80 NAOKFM=F Big=F
 Leave Link  301 at Wed Sep 29 10:18:33 2021, MaxMem= 1073741824 cpu:       0.1
 (Enter /sw/target/amd/app/gaussian/Gaussian09RevA.02_gcc-4.9.2/g09/l302.exe)
 NPDir=0 NMtPBC=     1 NCelOv=     1 NCel=       1 NClECP=     1 NCelD=      1
         NCelK=      1 NCelE2=     1 NClLst=     1 CellRange=     0.0.
 One-electron integrals computed using PRISM.
 NBasis=   227 RedAO= T  NBF=   227
 NBsUse=   227 1.00D-06 NBFU=   227
 Precomputing XC quadrature grid using
 IXCGrd= 2 IRadAn=           0 IRanWt=          -1 IRanGd=           0 AccXCQ= 1.00D-10.
 NRdTot=    1834 NPtTot=      233534 NUsed=      246762 NTot=      246794
 NSgBfM=   226   226   226   226   226 NAtAll=    29    29.
 Leave Link  302 at Wed Sep 29 10:18:37 2021, MaxMem= 1073741824 cpu:       2.2
 (Enter /sw/target/amd/app/gaussian/Gaussian09RevA.02_gcc-4.9.2/g09/l303.exe)
 DipDrv:  MaxL=1.
 Leave Link  303 at Wed Sep 29 10:18:38 2021, MaxMem= 1073741824 cpu:       0.2
 (Enter /sw/target/amd/app/gaussian/Gaussian09RevA.02_gcc-4.9.2/g09/l401.exe)
 Harris functional with IExCor=  402 diagonalized for initial guess.
 ExpMin= 1.61D-01 ExpMax= 5.48D+03 ExpMxC= 8.25D+02 IAcc=1 IRadAn=         1 AccDes= 0.00D+00
 HarFok:  IExCor=  402 AccDes= 0.00D+00 IRadAn=         1 IDoV= 1
 ScaDFX=  1.000000  1.000000  1.000000  1.000000
 FoFCou: FMM=F IPFlag=           0 FMFlag=      100000 FMFlg1=           0
         NFxFlg=           0 DoJE=T BraDBF=F KetDBF=T FulRan=T
         Omega=  0.000000  0.000000  1.000000  0.000000  0.000000 ICntrl=     500 IOpCl=  0
         NMat0=    1 NMatS0=    1 NMatT0=    0 NMatD0=    1 NMtDS0=    0 NMtDT0=    0
         I1Cent=           4 NGrid=           0.
 Petite list used in FoFCou.
 Harris En= -579.342053513693    
 Initial guess orbital symmetries:
       Occupied  (A) (A) (A) (A) (A) (A) (A) (A) (A) (A) (A) (A)
                 (A) (A) (A) (A) (A) (A) (A) (A) (A) (A) (A) (A)
                 (A) (A) (A) (A) (A) (A) (A) (A) (A) (A) (A) (A)
                 (A) (A) (A) (A) (A) (A) (A) (A) (A) (A) (A) (A)
                 (A)
       Virtual   (A) (A) (A) (A) (A) (A) (A) (A) (A) (A) (A) (A)
                 (A) (A) (A) (A) (A) (A) (A) (A) (A) (A) (A) (A)
                 (A) (A) (A) (A) (A) (A) (A) (A) (A) (A) (A) (A)
                 (A) (A) (A) (A) (A) (A) (A) (A) (A) (A) (A) (A)
                 (A) (A) (A) (A) (A) (A) (A) (A) (A) (A) (A) (A)
                 (A) (A) (A) (A) (A) (A) (A) (A) (A) (A) (A) (A)
                 (A) (A) (A) (A) (A) (A) (A) (A) (A) (A) (A) (A)
                 (A) (A) (A) (A) (A) (A) (A) (A) (A) (A) (A) (A)
                 (A) (A) (A) (A) (A) (A) (A) (A) (A) (A) (A) (A)
                 (A) (A) (A) (A) (A) (A) (A) (A) (A) (A) (A) (A)
                 (A) (A) (A) (A) (A) (A) (A) (A) (A) (A) (A) (A)
                 (A) (A) (A) (A) (A) (A) (A) (A) (A) (A) (A) (A)
                 (A) (A) (A) (A) (A) (A) (A) (A) (A) (A) (A) (A)
                 (A) (A) (A) (A) (A) (A) (A) (A) (A) (A) (A) (A)
                 (A) (A) (A) (A) (A) (A) (A) (A) (A) (A)
 The electronic state of the initial guess is 1-A.
 Leave Link  401 at Wed Sep 29 10:18:52 2021, MaxMem= 1073741824 cpu:      10.0
 (Enter /sw/target/amd/app/gaussian/Gaussian09RevA.02_gcc-4.9.2/g09/l502.exe)
 Closed shell SCF:
 Requested convergence on RMS density matrix=1.00D-08 within  64 cycles.
 Requested convergence on MAX density matrix=1.00D-06.
 Requested convergence on             energy=1.00D-06.
 No special actions if energy rises.
 Using DIIS extrapolation, IDIIS=  1040.
 Integral symmetry usage will be decided dynamically.
       246488 words used for storage of precomputed grid.
 Keep R1 ints in memory in canonical form, NReq=341184163.
 IEnd=      409706 IEndB=      409706 NGot=  1073741824 MDV=   738539690
 LenX=   738539690 LenY=   738487720
 Symmetry not used in FoFDir.
 MinBra= 0 MaxBra= 2 Meth= 1.
 IRaf=       0 NMat=   1 IRICut=       1 DoRegI=T DoRafI=F ISym2E= 0 JSym2E=0.
 Integral accuracy reduced to 1.0D-05 until final iterations.

 Cycle   1  Pass 0  IDiag  1:
 E= -578.855565568742    
 DIIS: error= 3.85D-02 at cycle   1 NSaved=   1.
 NSaved= 1 IEnMin= 1 EnMin= -578.855565568742     IErMin= 1 ErrMin= 3.85D-02
 ErrMax= 3.85D-02 EMaxC= 1.00D-01 BMatC= 3.69D-01 BMatP= 3.69D-01
 IDIUse=3 WtCom= 6.15D-01 WtEn= 3.85D-01
 Coeff-Com:  0.100D+01
 Coeff-En:   0.100D+01
 Coeff:      0.100D+01
 Gap=     0.253 Goal=   None    Shift=    0.000
 GapD=    0.253 DampG=1.000 DampE=0.500 DampFc=0.5000 IDamp=-1.
 Damping current iteration by 5.00D-01
 RMSDP=5.82D-03 MaxDP=1.38D-01              OVMax= 2.01D-01

 Cycle   2  Pass 0  IDiag  1:
 E= -579.030189231830     Delta-E=       -0.174623663087 Rises=F Damp=T
 DIIS: error= 6.60D-03 at cycle   2 NSaved=   2.
 NSaved= 2 IEnMin= 2 EnMin= -579.030189231830     IErMin= 2 ErrMin= 6.60D-03
 ErrMax= 6.60D-03 EMaxC= 1.00D-01 BMatC= 1.76D-02 BMatP= 3.69D-01
 IDIUse=3 WtCom= 9.34D-01 WtEn= 6.60D-02
 Coeff-Com:  0.583D-01 0.942D+00
 Coeff-En:   0.990D-01 0.901D+00
 Coeff:      0.609D-01 0.939D+00
 Gap=     0.252 Goal=   None    Shift=    0.000
 RMSDP=1.26D-03 MaxDP=3.49D-02 DE=-1.75D-01 OVMax= 1.59D-01

 Cycle   3  Pass 0  IDiag  1:
 E= -579.231127096554     Delta-E=       -0.200937864724 Rises=F Damp=F
 DIIS: error= 6.40D-03 at cycle   3 NSaved=   3.
 NSaved= 3 IEnMin= 3 EnMin= -579.231127096554     IErMin= 3 ErrMin= 6.40D-03
 ErrMax= 6.40D-03 EMaxC= 1.00D-01 BMatC= 1.05D-02 BMatP= 1.76D-02
 IDIUse=3 WtCom= 9.36D-01 WtEn= 6.40D-02
 Coeff-Com: -0.160D-02 0.418D+00 0.584D+00
 Coeff-En:   0.000D+00 0.000D+00 0.100D+01
 Coeff:     -0.149D-02 0.391D+00 0.610D+00
 Gap=     0.230 Goal=   None    Shift=    0.000
 RMSDP=7.97D-04 MaxDP=2.76D-02 DE=-2.01D-01 OVMax= 7.13D-02

 Cycle   4  Pass 0  IDiag  1:
 E= -579.236536748761     Delta-E=       -0.005409652207 Rises=F Damp=F
 DIIS: error= 5.16D-03 at cycle   4 NSaved=   4.
 NSaved= 4 IEnMin= 4 EnMin= -579.236536748761     IErMin= 4 ErrMin= 5.16D-03
 ErrMax= 5.16D-03 EMaxC= 1.00D-01 BMatC= 5.18D-03 BMatP= 1.05D-02
 IDIUse=3 WtCom= 9.48D-01 WtEn= 5.16D-02
 Coeff-Com: -0.850D-02 0.902D-01 0.413D+00 0.506D+00
 Coeff-En:   0.000D+00 0.000D+00 0.361D+00 0.639D+00
 Coeff:     -0.806D-02 0.855D-01 0.410D+00 0.513D+00
 Gap=     0.224 Goal=   None    Shift=    0.000
 RMSDP=3.73D-04 MaxDP=1.08D-02 DE=-5.41D-03 OVMax= 3.24D-02

 Cycle   5  Pass 0  IDiag  1:
 E= -579.241732821378     Delta-E=       -0.005196072617 Rises=F Damp=F
 DIIS: error= 7.19D-04 at cycle   5 NSaved=   5.
 NSaved= 5 IEnMin= 5 EnMin= -579.241732821378     IErMin= 5 ErrMin= 7.19D-04
 ErrMax= 7.19D-04 EMaxC= 1.00D-01 BMatC= 1.58D-04 BMatP= 5.18D-03
 IDIUse=3 WtCom= 9.93D-01 WtEn= 7.19D-03
 Coeff-Com: -0.288D-02 0.171D-01 0.160D+00 0.249D+00 0.577D+00
 Coeff-En:   0.000D+00 0.000D+00 0.000D+00 0.000D+00 0.100D+01
 Coeff:     -0.286D-02 0.170D-01 0.158D+00 0.247D+00 0.580D+00
 Gap=     0.224 Goal=   None    Shift=    0.000
 RMSDP=6.54D-05 MaxDP=1.98D-03 DE=-5.20D-03 OVMax= 4.61D-03

 Cycle   6  Pass 0  IDiag  1:
 E= -579.241873249035     Delta-E=       -0.000140427657 Rises=F Damp=F
 DIIS: error= 1.61D-04 at cycle   6 NSaved=   6.
 NSaved= 6 IEnMin= 6 EnMin= -579.241873249035     IErMin= 6 ErrMin= 1.61D-04
 ErrMax= 1.61D-04 EMaxC= 1.00D-01 BMatC= 1.70D-05 BMatP= 1.58D-04
 IDIUse=3 WtCom= 9.98D-01 WtEn= 1.61D-03
 Coeff-Com: -0.616D-03 0.131D-03 0.452D-01 0.831D-01 0.308D+00 0.564D+00
 Coeff-En:   0.000D+00 0.000D+00 0.000D+00 0.000D+00 0.222D-01 0.978D+00
 Coeff:     -0.615D-03 0.131D-03 0.451D-01 0.830D-01 0.308D+00 0.565D+00
 Gap=     0.224 Goal=   None    Shift=    0.000
 RMSDP=1.81D-05 MaxDP=5.60D-04 DE=-1.40D-04 OVMax= 1.10D-03

 Cycle   7  Pass 0  IDiag  1:
 E= -579.241888183876     Delta-E=       -0.000014934840 Rises=F Damp=F
 DIIS: error= 4.90D-05 at cycle   7 NSaved=   7.
 NSaved= 7 IEnMin= 7 EnMin= -579.241888183876     IErMin= 7 ErrMin= 4.90D-05
 ErrMax= 4.90D-05 EMaxC= 1.00D-01 BMatC= 5.99D-07 BMatP= 1.70D-05
 IDIUse=1 WtCom= 1.00D+00 WtEn= 0.00D+00
 Coeff-Com: -0.172D-03-0.489D-03 0.174D-01 0.330D-01 0.134D+00 0.280D+00
 Coeff-Com:  0.536D+00
 Coeff:     -0.172D-03-0.489D-03 0.174D-01 0.330D-01 0.134D+00 0.280D+00
 Coeff:      0.536D+00
 Gap=     0.224 Goal=   None    Shift=    0.000
 RMSDP=4.99D-06 MaxDP=1.61D-04 DE=-1.49D-05 OVMax= 4.09D-04

 Initial convergence to 1.0D-05 achieved.  Increase integral accuracy.
 Cycle   8  Pass 1  IDiag  1:
 E= -579.241939266647     Delta-E=       -0.000051082771 Rises=F Damp=F
 DIIS: error= 2.44D-05 at cycle   1 NSaved=   1.
 NSaved= 1 IEnMin= 1 EnMin= -579.241939266647     IErMin= 1 ErrMin= 2.44D-05
 ErrMax= 2.44D-05 EMaxC= 1.00D-01 BMatC= 2.46D-07 BMatP= 2.46D-07
 IDIUse=1 WtCom= 1.00D+00 WtEn= 0.00D+00
 Coeff-Com:  0.100D+01
 Coeff:      0.100D+01
 Gap=     0.224 Goal=   None    Shift=    0.000
 RMSDP=4.99D-06 MaxDP=1.61D-04 DE=-5.11D-05 OVMax= 4.19D-04

 Cycle   9  Pass 1  IDiag  1:
 E= -579.241939229710     Delta-E=        0.000000036937 Rises=F Damp=F
 DIIS: error= 4.77D-05 at cycle   2 NSaved=   2.
 NSaved= 2 IEnMin= 1 EnMin= -579.241939266647     IErMin= 1 ErrMin= 2.44D-05
 ErrMax= 4.77D-05 EMaxC= 1.00D-01 BMatC= 3.05D-07 BMatP= 2.46D-07
 IDIUse=1 WtCom= 1.00D+00 WtEn= 0.00D+00
 Coeff-Com:  0.534D+00 0.466D+00
 Coeff:      0.534D+00 0.466D+00
 Gap=     0.224 Goal=   None    Shift=    0.000
 RMSDP=3.55D-06 MaxDP=1.15D-04 DE= 3.69D-08 OVMax= 3.50D-04

 Cycle  10  Pass 1  IDiag  1:
 E= -579.241939532171     Delta-E=       -0.000000302461 Rises=F Damp=F
 DIIS: error= 1.80D-05 at cycle   3 NSaved=   3.
 NSaved= 3 IEnMin= 3 EnMin= -579.241939532171     IErMin= 3 ErrMin= 1.80D-05
 ErrMax= 1.80D-05 EMaxC= 1.00D-01 BMatC= 4.07D-08 BMatP= 2.46D-07
 IDIUse=1 WtCom= 1.00D+00 WtEn= 0.00D+00
 Coeff-Com: -0.987D-03 0.263D+00 0.738D+00
 Coeff:     -0.987D-03 0.263D+00 0.738D+00
 Gap=     0.224 Goal=   None    Shift=    0.000
 RMSDP=1.10D-06 MaxDP=3.59D-05 DE=-3.02D-07 OVMax= 1.06D-04

 Cycle  11  Pass 1  IDiag  1:
 E= -579.241939576764     Delta-E=       -0.000000044593 Rises=F Damp=F
 DIIS: error= 2.47D-06 at cycle   4 NSaved=   4.
 NSaved= 4 IEnMin= 4 EnMin= -579.241939576764     IErMin= 4 ErrMin= 2.47D-06
 ErrMax= 2.47D-06 EMaxC= 1.00D-01 BMatC= 3.24D-09 BMatP= 4.07D-08
 IDIUse=1 WtCom= 1.00D+00 WtEn= 0.00D+00
 Coeff-Com: -0.159D-01 0.142D+00 0.434D+00 0.441D+00
 Coeff:     -0.159D-01 0.142D+00 0.434D+00 0.441D+00
 Gap=     0.224 Goal=   None    Shift=    0.000
 RMSDP=2.45D-07 MaxDP=7.91D-06 DE=-4.46D-08 OVMax= 1.05D-05

 Cycle  12  Pass 1  IDiag  1:
 E= -579.241939579496     Delta-E=       -0.000000002732 Rises=F Damp=F
 DIIS: error= 4.94D-07 at cycle   5 NSaved=   5.
 NSaved= 5 IEnMin= 5 EnMin= -579.241939579496     IErMin= 5 ErrMin= 4.94D-07
 ErrMax= 4.94D-07 EMaxC= 1.00D-01 BMatC= 1.03D-10 BMatP= 3.24D-09
 IDIUse=1 WtCom= 1.00D+00 WtEn= 0.00D+00
 Coeff-Com: -0.790D-02 0.539D-01 0.170D+00 0.218D+00 0.566D+00
 Coeff:     -0.790D-02 0.539D-01 0.170D+00 0.218D+00 0.566D+00
 Gap=     0.224 Goal=   None    Shift=    0.000
 RMSDP=5.51D-08 MaxDP=1.76D-06 DE=-2.73D-09 OVMax= 3.41D-06

 Cycle  13  Pass 1  IDiag  1:
 E= -579.241939579575     Delta-E=       -0.000000000078 Rises=F Damp=F
 DIIS: error= 1.46D-07 at cycle   6 NSaved=   6.
 NSaved= 6 IEnMin= 6 EnMin= -579.241939579575     IErMin= 6 ErrMin= 1.46D-07
 ErrMax= 1.46D-07 EMaxC= 1.00D-01 BMatC= 1.58D-11 BMatP= 1.03D-10
 IDIUse=1 WtCom= 1.00D+00 WtEn= 0.00D+00
 Coeff-Com: -0.228D-02 0.124D-01 0.407D-01 0.656D-01 0.323D+00 0.561D+00
 Coeff:     -0.228D-02 0.124D-01 0.407D-01 0.656D-01 0.323D+00 0.561D+00
 Gap=     0.224 Goal=   None    Shift=    0.000
 RMSDP=2.19D-08 MaxDP=5.37D-07 DE=-7.82D-11 OVMax= 1.76D-06

 Cycle  14  Pass 1  IDiag  1:
 E= -579.241939579574     Delta-E=        0.000000000000 Rises=F Damp=F
 DIIS: error= 4.90D-08 at cycle   7 NSaved=   7.
 NSaved= 7 IEnMin= 6 EnMin= -579.241939579575     IErMin= 7 ErrMin= 4.90D-08
 ErrMax= 4.90D-08 EMaxC= 1.00D-01 BMatC= 8.80D-13 BMatP= 1.58D-11
 IDIUse=1 WtCom= 1.00D+00 WtEn= 0.00D+00
 Coeff-Com: -0.286D-03 0.334D-03 0.183D-02 0.788D-02 0.894D-01 0.258D+00
 Coeff-Com:  0.643D+00
 Coeff:     -0.286D-03 0.334D-03 0.183D-02 0.788D-02 0.894D-01 0.258D+00
 Coeff:      0.643D+00
 Gap=     0.224 Goal=   None    Shift=    0.000
 RMSDP=5.78D-09 MaxDP=1.44D-07 DE= 4.55D-13 OVMax= 4.46D-07

 SCF Done:  E(RB3LYP) =  -579.241939580     A.U. after   14 cycles
             Convg  =    0.5776D-08             -V/T =  2.0095
 KE= 5.737684713245D+02 PE=-2.968661787440D+03 EE= 1.004578958220D+03
 Leave Link  502 at Wed Sep 29 10:25:32 2021, MaxMem= 1073741824 cpu:     206.0
 (Enter /sw/target/amd/app/gaussian/Gaussian09RevA.02_gcc-4.9.2/g09/l508.exe)
 QCSCF skips out because SCF is already converged.
 Leave Link  508 at Wed Sep 29 10:25:34 2021, MaxMem= 1073741824 cpu:       0.0
 (Enter /sw/target/amd/app/gaussian/Gaussian09RevA.02_gcc-4.9.2/g09/l601.exe)
 Copying SCF densities to generalized density rwf, IOpCl= 0 IROHF=0.

 **********************************************************************

            Population analysis using the SCF density.

 **********************************************************************

 Orbital symmetries:
       Occupied  (A) (A) (A) (A) (A) (A) (A) (A) (A) (A) (A) (A)
                 (A) (A) (A) (A) (A) (A) (A) (A) (A) (A) (A) (A)
                 (A) (A) (A) (A) (A) (A) (A) (A) (A) (A) (A) (A)
                 (A) (A) (A) (A) (A) (A) (A) (A) (A) (A) (A) (A)
                 (A)
       Virtual   (A) (A) (A) (A) (A) (A) (A) (A) (A) (A) (A) (A)
                 (A) (A) (A) (A) (A) (A) (A) (A) (A) (A) (A) (A)
                 (A) (A) (A) (A) (A) (A) (A) (A) (A) (A) (A) (A)
                 (A) (A) (A) (A) (A) (A) (A) (A) (A) (A) (A) (A)
                 (A) (A) (A) (A) (A) (A) (A) (A) (A) (A) (A) (A)
                 (A) (A) (A) (A) (A) (A) (A) (A) (A) (A) (A) (A)
                 (A) (A) (A) (A) (A) (A) (A) (A) (A) (A) (A) (A)
                 (A) (A) (A) (A) (A) (A) (A) (A) (A) (A) (A) (A)
                 (A) (A) (A) (A) (A) (A) (A) (A) (A) (A) (A) (A)
                 (A) (A) (A) (A) (A) (A) (A) (A) (A) (A) (A) (A)
                 (A) (A) (A) (A) (A) (A) (A) (A) (A) (A) (A) (A)
                 (A) (A) (A) (A) (A) (A) (A) (A) (A) (A) (A) (A)
                 (A) (A) (A) (A) (A) (A) (A) (A) (A) (A) (A) (A)
                 (A) (A) (A) (A) (A) (A) (A) (A) (A) (A) (A) (A)
                 (A) (A) (A) (A) (A) (A) (A) (A) (A) (A)
 The electronic state is 1-A.
 Alpha  occ. eigenvalues --  -19.17854 -19.15459 -10.28732 -10.24434 -10.24320
 Alpha  occ. eigenvalues --  -10.18702 -10.18648 -10.18269 -10.18143 -10.17969
 Alpha  occ. eigenvalues --  -10.17674 -10.17103 -10.16450  -1.07734  -1.01975
 Alpha  occ. eigenvalues --   -0.84486  -0.79728  -0.74495  -0.74005  -0.69506
 Alpha  occ. eigenvalues --   -0.68323  -0.67497  -0.60565  -0.59787  -0.55984
 Alpha  occ. eigenvalues --   -0.52667  -0.49349  -0.48655  -0.48453  -0.45626
 Alpha  occ. eigenvalues --   -0.44430  -0.43483  -0.42232  -0.41700  -0.40946
 Alpha  occ. eigenvalues --   -0.39987  -0.38750  -0.37353  -0.37215  -0.36048
 Alpha  occ. eigenvalues --   -0.35660  -0.34593  -0.34187  -0.32864  -0.32299
 Alpha  occ. eigenvalues --   -0.29654  -0.26946  -0.24574  -0.22095
 Alpha virt. eigenvalues --    0.00299   0.01512   0.08567   0.09485   0.10909
 Alpha virt. eigenvalues --    0.12949   0.13743   0.14020   0.15021   0.15330
 Alpha virt. eigenvalues --    0.15887   0.16662   0.16887   0.17607   0.18463
 Alpha virt. eigenvalues --    0.19005   0.19260   0.19630   0.20112   0.21393
 Alpha virt. eigenvalues --    0.22019   0.22690   0.24512   0.25662   0.26487
 Alpha virt. eigenvalues --    0.28579   0.31018   0.31124   0.35021   0.36732
 Alpha virt. eigenvalues --    0.47335   0.48509   0.49756   0.49800   0.51374
 Alpha virt. eigenvalues --    0.53515   0.54601   0.55806   0.56762   0.57130
 Alpha virt. eigenvalues --    0.58687   0.59813   0.59932   0.61025   0.61264
 Alpha virt. eigenvalues --    0.61930   0.62178   0.62715   0.63150   0.64232
 Alpha virt. eigenvalues --    0.67348   0.67972   0.70350   0.71856   0.72839
 Alpha virt. eigenvalues --    0.74359   0.74803   0.80678   0.81431   0.83848
 Alpha virt. eigenvalues --    0.84241   0.84669   0.86198   0.86474   0.86942
 Alpha virt. eigenvalues --    0.88635   0.89748   0.89995   0.90777   0.91302
 Alpha virt. eigenvalues --    0.92389   0.93380   0.93793   0.94853   0.95614
 Alpha virt. eigenvalues --    0.96187   0.97373   0.97559   0.99849   1.00972
 Alpha virt. eigenvalues --    1.03848   1.06775   1.09071   1.11098   1.13031
 Alpha virt. eigenvalues --    1.17492   1.18845   1.19179   1.21853   1.23728
 Alpha virt. eigenvalues --    1.26943   1.30196   1.31797   1.37725   1.40170
 Alpha virt. eigenvalues --    1.42765   1.43602   1.45637   1.46467   1.47152
 Alpha virt. eigenvalues --    1.49214   1.50253   1.51836   1.54679   1.61493
 Alpha virt. eigenvalues --    1.67174   1.70085   1.72883   1.75431   1.77280
 Alpha virt. eigenvalues --    1.79534   1.82540   1.82811   1.84314   1.86099
 Alpha virt. eigenvalues --    1.86917   1.90098   1.91715   1.92801   1.94115
 Alpha virt. eigenvalues --    1.96724   1.97973   1.98367   2.03005   2.05401
 Alpha virt. eigenvalues --    2.07417   2.08583   2.10242   2.12190   2.14625
 Alpha virt. eigenvalues --    2.15610   2.16768   2.17352   2.21885   2.24238
 Alpha virt. eigenvalues --    2.24803   2.25253   2.26453   2.27101   2.29419
 Alpha virt. eigenvalues --    2.30968   2.31391   2.31774   2.36846   2.41189
 Alpha virt. eigenvalues --    2.51189   2.52763   2.57098   2.57756   2.58944
 Alpha virt. eigenvalues --    2.60286   2.64233   2.67796   2.70321   2.73144
 Alpha virt. eigenvalues --    2.74292   2.74910   2.76521   2.79561   2.86741
 Alpha virt. eigenvalues --    2.93723   2.97978   3.01965   3.17888   3.43257
 Alpha virt. eigenvalues --    3.96194   4.07967   4.09805   4.12200   4.20488
 Alpha virt. eigenvalues --    4.23887   4.30645   4.32608   4.33632   4.40599
 Alpha virt. eigenvalues --    4.46709   4.65796   4.75760
          Condensed to atoms (all electrons):
              1          2          3          4          5          6
     1  C    5.223199   0.366129  -0.047817  -0.007340  -0.001802   0.000051
     2  C    0.366129   4.554622   0.229917  -0.025132  -0.002459  -0.000157
     3  O   -0.047817   0.229917   8.294764   0.238795  -0.045322  -0.004427
     4  C   -0.007340  -0.025132   0.238795   4.707578   0.221922  -0.029169
     5  O   -0.001802  -0.002459  -0.045322   0.221922   8.288123   0.242284
     6  C    0.000051  -0.000157  -0.004427  -0.029169   0.242284   4.517729
     7  C   -0.000002   0.000009  -0.000059   0.002238  -0.052756   0.547574
     8  C   -0.000000   0.000000   0.000002  -0.000065   0.003386  -0.013162
     9  C    0.000000  -0.000000  -0.000000   0.000013   0.000182  -0.039595
    10  C    0.000000  -0.000007   0.000256   0.000021   0.003529  -0.009429
    11  C    0.000010   0.000140   0.000032  -0.002549  -0.059585   0.492108
    12  C   -0.079175   0.375900  -0.055796  -0.004707   0.000519   0.000563
    13  C   -0.067360   0.402712  -0.054666   0.004507  -0.000035  -0.000018
    14  H    0.364880  -0.027341  -0.001712  -0.000691   0.000722  -0.000033
    15  H    0.360811  -0.021126   0.002726   0.000411   0.000006  -0.000001
    16  H    0.358589  -0.025236   0.001352  -0.000604   0.000120   0.000000
    17  H    0.009992  -0.013579  -0.039200   0.373196  -0.042183   0.003749
    18  H   -0.000326   0.005124  -0.041317   0.371064  -0.035306  -0.003518
    19  H   -0.000000   0.000002   0.000003  -0.000037  -0.000814  -0.038530
    20  H   -0.000000  -0.000000  -0.000000   0.000002  -0.000061   0.004206
    21  H    0.000000  -0.000000   0.000000  -0.000000   0.000002   0.000638
    22  H   -0.000000   0.000000  -0.000002  -0.000001  -0.000050   0.003240
    23  H    0.000058  -0.000418   0.011919  -0.000490  -0.006024  -0.039849
    24  H   -0.006317  -0.023428  -0.000856  -0.000430   0.006568  -0.000111
    25  H    0.005897  -0.024355   0.001242  -0.000584  -0.001040   0.000863
    26  H    0.000205  -0.024205   0.003197   0.000088   0.000340  -0.000020
    27  H   -0.006973  -0.025629   0.001373   0.000089   0.000006   0.000000
    28  H   -0.002612  -0.025776   0.003292  -0.000135   0.000004   0.000000
    29  H    0.006352  -0.024865   0.001089  -0.000161  -0.000007  -0.000004
              7          8          9         10         11         12
     1  C   -0.000002  -0.000000   0.000000   0.000000   0.000010  -0.079175
     2  C    0.000009   0.000000  -0.000000  -0.000007   0.000140   0.375900
     3  O   -0.000059   0.000002  -0.000000   0.000256   0.000032  -0.055796
     4  C    0.002238  -0.000065   0.000013   0.000021  -0.002549  -0.004707
     5  O   -0.052756   0.003386   0.000182   0.003529  -0.059585   0.000519
     6  C    0.547574  -0.013162  -0.039595  -0.009429   0.492108   0.000563
     7  C    4.985137   0.530348  -0.036703  -0.038499  -0.072559  -0.000062
     8  C    0.530348   4.852637   0.547308  -0.027812  -0.039939  -0.000002
     9  C   -0.036703   0.547308   4.862514   0.553083  -0.036001   0.000002
    10  C   -0.038499  -0.027812   0.553083   4.876238   0.499269  -0.000005
    11  C   -0.072559  -0.039939  -0.036001   0.499269   5.076593  -0.000634
    12  C   -0.000062  -0.000002   0.000002  -0.000005  -0.000634   5.218820
    13  C    0.000000   0.000000  -0.000000  -0.000000  -0.000004  -0.072949
    14  H    0.000001   0.000000  -0.000000  -0.000000  -0.000001  -0.006542
    15  H    0.000000   0.000000  -0.000000  -0.000000  -0.000000   0.000003
    16  H    0.000000  -0.000000   0.000000  -0.000000  -0.000001   0.006210
    17  H   -0.000271  -0.000000   0.000000   0.000016   0.000709  -0.000132
    18  H    0.000741   0.000008  -0.000043  -0.000429   0.007638  -0.000123
    19  H    0.346172  -0.043516   0.005229   0.000121   0.007253  -0.000017
    20  H   -0.040564   0.359069  -0.043823   0.005042   0.000403  -0.000000
    21  H    0.004888  -0.043930   0.359046  -0.043770   0.005051   0.000000
    22  H    0.000696   0.004726  -0.042297   0.357662  -0.038235  -0.000000
    23  H    0.004702   0.000410   0.004624  -0.038749   0.346332  -0.000029
    24  H   -0.000050   0.000008   0.000001  -0.000007   0.000041   0.363476
    25  H   -0.000003  -0.000013  -0.000001   0.000032   0.001457   0.363363
    26  H   -0.000002   0.000000   0.000000   0.000000  -0.000001   0.347566
    27  H   -0.000000  -0.000000   0.000000  -0.000000  -0.000000   0.006429
    28  H   -0.000000  -0.000000   0.000000   0.000000  -0.000000  -0.002063
    29  H    0.000000  -0.000000   0.000000   0.000001  -0.000022  -0.006088
             13         14         15         16         17         18
     1  C   -0.067360   0.364880   0.360811   0.358589   0.009992  -0.000326
     2  C    0.402712  -0.027341  -0.021126  -0.025236  -0.013579   0.005124
     3  O   -0.054666  -0.001712   0.002726   0.001352  -0.039200  -0.041317
     4  C    0.004507  -0.000691   0.000411  -0.000604   0.373196   0.371064
     5  O   -0.000035   0.000722   0.000006   0.000120  -0.042183  -0.035306
     6  C   -0.000018  -0.000033  -0.000001   0.000000   0.003749  -0.003518
     7  C    0.000000   0.000001   0.000000   0.000000  -0.000271   0.000741
     8  C    0.000000   0.000000   0.000000  -0.000000  -0.000000   0.000008
     9  C   -0.000000  -0.000000  -0.000000   0.000000   0.000000  -0.000043
    10  C   -0.000000  -0.000000  -0.000000  -0.000000   0.000016  -0.000429
    11  C   -0.000004  -0.000001  -0.000000  -0.000001   0.000709   0.007638
    12  C   -0.072949  -0.006542   0.000003   0.006210  -0.000132  -0.000123
    13  C    5.162595   0.005886  -0.004260  -0.006156   0.000089  -0.000208
    14  H    0.005886   0.571242  -0.028959  -0.033577   0.000607   0.000122
    15  H   -0.004260  -0.028959   0.562541  -0.025829  -0.000319  -0.000001
    16  H   -0.006156  -0.033577  -0.025829   0.571450   0.000644  -0.000061
    17  H    0.000089   0.000607  -0.000319   0.000644   0.603304  -0.047600
    18  H   -0.000208   0.000122  -0.000001  -0.000061  -0.047600   0.588800
    19  H   -0.000000   0.000001  -0.000000   0.000000  -0.000018   0.000041
    20  H    0.000000   0.000000   0.000000   0.000000  -0.000000   0.000000
    21  H    0.000000  -0.000000  -0.000000  -0.000000  -0.000000  -0.000000
    22  H    0.000000   0.000000   0.000000  -0.000000  -0.000000   0.000014
    23  H   -0.000076  -0.000002  -0.000001  -0.000000   0.000477  -0.001457
    24  H    0.005637   0.004618  -0.000030  -0.000030  -0.000327   0.000131
    25  H   -0.005207  -0.000033  -0.000081  -0.000197   0.000086  -0.000073
    26  H   -0.005605  -0.000025   0.000955  -0.000117   0.000027   0.000011
    27  H    0.360464  -0.000057   0.000231   0.004268  -0.000031  -0.000001
    28  H    0.360016  -0.000057   0.002019   0.000224   0.000010   0.000003
    29  H    0.362646  -0.000203  -0.000014  -0.000104   0.000021  -0.000010
             19         20         21         22         23         24
     1  C   -0.000000  -0.000000   0.000000  -0.000000   0.000058  -0.006317
     2  C    0.000002  -0.000000  -0.000000   0.000000  -0.000418  -0.023428
     3  O    0.000003  -0.000000   0.000000  -0.000002   0.011919  -0.000856
     4  C   -0.000037   0.000002  -0.000000  -0.000001  -0.000490  -0.000430
     5  O   -0.000814  -0.000061   0.000002  -0.000050  -0.006024   0.006568
     6  C   -0.038530   0.004206   0.000638   0.003240  -0.039849  -0.000111
     7  C    0.346172  -0.040564   0.004888   0.000696   0.004702  -0.000050
     8  C   -0.043516   0.359069  -0.043930   0.004726   0.000410   0.000008
     9  C    0.005229  -0.043823   0.359046  -0.042297   0.004624   0.000001
    10  C    0.000121   0.005042  -0.043770   0.357662  -0.038749  -0.000007
    11  C    0.007253   0.000403   0.005051  -0.038235   0.346332   0.000041
    12  C   -0.000017  -0.000000   0.000000  -0.000000  -0.000029   0.363476
    13  C   -0.000000   0.000000   0.000000   0.000000  -0.000076   0.005637
    14  H    0.000001   0.000000  -0.000000   0.000000  -0.000002   0.004618
    15  H   -0.000000   0.000000  -0.000000   0.000000  -0.000001  -0.000030
    16  H    0.000000   0.000000  -0.000000  -0.000000  -0.000000  -0.000030
    17  H   -0.000018  -0.000000  -0.000000  -0.000000   0.000477  -0.000327
    18  H    0.000041   0.000000  -0.000000   0.000014  -0.001457   0.000131
    19  H    0.596974  -0.006566  -0.000170   0.000015  -0.000156   0.000106
    20  H   -0.006566   0.598192  -0.005718  -0.000199   0.000013  -0.000000
    21  H   -0.000170  -0.005718   0.606180  -0.005633  -0.000167  -0.000000
    22  H    0.000015  -0.000199  -0.005633   0.594631  -0.005917   0.000000
    23  H   -0.000156   0.000013  -0.000167  -0.005917   0.566949  -0.000028
    24  H    0.000106  -0.000000  -0.000000   0.000000  -0.000028   0.548366
    25  H    0.000002  -0.000000  -0.000000  -0.000001   0.000533  -0.028910
    26  H   -0.000000  -0.000000  -0.000000   0.000000  -0.000001  -0.030046
    27  H   -0.000000   0.000000  -0.000000  -0.000000  -0.000001  -0.000205
    28  H   -0.000000   0.000000  -0.000000  -0.000000   0.000001  -0.000034
    29  H    0.000000  -0.000000   0.000000  -0.000000   0.000153  -0.000057
             25         26         27         28         29
     1  C    0.005897   0.000205  -0.006973  -0.002612   0.006352
     2  C   -0.024355  -0.024205  -0.025629  -0.025776  -0.024865
     3  O    0.001242   0.003197   0.001373   0.003292   0.001089
     4  C   -0.000584   0.000088   0.000089  -0.000135  -0.000161
     5  O   -0.001040   0.000340   0.000006   0.000004  -0.000007
     6  C    0.000863  -0.000020   0.000000   0.000000  -0.000004
     7  C   -0.000003  -0.000002  -0.000000  -0.000000   0.000000
     8  C   -0.000013   0.000000  -0.000000  -0.000000  -0.000000
     9  C   -0.000001   0.000000   0.000000   0.000000   0.000000
    10  C    0.000032   0.000000  -0.000000   0.000000   0.000001
    11  C    0.001457  -0.000001  -0.000000  -0.000000  -0.000022
    12  C    0.363363   0.347566   0.006429  -0.002063  -0.006088
    13  C   -0.005207  -0.005605   0.360464   0.360016   0.362646
    14  H   -0.000033  -0.000025  -0.000057  -0.000057  -0.000203
    15  H   -0.000081   0.000955   0.000231   0.002019  -0.000014
    16  H   -0.000197  -0.000117   0.004268   0.000224  -0.000104
    17  H    0.000086   0.000027  -0.000031   0.000010   0.000021
    18  H   -0.000073   0.000011  -0.000001   0.000003  -0.000010
    19  H    0.000002  -0.000000  -0.000000  -0.000000   0.000000
    20  H   -0.000000  -0.000000   0.000000   0.000000  -0.000000
    21  H   -0.000000  -0.000000  -0.000000  -0.000000   0.000000
    22  H   -0.000001   0.000000  -0.000000  -0.000000  -0.000000
    23  H    0.000533  -0.000001  -0.000001   0.000001   0.000153
    24  H   -0.028910  -0.030046  -0.000205  -0.000034  -0.000057
    25  H    0.557028  -0.027242  -0.000108   0.000140   0.003713
    26  H   -0.027242   0.599184   0.000015   0.002364   0.000313
    27  H   -0.000108   0.000015   0.573880  -0.028417  -0.030600
    28  H    0.000140   0.002364  -0.028417   0.578257  -0.027831
    29  H    0.003713   0.000313  -0.030600  -0.027831   0.564885
 Mulliken atomic charges:
              1
     1  C   -0.476449
     2  C    0.329158
     3  O   -0.498784
     4  C    0.152170
     5  O   -0.520266
     6  C    0.365016
     7  C   -0.180977
     8  C   -0.129464
     9  C   -0.133538
    10  C   -0.136561
    11  C   -0.187504
    12  C   -0.454526
    13  C   -0.448007
    14  H    0.151154
    15  H    0.150918
    16  H    0.149055
    17  H    0.150733
    18  H    0.156776
    19  H    0.133904
    20  H    0.130005
    21  H    0.123583
    22  H    0.131352
    23  H    0.157194
    24  H    0.161916
    25  H    0.153490
    26  H    0.132999
    27  H    0.145266
    28  H    0.140595
    29  H    0.150793
 Sum of Mulliken atomic charges =  -0.00000
 Mulliken charges with hydrogens summed into heavy atoms:
              1
     1  C   -0.025323
     2  C    0.329158
     3  O   -0.498784
     4  C    0.459679
     5  O   -0.520266
     6  C    0.365016
     7  C   -0.047073
     8  C    0.000541
     9  C   -0.009955
    10  C   -0.005209
    11  C   -0.030310
    12  C   -0.006120
    13  C   -0.011354
 Sum of Mulliken charges with hydrogens summed into heavy atoms =  -0.00000
 Electronic spatial extent (au):  <R**2>=           3085.3213
 Charge=              0.0000 electrons
 Dipole moment (field-independent basis, Debye):
    X=              0.6572    Y=             -0.3088    Z=             -0.2568  Tot=              0.7702
 Quadrupole moment (field-independent basis, Debye-Ang):
   XX=            -72.1900   YY=            -76.7171   ZZ=            -78.3716
   XY=             -1.8724   XZ=             -0.4410   YZ=              0.0445
 Traceless Quadrupole moment (field-independent basis, Debye-Ang):
   XX=              3.5696   YY=             -0.9576   ZZ=             -2.6120
   XY=             -1.8724   XZ=             -0.4410   YZ=              0.0445
 Octapole moment (field-independent basis, Debye-Ang**2):
  XXX=              1.4187  YYY=              0.6398  ZZZ=            -11.3244  XYY=             -5.9485
  XXY=             -2.3374  XXZ=             11.9546  XZZ=             11.7557  YZZ=             -4.3343
  YYZ=             -1.2800  XYZ=              6.7806
 Hexadecapole moment (field-independent basis, Debye-Ang**3):
 XXXX=          -3120.7026 YYYY=           -534.4395 ZZZZ=           -367.0597 XXXY=             -6.9361
 XXXZ=            -36.4417 YYYX=             -3.1416 YYYZ=             -8.3892 ZZZX=             -4.1899
 ZZZY=              4.6251 XXYY=           -616.1899 XXZZ=           -621.6512 YYZZ=           -155.2144
 XXYZ=            -12.6224 YYXZ=             -4.9505 ZZXY=              2.0137
 N-N= 8.110724183158D+02 E-N=-2.968661788625D+03  KE= 5.737684713245D+02
 No NMR shielding tensors so no spin-rotation constants.
 Leave Link  601 at Wed Sep 29 10:25:36 2021, MaxMem= 1073741824 cpu:       1.3
 (Enter /sw/target/amd/app/gaussian/Gaussian09RevA.02_gcc-4.9.2/g09/l701.exe)
 Compute integral first derivatives.
 ... and contract with generalized density number  0.
 Leave Link  701 at Wed Sep 29 10:25:38 2021, MaxMem= 1073741824 cpu:       1.2
 (Enter /sw/target/amd/app/gaussian/Gaussian09RevA.02_gcc-4.9.2/g09/l702.exe)
 L702 exits ... SP integral derivatives will be done elsewhere.
 Leave Link  702 at Wed Sep 29 10:25:38 2021, MaxMem= 1073741824 cpu:       0.1
 (Enter /sw/target/amd/app/gaussian/Gaussian09RevA.02_gcc-4.9.2/g09/l703.exe)
 Compute integral first derivatives, UseDBF=F ICtDFT=           0.
 Integral derivatives from FoFDir, PRISM(SPDF).
 Calling FoFJK, ICntrl=      2127 FMM=F ISym2X=0 I1Cent= 0 IOpClX= 0 NMat=1 NMatS=1 NMatT=0.
 FoFCou: FMM=F IPFlag=           0 FMFlag=      100000 FMFlg1=         800
         NFxFlg=           0 DoJE=F BraDBF=F KetDBF=F FulRan=T
         Omega=  0.000000  0.000000  1.000000  0.000000  0.000000 ICntrl=    2127 IOpCl=  0
         NMat0=    1 NMatS0=    1 NMatT0=    0 NMatD0=    1 NMtDS0=    0 NMtDT0=    0
         I1Cent=           0 NGrid=           0.
 Symmetry not used in FoFCou.
 Leave Link  703 at Wed Sep 29 10:27:23 2021, MaxMem= 1073741824 cpu:      79.9
 (Enter /sw/target/amd/app/gaussian/Gaussian09RevA.02_gcc-4.9.2/g09/l716.exe)
 Dipole        = 2.58553492D-01-1.21476656D-01-1.01038055D-01
 ***** Axes restored to original set *****
 -------------------------------------------------------------------
 Center     Atomic                   Forces (Hartrees/Bohr)
 Number     Number              X              Y              Z
 -------------------------------------------------------------------
      1        6          -0.006323864    0.005297927    0.004798496
      2        6           0.003470712   -0.018414366   -0.010838142
      3        8          -0.006865421    0.015561683    0.016096811
      4        6          -0.000267830   -0.002991822   -0.013194658
      5        8          -0.007212122    0.006499481   -0.016430813
      6        6           0.004710170   -0.001464734    0.011181837
      7        6          -0.001541480   -0.000525510    0.010241744
      8        6          -0.001485856   -0.001645979   -0.004520428
      9        6           0.005412525    0.002846047    0.001529102
     10        6          -0.002544183   -0.001151155    0.004045532
     11        6           0.005305218    0.004531424   -0.009207490
     12        6          -0.001575274   -0.002515003    0.009773845
     13        6           0.003950126    0.009261660   -0.003909594
     14        1          -0.000554019   -0.001768015    0.000730597
     15        1           0.002155125    0.000823079    0.000316597
     16        1           0.001209877   -0.000508302   -0.002023573
     17        1          -0.000983486   -0.008684896    0.006231358
     18        1           0.009819973   -0.003472585   -0.000476777
     19        1           0.000002692    0.000891481   -0.003312016
     20        1          -0.000874427   -0.000467577   -0.000167847
     21        1           0.000146347   -0.000099183    0.000021725
     22        1          -0.000852788   -0.000511539   -0.000785392
     23        1          -0.002941163   -0.001971490    0.000500083
     24        1          -0.000149181    0.001029199   -0.000218784
     25        1           0.000260795   -0.000102038   -0.001956085
     26        1           0.000601529    0.000590862   -0.002773021
     27        1          -0.001467769   -0.000423414    0.000335998
     28        1          -0.001154980    0.000549372    0.002164495
     29        1          -0.000251246   -0.001164607    0.001846398
 -------------------------------------------------------------------
 Cartesian Forces:  Max     0.018414366 RMS     0.005518455
 Leave Link  716 at Wed Sep 29 10:27:23 2021, MaxMem= 1073741824 cpu:       0.1
 (Enter /sw/target/amd/app/gaussian/Gaussian09RevA.02_gcc-4.9.2/g09/l103.exe)

 GradGradGradGradGradGradGradGradGradGradGradGradGradGradGradGradGradGrad
 Berny optimization.
 Internal  Forces:  Max     0.017277774 RMS     0.003184460
 Search for a local minimum.
 Step number   1 out of a maximum of  151
 All quantities printed in internal units (Hartrees-Bohrs-Radians)
 RMS Force = .31845D-02 SwitMx=.10000D-02 MixMth= 1
 Mixed Optimization -- RFO/linear search
 Second derivative matrix not updated -- first step.
     Eigenvalues ---    0.00265   0.00309   0.00339   0.01228   0.01348
     Eigenvalues ---    0.01348   0.02134   0.02139   0.02141   0.02141
     Eigenvalues ---    0.02144   0.02148   0.02151   0.02162   0.02165
     Eigenvalues ---    0.02169   0.04699   0.05317   0.05398   0.05415
     Eigenvalues ---    0.05464   0.05465   0.05467   0.05519   0.06716
     Eigenvalues ---    0.07252   0.09331   0.12771   0.14738   0.15834
     Eigenvalues ---    0.15998   0.15999   0.15999   0.16000   0.16000
     Eigenvalues ---    0.16000   0.16000   0.16000   0.16000   0.16000
     Eigenvalues ---    0.16000   0.16000   0.16000   0.16000   0.16067
     Eigenvalues ---    0.21995   0.21999   0.22103   0.23474   0.24992
     Eigenvalues ---    0.25000   0.25000   0.28707   0.29007   0.29211
     Eigenvalues ---    0.33952   0.34050   0.34091   0.34151   0.34171
     Eigenvalues ---    0.34173   0.34192   0.34193   0.34213   0.34325
     Eigenvalues ---    0.34409   0.34994   0.35121   0.35193   0.35207
     Eigenvalues ---    0.35226   0.40271   0.41573   0.41575   0.41971
     Eigenvalues ---    0.42326   0.46185   0.46311   0.46468   0.46614
     Eigenvalues ---    0.517411000.000001000.000001000.000001000.00000
     Eigenvalues --- 1000.000001000.000001000.000001000.000001000.00000
     Eigenvalues --- 1000.000001000.000001000.000001000.000001000.00000
     Eigenvalues --- 1000.000001000.000001000.000001000.000001000.00000
     Eigenvalues --- 1000.000001000.000001000.000001000.000001000.00000
     Eigenvalues --- 1000.000001000.000001000.000001000.000001000.00000
     Eigenvalues --- 1000.000001000.000001000.000001000.000001000.00000
     Eigenvalues --- 1000.000001000.000001000.000001000.000001000.00000
     Eigenvalues --- 1000.000001000.000001000.000001000.000001000.00000
     Eigenvalues --- 1000.000001000.000001000.000001000.000001000.00000
     Eigenvalues --- 1000.000001000.000001000.000001000.000001000.00000
     Eigenvalues --- 1000.000001000.000001000.000001000.000001000.00000
     Eigenvalues --- 1000.00000
 RFO step:  Lambda=-8.04068480D-03 EMin= 2.64782401D-03
 Linear search not attempted -- first point.
 Maximum step size (   0.300) exceeded in Quadratic search.
    -- Step size scaled by   0.969
 Iteration  1 RMS(Cart)=  0.10673278 RMS(Int)=  0.00293740
 Iteration  2 RMS(Cart)=  0.00717487 RMS(Int)=  0.00018603
 Iteration  3 RMS(Cart)=  0.00001971 RMS(Int)=  0.00018583
 Iteration  4 RMS(Cart)=  0.00000000 RMS(Int)=  0.00018583
 Variable       Old X    -DE/DX   Delta X   Delta X   Delta X     New X
                                 (Linear)    (Quad)   (Total)
    R1        2.89989   0.00162   0.00000   0.00527   0.00527   2.90515
    R2        2.06972   0.00084   0.00000   0.00233   0.00233   2.07205
    R3        2.07005  -0.00105   0.00000  -0.00291  -0.00291   2.06714
    R4        2.07076   0.00057   0.00000   0.00158   0.00158   2.07234
    R5        2.71187   0.00749   0.00000   0.01768   0.01768   2.72955
    R6        2.89565   0.00379   0.00000   0.01225   0.01225   2.90790
    R7        2.90618  -0.00093   0.00000  -0.00304  -0.00304   2.90314
    R8        2.69471  -0.01728   0.00000  -0.03952  -0.03952   2.65518
    R9        2.69468  -0.00923   0.00000  -0.02112  -0.02112   2.67356
   R10        2.06785   0.00023   0.00000   0.00062   0.00062   2.06847
   R11        2.07411  -0.00195   0.00000  -0.00543  -0.00543   2.06868
   R12        2.58148   0.00941   0.00000   0.01737   0.01737   2.59884
   R13        2.64063   0.00264   0.00000   0.00556   0.00554   2.64618
   R14        2.63687   0.00280   0.00000   0.00596   0.00595   2.64282
   R15        2.63678  -0.00167   0.00000  -0.00353  -0.00354   2.63324
   R16        2.05684  -0.00161   0.00000  -0.00436  -0.00436   2.05248
   R17        2.63341   0.00393   0.00000   0.00782   0.00783   2.64123
   R18        2.05310  -0.00001   0.00000  -0.00001  -0.00001   2.05309
   R19        2.63489   0.00077   0.00000   0.00148   0.00149   2.63638
   R20        2.05363   0.00008   0.00000   0.00020   0.00020   2.05383
   R21        2.63897   0.00123   0.00000   0.00263   0.00264   2.64162
   R22        2.05479  -0.00065   0.00000  -0.00176  -0.00176   2.05303
   R23        2.05340  -0.00116   0.00000  -0.00312  -0.00312   2.05028
   R24        2.06646  -0.00008   0.00000  -0.00022  -0.00022   2.06624
   R25        2.07008  -0.00038   0.00000  -0.00106  -0.00106   2.06902
   R26        2.07043   0.00034   0.00000   0.00095   0.00095   2.07137
   R27        2.07246  -0.00005   0.00000  -0.00013  -0.00013   2.07233
   R28        2.07039  -0.00115   0.00000  -0.00320  -0.00320   2.06719
   R29        2.07177  -0.00021   0.00000  -0.00057  -0.00057   2.07120
    A1        1.94737   0.00182   0.00000   0.01575   0.01569   1.96307
    A2        1.94460  -0.00353   0.00000  -0.02755  -0.02764   1.91696
    A3        1.93518  -0.00062   0.00000  -0.00165  -0.00190   1.93329
    A4        1.87224   0.00044   0.00000  -0.00099  -0.00089   1.87134
    A5        1.86791   0.00118   0.00000   0.02047   0.02028   1.88819
    A6        1.89335   0.00091   0.00000  -0.00461  -0.00489   1.88846
    A7        1.96858  -0.00075   0.00000  -0.01834  -0.01815   1.95043
    A8        1.93665  -0.00231   0.00000   0.00102   0.00041   1.93706
    A9        1.88888   0.00325   0.00000   0.02459   0.02410   1.91298
   A10        1.94454   0.00234   0.00000   0.00974   0.01003   1.95457
   A11        1.83198  -0.00444   0.00000  -0.04181  -0.04167   1.79030
   A12        1.88768   0.00204   0.00000   0.02538   0.02514   1.91282
   A13        2.05991   0.01095   0.00000   0.04114   0.04114   2.10105
   A14        2.01051   0.00434   0.00000   0.00842   0.00798   2.01849
   A15        1.92037   0.00472   0.00000   0.03997   0.04018   1.96055
   A16        1.88442  -0.00857   0.00000  -0.06283  -0.06330   1.82112
   A17        1.88433  -0.00767   0.00000  -0.03906  -0.03909   1.84525
   A18        1.92987  -0.00138   0.00000  -0.02050  -0.02129   1.90858
   A19        1.82554   0.00926   0.00000   0.08290   0.08332   1.90885
   A20        2.03777   0.00515   0.00000   0.01935   0.01935   2.05713
   A21        2.01175   0.00406   0.00000   0.01483   0.01485   2.02660
   A22        2.18863  -0.00653   0.00000  -0.02496  -0.02494   2.16369
   A23        2.08253   0.00247   0.00000   0.01014   0.01010   2.09263
   A24        2.10492  -0.00214   0.00000  -0.00874  -0.00880   2.09612
   A25        2.09026  -0.00198   0.00000  -0.01321  -0.01319   2.07707
   A26        2.08793   0.00413   0.00000   0.02203   0.02205   2.10998
   A27        2.09125   0.00220   0.00000   0.00909   0.00905   2.10030
   A28        2.09592  -0.00213   0.00000  -0.01050  -0.01049   2.08544
   A29        2.09601  -0.00007   0.00000   0.00141   0.00142   2.09743
   A30        2.09107  -0.00196   0.00000  -0.00864  -0.00865   2.08242
   A31        2.09667   0.00101   0.00000   0.00450   0.00450   2.10117
   A32        2.09541   0.00095   0.00000   0.00416   0.00417   2.09958
   A33        2.09949   0.00223   0.00000   0.00979   0.00978   2.10927
   A34        2.09343   0.00000   0.00000   0.00153   0.00151   2.09494
   A35        2.09025  -0.00223   0.00000  -0.01136  -0.01137   2.07888
   A36        2.09621  -0.00277   0.00000  -0.01088  -0.01092   2.08529
   A37        2.11822  -0.00207   0.00000  -0.01459  -0.01460   2.10362
   A38        2.06868   0.00484   0.00000   0.02531   0.02528   2.09396
   A39        1.95155   0.00010   0.00000   0.00570   0.00575   1.95729
   A40        1.93372  -0.00122   0.00000  -0.00959  -0.00974   1.92398
   A41        1.94473  -0.00322   0.00000  -0.02115  -0.02128   1.92344
   A42        1.87036   0.00125   0.00000   0.01211   0.01214   1.88249
   A43        1.86625   0.00230   0.00000   0.01802   0.01808   1.88434
   A44        1.89394   0.00111   0.00000  -0.00323  -0.00356   1.89038
   A45        1.93466  -0.00041   0.00000   0.00087   0.00085   1.93551
   A46        1.95170  -0.00299   0.00000  -0.02179  -0.02192   1.92978
   A47        1.93573  -0.00127   0.00000  -0.00612  -0.00622   1.92951
   A48        1.88868   0.00149   0.00000   0.00621   0.00616   1.89483
   A49        1.85818   0.00202   0.00000   0.02053   0.02053   1.87871
   A50        1.89160   0.00151   0.00000   0.00266   0.00246   1.89406
    D1       -1.21693  -0.00243   0.00000  -0.02714  -0.02730  -1.24422
    D2        0.97883  -0.00174   0.00000  -0.02757  -0.02762   0.95120
    D3        3.04738   0.00140   0.00000   0.01909   0.01908   3.06646
    D4        2.97409  -0.00183   0.00000  -0.01781  -0.01779   2.95630
    D5       -1.11334  -0.00113   0.00000  -0.01824  -0.01812  -1.13145
    D6        0.95522   0.00201   0.00000   0.02842   0.02858   0.98380
    D7        0.86341  -0.00017   0.00000   0.00792   0.00781   0.87122
    D8        3.05916   0.00053   0.00000   0.00749   0.00749   3.06665
    D9       -1.15547   0.00367   0.00000   0.05415   0.05419  -1.10128
   D10        0.91500  -0.00178   0.00000  -0.04309  -0.04352   0.87148
   D11       -1.27649   0.00004   0.00000  -0.03786  -0.03780  -1.31430
   D12        2.96769  -0.00098   0.00000  -0.04873  -0.04836   2.91933
   D13       -0.93834   0.00149   0.00000   0.00957   0.00955  -0.92879
[...]
 Octapole moment (field-independent basis, Debye-Ang**2):
  XXX=             18.8252  YYY=             -1.6357  ZZZ=             -8.9884  XYY=              1.0951
  XXY=              3.1401  XXZ=             11.3282  XZZ=             13.9522  YZZ=             -3.2294
  YYZ=             -2.4375  XYZ=              4.5302
 Hexadecapole moment (field-independent basis, Debye-Ang**3):
 XXXX=          -3187.9400 YYYY=           -560.5167 ZZZZ=           -364.3362 XXXY=            -18.3171
 XXXZ=            -29.1367 YYYX=             -2.7232 YYYZ=             -6.5271 ZZZX=             -1.0611
 ZZZY=              5.9341 XXYY=           -631.8068 XXZZ=           -632.5059 YYZZ=           -157.8831
 XXYZ=             -8.0986 YYXZ=             -7.9780 ZZXY=              4.3972
 N-N= 8.082006507059D+02 E-N=-2.962684738256D+03  KE= 5.739869203007D+02
 No NMR shielding tensors so no spin-rotation constants.
 Leave Link  601 at Wed Sep 29 17:53:55 2021, MaxMem= 1073741824 cpu:       1.3
 (Enter /sw/target/amd/app/gaussian/Gaussian09RevA.02_gcc-4.9.2/g09/l604.exe)
 Evaluate density.
 Using the total density.
 Monte-Carlo method of calculating molar volume:
 based on  0.001 e/bohr**3 density envelope.
 Number of points per bohr**3 =   20 CutOff= 1.00D-04
 Using the CI density.
 There are       417 points.  Will hold       417 in memory.
 LenV=  1073593741 MDV=  1073741824.
 Box volume = 9065.196 fraction occupied=0.151
 Integrated density= 6.3545963038389957D+01 error=-3.4454036961610043D+01
 Molar volume = 1369.562 bohr**3/mol (122.218 cm**3/mol)
 Recommended a0 for SCRF calculation =  4.51 angstrom (  8.53 bohr)
 Leave Link  604 at Wed Sep 29 17:53:56 2021, MaxMem= 1073741824 cpu:       0.3
 (Enter /sw/target/amd/app/gaussian/Gaussian09RevA.02_gcc-4.9.2/g09/l607.exe)
 ******************************Gaussian NBO Version 3.1******************************
             N A T U R A L   A T O M I C   O R B I T A L   A N D
          N A T U R A L   B O N D   O R B I T A L   A N A L Y S I S
 ******************************Gaussian NBO Version 3.1******************************
       /RESON  / : Allow strongly delocalized NBO set

 Analyzing the CI density

 Job title: CC(OCOc1ccccc1)(C)C_conf_0                                      

 Storage needed:    157366 in NPA (1073737329 available)


 NATURAL POPULATIONS:  Natural atomic orbital occupancies 
                                                          
   NAO  Atom  No  lang   Type(AO)    Occupancy
 --------------------------------------------
     1    C    1  S      Cor( 1S)     1.99933
     2    C    1  S      Val( 2S)     1.09995
     3    C    1  S      Ryd( 3S)     0.00059
     4    C    1  S      Ryd( 4S)     0.00001
     5    C    1  px     Val( 2p)     1.15535
     6    C    1  px     Ryd( 3p)     0.00148
     7    C    1  py     Val( 2p)     1.22096
     8    C    1  py     Ryd( 3p)     0.00222
     9    C    1  pz     Val( 2p)     1.21501
    10    C    1  pz     Ryd( 3p)     0.00179
    11    C    1  dxy    Ryd( 3d)     0.00036
    12    C    1  dxz    Ryd( 3d)     0.00096
    13    C    1  dyz    Ryd( 3d)     0.00079
    14    C    1  dx2y2  Ryd( 3d)     0.00084
    15    C    1  dz2    Ryd( 3d)     0.00036

    16    C    2  S      Cor( 1S)     1.99903
    17    C    2  S      Val( 2S)     0.89814
    18    C    2  S      Ryd( 3S)     0.00099
    19    C    2  S      Ryd( 4S)     0.00004
    20    C    2  px     Val( 2p)     0.83970
    21    C    2  px     Ryd( 3p)     0.00363
    22    C    2  py     Val( 2p)     1.05132
    23    C    2  py     Ryd( 3p)     0.00493
    24    C    2  pz     Val( 2p)     0.91188
    25    C    2  pz     Ryd( 3p)     0.00339
    26    C    2  dxy    Ryd( 3d)     0.00104
    27    C    2  dxz    Ryd( 3d)     0.00181
    28    C    2  dyz    Ryd( 3d)     0.00107
    29    C    2  dx2y2  Ryd( 3d)     0.00134
    30    C    2  dz2    Ryd( 3d)     0.00120

    31    O    3  S      Cor( 1S)     1.99976
    32    O    3  S      Val( 2S)     1.61463
    33    O    3  S      Ryd( 3S)     0.00207
    34    O    3  S      Ryd( 4S)     0.00007
    35    O    3  px     Val( 2p)     1.60246
    36    O    3  px     Ryd( 3p)     0.00187
    37    O    3  py     Val( 2p)     1.66745
    38    O    3  py     Ryd( 3p)     0.00198
    39    O    3  pz     Val( 2p)     1.70225
    40    O    3  pz     Ryd( 3p)     0.00178
    41    O    3  dxy    Ryd( 3d)     0.00138
    42    O    3  dxz    Ryd( 3d)     0.00067
    43    O    3  dyz    Ryd( 3d)     0.00139
    44    O    3  dx2y2  Ryd( 3d)     0.00113
    45    O    3  dz2    Ryd( 3d)     0.00054

    46    C    4  S      Cor( 1S)     1.99939
    47    C    4  S      Val( 2S)     0.99507
    48    C    4  S      Ryd( 3S)     0.00271
    49    C    4  S      Ryd( 4S)     0.00010
    50    C    4  px     Val( 2p)     0.89617
    51    C    4  px     Ryd( 3p)     0.00583
    52    C    4  py     Val( 2p)     0.93620
    53    C    4  py     Ryd( 3p)     0.00842
    54    C    4  pz     Val( 2p)     0.94787
    55    C    4  pz     Ryd( 3p)     0.00264
    56    C    4  dxy    Ryd( 3d)     0.00272
    57    C    4  dxz    Ryd( 3d)     0.00216
    58    C    4  dyz    Ryd( 3d)     0.00193
    59    C    4  dx2y2  Ryd( 3d)     0.00173
    60    C    4  dz2    Ryd( 3d)     0.00193

    61    O    5  S      Cor( 1S)     1.99975
    62    O    5  S      Val( 2S)     1.60770
    63    O    5  S      Ryd( 3S)     0.00117
    64    O    5  S      Ryd( 4S)     0.00011
    65    O    5  px     Val( 2p)     1.45106
    66    O    5  px     Ryd( 3p)     0.00123
    67    O    5  py     Val( 2p)     1.75836
    68    O    5  py     Ryd( 3p)     0.00221
    69    O    5  pz     Val( 2p)     1.64445
    70    O    5  pz     Ryd( 3p)     0.00179
    71    O    5  dxy    Ryd( 3d)     0.00115
    72    O    5  dxz    Ryd( 3d)     0.00081
    73    O    5  dyz    Ryd( 3d)     0.00143
    74    O    5  dx2y2  Ryd( 3d)     0.00110
    75    O    5  dz2    Ryd( 3d)     0.00087

    76    C    6  S      Cor( 1S)     1.99879
    77    C    6  S      Val( 2S)     0.84722
    78    C    6  S      Ryd( 3S)     0.00152
    79    C    6  S      Ryd( 4S)     0.00012
    80    C    6  px     Val( 2p)     0.81472
    81    C    6  px     Ryd( 3p)     0.00511
    82    C    6  py     Val( 2p)     1.00027
    83    C    6  py     Ryd( 3p)     0.00750
    84    C    6  pz     Val( 2p)     0.99250
    85    C    6  pz     Ryd( 3p)     0.00290
    86    C    6  dxy    Ryd( 3d)     0.00175
    87    C    6  dxz    Ryd( 3d)     0.00121
    88    C    6  dyz    Ryd( 3d)     0.00122
    89    C    6  dx2y2  Ryd( 3d)     0.00147
    90    C    6  dz2    Ryd( 3d)     0.00091

    91    C    7  S      Cor( 1S)     1.99906
    92    C    7  S      Val( 2S)     0.96367
    93    C    7  S      Ryd( 3S)     0.00081
    94    C    7  S      Ryd( 4S)     0.00004
    95    C    7  px     Val( 2p)     1.05882
    96    C    7  px     Ryd( 3p)     0.00553
    97    C    7  py     Val( 2p)     1.18308
    98    C    7  py     Ryd( 3p)     0.00444
    99    C    7  pz     Val( 2p)     1.07739
   100    C    7  pz     Ryd( 3p)     0.00626
   101    C    7  dxy    Ryd( 3d)     0.00068
   102    C    7  dxz    Ryd( 3d)     0.00061
   103    C    7  dyz    Ryd( 3d)     0.00045
   104    C    7  dx2y2  Ryd( 3d)     0.00068
   105    C    7  dz2    Ryd( 3d)     0.00050

   106    C    8  S      Cor( 1S)     1.99915
   107    C    8  S      Val( 2S)     0.96200
   108    C    8  S      Ryd( 3S)     0.00058
   109    C    8  S      Ryd( 4S)     0.00004
   110    C    8  px     Val( 2p)     1.13240
   111    C    8  px     Ryd( 3p)     0.00494
   112    C    8  py     Val( 2p)     1.09087
   113    C    8  py     Ryd( 3p)     0.00522
   114    C    8  pz     Val( 2p)     1.08246
   115    C    8  pz     Ryd( 3p)     0.00533
   116    C    8  dxy    Ryd( 3d)     0.00071
   117    C    8  dxz    Ryd( 3d)     0.00059
   118    C    8  dyz    Ryd( 3d)     0.00057
   119    C    8  dx2y2  Ryd( 3d)     0.00066
   120    C    8  dz2    Ryd( 3d)     0.00040

   121    C    9  S      Cor( 1S)     1.99912
   122    C    9  S      Val( 2S)     0.97429
   123    C    9  S      Ryd( 3S)     0.00053
   124    C    9  S      Ryd( 4S)     0.00003
   125    C    9  px     Val( 2p)     1.15016
   126    C    9  px     Ryd( 3p)     0.00449
   127    C    9  py     Val( 2p)     1.07598
   128    C    9  py     Ryd( 3p)     0.00461
   129    C    9  pz     Val( 2p)     0.95281
   130    C    9  pz     Ryd( 3p)     0.00310
   131    C    9  dxy    Ryd( 3d)     0.00086
   132    C    9  dxz    Ryd( 3d)     0.00043
   133    C    9  dyz    Ryd( 3d)     0.00069
   134    C    9  dx2y2  Ryd( 3d)     0.00071
   135    C    9  dz2    Ryd( 3d)     0.00063

   136    C   10  S      Cor( 1S)     1.99915
   137    C   10  S      Val( 2S)     0.96111
   138    C   10  S      Ryd( 3S)     0.00068
   139    C   10  S      Ryd( 4S)     0.00004
   140    C   10  px     Val( 2p)     1.05117
   141    C   10  px     Ryd( 3p)     0.00542
   142    C   10  py     Val( 2p)     1.18092
   143    C   10  py     Ryd( 3p)     0.00492
   144    C   10  pz     Val( 2p)     1.06997
   145    C   10  pz     Ryd( 3p)     0.00553
   146    C   10  dxy    Ryd( 3d)     0.00062
   147    C   10  dxz    Ryd( 3d)     0.00058
   148    C   10  dyz    Ryd( 3d)     0.00044
   149    C   10  dx2y2  Ryd( 3d)     0.00078
   150    C   10  dz2    Ryd( 3d)     0.00048

   151    C   11  S      Cor( 1S)     1.99905
   152    C   11  S      Val( 2S)     0.96626
   153    C   11  S      Ryd( 3S)     0.00072
   154    C   11  S      Ryd( 4S)     0.00005
   155    C   11  px     Val( 2p)     1.15354
   156    C   11  px     Ryd( 3p)     0.00389
   157    C   11  py     Val( 2p)     1.09364
   158    C   11  py     Ryd( 3p)     0.00477
   159    C   11  pz     Val( 2p)     1.09741
   160    C   11  pz     Ryd( 3p)     0.00594
   161    C   11  dxy    Ryd( 3d)     0.00060
   162    C   11  dxz    Ryd( 3d)     0.00058
   163    C   11  dyz    Ryd( 3d)     0.00059
   164    C   11  dx2y2  Ryd( 3d)     0.00074
   165    C   11  dz2    Ryd( 3d)     0.00042

   166    C   12  S      Cor( 1S)     1.99933
   167    C   12  S      Val( 2S)     1.10068
   168    C   12  S      Ryd( 3S)     0.00055
   169    C   12  S      Ryd( 4S)     0.00002
   170    C   12  px     Val( 2p)     1.24126
   171    C   12  px     Ryd( 3p)     0.00194
   172    C   12  py     Val( 2p)     1.20370
   173    C   12  py     Ryd( 3p)     0.00220
   174    C   12  pz     Val( 2p)     1.14788
   175    C   12  pz     Ryd( 3p)     0.00176
   176    C   12  dxy    Ryd( 3d)     0.00047
   177    C   12  dxz    Ryd( 3d)     0.00109
   178    C   12  dyz    Ryd( 3d)     0.00058
   179    C   12  dx2y2  Ryd( 3d)     0.00083
   180    C   12  dz2    Ryd( 3d)     0.00035

   181    C   13  S      Cor( 1S)     1.99933
   182    C   13  S      Val( 2S)     1.09895
   183    C   13  S      Ryd( 3S)     0.00065
   184    C   13  S      Ryd( 4S)     0.00002
   185    C   13  px     Val( 2p)     1.23785
   186    C   13  px     Ryd( 3p)     0.00241
   187    C   13  py     Val( 2p)     1.10277
   188    C   13  py     Ryd( 3p)     0.00169
   189    C   13  pz     Val( 2p)     1.23386
   190    C   13  pz     Ryd( 3p)     0.00229
   191    C   13  dxy    Ryd( 3d)     0.00051
   192    C   13  dxz    Ryd( 3d)     0.00103
   193    C   13  dyz    Ryd( 3d)     0.00083
   194    C   13  dx2y2  Ryd( 3d)     0.00066
   195    C   13  dz2    Ryd( 3d)     0.00027

   196    H   14  S      Val( 1S)     0.77091
   197    H   14  S      Ryd( 2S)     0.00077

   198    H   15  S      Val( 1S)     0.75865
   199    H   15  S      Ryd( 2S)     0.00084

   200    H   16  S      Val( 1S)     0.75849
   201    H   16  S      Ryd( 2S)     0.00136

   202    H   17  S      Val( 1S)     0.79584
   203    H   17  S      Ryd( 2S)     0.00174

   204    H   18  S      Val( 1S)     0.78049
   205    H   18  S      Ryd( 2S)     0.00285

   206    H   19  S      Val( 1S)     0.76405
   207    H   19  S      Ryd( 2S)     0.00130

   208    H   20  S      Val( 1S)     0.77105
   209    H   20  S      Ryd( 2S)     0.00085

   210    H   21  S      Val( 1S)     0.77050
   211    H   21  S      Ryd( 2S)     0.00086

   212    H   22  S      Val( 1S)     0.77123
   213    H   22  S      Ryd( 2S)     0.00087

   214    H   23  S      Val( 1S)     0.75562
   215    H   23  S      Ryd( 2S)     0.00185

   216    H   24  S      Val( 1S)     0.76073
   217    H   24  S      Ryd( 2S)     0.00114

   218    H   25  S      Val( 1S)     0.75197
   219    H   25  S      Ryd( 2S)     0.00133

   220    H   26  S      Val( 1S)     0.76317
   221    H   26  S      Ryd( 2S)     0.00098

   222    H   27  S      Val( 1S)     0.75925
   223    H   27  S      Ryd( 2S)     0.00118

   224    H   28  S      Val( 1S)     0.76617
   225    H   28  S      Ryd( 2S)     0.00072

   226    H   29  S      Val( 1S)     0.75566
   227    H   29  S      Ryd( 2S)     0.00132

 WARNING:  1 low occupancy (<1.9990e) core orbital  found on  C    6


 Summary of Natural Population Analysis:                  
                                                          
                                       Natural Population 
                Natural  -----------------------------------------------
    Atom  No    Charge         Core      Valence    Rydberg      Total
 -----------------------------------------------------------------------
      C    1   -0.70002      1.99933     4.69127    0.00941     6.70002
      C    2    0.28050      1.99903     3.70104    0.01944     5.71950
      O    3   -0.59941      1.99976     6.58678    0.01288     8.59941
      C    4    0.19514      1.99939     3.77531    0.03017     5.80486
      O    5   -0.47318      1.99975     6.46157    0.01186     8.47318
      C    6    0.32280      1.99879     3.65471    0.02369     5.67720
      C    7   -0.30201      1.99906     4.28295    0.02000     6.30201
      C    8   -0.28591      1.99915     4.26773    0.01903     6.28591
      C    9   -0.16845      1.99912     4.15324    0.01608     6.16845
      C   10   -0.28180      1.99915     4.26316    0.01949     6.28180
      C   11   -0.32818      1.99905     4.31085    0.01829     6.32818
      C   12   -0.70264      1.99933     4.69351    0.00979     6.70264
      C   13   -0.68311      1.99933     4.67342    0.01037     6.68311
      H   14    0.22832      0.00000     0.77091    0.00077     0.77168
      H   15    0.24051      0.00000     0.75865    0.00084     0.75949
      H   16    0.24016      0.00000     0.75849    0.00136     0.75984
      H   17    0.20242      0.00000     0.79584    0.00174     0.79758
      H   18    0.21667      0.00000     0.78049    0.00285     0.78333
      H   19    0.23466      0.00000     0.76405    0.00130     0.76534
      H   20    0.22810      0.00000     0.77105    0.00085     0.77190
      H   21    0.22864      0.00000     0.77050    0.00086     0.77136
      H   22    0.22790      0.00000     0.77123    0.00087     0.77210
      H   23    0.24253      0.00000     0.75562    0.00185     0.75747
      H   24    0.23813      0.00000     0.76073    0.00114     0.76187
      H   25    0.24670      0.00000     0.75197    0.00133     0.75330
      H   26    0.23585      0.00000     0.76317    0.00098     0.76415
      H   27    0.23957      0.00000     0.75925    0.00118     0.76043
      H   28    0.23310      0.00000     0.76617    0.00072     0.76690
      H   29    0.24302      0.00000     0.75566    0.00132     0.75698
 =======================================================================
   * Total *    0.00000     25.99023    71.76930    0.24046    98.00000

                                 Natural Population      
 --------------------------------------------------------
   Core                      25.99023 ( 99.9624% of  26)
   Valence                   71.76930 ( 99.6796% of  72)
   Natural Minimal Basis     97.75954 ( 99.7546% of  98)
   Natural Rydberg Basis      0.24046 (  0.2454% of  98)
 --------------------------------------------------------

    Atom  No          Natural Electron Configuration
 ----------------------------------------------------------------------------
      C    1      [core]2S( 1.10)2p( 3.59)3p( 0.01)
      C    2      [core]2S( 0.90)2p( 2.80)3p( 0.01)3d( 0.01)
      O    3      [core]2S( 1.61)2p( 4.97)3p( 0.01)3d( 0.01)
      C    4      [core]2S( 1.00)2p( 2.78)3p( 0.02)3d( 0.01)
      O    5      [core]2S( 1.61)2p( 4.85)3p( 0.01)3d( 0.01)
      C    6      [core]2S( 0.85)2p( 2.81)3p( 0.02)3d( 0.01)
      C    7      [core]2S( 0.96)2p( 3.32)3p( 0.02)
      C    8      [core]2S( 0.96)2p( 3.31)3p( 0.02)
      C    9      [core]2S( 0.97)2p( 3.18)3p( 0.01)
      C   10      [core]2S( 0.96)2p( 3.30)3p( 0.02)
      C   11      [core]2S( 0.97)2p( 3.34)3p( 0.01)
      C   12      [core]2S( 1.10)2p( 3.59)3p( 0.01)
      C   13      [core]2S( 1.10)2p( 3.57)3p( 0.01)
      H   14            1S( 0.77)
      H   15            1S( 0.76)
      H   16            1S( 0.76)
      H   17            1S( 0.80)
      H   18            1S( 0.78)
      H   19            1S( 0.76)
      H   20            1S( 0.77)
      H   21            1S( 0.77)
      H   22            1S( 0.77)
      H   23            1S( 0.76)
      H   24            1S( 0.76)
      H   25            1S( 0.75)
      H   26            1S( 0.76)
      H   27            1S( 0.76)
      H   28            1S( 0.77)
      H   29            1S( 0.76)


 NBO analysis skipped by request.
 Leave Link  607 at Wed Sep 29 17:54:20 2021, MaxMem= 1073741824 cpu:      15.6
 (Enter /sw/target/amd/app/gaussian/Gaussian09RevA.02_gcc-4.9.2/g09/l9999.exe)
 1\1\GINC-HERMITE\SP\RTD-B3LYP-FC\6-31G(d)\C11H16O2\JSCHLEINITZ\29-Sep-
 2021\0\\#p TD(NStates=10, Root=1) b3lyp/6-31G* volume pop=NPA density=
 current Geom=AllCheck Guess=Read\\CC(OCOc1ccccc1)(C)C_conf_0\\0,1\C,0,
 1.7949376693,-4.8698761111,-1.5018579404\C,0,3.0931017362,-4.742654982
 5,-0.6904604606\O,0,3.1982144846,-3.398463506,-0.1370748897\C,0,2.3140
 708401,-2.9966130089,0.8627360892\O,0,2.6675132798,-3.4121188366,2.175
 3994173\C,0,3.7120252195,-2.7805599509,2.8095216023\C,0,3.7745556433,-
 2.9605118278,4.1972783918\C,0,4.7926482587,-2.3584617619,4.9310224285\
 C,0,5.7539405615,-1.5685679481,4.2932565044\C,0,5.688237464,-1.3991558
 791,2.9110145053\C,0,4.6784459604,-2.0048026311,2.1578006873\C,0,3.174
 1665705,-5.8156279042,0.4040725555\C,0,4.3095624974,-4.8303061,-1.6167
 996126\H,0,0.9039665283,-4.8146259739,-0.8667018375\H,0,1.764071864,-5
 .83573159,-2.0181236064\H,0,1.7346545541,-4.0750249768,-2.2527242768\H
 ,0,1.307260516,-3.400246913,0.718779263\H,0,2.2904877419,-1.9016867653
 ,0.8220363075\H,0,3.0134633625,-3.5681544219,4.6771958061\H,0,4.831121
 313,-2.5020391006,6.0078093781\H,0,6.5460465978,-1.0967415085,4.867619
 5139\H,0,6.4362302994,-0.7974719092,2.4007906413\H,0,4.6634142716,-1.9
 02299283,1.0794502122\H,0,2.3183308885,-5.7723007593,1.0837933955\H,0,
 4.0836412512,-5.6897573613,0.9989060779\H,0,3.193172928,-6.8107625133,
 -0.0552030569\H,0,4.2684789018,-4.0434804446,-2.3770153167\H,0,4.34146
 07453,-5.801959543,-2.121164996\H,0,5.2331145561,-4.7050637992,-1.0427
 394943\\Version=AM64L-G09RevA.02\State=1-A\HF=-579.246961\RMSD=5.321e-
 09\Dipole=-0.5043658,-0.408542,-0.7628186\Quadrupole=0.6592831,-0.6570
 721,-0.0022109,1.2954446,1.6765187,1.3955795\PG=C01 [X(C11H16O2)]\\@


 I DO NOT KNOW WHAT I MAY APPEAR TO THE WORLD; BUT TO MYSELF
 I SEEM TO HAVE BEEN ONLY LIKE A BOY PLAYING ON THE SEASHORE,
 AND DIVERTING MYSELF IN NOW AND THEN FINDING A SMOOTHER PEBBLE
 OR A PRETTIER SHELL THAN ORDINARY, WHILST THE GREAT OCEAN OF
 TRUTH LAY ALL UNDISCOVERED BEFORE ME.
                                          -- NEWTON (1642-1726)
 Job cpu time:  0 days  2 hours 56 minutes 14.0 seconds.
 File lengths (MBytes):  RWF=    177 Int=      0 D2E=      0 Chk=     24 Scr=      1
 Normal termination of Gaussian 09 at Wed Sep 29 17:54:25 2021.
