 Entering Gaussian System, Link 0=g09
 Input=C11H22N2_dfe3_conf_0.com
 Output=C11H22N2_dfe3_conf_0.log
 Initial command:
 /sw/target/amd/app/gaussian/Gaussian09RevA.02_gcc-4.9.2/g09/l1.exe /home/jschleinitz/gaussian/Gau-2054042.inp -scrdir=/home/jschleinitz/gaussian/
 Entering Link 1 = /sw/target/amd/app/gaussian/Gaussian09RevA.02_gcc-4.9.2/g09/l1.exe PID=   2054059.
  
 Copyright (c) 1988,1990,1992,1993,1995,1998,2003,2009, Gaussian, Inc.
                  All Rights Reserved.
  
 This is part of the Gaussian(R) 09 program.  It is based on
 the Gaussian(R) 03 system (copyright 2003, Gaussian, Inc.),
 the Gaussian(R) 98 system (copyright 1998, Gaussian, Inc.),
 the Gaussian(R) 94 system (copyright 1995, Gaussian, Inc.),
 the Gaussian 92(TM) system (copyright 1992, Gaussian, Inc.),
 the Gaussian 90(TM) system (copyright 1990, Gaussian, Inc.),
 the Gaussian 88(TM) system (copyright 1988, Gaussian, Inc.),
 the Gaussian 86(TM) system (copyright 1986, Carnegie Mellon
 University), and the Gaussian 82(TM) system (copyright 1983,
 Carnegie Mellon University). Gaussian is a federally registered
 trademark of Gaussian, Inc.
  
 This software contains proprietary and confidential information,
 including trade secrets, belonging to Gaussian, Inc.
  
 This software is provided under written license and may be
 used, copied, transmitted, or stored only in accord with that
 written license.
  
 The following legend is applicable only to US Government
 contracts under FAR:
  
                    RESTRICTED RIGHTS LEGEND
  
 Use, reproduction and disclosure by the US Government is
 subject to restrictions as set forth in subparagraphs (a)
 and (c) of the Commercial Computer Software - Restricted
 Rights clause in FAR 52.227-19.
  
 Gaussian, Inc.
 340 Quinnipiac St., Bldg. 40, Wallingford CT 06492
  
  
 ---------------------------------------------------------------
 Warning -- This program may not be used in any manner that
 competes with the business of Gaussian, Inc. or will provide
 assistance to any competitor of Gaussian, Inc.  The licensee
 of this program is prohibited from giving any competitor of
 Gaussian, Inc. access to this program.  By using this program,
 the user acknowledges that Gaussian, Inc. is engaged in the
 business of creating and licensing software in the field of
 computational chemistry and represents and warrants to the
 licensee that it is not a competitor of Gaussian, Inc. and that
 it will not use this program in any manner prohibited above.
 ---------------------------------------------------------------
  

 Cite this work as:
 Gaussian 09, Revision A.02,
 M. J. Frisch, G. W. Trucks, H. B. Schlegel, G. E. Scuseria, 
 M. A. Robb, J. R. Cheeseman, G. Scalmani, V. Barone, B. Mennucci, 
 G. A. Petersson, H. Nakatsuji, M. Caricato, X. Li, H. P. Hratchian, 
 A. F. Izmaylov, J. Bloino, G. Zheng, J. L. Sonnenberg, M. Hada, 
 M. Ehara, K. Toyota, R. Fukuda, J. Hasegawa, M. Ishida, T. Nakajima, 
 Y. Honda, O. Kitao, H. Nakai, T. Vreven, J. A. Montgomery, Jr., 
 J. E. Peralta, F. Ogliaro, M. Bearpark, J. J. Heyd, E. Brothers, 
 K. N. Kudin, V. N. Staroverov, R. Kobayashi, J. Normand, 
 K. Raghavachari, A. Rendell, J. C. Burant, S. S. Iyengar, J. Tomasi, 
 M. Cossi, N. Rega, J. M. Millam, M. Klene, J. E. Knox, J. B. Cross, 
 V. Bakken, C. Adamo, J. Jaramillo, R. Gomperts, R. E. Stratmann, 
 O. Yazyev, A. J. Austin, R. Cammi, C. Pomelli, J. W. Ochterski, 
 R. L. Martin, K. Morokuma, V. G. Zakrzewski, G. A. Voth, 
 P. Salvador, J. J. Dannenberg, S. Dapprich, A. D. Daniels, 
 O. Farkas, J. B. Foresman, J. V. Ortiz, J. Cioslowski, 
 and D. J. Fox, Gaussian, Inc., Wallingford CT, 2009.
 
 ******************************************
 Gaussian 09:  AM64L-G09RevA.02 11-Jun-2009
                 1-Oct-2021 
 ******************************************
 %nproc=5
 Will use up to    5 processors via shared memory.
 %mem=10gb
 %chk=C11H22N2_dfe3_conf_0.chk
 -----------------------------------
 #p opt b3lyp/6-31G* scf=(xqc,tight)
 -----------------------------------
 1/14=-1,18=20,19=15,26=3,38=1/1,3;
 2/9=110,12=2,17=6,18=5,40=1/2;
 3/5=1,6=6,7=1,11=2,16=1,25=1,30=1,71=1,74=-5/1,2,3;
 4//1;
 5/5=2,8=3,13=1,32=2,38=5/2,8;
 6/7=2,8=2,9=2,10=2,28=1/1;
 7//1,2,3,16;
 1/14=-1,18=20,19=15/3(2);
 2/9=110/2;
 99//99;
 2/9=110/2;
 3/5=1,6=6,7=1,11=2,16=1,25=1,30=1,71=1,74=-5/1,2,3;
 4/5=5,16=3/1;
 5/5=2,8=3,13=1,32=2,38=5/2,8;
 7//1,2,3,16;
 1/14=-1,18=20,19=15/3(-5);
 2/9=110/2;
 6/7=2,8=2,9=2,10=2,19=2,28=1/1;
 99/9=1/99;
 Leave Link    1 at Fri Oct  1 18:35:29 2021, MaxMem= 1342177280 cpu:       0.1
 (Enter /sw/target/amd/app/gaussian/Gaussian09RevA.02_gcc-4.9.2/g09/l101.exe)
 ---------------------------------
 CC(N1C=CN(C1)C(C)(C)C)(C)C_conf_0
 ---------------------------------
 Symbolic Z-matrix:
 Charge =  0 Multiplicity = 1
 C                     1.15982  -0.19642   0.74142 
 C                     2.49127   0.04033   0.01293 
 N                     2.98211   1.39933   0.28237 
 C                     3.72279   1.83401   1.36989 
 C                     3.75289   3.17346   1.4031 
 N                     3.031     3.69507   0.34145 
 C                     2.41459   2.57659  -0.40848 
 C                     2.56319   5.07643   0.16664 
 C                     3.55353   6.07551   0.79692 
 C                     2.45926   5.41054  -1.33255 
 C                     1.19006   5.25409   0.8321 
 C                     3.51715  -1.00706   0.48924 
 C                     2.28664  -0.16377  -1.49936 
 H                     1.27716  -0.11159   1.82751 
 H                     0.76791  -1.1978    0.52651 
 H                     0.3969    0.5275    0.43585 
 H                     4.18573   1.15337   2.06584 
 H                     4.24585   3.79604   2.13109 
 H                     2.72865   2.59842  -1.45618 
 H                     1.32382   2.59328  -0.32737 
 H                     4.567     5.93214   0.40518 
 H                     3.59802   5.97047   1.88623 
 H                     3.25789   7.11076   0.58974 
 H                     3.41666   5.24417  -1.84003 
 H                     2.17592   6.45824  -1.48668 
 H                     1.70568   4.79492  -1.83689 
 H                     1.23607   5.0308    1.90372 
 H                     0.43631   4.59189   0.39228 
 H                     0.82728   6.28246   0.71924 
 H                     3.63716  -0.9929    1.57824 
 H                     4.50233  -0.82725   0.04394 
 H                     3.20524  -2.02185   0.21716 
 H                     1.52358   0.51086  -1.90266 
 H                     1.96     -1.18666  -1.71995 
 H                     3.2161    0.01758  -2.05107 
 
 NAtoms=     35 NQM=     35 NQMF=      0 NMic=      0 NMicF=      0 NTot=     35.
                    Isotopes and Nuclear Properties:
 (Nuclear quadrupole moments (NQMom) in fm**2, nuclear magnetic moments (NMagM)
  in nuclear magnetons)

  Atom         1           2           3           4           5           6           7           8           9          10
 IAtWgt=          12          12          14          12          12          14          12          12          12          12
 AtmWgt=  12.0000000  12.0000000  14.0030740  12.0000000  12.0000000  14.0030740  12.0000000  12.0000000  12.0000000  12.0000000
 NucSpn=           0           0           2           0           0           2           0           0           0           0
 AtZEff=   0.0000000   0.0000000   0.0000000   0.0000000   0.0000000   0.0000000   0.0000000   0.0000000   0.0000000   0.0000000
 NQMom=    0.0000000   0.0000000   2.0440000   0.0000000   0.0000000   2.0440000   0.0000000   0.0000000   0.0000000   0.0000000
 NMagM=    0.0000000   0.0000000   0.4037610   0.0000000   0.0000000   0.4037610   0.0000000   0.0000000   0.0000000   0.0000000

  Atom        11          12          13          14          15          16          17          18          19          20
 IAtWgt=          12          12          12           1           1           1           1           1           1           1
 AtmWgt=  12.0000000  12.0000000  12.0000000   1.0078250   1.0078250   1.0078250   1.0078250   1.0078250   1.0078250   1.0078250
 NucSpn=           0           0           0           1           1           1           1           1           1           1
 AtZEff=   0.0000000   0.0000000   0.0000000   0.0000000   0.0000000   0.0000000   0.0000000   0.0000000   0.0000000   0.0000000
 NQMom=    0.0000000   0.0000000   0.0000000   0.0000000   0.0000000   0.0000000   0.0000000   0.0000000   0.0000000   0.0000000
 NMagM=    0.0000000   0.0000000   0.0000000   2.7928460   2.7928460   2.7928460   2.7928460   2.7928460   2.7928460   2.7928460

  Atom        21          22          23          24          25          26          27          28          29          30
 IAtWgt=           1           1           1           1           1           1           1           1           1           1
 AtmWgt=   1.0078250   1.0078250   1.0078250   1.0078250   1.0078250   1.0078250   1.0078250   1.0078250   1.0078250   1.0078250
 NucSpn=           1           1           1           1           1           1           1           1           1           1
 AtZEff=   0.0000000   0.0000000   0.0000000   0.0000000   0.0000000   0.0000000   0.0000000   0.0000000   0.0000000   0.0000000
 NQMom=    0.0000000   0.0000000   0.0000000   0.0000000   0.0000000   0.0000000   0.0000000   0.0000000   0.0000000   0.0000000
 NMagM=    2.7928460   2.7928460   2.7928460   2.7928460   2.7928460   2.7928460   2.7928460   2.7928460   2.7928460   2.7928460

  Atom        31          32          33          34          35
 IAtWgt=           1           1           1           1           1
 AtmWgt=   1.0078250   1.0078250   1.0078250   1.0078250   1.0078250
 NucSpn=           1           1           1           1           1
 AtZEff=   0.0000000   0.0000000   0.0000000   0.0000000   0.0000000
 NQMom=    0.0000000   0.0000000   0.0000000   0.0000000   0.0000000
 NMagM=    2.7928460   2.7928460   2.7928460   2.7928460   2.7928460
 Leave Link  101 at Fri Oct  1 18:35:29 2021, MaxMem= 1342177280 cpu:       0.2
 (Enter /sw/target/amd/app/gaussian/Gaussian09RevA.02_gcc-4.9.2/g09/l103.exe)

 GradGradGradGradGradGradGradGradGradGradGradGradGradGradGradGradGradGrad
 Berny optimization.
 Initialization pass.
                           ----------------------------
                           !    Initial Parameters    !
                           ! (Angstroms and Degrees)  !
 --------------------------                            --------------------------
 ! Name  Definition              Value          Derivative Info.                !
 --------------------------------------------------------------------------------
 ! R1    R(1,2)                  1.5361         estimate D2E/DX2                !
 ! R2    R(1,14)                 1.0957         estimate D2E/DX2                !
 ! R3    R(1,15)                 1.0966         estimate D2E/DX2                !
 ! R4    R(1,16)                 1.0952         estimate D2E/DX2                !
 ! R5    R(2,3)                  1.4698         estimate D2E/DX2                !
 ! R6    R(2,12)                 1.5415         estimate D2E/DX2                !
 ! R7    R(2,13)                 1.5397         estimate D2E/DX2                !
 ! R8    R(3,4)                  1.3857         estimate D2E/DX2                !
 ! R9    R(3,7)                  1.4783         estimate D2E/DX2                !
 ! R10   R(4,5)                  1.3402         estimate D2E/DX2                !
 ! R11   R(4,17)                 1.0779         estimate D2E/DX2                !
 ! R12   R(5,6)                  1.3857         estimate D2E/DX2                !
 ! R13   R(5,18)                 1.0773         estimate D2E/DX2                !
 ! R14   R(6,7)                  1.481          estimate D2E/DX2                !
 ! R15   R(6,8)                  1.4689         estimate D2E/DX2                !
 ! R16   R(7,19)                 1.094          estimate D2E/DX2                !
 ! R17   R(7,20)                 1.0939         estimate D2E/DX2                !
 ! R18   R(8,9)                  1.5415         estimate D2E/DX2                !
 ! R19   R(8,10)                 1.5395         estimate D2E/DX2                !
 ! R20   R(8,11)                 1.5362         estimate D2E/DX2                !
 ! R21   R(9,21)                 1.096          estimate D2E/DX2                !
 ! R22   R(9,22)                 1.0953         estimate D2E/DX2                !
 ! R23   R(9,23)                 1.0964         estimate D2E/DX2                !
 ! R24   R(10,24)                1.0963         estimate D2E/DX2                !
 ! R25   R(10,25)                1.0962         estimate D2E/DX2                !
 ! R26   R(10,26)                1.096          estimate D2E/DX2                !
 ! R27   R(11,27)                1.0956         estimate D2E/DX2                !
 ! R28   R(11,28)                1.0955         estimate D2E/DX2                !
 ! R29   R(11,29)                1.0963         estimate D2E/DX2                !
 ! R30   R(12,30)                1.0957         estimate D2E/DX2                !
 ! R31   R(12,31)                1.096          estimate D2E/DX2                !
 ! R32   R(12,32)                1.0959         estimate D2E/DX2                !
 ! R33   R(13,33)                1.0955         estimate D2E/DX2                !
 ! R34   R(13,34)                1.0962         estimate D2E/DX2                !
 ! R35   R(13,35)                1.096          estimate D2E/DX2                !
 ! A1    A(2,1,14)             111.4283         estimate D2E/DX2                !
 ! A2    A(2,1,15)             110.9514         estimate D2E/DX2                !
 ! A3    A(2,1,16)             111.6915         estimate D2E/DX2                !
 ! A4    A(14,1,15)            107.6515         estimate D2E/DX2                !
 ! A5    A(14,1,16)            107.4567         estimate D2E/DX2                !
 ! A6    A(15,1,16)            107.4554         estimate D2E/DX2                !
 ! A7    A(1,2,3)              110.1831         estimate D2E/DX2                !
 ! A8    A(1,2,12)             109.001          estimate D2E/DX2                !
 ! A9    A(1,2,13)             109.2802         estimate D2E/DX2                !
 ! A10   A(3,2,12)             110.4468         estimate D2E/DX2                !
 ! A11   A(3,2,13)             110.3043         estimate D2E/DX2                !
 ! A12   A(12,2,13)            107.5702         estimate D2E/DX2                !
 ! A13   A(2,3,4)              127.7625         estimate D2E/DX2                !
 ! A14   A(2,3,7)              121.4975         estimate D2E/DX2                !
 ! A15   A(4,3,7)              108.7926         estimate D2E/DX2                !
 ! A16   A(3,4,5)              110.1794         estimate D2E/DX2                !
 ! A17   A(3,4,17)             122.5591         estimate D2E/DX2                !
 ! A18   A(5,4,17)             127.2607         estimate D2E/DX2                !
 ! A19   A(4,5,6)              110.2132         estimate D2E/DX2                !
 ! A20   A(4,5,18)             127.2001         estimate D2E/DX2                !
 ! A21   A(6,5,18)             122.5854         estimate D2E/DX2                !
 ! A22   A(5,6,7)              108.6927         estimate D2E/DX2                !
 ! A23   A(5,6,8)              127.667          estimate D2E/DX2                !
 ! A24   A(7,6,8)              121.1585         estimate D2E/DX2                !
 ! A25   A(3,7,6)              101.8303         estimate D2E/DX2                !
 ! A26   A(3,7,19)             110.6855         estimate D2E/DX2                !
 ! A27   A(3,7,20)             111.1188         estimate D2E/DX2                !
 ! A28   A(6,7,19)             110.5119         estimate D2E/DX2                !
 ! A29   A(6,7,20)             111.4662         estimate D2E/DX2                !
 ! A30   A(19,7,20)            110.9133         estimate D2E/DX2                !
 ! A31   A(6,8,9)              110.8695         estimate D2E/DX2                !
 ! A32   A(6,8,10)             109.9679         estimate D2E/DX2                !
 ! A33   A(6,8,11)             109.9917         estimate D2E/DX2                !
 ! A34   A(9,8,10)             107.5109         estimate D2E/DX2                !
 ! A35   A(9,8,11)             108.7954         estimate D2E/DX2                !
 ! A36   A(10,8,11)            109.6582         estimate D2E/DX2                !
 ! A37   A(8,9,21)             111.2945         estimate D2E/DX2                !
 ! A38   A(8,9,22)             111.7526         estimate D2E/DX2                !
 ! A39   A(8,9,23)             111.1912         estimate D2E/DX2                !
 ! A40   A(21,9,22)            107.7812         estimate D2E/DX2                !
 ! A41   A(21,9,23)            107.778          estimate D2E/DX2                !
 ! A42   A(22,9,23)            106.825          estimate D2E/DX2                !
 ! A43   A(8,10,24)            111.0327         estimate D2E/DX2                !
 ! A44   A(8,10,25)            111.21           estimate D2E/DX2                !
 ! A45   A(8,10,26)            111.8782         estimate D2E/DX2                !
 ! A46   A(24,10,25)           107.799          estimate D2E/DX2                !
 ! A47   A(24,10,26)           107.5906         estimate D2E/DX2                !
 ! A48   A(25,10,26)           107.1226         estimate D2E/DX2                !
 ! A49   A(8,11,27)            111.2597         estimate D2E/DX2                !
 ! A50   A(8,11,28)            111.7891         estimate D2E/DX2                !
 ! A51   A(8,11,29)            111.0799         estimate D2E/DX2                !
 ! A52   A(27,11,28)           107.3608         estimate D2E/DX2                !
 ! A53   A(27,11,29)           107.804          estimate D2E/DX2                !
 ! A54   A(28,11,29)           107.3387         estimate D2E/DX2                !
 ! A55   A(2,12,30)            111.7901         estimate D2E/DX2                !
 ! A56   A(2,12,31)            111.1737         estimate D2E/DX2                !
 ! A57   A(2,12,32)            111.2855         estimate D2E/DX2                !
 ! A58   A(30,12,31)           107.6524         estimate D2E/DX2                !
 ! A59   A(30,12,32)           106.8513         estimate D2E/DX2                !
 ! A60   A(31,12,32)           107.8709         estimate D2E/DX2                !
 ! A61   A(2,13,33)            111.8733         estimate D2E/DX2                !
 ! A62   A(2,13,34)            111.1589         estimate D2E/DX2                !
 ! A63   A(2,13,35)            111.0873         estimate D2E/DX2                !
 ! A64   A(33,13,34)           107.0385         estimate D2E/DX2                !
 ! A65   A(33,13,35)           107.6682         estimate D2E/DX2                !
 ! A66   A(34,13,35)           107.8065         estimate D2E/DX2                !
 ! D1    D(14,1,2,3)           -61.6341         estimate D2E/DX2                !
 ! D2    D(14,1,2,12)           59.713          estimate D2E/DX2                !
 ! D3    D(14,1,2,13)          177.016          estimate D2E/DX2                !
 ! D4    D(15,1,2,3)           178.4269         estimate D2E/DX2                !
 ! D5    D(15,1,2,12)          -60.226          estimate D2E/DX2                !
 ! D6    D(15,1,2,13)           57.077          estimate D2E/DX2                !
 ! D7    D(16,1,2,3)            58.5602         estimate D2E/DX2                !
 ! D8    D(16,1,2,12)          179.9073         estimate D2E/DX2                !
 ! D9    D(16,1,2,13)          -62.7897         estimate D2E/DX2                !
 ! D10   D(1,2,3,4)             84.4444         estimate D2E/DX2                !
 ! D11   D(1,2,3,7)            -77.8349         estimate D2E/DX2                !
 ! D12   D(12,2,3,4)           -36.0371         estimate D2E/DX2                !
 ! D13   D(12,2,3,7)           161.6836         estimate D2E/DX2                !
 ! D14   D(13,2,3,4)          -154.818          estimate D2E/DX2                !
 ! D15   D(13,2,3,7)            42.9026         estimate D2E/DX2                !
 ! D16   D(1,2,12,30)          -55.6572         estimate D2E/DX2                !
 ! D17   D(1,2,12,31)         -175.9931         estimate D2E/DX2                !
 ! D18   D(1,2,12,32)           63.7359         estimate D2E/DX2                !
 ! D19   D(3,2,12,30)           65.5291         estimate D2E/DX2                !
 ! D20   D(3,2,12,31)          -54.8068         estimate D2E/DX2                !
 ! D21   D(3,2,12,32)         -175.0778         estimate D2E/DX2                !
 ! D22   D(13,2,12,30)        -174.0389         estimate D2E/DX2                !
 ! D23   D(13,2,12,31)          65.6252         estimate D2E/DX2                !
 ! D24   D(13,2,12,32)         -54.6458         estimate D2E/DX2                !
 ! D25   D(1,2,13,33)           58.5321         estimate D2E/DX2                !
 ! D26   D(1,2,13,34)          -61.0686         estimate D2E/DX2                !
 ! D27   D(1,2,13,35)          178.8852         estimate D2E/DX2                !
 ! D28   D(3,2,13,33)          -62.7443         estimate D2E/DX2                !
 ! D29   D(3,2,13,34)          177.655          estimate D2E/DX2                !
 ! D30   D(3,2,13,35)           57.6088         estimate D2E/DX2                !
 ! D31   D(12,2,13,33)         176.7337         estimate D2E/DX2                !
 ! D32   D(12,2,13,34)          57.133          estimate D2E/DX2                !
 ! D33   D(12,2,13,35)         -62.9132         estimate D2E/DX2                !
 ! D34   D(2,3,4,5)           -167.655          estimate D2E/DX2                !
 ! D35   D(2,3,4,17)            12.0513         estimate D2E/DX2                !
 ! D36   D(7,3,4,5)             -3.5661         estimate D2E/DX2                !
 ! D37   D(7,3,4,17)           176.1402         estimate D2E/DX2                !
 ! D38   D(2,3,7,6)            170.4464         estimate D2E/DX2                !
 ! D39   D(2,3,7,19)           -72.0526         estimate D2E/DX2                !
 ! D40   D(2,3,7,20)            51.6486         estimate D2E/DX2                !
 ! D41   D(4,3,7,6)              5.1712         estimate D2E/DX2                !
 ! D42   D(4,3,7,19)           122.6722         estimate D2E/DX2                !
 ! D43   D(4,3,7,20)          -113.6266         estimate D2E/DX2                !
 ! D44   D(3,4,5,6)              0.1522         estimate D2E/DX2                !
 ! D45   D(3,4,5,18)           179.7388         estimate D2E/DX2                !
 ! D46   D(17,4,5,6)          -179.5367         estimate D2E/DX2                !
 ! D47   D(17,4,5,18)            0.0499         estimate D2E/DX2                !
 ! D48   D(4,5,6,7)              3.315          estimate D2E/DX2                !
 ! D49   D(4,5,6,8)            165.347          estimate D2E/DX2                !
 ! D50   D(18,5,6,7)          -176.2942         estimate D2E/DX2                !
 ! D51   D(18,5,6,8)           -14.2622         estimate D2E/DX2                !
 ! D52   D(5,6,7,3)             -5.0795         estimate D2E/DX2                !
 ! D53   D(5,6,7,19)          -122.7055         estimate D2E/DX2                !
 ! D54   D(5,6,7,20)           113.4707         estimate D2E/DX2                !
 ! D55   D(8,6,7,3)           -168.4994         estimate D2E/DX2                !
 ! D56   D(8,6,7,19)            73.8746         estimate D2E/DX2                !
 ! D57   D(8,6,7,20)           -49.9492         estimate D2E/DX2                !
 ! D58   D(5,6,8,9)             32.8084         estimate D2E/DX2                !
 ! D59   D(5,6,8,10)           151.5678         estimate D2E/DX2                !
 ! D60   D(5,6,8,11)           -87.5643         estimate D2E/DX2                !
 ! D61   D(7,6,8,9)           -167.1584         estimate D2E/DX2                !
 ! D62   D(7,6,8,10)           -48.3989         estimate D2E/DX2                !
 ! D63   D(7,6,8,11)            72.469          estimate D2E/DX2                !
 ! D64   D(6,8,9,21)            54.596          estimate D2E/DX2                !
 ! D65   D(6,8,9,22)           -65.9622         estimate D2E/DX2                !
 ! D66   D(6,8,9,23)           174.7671         estimate D2E/DX2                !
 ! D67   D(10,8,9,21)          -65.6371         estimate D2E/DX2                !
 ! D68   D(10,8,9,22)          173.8048         estimate D2E/DX2                !
 ! D69   D(10,8,9,23)           54.534          estimate D2E/DX2                !
 ! D70   D(11,8,9,21)          175.6772         estimate D2E/DX2                !
 ! D71   D(11,8,9,22)           55.1191         estimate D2E/DX2                !
 ! D72   D(11,8,9,23)          -64.1517         estimate D2E/DX2                !
 ! D73   D(6,8,10,24)          -56.1757         estimate D2E/DX2                !
 ! D74   D(6,8,10,25)         -176.2099         estimate D2E/DX2                !
 ! D75   D(6,8,10,26)           64.0443         estimate D2E/DX2                !
 ! D76   D(9,8,10,24)           64.6268         estimate D2E/DX2                !
 ! D77   D(9,8,10,25)          -55.4074         estimate D2E/DX2                !
 ! D78   D(9,8,10,26)         -175.1533         estimate D2E/DX2                !
 ! D79   D(11,8,10,24)        -177.2439         estimate D2E/DX2                !
 ! D80   D(11,8,10,25)          62.7219         estimate D2E/DX2                !
 ! D81   D(11,8,10,26)         -57.0239         estimate D2E/DX2                !
 ! D82   D(6,8,11,27)           59.4305         estimate D2E/DX2                !
 ! D83   D(6,8,11,28)          -60.5923         estimate D2E/DX2                !
 ! D84   D(6,8,11,29)          179.5361         estimate D2E/DX2                !
 ! D85   D(9,8,11,27)          -62.1875         estimate D2E/DX2                !
 ! D86   D(9,8,11,28)          177.7897         estimate D2E/DX2                !
 ! D87   D(9,8,11,29)           57.9181         estimate D2E/DX2                !
 ! D88   D(10,8,11,27)        -179.5156         estimate D2E/DX2                !
 ! D89   D(10,8,11,28)          60.4616         estimate D2E/DX2                !
 ! D90   D(10,8,11,29)         -59.41           estimate D2E/DX2                !
 --------------------------------------------------------------------------------
 Trust Radius=3.00D-01 FncErr=1.00D-07 GrdErr=1.00D-06
 Number of steps in this run= 201 maximum allowed number of steps= 210.
 GradGradGradGradGradGradGradGradGradGradGradGradGradGradGradGradGradGrad

 Leave Link  103 at Fri Oct  1 18:35:29 2021, MaxMem= 1342177280 cpu:       0.0
 (Enter /sw/target/amd/app/gaussian/Gaussian09RevA.02_gcc-4.9.2/g09/l202.exe)
                          Input orientation:                          
 ---------------------------------------------------------------------
 Center     Atomic      Atomic             Coordinates (Angstroms)
 Number     Number       Type             X           Y           Z
 ---------------------------------------------------------------------
      1          6           0        1.159818   -0.196419    0.741419
      2          6           0        2.491274    0.040328    0.012926
      3          7           0        2.982108    1.399326    0.282366
      4          6           0        3.722788    1.834014    1.369894
      5          6           0        3.752890    3.173464    1.403098
      6          7           0        3.031001    3.695066    0.341451
      7          6           0        2.414595    2.576594   -0.408477
      8          6           0        2.563187    5.076432    0.166640
      9          6           0        3.553526    6.075509    0.796920
     10          6           0        2.459260    5.410541   -1.332554
     11          6           0        1.190055    5.254088    0.832096
     12          6           0        3.517153   -1.007061    0.489237
     13          6           0        2.286638   -0.163772   -1.499360
     14          1           0        1.277160   -0.111588    1.827514
     15          1           0        0.767908   -1.197803    0.526513
     16          1           0        0.396903    0.527498    0.435852
     17          1           0        4.185731    1.153367    2.065839
     18          1           0        4.245847    3.796042    2.131090
     19          1           0        2.728649    2.598415   -1.456175
     20          1           0        1.323817    2.593284   -0.327373
     21          1           0        4.567001    5.932135    0.405175
     22          1           0        3.598023    5.970471    1.886227
     23          1           0        3.257887    7.110757    0.589738
     24          1           0        3.416656    5.244174   -1.840026
     25          1           0        2.175923    6.458240   -1.486682
     26          1           0        1.705680    4.794923   -1.836895
     27          1           0        1.236066    5.030797    1.903715
     28          1           0        0.436314    4.591885    0.392283
     29          1           0        0.827282    6.282456    0.719240
     30          1           0        3.637161   -0.992896    1.578243
     31          1           0        4.502325   -0.827252    0.043944
     32          1           0        3.205239   -2.021845    0.217156
     33          1           0        1.523582    0.510856   -1.902659
     34          1           0        1.960001   -1.186657   -1.719950
     35          1           0        3.216105    0.017578   -2.051067
 ---------------------------------------------------------------------
                    Distance matrix (angstroms):
                    1          2          3          4          5
     1  C    0.000000
     2  C    1.536075   0.000000
     3  N    2.465334   1.469827   0.000000
     4  C    3.329634   2.564235   1.385741   0.000000
     5  C    4.303249   3.652505   2.235556   1.340199   0.000000
     6  N    4.336468   3.708954   2.297021   2.236018   1.385744
     7  C    3.253664   2.572179   1.478275   2.329249   2.330042
     8  C    5.486599   5.038962   3.702701   3.647707   2.562326
     9  C    6.713419   6.177899   4.738984   4.283366   2.971374
    10  C    6.117835   5.536291   4.355592   4.657389   3.763215
    11  C    5.451345   5.435761   4.286356   4.289623   3.350099
    12  C    2.505547   1.541533   2.473816   2.981535   4.285732
    13  C    2.508362   1.539656   2.470121   3.779722   4.659538
    14  H    1.095704   2.188579   2.752669   3.158462   4.135327
    15  H    1.096607   2.183284   3.421602   4.316772   5.365304
    16  H    1.095201   2.191481   2.732568   3.693363   4.381706
    17  H    3.568216   2.885219   2.165635   1.077931   2.169646
    18  H    5.233976   4.655162   3.280101   2.168539   1.077303
    19  H    3.886097   2.959462   2.127107   3.091810   3.091148
    20  H    2.991932   2.827781   2.132428   3.035172   3.038344
    21  H    7.020053   6.259065   4.803471   4.293946   3.044486
    22  H    6.729485   6.316704   4.883348   4.170425   2.842648
    23  H    7.603929   7.135221   5.726341   5.354325   4.050786
    24  H    6.430959   5.600873   4.413189   4.693239   3.862480
    25  H    7.090938   6.598323   5.419602   5.651220   4.650528
    26  H    5.644392   5.161896   4.201264   4.808243   4.161461
    27  H    5.355421   5.482282   4.343388   4.085117   3.167762
    28  H    4.855225   5.008338   4.084799   4.400283   3.746111
    29  H    6.487441   6.498608   5.355287   5.347517   4.323503
    30  H    2.733474   2.197914   2.798413   2.835871   4.171645
    31  H    3.472287   2.190430   2.706576   3.073786   4.291233
    32  H    2.791197   2.191807   3.429060   4.057624   5.357015
    33  H    2.761107   2.197110   2.773267   4.158950   4.794510
    34  H    2.771137   2.188744   3.426555   4.666799   5.654957
    35  H    3.474491   2.187685   2.721928   3.906296   4.709460
                    6          7          8          9         10
     6  N    0.000000
     7  C    1.480989   0.000000
     8  C    1.468871   2.569441   0.000000
     9  C    2.479313   3.872022   1.541487   0.000000
    10  C    2.464150   2.981135   1.539484   2.484806   0.000000
    11  C    2.461781   3.194917   1.536191   2.502392   2.514173
    12  C    4.729501   3.855400   6.166280   7.089343   6.754530
    13  C    4.339734   2.952288   5.505612   6.768052   5.579479
    14  H    4.446904   3.676920   5.597135   6.672641   6.471267
    15  H    5.394071   4.222778   6.535943   7.793192   7.070148
    16  H    4.120785   2.997126   5.045598   6.393361   5.587905
    17  H    3.281333   3.359276   4.650811   5.122237   5.714306
    18  H    2.165376   3.360051   2.886141   2.730437   4.218451
    19  H    2.127327   1.093973   2.966727   4.224576   2.827703
    20  H    2.139095   1.093916   2.818884   4.285035   3.199461
    21  H    2.714376   4.068727   2.191894   1.095971   2.781068
    22  H    2.808080   4.264337   2.197083   1.095264   3.459892
    23  H    3.432211   4.718709   2.190913   1.096388   2.687703
    24  H    2.703203   3.188956   2.187065   2.768273   1.096273
    25  H    3.421749   4.035674   2.189256   2.694274   1.096225
    26  H    2.776932   2.732017   2.197433   3.462862   1.096005
    27  H    2.728853   3.571873   2.186496   2.772551   3.480495
    28  H    2.745774   2.935339   2.193009   3.475900   2.781648
    29  H    3.419604   4.186254   2.184772   2.735191   2.762869
    30  H    4.886110   4.264151   6.323194   7.111949   7.131914
    31  H    4.764941   4.018641   6.215207   7.008231   6.706633
    32  H    5.720916   4.707672   7.127434   8.125551   7.628791
    33  H    4.177025   2.700695   5.119302   6.509513   5.020699
    34  H    5.406259   4.011069   6.568815   7.849396   6.627394
    35  H    4.391165   3.144691   5.562062   6.702493   5.493007
                   11         12         13         14         15
    11  C    0.000000
    12  C    6.688417   0.000000
    13  C    5.999282   2.485925   0.000000
    14  H    5.457923   2.758699   3.477047   0.000000
    15  H    6.472904   2.756105   2.734944   1.769690   0.000000
    16  H    4.809028   3.477597   2.791773   1.766354   1.767067
    17  H    5.226098   2.756831   4.248770   3.180675   4.424820
    18  H    3.626451   5.128009   5.718286   4.916791   6.293585
    19  H    3.828322   4.172029   2.797662   4.498172   4.710289
    20  H    2.905536   4.294189   3.146734   3.458619   3.925620
    21  H    3.470702   7.018668   6.781401   7.026570   8.079842
    22  H    2.724464   7.116465   7.128174   6.510092   7.825760
    23  H    2.789603   8.122579   7.630624   7.590629   8.673878
    24  H    3.478231   6.671844   5.535239   6.834653   7.356319
    25  H    2.792606   7.837977   6.622950   7.413118   8.040551
    26  H    2.756848   6.508098   5.004008   6.138841   6.509829
    27  H    1.095602   6.607559   6.298267   5.143114   6.396195
    28  H    1.095479   6.391336   5.442269   4.988945   5.800729
    29  H    1.096304   7.773376   6.971783   6.504957   7.482977
    30  H    6.750546   1.095689   3.461646   2.531490   3.062798
    31  H    6.969578   1.095985   2.780515   3.754329   3.783656
    32  H    7.574848   1.095949   2.691225   3.155919   2.591396
    33  H    5.485287   3.464039   1.095458   3.789770   3.064545
    34  H    6.970578   2.708779   1.096196   3.769157   2.543188
    35  H    6.311778   2.755660   1.095982   4.338153   3.756958
                   16         17         18         19         20
    16  H    0.000000
    17  H    4.171784   0.000000
    18  H    5.326498   2.644163   0.000000
    19  H    3.647671   4.076252   4.074883   0.000000
    20  H    2.389383   3.998921   4.003614   1.802158   0.000000
    21  H    6.826475   5.073440   2.764926   4.237671   4.711984
    22  H    6.478944   4.856146   2.282056   4.826824   4.634375
    23  H    7.179708   6.207275   3.786710   4.982679   4.998928
    24  H    6.045292   5.708060   4.307483   2.760568   3.700718
    25  H    6.483421   6.693385   4.945722   3.899319   4.124072
    26  H    5.008911   5.885822   4.816131   2.452766   2.696607
    27  H    4.810252   4.874554   3.261151   4.408305   3.305590
    28  H    4.064812   5.355588   4.262554   3.556054   2.302167
    29  H    5.777982   6.276946   4.456699   4.681857   3.866773
    30  H    3.757117   2.268287   4.859019   4.788591   4.673716
    31  H    4.340902   2.848007   5.079056   4.139019   4.684107
    32  H    3.799175   3.802758   6.212392   4.937001   5.013550
    33  H    2.595827   4.821704   5.871482   2.451415   2.618767
    34  H    3.166873   4.976121   6.699469   3.871326   4.078230
    35  H    3.793769   4.379395   5.729537   2.692997   3.631272
                   21         22         23         24         25
    21  H    0.000000
    22  H    1.770284   0.000000
    23  H    1.771156   1.759781   0.000000
    24  H    2.614864   3.800706   3.068077   0.000000
    25  H    3.094053   3.692804   2.430626   1.771505   0.000000
    26  H    3.808843   4.338722   3.696076   1.768976   1.763633
    27  H    3.762069   2.542073   3.184420   4.337753   3.796804
    28  H    4.342697   3.758826   3.787477   3.780361   3.168601
    29  H    3.769199   3.022614   2.571127   3.785860   2.591491
    30  H    7.084967   6.970285   8.172527   7.115773   8.188310
    31  H    6.769342   7.100761   8.053478   6.449049   7.799575
    32  H    8.071899   8.174179   9.140351   7.554583   8.710592
    33  H    6.631649   6.961778   7.264885   5.098229   5.997496
    34  H    7.873361   8.179983   8.710124   6.594835   7.651503
    35  H    6.545230   7.147383   7.568936   5.234698   6.548484
                   26         27         28         29         30
    26  H    0.000000
    27  H    3.777345   0.000000
    28  H    2.573276   1.765410   0.000000
    29  H    3.085152   1.771083   1.765725   0.000000
    30  H    6.992327   6.492771   6.545358   7.846277   0.000000
    31  H    6.554970   6.960168   6.783866   8.031807   1.769186
    32  H    7.275722   7.514113   7.172102   8.652641   1.760071
    33  H    4.288439   5.916166   4.806632   6.377347   4.341102
    34  H    5.988126   7.232688   6.338352   7.938536   3.705197
    35  H    5.015006   6.685299   5.884003   7.254638   3.790809
                   31         32         33         34         35
    31  H    0.000000
    32  H    1.771860   0.000000
    33  H    3.801672   3.706233   0.000000
    34  H    3.115109   2.449599   1.762214   0.000000
    35  H    2.599456   3.050278   1.769175   1.771331   0.000000
 Stoichiometry    C11H22N2
 Framework group  C1[X(C11H22N2)]
 Deg. of freedom    99
 Full point group                 C1      NOp   1
 Largest Abelian subgroup         C1      NOp   1
 Largest concise Abelian subgroup C1      NOp   1
                         Standard orientation:                         
 ---------------------------------------------------------------------
 Center     Atomic      Atomic             Coordinates (Angstroms)
 Number     Number       Type             X           Y           Z
 ---------------------------------------------------------------------
      1          6           0        2.752969   -0.453406    1.513436
      2          6           0        2.519551   -0.177622    0.020457
      3          7           0        1.145926    0.297199   -0.198837
      4          6           0        0.667224    1.592510   -0.083548
      5          6           0       -0.672908    1.593030   -0.096976
      6          7           0       -1.151011    0.298054   -0.218385
      7          6           0       -0.001135   -0.635237   -0.209405
      8          6           0       -2.519411   -0.179599    0.020179
      9          6           0       -3.551685    0.902830   -0.352566
     10          6           0       -2.805582   -1.413487   -0.854827
     11          6           0       -2.697608   -0.544177    1.501804
     12          6           0        3.536789    0.876136   -0.460320
     13          6           0        2.773138   -1.467814   -0.780566
     14          1           0        2.632990    0.456408    2.112110
     15          1           0        3.766073   -0.835115    1.687974
     16          1           0        2.049942   -1.197696    1.902346
     17          1           0        1.319308    2.446063    0.006830
     18          1           0       -1.324715    2.447351   -0.020388
     19          1           0        0.004824   -1.244921   -1.117714
     20          1           0       -0.004525   -1.266063    0.684296
     21          1           0       -3.410985    1.249032   -1.382857
     22          1           0       -3.480950    1.775119    0.306001
     23          1           0       -4.575662    0.520991   -0.264609
     24          1           0       -2.637520   -1.191447   -1.915142
     25          1           0       -3.843817   -1.746984   -0.742770
     26          1           0       -2.163856   -2.261006   -0.588130
     27          1           0       -2.508165    0.319329    2.148960
     28          1           0       -2.011312   -1.340468    1.810013
     29          1           0       -3.716646   -0.895646    1.701586
     30          1           0        3.487307    1.792222    0.138741
     31          1           0        3.356555    1.152370   -1.505496
     32          1           0        4.563891    0.501563   -0.383767
     33          1           0        2.122388   -2.285982   -0.453223
     34          1           0        3.806962   -1.811739   -0.659863
     35          1           0        2.595454   -1.309129   -1.850344
 ---------------------------------------------------------------------
 Rotational constants (GHZ):      1.6445826      0.4298968      0.4023807
 Leave Link  202 at Fri Oct  1 18:35:29 2021, MaxMem= 1342177280 cpu:       0.0
 (Enter /sw/target/amd/app/gaussian/Gaussian09RevA.02_gcc-4.9.2/g09/l301.exe)
 Standard basis: 6-31G(d) (6D, 7F)
 Ernie: Thresh=  0.10000D-02 Tol=  0.10000D-05 Strict=F.
 There are   239 symmetry adapted basis functions of A   symmetry.
 Integral buffers will be    131072 words long.
 Raffenetti 2 integral format.
 Two-electron integral symmetry is turned on.
   239 basis functions,   452 primitive gaussians,   239 cartesian basis functions
    51 alpha electrons       51 beta electrons
       nuclear repulsion energy       881.4564684397 Hartrees.
 IExCor=  402 DFT=T Ex+Corr=B3LYP ExCW=0 ScaHFX=  0.200000
 ScaDFX=  0.800000  0.720000  1.000000  0.810000 ScalE2=  1.000000  1.000000
 IRadAn=      0 IRanWt=     -1 IRanGd=            0 ICorTp=0
 NAtoms=   35 NActive=   35 NUniq=   35 SFac= 7.50D-01 NAtFMM=   80 NAOKFM=F Big=F
 Leave Link  301 at Fri Oct  1 18:35:29 2021, MaxMem= 1342177280 cpu:       0.1
 (Enter /sw/target/amd/app/gaussian/Gaussian09RevA.02_gcc-4.9.2/g09/l302.exe)
 NPDir=0 NMtPBC=     1 NCelOv=     1 NCel=       1 NClECP=     1 NCelD=      1
         NCelK=      1 NCelE2=     1 NClLst=     1 CellRange=     0.0.
 One-electron integrals computed using PRISM.
 NBasis=   239 RedAO= T  NBF=   239
 NBsUse=   239 1.00D-06 NBFU=   239
 Precomputing XC quadrature grid using
 IXCGrd= 2 IRadAn=           0 IRanWt=          -1 IRanGd=           0 AccXCQ= 1.00D-10.
 NRdTot=    2215 NPtTot=      280936 NUsed=      296909 NTot=      296941
 NSgBfM=   239   239   239   239   239 NAtAll=    35    35.
 Leave Link  302 at Fri Oct  1 18:35:30 2021, MaxMem= 1342177280 cpu:       2.6
 (Enter /sw/target/amd/app/gaussian/Gaussian09RevA.02_gcc-4.9.2/g09/l303.exe)
 DipDrv:  MaxL=1.
 Leave Link  303 at Fri Oct  1 18:35:30 2021, MaxMem= 1342177280 cpu:       0.1
 (Enter /sw/target/amd/app/gaussian/Gaussian09RevA.02_gcc-4.9.2/g09/l401.exe)
 Harris functional with IExCor=  402 diagonalized for initial guess.
 ExpMin= 1.61D-01 ExpMax= 4.17D+03 ExpMxC= 6.27D+02 IAcc=1 IRadAn=         1 AccDes= 0.00D+00
 HarFok:  IExCor=  402 AccDes= 0.00D+00 IRadAn=         1 IDoV= 1
 ScaDFX=  1.000000  1.000000  1.000000  1.000000
 FoFCou: FMM=F IPFlag=           0 FMFlag=      100000 FMFlg1=           0
         NFxFlg=           0 DoJE=T BraDBF=F KetDBF=T FulRan=T
         Omega=  0.000000  0.000000  1.000000  0.000000  0.000000 ICntrl=     500 IOpCl=  0
         NMat0=    1 NMatS0=    1 NMatT0=    0 NMatD0=    1 NMtDS0=    0 NMtDT0=    0
         I1Cent=           4 NGrid=           0.
 Petite list used in FoFCou.
 Harris En= -542.005682290433    
 Initial guess orbital symmetries:
       Occupied  (A) (A) (A) (A) (A) (A) (A) (A) (A) (A) (A) (A)
                 (A) (A) (A) (A) (A) (A) (A) (A) (A) (A) (A) (A)
                 (A) (A) (A) (A) (A) (A) (A) (A) (A) (A) (A) (A)
                 (A) (A) (A) (A) (A) (A) (A) (A) (A) (A) (A) (A)
                 (A) (A) (A)
       Virtual   (A) (A) (A) (A) (A) (A) (A) (A) (A) (A) (A) (A)
                 (A) (A) (A) (A) (A) (A) (A) (A) (A) (A) (A) (A)
                 (A) (A) (A) (A) (A) (A) (A) (A) (A) (A) (A) (A)
                 (A) (A) (A) (A) (A) (A) (A) (A) (A) (A) (A) (A)
                 (A) (A) (A) (A) (A) (A) (A) (A) (A) (A) (A) (A)
                 (A) (A) (A) (A) (A) (A) (A) (A) (A) (A) (A) (A)
                 (A) (A) (A) (A) (A) (A) (A) (A) (A) (A) (A) (A)
                 (A) (A) (A) (A) (A) (A) (A) (A) (A) (A) (A) (A)
                 (A) (A) (A) (A) (A) (A) (A) (A) (A) (A) (A) (A)
                 (A) (A) (A) (A) (A) (A) (A) (A) (A) (A) (A) (A)
                 (A) (A) (A) (A) (A) (A) (A) (A) (A) (A) (A) (A)
                 (A) (A) (A) (A) (A) (A) (A) (A) (A) (A) (A) (A)
                 (A) (A) (A) (A) (A) (A) (A) (A) (A) (A) (A) (A)
                 (A) (A) (A) (A) (A) (A) (A) (A) (A) (A) (A) (A)
                 (A) (A) (A) (A) (A) (A) (A) (A) (A) (A) (A) (A)
                 (A) (A) (A) (A) (A) (A) (A) (A)
 The electronic state of the initial guess is 1-A.
 Leave Link  401 at Fri Oct  1 18:35:34 2021, MaxMem= 1342177280 cpu:      12.6
 (Enter /sw/target/amd/app/gaussian/Gaussian09RevA.02_gcc-4.9.2/g09/l502.exe)
 Closed shell SCF:
 Requested convergence on RMS density matrix=1.00D-08 within  64 cycles.
 Requested convergence on MAX density matrix=1.00D-06.
 Requested convergence on             energy=1.00D-06.
 No special actions if energy rises.
 Using DIIS extrapolation, IDIIS=  1040.
 Integral symmetry usage will be decided dynamically.
       296581 words used for storage of precomputed grid.
 Keep R1 ints in memory in canonical form, NReq=418674189.
 IEnd=      476755 IEndB=      476755 NGot=  1342177280 MDV=   930476542
 LenX=   930476542 LenY=   930418980
 Symmetry not used in FoFDir.
 MinBra= 0 MaxBra= 2 Meth= 1.
 IRaf=       0 NMat=   1 IRICut=       1 DoRegI=T DoRafI=F ISym2E= 0 JSym2E=0.
 Integral accuracy reduced to 1.0D-05 until final iterations.

 Cycle   1  Pass 0  IDiag  1:
 E= -541.397046824438    
 DIIS: error= 5.31D-02 at cycle   1 NSaved=   1.
 NSaved= 1 IEnMin= 1 EnMin= -541.397046824438     IErMin= 1 ErrMin= 5.31D-02
 ErrMax= 5.31D-02 EMaxC= 1.00D-01 BMatC= 4.40D-01 BMatP= 4.40D-01
 IDIUse=3 WtCom= 4.69D-01 WtEn= 5.31D-01
 Coeff-Com:  0.100D+01
 Coeff-En:   0.100D+01
 Coeff:      0.100D+01
 Gap=     0.212 Goal=   None    Shift=    0.000
 GapD=    0.212 DampG=1.000 DampE=0.500 DampFc=0.5000 IDamp=-1.
 Damping current iteration by 5.00D-01
 RMSDP=6.61D-03 MaxDP=1.95D-01              OVMax= 1.79D-01

 Cycle   2  Pass 0  IDiag  1:
 E= -541.615949006559     Delta-E=       -0.218902182120 Rises=F Damp=T
 DIIS: error= 7.25D-03 at cycle   2 NSaved=   2.
 NSaved= 2 IEnMin= 2 EnMin= -541.615949006559     IErMin= 2 ErrMin= 7.25D-03
 ErrMax= 7.25D-03 EMaxC= 1.00D-01 BMatC= 1.58D-02 BMatP= 4.40D-01
 IDIUse=3 WtCom= 9.27D-01 WtEn= 7.25D-02
 Coeff-Com:  0.575D-01 0.942D+00
 Coeff-En:   0.980D-01 0.902D+00
 Coeff:      0.605D-01 0.940D+00
 Gap=     0.198 Goal=   None    Shift=    0.000
 RMSDP=1.25D-03 MaxDP=3.29D-02 DE=-2.19D-01 OVMax= 1.05D-01

 Cycle   3  Pass 0  IDiag  1:
 E= -541.873030774927     Delta-E=       -0.257081768369 Rises=F Damp=F
 DIIS: error= 3.99D-03 at cycle   3 NSaved=   3.
 NSaved= 3 IEnMin= 3 EnMin= -541.873030774927     IErMin= 3 ErrMin= 3.99D-03
 ErrMax= 3.99D-03 EMaxC= 1.00D-01 BMatC= 2.62D-03 BMatP= 1.58D-02
 IDIUse=3 WtCom= 9.60D-01 WtEn= 3.99D-02
 Coeff-Com: -0.193D-02 0.222D+00 0.780D+00
 Coeff-En:   0.000D+00 0.000D+00 0.100D+01
 Coeff:     -0.185D-02 0.214D+00 0.788D+00
 Gap=     0.192 Goal=   None    Shift=    0.000
 RMSDP=4.65D-04 MaxDP=1.29D-02 DE=-2.57D-01 OVMax= 2.23D-02

 Cycle   4  Pass 0  IDiag  1:
 E= -541.873657404142     Delta-E=       -0.000626629215 Rises=F Damp=F
 DIIS: error= 3.11D-03 at cycle   4 NSaved=   4.
 NSaved= 4 IEnMin= 4 EnMin= -541.873657404142     IErMin= 4 ErrMin= 3.11D-03
 ErrMax= 3.11D-03 EMaxC= 1.00D-01 BMatC= 2.16D-03 BMatP= 2.62D-03
 IDIUse=3 WtCom= 9.69D-01 WtEn= 3.11D-02
 Coeff-Com: -0.458D-02 0.523D-01 0.477D+00 0.475D+00
 Coeff-En:   0.000D+00 0.000D+00 0.434D+00 0.566D+00
 Coeff:     -0.444D-02 0.507D-01 0.476D+00 0.478D+00
 Gap=     0.195 Goal=   None    Shift=    0.000
 RMSDP=2.03D-04 MaxDP=8.89D-03 DE=-6.27D-04 OVMax= 1.41D-02

 Cycle   5  Pass 0  IDiag  1:
 E= -541.875483342522     Delta-E=       -0.001825938379 Rises=F Damp=F
 DIIS: error= 3.27D-04 at cycle   5 NSaved=   5.
 NSaved= 5 IEnMin= 5 EnMin= -541.875483342522     IErMin= 5 ErrMin= 3.27D-04
 ErrMax= 3.27D-04 EMaxC= 1.00D-01 BMatC= 4.09D-05 BMatP= 2.16D-03
 IDIUse=3 WtCom= 9.97D-01 WtEn= 3.27D-03
 Coeff-Com: -0.792D-03 0.224D-02 0.129D+00 0.186D+00 0.684D+00
 Coeff-En:   0.000D+00 0.000D+00 0.000D+00 0.000D+00 0.100D+01
 Coeff:     -0.789D-03 0.223D-02 0.128D+00 0.185D+00 0.685D+00
 Gap=     0.195 Goal=   None    Shift=    0.000
 RMSDP=3.16D-05 MaxDP=1.33D-03 DE=-1.83D-03 OVMax= 1.55D-03

 Cycle   6  Pass 0  IDiag  1:
 E= -541.875513253523     Delta-E=       -0.000029911001 Rises=F Damp=F
 DIIS: error= 1.26D-04 at cycle   6 NSaved=   6.
 NSaved= 6 IEnMin= 6 EnMin= -541.875513253523     IErMin= 6 ErrMin= 1.26D-04
 ErrMax= 1.26D-04 EMaxC= 1.00D-01 BMatC= 4.40D-06 BMatP= 4.09D-05
 IDIUse=3 WtCom= 9.99D-01 WtEn= 1.26D-03
 Coeff-Com: -0.164D-03-0.700D-03 0.528D-01 0.839D-01 0.368D+00 0.496D+00
 Coeff-En:   0.000D+00 0.000D+00 0.000D+00 0.000D+00 0.000D+00 0.100D+01
 Coeff:     -0.164D-03-0.699D-03 0.527D-01 0.838D-01 0.367D+00 0.497D+00
 Gap=     0.195 Goal=   None    Shift=    0.000
 RMSDP=1.10D-05 MaxDP=3.07D-04 DE=-2.99D-05 OVMax= 5.37D-04

 Cycle   7  Pass 0  IDiag  1:
 E= -541.875517193992     Delta-E=       -0.000003940469 Rises=F Damp=F
 DIIS: error= 2.00D-05 at cycle   7 NSaved=   7.
 NSaved= 7 IEnMin= 7 EnMin= -541.875517193992     IErMin= 7 ErrMin= 2.00D-05
 ErrMax= 2.00D-05 EMaxC= 1.00D-01 BMatC= 1.97D-07 BMatP= 4.40D-06
 IDIUse=1 WtCom= 1.00D+00 WtEn= 0.00D+00
 Coeff-Com:  0.330D-04-0.557D-03 0.127D-01 0.224D-01 0.104D+00 0.224D+00
 Coeff-Com:  0.638D+00
 Coeff:      0.330D-04-0.557D-03 0.127D-01 0.224D-01 0.104D+00 0.224D+00
 Coeff:      0.638D+00
 Gap=     0.195 Goal=   None    Shift=    0.000
 RMSDP=3.07D-06 MaxDP=1.25D-04 DE=-3.94D-06 OVMax= 3.11D-04

 Initial convergence to 1.0D-05 achieved.  Increase integral accuracy.
 Cycle   8  Pass 1  IDiag  1:
 E= -541.875723285087     Delta-E=       -0.000206091096 Rises=F Damp=F
 DIIS: error= 2.47D-05 at cycle   1 NSaved=   1.
 NSaved= 1 IEnMin= 1 EnMin= -541.875723285087     IErMin= 1 ErrMin= 2.47D-05
 ErrMax= 2.47D-05 EMaxC= 1.00D-01 BMatC= 2.00D-07 BMatP= 2.00D-07
 IDIUse=1 WtCom= 1.00D+00 WtEn= 0.00D+00
 Coeff-Com:  0.100D+01
 Coeff:      0.100D+01
 Gap=     0.195 Goal=   None    Shift=    0.000
 RMSDP=3.07D-06 MaxDP=1.25D-04 DE=-2.06D-04 OVMax= 4.86D-04

 Cycle   9  Pass 1  IDiag  1:
 E= -541.875723147689     Delta-E=        0.000000137398 Rises=F Damp=F
 DIIS: error= 3.26D-05 at cycle   2 NSaved=   2.
 NSaved= 2 IEnMin= 1 EnMin= -541.875723285087     IErMin= 1 ErrMin= 2.47D-05
 ErrMax= 3.26D-05 EMaxC= 1.00D-01 BMatC= 3.96D-07 BMatP= 2.00D-07
 IDIUse=1 WtCom= 1.00D+00 WtEn= 0.00D+00
 Coeff-Com:  0.605D+00 0.395D+00
 Coeff:      0.605D+00 0.395D+00
 Gap=     0.195 Goal=   None    Shift=    0.000
 RMSDP=3.84D-06 MaxDP=1.63D-04 DE= 1.37D-07 OVMax= 4.29D-04

 Cycle  10  Pass 1  IDiag  1:
 E= -541.875723501035     Delta-E=       -0.000000353346 Rises=F Damp=F
 DIIS: error= 9.71D-06 at cycle   3 NSaved=   3.
 NSaved= 3 IEnMin= 3 EnMin= -541.875723501035     IErMin= 3 ErrMin= 9.71D-06
 ErrMax= 9.71D-06 EMaxC= 1.00D-01 BMatC= 3.56D-08 BMatP= 2.00D-07
 IDIUse=1 WtCom= 1.00D+00 WtEn= 0.00D+00
 Coeff-Com: -0.675D-02 0.227D+00 0.780D+00
 Coeff:     -0.675D-02 0.227D+00 0.780D+00
 Gap=     0.195 Goal=   None    Shift=    0.000
 RMSDP=9.68D-07 MaxDP=4.05D-05 DE=-3.53D-07 OVMax= 1.04D-04

 Cycle  11  Pass 1  IDiag  1:
 E= -541.875723534189     Delta-E=       -0.000000033154 Rises=F Damp=F
 DIIS: error= 2.28D-06 at cycle   4 NSaved=   4.
 NSaved= 4 IEnMin= 4 EnMin= -541.875723534189     IErMin= 4 ErrMin= 2.28D-06
 ErrMax= 2.28D-06 EMaxC= 1.00D-01 BMatC= 1.85D-09 BMatP= 3.56D-08
 IDIUse=1 WtCom= 1.00D+00 WtEn= 0.00D+00
 Coeff-Com: -0.175D-01 0.117D+00 0.431D+00 0.470D+00
 Coeff:     -0.175D-01 0.117D+00 0.431D+00 0.470D+00
 Gap=     0.195 Goal=   None    Shift=    0.000
 RMSDP=2.30D-07 MaxDP=9.33D-06 DE=-3.32D-08 OVMax= 1.10D-05

 Cycle  12  Pass 1  IDiag  1:
 E= -541.875723535749     Delta-E=       -0.000000001560 Rises=F Damp=F
 DIIS: error= 5.55D-07 at cycle   5 NSaved=   5.
 NSaved= 5 IEnMin= 5 EnMin= -541.875723535749     IErMin= 5 ErrMin= 5.55D-07
 ErrMax= 5.55D-07 EMaxC= 1.00D-01 BMatC= 7.41D-11 BMatP= 1.85D-09
 IDIUse=1 WtCom= 1.00D+00 WtEn= 0.00D+00
 Coeff-Com: -0.711D-02 0.407D-01 0.150D+00 0.230D+00 0.586D+00
 Coeff:     -0.711D-02 0.407D-01 0.150D+00 0.230D+00 0.586D+00
 Gap=     0.195 Goal=   None    Shift=    0.000
 RMSDP=5.80D-08 MaxDP=1.75D-06 DE=-1.56D-09 OVMax= 2.56D-06

 Cycle  13  Pass 1  IDiag  1:
 E= -541.875723535813     Delta-E=       -0.000000000063 Rises=F Damp=F
 DIIS: error= 9.65D-08 at cycle   6 NSaved=   6.
 NSaved= 6 IEnMin= 6 EnMin= -541.875723535813     IErMin= 6 ErrMin= 9.65D-08
 ErrMax= 9.65D-08 EMaxC= 1.00D-01 BMatC= 4.41D-12 BMatP= 7.41D-11
 IDIUse=1 WtCom= 1.00D+00 WtEn= 0.00D+00
 Coeff-Com: -0.141D-02 0.599D-02 0.219D-01 0.523D-01 0.244D+00 0.677D+00
 Coeff:     -0.141D-02 0.599D-02 0.219D-01 0.523D-01 0.244D+00 0.677D+00
 Gap=     0.195 Goal=   None    Shift=    0.000
 RMSDP=1.10D-08 MaxDP=2.84D-07 DE=-6.32D-11 OVMax= 3.75D-07

 Cycle  14  Pass 1  IDiag  1:
 E= -541.875723535828     Delta-E=       -0.000000000015 Rises=F Damp=F
 DIIS: error= 3.42D-08 at cycle   7 NSaved=   7.
 NSaved= 7 IEnMin= 7 EnMin= -541.875723535828     IErMin= 7 ErrMin= 3.42D-08
 ErrMax= 3.42D-08 EMaxC= 1.00D-01 BMatC= 5.61D-13 BMatP= 4.41D-12
 IDIUse=1 WtCom= 1.00D+00 WtEn= 0.00D+00
 Coeff-Com: -0.188D-03-0.110D-03-0.546D-03 0.797D-02 0.785D-01 0.329D+00
 Coeff-Com:  0.585D+00
 Coeff:     -0.188D-03-0.110D-03-0.546D-03 0.797D-02 0.785D-01 0.329D+00
 Coeff:      0.585D+00
 Gap=     0.195 Goal=   None    Shift=    0.000
 RMSDP=4.05D-09 MaxDP=1.01D-07 DE=-1.55D-11 OVMax= 1.38D-07

 SCF Done:  E(RB3LYP) =  -541.875723536     A.U. after   14 cycles
             Convg  =    0.4052D-08             -V/T =  2.0098
 KE= 5.366201540425D+02 PE=-3.017417675286D+03 EE= 1.057465329268D+03
 Leave Link  502 at Fri Oct  1 18:47:30 2021, MaxMem= 1342177280 cpu:     288.2
 (Enter /sw/target/amd/app/gaussian/Gaussian09RevA.02_gcc-4.9.2/g09/l508.exe)
 QCSCF skips out because SCF is already converged.
 Leave Link  508 at Fri Oct  1 18:47:33 2021, MaxMem= 1342177280 cpu:       0.0
 (Enter /sw/target/amd/app/gaussian/Gaussian09RevA.02_gcc-4.9.2/g09/l601.exe)
 Copying SCF densities to generalized density rwf, IOpCl= 0 IROHF=0.

 **********************************************************************

            Population analysis using the SCF density.

 **********************************************************************

 Orbital symmetries:
       Occupied  (A) (A) (A) (A) (A) (A) (A) (A) (A) (A) (A) (A)
                 (A) (A) (A) (A) (A) (A) (A) (A) (A) (A) (A) (A)
                 (A) (A) (A) (A) (A) (A) (A) (A) (A) (A) (A) (A)
                 (A) (A) (A) (A) (A) (A) (A) (A) (A) (A) (A) (A)
                 (A) (A) (A)
       Virtual   (A) (A) (A) (A) (A) (A) (A) (A) (A) (A) (A) (A)
                 (A) (A) (A) (A) (A) (A) (A) (A) (A) (A) (A) (A)
                 (A) (A) (A) (A) (A) (A) (A) (A) (A) (A) (A) (A)
                 (A) (A) (A) (A) (A) (A) (A) (A) (A) (A) (A) (A)
                 (A) (A) (A) (A) (A) (A) (A) (A) (A) (A) (A) (A)
                 (A) (A) (A) (A) (A) (A) (A) (A) (A) (A) (A) (A)
                 (A) (A) (A) (A) (A) (A) (A) (A) (A) (A) (A) (A)
                 (A) (A) (A) (A) (A) (A) (A) (A) (A) (A) (A) (A)
                 (A) (A) (A) (A) (A) (A) (A) (A) (A) (A) (A) (A)
                 (A) (A) (A) (A) (A) (A) (A) (A) (A) (A) (A) (A)
                 (A) (A) (A) (A) (A) (A) (A) (A) (A) (A) (A) (A)
                 (A) (A) (A) (A) (A) (A) (A) (A) (A) (A) (A) (A)
                 (A) (A) (A) (A) (A) (A) (A) (A) (A) (A) (A) (A)
                 (A) (A) (A) (A) (A) (A) (A) (A) (A) (A) (A) (A)
                 (A) (A) (A) (A) (A) (A) (A) (A) (A) (A) (A) (A)
                 (A) (A) (A) (A) (A) (A) (A) (A)
 The electronic state is 1-A.
 Alpha  occ. eigenvalues --  -14.31808 -14.31798 -10.23246 -10.22631 -10.22596
 Alpha  occ. eigenvalues --  -10.17368 -10.17318 -10.17286 -10.17279 -10.17257
 Alpha  occ. eigenvalues --  -10.17184 -10.16579 -10.16578  -0.96091  -0.88379
 Alpha  occ. eigenvalues --   -0.80636  -0.76121  -0.72744  -0.68600  -0.68240
 Alpha  occ. eigenvalues --   -0.68163  -0.67910  -0.63145  -0.58078  -0.55087
 Alpha  occ. eigenvalues --   -0.52269  -0.49428  -0.46536  -0.45571  -0.43999
 Alpha  occ. eigenvalues --   -0.43924  -0.43350  -0.42569  -0.41462  -0.40300
 Alpha  occ. eigenvalues --   -0.39749  -0.38742  -0.38167  -0.37715  -0.37429
 Alpha  occ. eigenvalues --   -0.36251  -0.36099  -0.35530  -0.35189  -0.33674
 Alpha  occ. eigenvalues --   -0.33648  -0.32169  -0.32012  -0.30086  -0.23860
 Alpha  occ. eigenvalues --   -0.11831
 Alpha virt. eigenvalues --    0.07654   0.07741   0.08946   0.11348   0.12280
 Alpha virt. eigenvalues --    0.12566   0.13232   0.13945   0.14236   0.15252
 Alpha virt. eigenvalues --    0.15613   0.15958   0.16654   0.16881   0.17336
 Alpha virt. eigenvalues --    0.18116   0.19671   0.19912   0.19952   0.20536
 Alpha virt. eigenvalues --    0.21173   0.21618   0.21990   0.22403   0.22970
 Alpha virt. eigenvalues --    0.23247   0.23941   0.25316   0.25939   0.26902
 Alpha virt. eigenvalues --    0.27201   0.28205   0.29784   0.32393   0.38635
 Alpha virt. eigenvalues --    0.45532   0.48477   0.50623   0.50674   0.51025
 Alpha virt. eigenvalues --    0.52149   0.52995   0.53587   0.55814   0.56307
 Alpha virt. eigenvalues --    0.57188   0.58920   0.60408   0.61397   0.62828
 Alpha virt. eigenvalues --    0.64209   0.64575   0.64761   0.65611   0.67233
 Alpha virt. eigenvalues --    0.69891   0.70842   0.70971   0.73166   0.74136
 Alpha virt. eigenvalues --    0.74413   0.75825   0.81119   0.81204   0.82881
 Alpha virt. eigenvalues --    0.84257   0.84992   0.85462   0.87549   0.87731
 Alpha virt. eigenvalues --    0.88529   0.88732   0.89466   0.90444   0.90903
 Alpha virt. eigenvalues --    0.91237   0.91744   0.92724   0.93102   0.93948
 Alpha virt. eigenvalues --    0.94222   0.94479   0.95042   0.95572   0.96040
 Alpha virt. eigenvalues --    0.98939   0.99258   0.99538   1.01244   1.01726
 Alpha virt. eigenvalues --    1.04314   1.06047   1.06424   1.06712   1.07076
 Alpha virt. eigenvalues --    1.13420   1.14807   1.17980   1.21782   1.30290
 Alpha virt. eigenvalues --    1.32814   1.33773   1.34669   1.38600   1.42360
 Alpha virt. eigenvalues --    1.47655   1.50066   1.51538   1.52737   1.57756
 Alpha virt. eigenvalues --    1.58567   1.61021   1.64576   1.69336   1.70463
 Alpha virt. eigenvalues --    1.71223   1.73435   1.74839   1.77786   1.80982
 Alpha virt. eigenvalues --    1.84111   1.85841   1.86541   1.86954   1.88471
 Alpha virt. eigenvalues --    1.89116   1.92354   1.93207   1.93699   1.98787
 Alpha virt. eigenvalues --    2.02133   2.03195   2.04930   2.06876   2.08211
 Alpha virt. eigenvalues --    2.09016   2.09509   2.10762   2.13047   2.16519
 Alpha virt. eigenvalues --    2.17178   2.17429   2.19058   2.22629   2.24338
 Alpha virt. eigenvalues --    2.25187   2.25673   2.26331   2.27227   2.27649
 Alpha virt. eigenvalues --    2.27868   2.28785   2.29036   2.30479   2.33432
 Alpha virt. eigenvalues --    2.36726   2.43395   2.44815   2.48090   2.48912
 Alpha virt. eigenvalues --    2.52242   2.56591   2.58171   2.63626   2.67272
 Alpha virt. eigenvalues --    2.73131   2.73515   2.75073   2.78016   2.81564
 Alpha virt. eigenvalues --    2.88606   2.92351   2.98259   3.08123   3.18582
 Alpha virt. eigenvalues --    4.04160   4.07423   4.17087   4.22568   4.25278
 Alpha virt. eigenvalues --    4.30568   4.32514   4.32846   4.33122   4.44757
 Alpha virt. eigenvalues --    4.44904   4.68000   4.72075
          Condensed to atoms (all electrons):
              1          2          3          4          5          6
     1  C    5.223970   0.366981  -0.085350   0.001176   0.000097  -0.000065
     2  C    0.366981   4.603249   0.342267  -0.038843   0.004985   0.003352
     3  N   -0.085350   0.342267   6.935385   0.311348  -0.056616  -0.025807
     4  C    0.001176  -0.038843   0.311348   4.836908   0.658325  -0.056916
     5  C    0.000097   0.004985  -0.056616   0.658325   4.837098   0.311042
     6  N   -0.000065   0.003352  -0.025807  -0.056916   0.311042   6.935314
     7  C   -0.003617  -0.038954   0.331014  -0.070321  -0.070053   0.330505
     8  C    0.000005  -0.000071   0.003273   0.005056  -0.039415   0.343323
     9  C   -0.000000   0.000002  -0.000093   0.000051  -0.005517  -0.056290
    10  C    0.000000  -0.000001   0.000064  -0.000200   0.004223  -0.066874
    11  C   -0.000002   0.000004  -0.000008   0.000094   0.001501  -0.085178
    12  C   -0.075242   0.391610  -0.059253  -0.005010   0.000102  -0.000099
    13  C   -0.082718   0.385503  -0.062638   0.004319  -0.000204   0.000099
    14  H    0.366854  -0.025573  -0.003911   0.003736   0.000009  -0.000065
    15  H    0.349972  -0.023720   0.005597  -0.000129  -0.000004   0.000003
    16  H    0.366748  -0.026958  -0.006094   0.000226   0.000119  -0.000221
    17  H    0.000096  -0.005427  -0.045888   0.369371  -0.039822   0.003255
    18  H    0.000001  -0.000124   0.003238  -0.040388   0.370005  -0.045517
    19  H   -0.000925  -0.003587  -0.052240   0.005437   0.005481  -0.052329
    20  H    0.005107  -0.000708  -0.062278   0.006848   0.006715  -0.061472
    21  H    0.000000   0.000000   0.000002  -0.000146   0.000433   0.000566
    22  H    0.000000  -0.000000  -0.000005   0.000039   0.001268  -0.003650
    23  H   -0.000000  -0.000000   0.000001   0.000000   0.000143   0.003879
    24  H    0.000000   0.000001   0.000004  -0.000046   0.000008   0.002506
    25  H    0.000000  -0.000000  -0.000002   0.000003  -0.000077   0.004418
    26  H    0.000000   0.000003   0.000053   0.000022  -0.000205  -0.005008
    27  H    0.000001  -0.000002  -0.000098   0.000046   0.003868  -0.004135
    28  H   -0.000002  -0.000006  -0.000234   0.000132   0.000165  -0.006137
    29  H    0.000000  -0.000000   0.000002  -0.000005  -0.000132   0.005536
    30  H   -0.006411  -0.025286  -0.003872   0.001172   0.000047  -0.000003
    31  H    0.006573  -0.025326   0.000917   0.000409  -0.000173   0.000002
    32  H   -0.000602  -0.026323   0.004035   0.000121  -0.000000   0.000001
    33  H   -0.005208  -0.025341  -0.005220  -0.000198   0.000020   0.000062
    34  H   -0.000866  -0.025063   0.004232  -0.000076   0.000003  -0.000003
    35  H    0.006587  -0.025438   0.002142  -0.000032  -0.000038   0.000001
              7          8          9         10         11         12
     1  C   -0.003617   0.000005  -0.000000   0.000000  -0.000002  -0.075242
     2  C   -0.038954  -0.000071   0.000002  -0.000001   0.000004   0.391610
     3  N    0.331014   0.003273  -0.000093   0.000064  -0.000008  -0.059253
     4  C   -0.070321   0.005056   0.000051  -0.000200   0.000094  -0.005010
     5  C   -0.070053  -0.039415  -0.005517   0.004223   0.001501   0.000102
     6  N    0.330505   0.343323  -0.056290  -0.066874  -0.085178  -0.000099
     7  C    4.759006  -0.039248   0.004383  -0.004930  -0.004578   0.004362
     8  C   -0.039248   4.603742   0.391567   0.384580   0.367300   0.000002
     9  C    0.004383   0.391567   5.169673  -0.056537  -0.072953  -0.000000
    10  C   -0.004930   0.384580  -0.056537   5.197394  -0.083426   0.000000
    11  C   -0.004578   0.367300  -0.072953  -0.083426   5.225325  -0.000000
    12  C    0.004362   0.000002  -0.000000   0.000000  -0.000000   5.171356
    13  C   -0.005507  -0.000001   0.000000  -0.000000   0.000000  -0.055794
    14  H   -0.000031  -0.000002  -0.000000  -0.000000   0.000001  -0.006016
    15  H    0.000048  -0.000000   0.000000   0.000000   0.000000  -0.002319
    16  H    0.000761  -0.000006  -0.000000   0.000000  -0.000003   0.005549
    17  H    0.006191  -0.000124   0.000001   0.000004   0.000001   0.003463
    18  H    0.006178  -0.005916   0.004025   0.000084   0.000083   0.000001
    19  H    0.372846  -0.002947   0.000088   0.006766  -0.000938   0.000168
    20  H    0.333575  -0.001593  -0.000159  -0.003845   0.004990  -0.000213
    21  H    0.000015  -0.025415   0.361165  -0.006495   0.006627  -0.000000
    22  H   -0.000115  -0.025552   0.363431   0.005935  -0.006347  -0.000000
    23  H   -0.000083  -0.025694   0.366004  -0.006940  -0.001315   0.000000
    24  H   -0.000437  -0.025254  -0.005862   0.359139   0.006512  -0.000000
    25  H    0.000028  -0.025457  -0.006897   0.360839  -0.000104  -0.000000
    26  H    0.003277  -0.025354   0.005741   0.363954  -0.005621  -0.000000
    27  H    0.000017  -0.025619  -0.005785   0.005570   0.366729  -0.000000
    28  H    0.000506  -0.027141   0.005592  -0.006052   0.366071  -0.000000
    29  H    0.000088  -0.023857  -0.003060  -0.001025   0.351118   0.000000
    30  H   -0.000116  -0.000000   0.000000   0.000000   0.000000   0.363651
    31  H    0.000044   0.000000  -0.000000  -0.000000   0.000000   0.361184
    32  H   -0.000085  -0.000000   0.000000   0.000000  -0.000000   0.364867
    33  H    0.003471   0.000002  -0.000000  -0.000000   0.000000   0.005745
    34  H    0.000060  -0.000000  -0.000000   0.000000   0.000000  -0.006596
    35  H   -0.000542   0.000001  -0.000000  -0.000002   0.000000  -0.006338
             13         14         15         16         17         18
     1  C   -0.082718   0.366854   0.349972   0.366748   0.000096   0.000001
     2  C    0.385503  -0.025573  -0.023720  -0.026958  -0.005427  -0.000124
     3  N   -0.062638  -0.003911   0.005597  -0.006094  -0.045888   0.003238
     4  C    0.004319   0.003736  -0.000129   0.000226   0.369371  -0.040388
     5  C   -0.000204   0.000009  -0.000004   0.000119  -0.039822   0.370005
     6  N    0.000099  -0.000065   0.000003  -0.000221   0.003255  -0.045517
     7  C   -0.005507  -0.000031   0.000048   0.000761   0.006191   0.006178
     8  C   -0.000001  -0.000002  -0.000000  -0.000006  -0.000124  -0.005916
     9  C    0.000000  -0.000000   0.000000  -0.000000   0.000001   0.004025
    10  C   -0.000000  -0.000000   0.000000   0.000000   0.000004   0.000084
    11  C    0.000000   0.000001   0.000000  -0.000003   0.000001   0.000083
    12  C   -0.055794  -0.006016  -0.002319   0.005549   0.003463   0.000001
    13  C    5.193004   0.005614  -0.001740  -0.005597   0.000069   0.000004
    14  H    0.005614   0.569981  -0.030432  -0.029462   0.000103   0.000002
    15  H   -0.001740  -0.030432   0.599136  -0.031604  -0.000011  -0.000000
    16  H   -0.005597  -0.029462  -0.031604   0.577440  -0.000004  -0.000000
    17  H    0.000069   0.000103  -0.000011  -0.000004   0.576071  -0.000707
    18  H    0.000004   0.000002  -0.000000  -0.000000  -0.000707   0.575695
    19  H    0.007170  -0.000019   0.000038  -0.000287  -0.000108  -0.000108
    20  H   -0.004234   0.000199  -0.000449   0.006210  -0.000197  -0.000195
    21  H   -0.000000   0.000000  -0.000000   0.000000  -0.000001   0.000400
    22  H    0.000000  -0.000000  -0.000000   0.000000   0.000001   0.001901
    23  H    0.000000   0.000000  -0.000000   0.000000   0.000000  -0.000048
    24  H   -0.000001   0.000000  -0.000000   0.000000  -0.000000  -0.000006
    25  H   -0.000000   0.000000   0.000000   0.000000  -0.000000  -0.000001
    26  H   -0.000001  -0.000000  -0.000000  -0.000001   0.000000  -0.000006
    27  H   -0.000000   0.000001  -0.000000   0.000002   0.000003   0.000061
    28  H    0.000001   0.000001  -0.000000   0.000008  -0.000000  -0.000008
    29  H    0.000000  -0.000000  -0.000000  -0.000000  -0.000000  -0.000009
    30  H    0.005891   0.004395   0.000114  -0.000018   0.002109   0.000001
    31  H   -0.006398  -0.000032  -0.000133  -0.000187   0.000303  -0.000001
    32  H   -0.006932  -0.000087   0.001568  -0.000032  -0.000053   0.000000
    33  H    0.363484  -0.000039   0.000060   0.003635  -0.000006   0.000000
    34  H    0.362355  -0.000021   0.001790   0.000022  -0.000000  -0.000000
    35  H    0.359644  -0.000191  -0.000113  -0.000038  -0.000005  -0.000000
             19         20         21         22         23         24
     1  C   -0.000925   0.005107   0.000000   0.000000  -0.000000   0.000000
     2  C   -0.003587  -0.000708   0.000000  -0.000000  -0.000000   0.000001
     3  N   -0.052240  -0.062278   0.000002  -0.000005   0.000001   0.000004
     4  C    0.005437   0.006848  -0.000146   0.000039   0.000000  -0.000046
     5  C    0.005481   0.006715   0.000433   0.001268   0.000143   0.000008
     6  N   -0.052329  -0.061472   0.000566  -0.003650   0.003879   0.002506
     7  C    0.372846   0.333575   0.000015  -0.000115  -0.000083  -0.000437
     8  C   -0.002947  -0.001593  -0.025415  -0.025552  -0.025694  -0.025254
     9  C    0.000088  -0.000159   0.361165   0.363431   0.366004  -0.005862
    10  C    0.006766  -0.003845  -0.006495   0.005935  -0.006940   0.359139
    11  C   -0.000938   0.004990   0.006627  -0.006347  -0.001315   0.006512
    12  C    0.000168  -0.000213  -0.000000  -0.000000   0.000000  -0.000000
    13  C    0.007170  -0.004234  -0.000000   0.000000   0.000000  -0.000001
    14  H   -0.000019   0.000199   0.000000  -0.000000   0.000000   0.000000
    15  H    0.000038  -0.000449  -0.000000  -0.000000  -0.000000  -0.000000
    16  H   -0.000287   0.006210   0.000000   0.000000   0.000000   0.000000
    17  H   -0.000108  -0.000197  -0.000001   0.000001   0.000000  -0.000000
    18  H   -0.000108  -0.000195   0.000400   0.001901  -0.000048  -0.000006
    19  H    0.672777  -0.087438  -0.000086  -0.000000  -0.000002  -0.000995
    20  H   -0.087438   0.738213   0.000029  -0.000001   0.000008   0.000481
    21  H   -0.000086   0.000029   0.564717  -0.031720  -0.027542   0.004002
    22  H   -0.000000  -0.000001  -0.031720   0.576078  -0.030683  -0.000080
    23  H   -0.000002   0.000008  -0.027542  -0.030683   0.572074   0.000166
    24  H   -0.000995   0.000481   0.004002  -0.000080   0.000166   0.566966
    25  H   -0.000117   0.000078   0.000264   0.000011   0.004002  -0.027234
    26  H   -0.000109   0.000389  -0.000084  -0.000202   0.000049  -0.031095
    27  H   -0.000020   0.000309  -0.000050   0.004325  -0.000074  -0.000189
    28  H   -0.000373   0.007416  -0.000187  -0.000013  -0.000035  -0.000018
    29  H    0.000037  -0.000488  -0.000114   0.000128   0.001865  -0.000126
    30  H    0.000001  -0.000003   0.000000   0.000000   0.000000   0.000000
    31  H   -0.000109   0.000032   0.000000   0.000000  -0.000000   0.000000
    32  H   -0.000005   0.000009  -0.000000   0.000000  -0.000000   0.000000
    33  H   -0.000622   0.000825   0.000000  -0.000000   0.000000   0.000000
    34  H   -0.000092   0.000067  -0.000000   0.000000  -0.000000  -0.000000
    35  H   -0.001011   0.000537   0.000000   0.000000   0.000000   0.000000
             25         26         27         28         29         30
     1  C    0.000000   0.000000   0.000001  -0.000002   0.000000  -0.006411
     2  C   -0.000000   0.000003  -0.000002  -0.000006  -0.000000  -0.025286
     3  N   -0.000002   0.000053  -0.000098  -0.000234   0.000002  -0.003872
     4  C    0.000003   0.000022   0.000046   0.000132  -0.000005   0.001172
     5  C   -0.000077  -0.000205   0.003868   0.000165  -0.000132   0.000047
     6  N    0.004418  -0.005008  -0.004135  -0.006137   0.005536  -0.000003
     7  C    0.000028   0.003277   0.000017   0.000506   0.000088  -0.000116
     8  C   -0.025457  -0.025354  -0.025619  -0.027141  -0.023857  -0.000000
     9  C   -0.006897   0.005741  -0.005785   0.005592  -0.003060   0.000000
    10  C    0.360839   0.363954   0.005570  -0.006052  -0.001025   0.000000
    11  C   -0.000104  -0.005621   0.366729   0.366071   0.351118   0.000000
    12  C   -0.000000  -0.000000  -0.000000  -0.000000   0.000000   0.363651
    13  C   -0.000000  -0.000001  -0.000000   0.000001   0.000000   0.005891
    14  H    0.000000  -0.000000   0.000001   0.000001  -0.000000   0.004395
    15  H    0.000000  -0.000000  -0.000000  -0.000000  -0.000000   0.000114
    16  H    0.000000  -0.000001   0.000002   0.000008  -0.000000  -0.000018
    17  H   -0.000000   0.000000   0.000003  -0.000000  -0.000000   0.002109
    18  H   -0.000001  -0.000006   0.000061  -0.000008  -0.000009   0.000001
    19  H   -0.000117  -0.000109  -0.000020  -0.000373   0.000037   0.000001
    20  H    0.000078   0.000389   0.000309   0.007416  -0.000488  -0.000003
    21  H    0.000264  -0.000084  -0.000050  -0.000187  -0.000114   0.000000
    22  H    0.000011  -0.000202   0.004325  -0.000013   0.000128   0.000000
    23  H    0.004002   0.000049  -0.000074  -0.000035   0.001865   0.000000
    24  H   -0.027234  -0.031095  -0.000189  -0.000018  -0.000126   0.000000
    25  H    0.577596  -0.030240  -0.000033   0.000042   0.001446   0.000000
    26  H   -0.030240   0.576932  -0.000029   0.003843   0.000056  -0.000000
    27  H   -0.000033  -0.000029   0.568226  -0.029701  -0.029951  -0.000000
    28  H    0.000042   0.003843  -0.029701   0.578756  -0.031730   0.000000
    29  H    0.001446   0.000056  -0.029951  -0.031730   0.597185  -0.000000
    30  H    0.000000  -0.000000  -0.000000   0.000000  -0.000000   0.576739
    31  H   -0.000000   0.000000   0.000000   0.000000  -0.000000  -0.031552
    32  H   -0.000000   0.000000   0.000000   0.000000   0.000000  -0.030816
    33  H   -0.000000   0.000004  -0.000000  -0.000002  -0.000000  -0.000201
    34  H    0.000000  -0.000000   0.000000   0.000000   0.000000  -0.000000
    35  H   -0.000000  -0.000000   0.000000   0.000000  -0.000000  -0.000070
             31         32         33         34         35
     1  C    0.006573  -0.000602  -0.005208  -0.000866   0.006587
     2  C   -0.025326  -0.026323  -0.025341  -0.025063  -0.025438
     3  N    0.000917   0.004035  -0.005220   0.004232   0.002142
     4  C    0.000409   0.000121  -0.000198  -0.000076  -0.000032
     5  C   -0.000173  -0.000000   0.000020   0.000003  -0.000038
     6  N    0.000002   0.000001   0.000062  -0.000003   0.000001
     7  C    0.000044  -0.000085   0.003471   0.000060  -0.000542
     8  C    0.000000  -0.000000   0.000002  -0.000000   0.000001
     9  C   -0.000000   0.000000  -0.000000  -0.000000  -0.000000
    10  C   -0.000000   0.000000  -0.000000   0.000000  -0.000002
    11  C    0.000000  -0.000000   0.000000   0.000000   0.000000
    12  C    0.361184   0.364867   0.005745  -0.006596  -0.006338
    13  C   -0.006398  -0.006932   0.363484   0.362355   0.359644
    14  H   -0.000032  -0.000087  -0.000039  -0.000021  -0.000191
    15  H   -0.000133   0.001568   0.000060   0.001790  -0.000113
    16  H   -0.000187  -0.000032   0.003635   0.000022  -0.000038
    17  H    0.000303  -0.000053  -0.000006  -0.000000  -0.000005
    18  H   -0.000001   0.000000   0.000000  -0.000000  -0.000000
    19  H   -0.000109  -0.000005  -0.000622  -0.000092  -0.001011
    20  H    0.000032   0.000009   0.000825   0.000067   0.000537
    21  H    0.000000  -0.000000   0.000000  -0.000000   0.000000
    22  H    0.000000   0.000000  -0.000000   0.000000   0.000000
    23  H   -0.000000  -0.000000   0.000000  -0.000000   0.000000
    24  H    0.000000   0.000000   0.000000  -0.000000   0.000000
    25  H   -0.000000  -0.000000  -0.000000   0.000000  -0.000000
    26  H    0.000000   0.000000   0.000004  -0.000000  -0.000000
    27  H    0.000000   0.000000  -0.000000   0.000000   0.000000
    28  H    0.000000   0.000000  -0.000002   0.000000   0.000000
    29  H   -0.000000   0.000000  -0.000000   0.000000  -0.000000
    30  H   -0.031552  -0.030816  -0.000201  -0.000000  -0.000070
    31  H    0.563835  -0.027343  -0.000082   0.000207   0.004143
    32  H   -0.027343   0.574470   0.000043   0.003896   0.000205
    33  H   -0.000082   0.000043   0.575870  -0.030188  -0.031140
    34  H    0.000207   0.003896  -0.030188   0.574765  -0.027417
    35  H    0.004143   0.000205  -0.031140  -0.027417   0.567563
 Mulliken atomic charges:
              1
     1  C   -0.433162
     2  C    0.218795
     3  N   -0.473966
     4  C    0.007472
     5  C    0.006603
     6  N   -0.474095
     7  C    0.082241
     8  C    0.219814
     9  C   -0.458570
    10  C   -0.452224
    11  C   -0.435882
    12  C   -0.455179
    13  C   -0.455393
    14  H    0.144987
    15  H    0.132329
    16  H    0.139796
    17  H    0.131313
    18  H    0.131355
    19  H    0.133659
    20  H    0.111238
    21  H    0.153620
    22  H    0.145254
    23  H    0.144225
    24  H    0.151556
    25  H    0.141435
    26  H    0.143632
    27  H    0.146529
    28  H    0.139106
    29  H    0.133035
    30  H    0.144230
    31  H    0.153685
    32  H    0.143064
    33  H    0.145025
    34  H    0.142921
    35  H    0.151551
 Sum of Mulliken atomic charges =  -0.00000
 Mulliken charges with hydrogens summed into heavy atoms:
              1
     1  C   -0.016049
     2  C    0.218795
     3  N   -0.473966
     4  C    0.138785
     5  C    0.137958
     6  N   -0.474095
     7  C    0.327139
     8  C    0.219814
     9  C   -0.015471
    10  C   -0.015602
    11  C   -0.017213
    12  C   -0.014200
    13  C   -0.015895
 Sum of Mulliken charges with hydrogens summed into heavy atoms =  -0.00000
 Electronic spatial extent (au):  <R**2>=           3123.2698
 Charge=             -0.0000 electrons
 Dipole moment (field-independent basis, Debye):
    X=              0.0074    Y=             -0.6390    Z=              0.2127  Tot=              0.6735
 Quadrupole moment (field-independent basis, Debye-Ang):
   XX=            -76.6476   YY=            -81.3658   ZZ=            -85.6814
   XY=             -0.1049   XZ=             -0.0597   YZ=              0.9196
 Traceless Quadrupole moment (field-independent basis, Debye-Ang):
   XX=              4.5840   YY=             -0.1342   ZZ=             -4.4498
   XY=             -0.1049   XZ=             -0.0597   YZ=              0.9196
 Octapole moment (field-independent basis, Debye-Ang**2):
  XXX=             -0.4688  YYY=              7.6605  ZZZ=             -4.1365  XYY=              0.2661
  XXY=              1.0157  XXZ=             -2.0068  XZZ=             -0.0606  YZZ=             -1.2965
  YYZ=              1.7105  XYZ=              0.1481
 Hexadecapole moment (field-independent basis, Debye-Ang**3):
 XXXX=          -3075.3999 YYYY=           -665.1225 ZZZZ=           -454.5795 XXXY=             -1.5604
 XXXZ=             -0.7449 YYYX=             -0.0942 YYYZ=              2.1875 ZZZX=             -0.5288
[...]
 Monte-Carlo method of calculating molar volume:
 based on  0.001 e/bohr**3 density envelope.
 Number of points per bohr**3 =   20 CutOff= 1.00D-04
 Using the CI density.
 There are       409 points.  Will hold       409 in memory.
 LenV=  1342020533 MDV=  1342177280.
 Box volume = 8584.855 fraction occupied=0.208
 Integrated density= 1.0316701232492225D+02 error= 1.1670123249222542D+00
 Molar volume = 1784.139 bohr**3/mol (159.215 cm**3/mol)
 Recommended a0 for SCRF calculation =  4.88 angstrom (  9.23 bohr)
 Leave Link  604 at Sat Oct  2 11:34:07 2021, MaxMem= 1342177280 cpu:       0.4
 (Enter /sw/target/amd/app/gaussian/Gaussian09RevA.02_gcc-4.9.2/g09/l607.exe)
 ******************************Gaussian NBO Version 3.1******************************
             N A T U R A L   A T O M I C   O R B I T A L   A N D
          N A T U R A L   B O N D   O R B I T A L   A N A L Y S I S
 ******************************Gaussian NBO Version 3.1******************************
       /RESON  / : Allow strongly delocalized NBO set

 Analyzing the CI density

 Job title: CC(N1C=CN(C1)C(C)(C)C)(C)C_conf_0                               

 Storage needed:    175312 in NPA (1342170805 available)


 NATURAL POPULATIONS:  Natural atomic orbital occupancies 
                                                          
   NAO  Atom  No  lang   Type(AO)    Occupancy
 --------------------------------------------
     1    C    1  S      Cor( 1S)     1.99935
     2    C    1  S      Val( 2S)     1.09513
     3    C    1  S      Ryd( 3S)     0.00077
     4    C    1  S      Ryd( 4S)     0.00002
     5    C    1  px     Val( 2p)     1.24064
     6    C    1  px     Ryd( 3p)     0.00156
     7    C    1  py     Val( 2p)     1.25552
     8    C    1  py     Ryd( 3p)     0.00230
     9    C    1  pz     Val( 2p)     1.08507
    10    C    1  pz     Ryd( 3p)     0.00383
    11    C    1  dxy    Ryd( 3d)     0.00079
    12    C    1  dxz    Ryd( 3d)     0.00049
    13    C    1  dyz    Ryd( 3d)     0.00068
    14    C    1  dx2y2  Ryd( 3d)     0.00058
    15    C    1  dz2    Ryd( 3d)     0.00073

    16    C    2  S      Cor( 1S)     1.99912
    17    C    2  S      Val( 2S)     0.89649
    18    C    2  S      Ryd( 3S)     0.00065
    19    C    2  S      Ryd( 4S)     0.00003
    20    C    2  px     Val( 2p)     0.89588
    21    C    2  px     Ryd( 3p)     0.00185
    22    C    2  py     Val( 2p)     1.03481
    23    C    2  py     Ryd( 3p)     0.00551
    24    C    2  pz     Val( 2p)     1.02278
    25    C    2  pz     Ryd( 3p)     0.00450
    26    C    2  dxy    Ryd( 3d)     0.00103
    27    C    2  dxz    Ryd( 3d)     0.00117
    28    C    2  dyz    Ryd( 3d)     0.00085
    29    C    2  dx2y2  Ryd( 3d)     0.00102
    30    C    2  dz2    Ryd( 3d)     0.00114

    31    N    3  S      Cor( 1S)     1.99935
    32    N    3  S      Val( 2S)     1.25360
    33    N    3  S      Ryd( 3S)     0.00137
    34    N    3  S      Ryd( 4S)     0.00003
    35    N    3  px     Val( 2p)     1.27693
    36    N    3  px     Ryd( 3p)     0.00254
    37    N    3  py     Val( 2p)     1.27244
    38    N    3  py     Ryd( 3p)     0.00212
    39    N    3  pz     Val( 2p)     1.54073
    40    N    3  pz     Ryd( 3p)     0.00634
    41    N    3  dxy    Ryd( 3d)     0.00091
    42    N    3  dxz    Ryd( 3d)     0.00093
    43    N    3  dyz    Ryd( 3d)     0.00118
    44    N    3  dx2y2  Ryd( 3d)     0.00053
    45    N    3  dz2    Ryd( 3d)     0.00093

    46    C    4  S      Cor( 1S)     1.99903
    47    C    4  S      Val( 2S)     0.92051
    48    C    4  S      Ryd( 3S)     0.00206
    49    C    4  S      Ryd( 4S)     0.00007
    50    C    4  px     Val( 2p)     1.08882
    51    C    4  px     Ryd( 3p)     0.00668
    52    C    4  py     Val( 2p)     0.96825
    53    C    4  py     Ryd( 3p)     0.00615
    54    C    4  pz     Val( 2p)     1.23031
    55    C    4  pz     Ryd( 3p)     0.01640
    56    C    4  dxy    Ryd( 3d)     0.00106
    57    C    4  dxz    Ryd( 3d)     0.00123
    58    C    4  dyz    Ryd( 3d)     0.00064
    59    C    4  dx2y2  Ryd( 3d)     0.00092
    60    C    4  dz2    Ryd( 3d)     0.00060

    61    C    5  S      Cor( 1S)     1.99903
    62    C    5  S      Val( 2S)     0.92050
    63    C    5  S      Ryd( 3S)     0.00206
    64    C    5  S      Ryd( 4S)     0.00007
    65    C    5  px     Val( 2p)     1.08882
    66    C    5  px     Ryd( 3p)     0.00668
    67    C    5  py     Val( 2p)     0.96827
    68    C    5  py     Ryd( 3p)     0.00615
    69    C    5  pz     Val( 2p)     1.23028
    70    C    5  pz     Ryd( 3p)     0.01640
    71    C    5  dxy    Ryd( 3d)     0.00106
    72    C    5  dxz    Ryd( 3d)     0.00123
    73    C    5  dyz    Ryd( 3d)     0.00064
    74    C    5  dx2y2  Ryd( 3d)     0.00092
    75    C    5  dz2    Ryd( 3d)     0.00060

    76    N    6  S      Cor( 1S)     1.99935
    77    N    6  S      Val( 2S)     1.25359
    78    N    6  S      Ryd( 3S)     0.00137
    79    N    6  S      Ryd( 4S)     0.00003
    80    N    6  px     Val( 2p)     1.27693
    81    N    6  px     Ryd( 3p)     0.00254
    82    N    6  py     Val( 2p)     1.27244
    83    N    6  py     Ryd( 3p)     0.00212
    84    N    6  pz     Val( 2p)     1.54073
    85    N    6  pz     Ryd( 3p)     0.00634
    86    N    6  dxy    Ryd( 3d)     0.00091
    87    N    6  dxz    Ryd( 3d)     0.00093
    88    N    6  dyz    Ryd( 3d)     0.00118
    89    N    6  dx2y2  Ryd( 3d)     0.00053
    90    N    6  dz2    Ryd( 3d)     0.00093

    91    C    7  S      Cor( 1S)     1.99936
    92    C    7  S      Val( 2S)     1.00712
    93    C    7  S      Ryd( 3S)     0.00251
    94    C    7  S      Ryd( 4S)     0.00004
    95    C    7  px     Val( 2p)     0.79979
    96    C    7  px     Ryd( 3p)     0.00380
    97    C    7  py     Val( 2p)     1.02524
    98    C    7  py     Ryd( 3p)     0.00286
    99    C    7  pz     Val( 2p)     1.22581
   100    C    7  pz     Ryd( 3p)     0.00317
   101    C    7  dxy    Ryd( 3d)     0.00160
   102    C    7  dxz    Ryd( 3d)     0.00166
   103    C    7  dyz    Ryd( 3d)     0.00173
   104    C    7  dx2y2  Ryd( 3d)     0.00112
   105    C    7  dz2    Ryd( 3d)     0.00096

   106    C    8  S      Cor( 1S)     1.99912
   107    C    8  S      Val( 2S)     0.89649
   108    C    8  S      Ryd( 3S)     0.00065
   109    C    8  S      Ryd( 4S)     0.00003
   110    C    8  px     Val( 2p)     0.89587
   111    C    8  px     Ryd( 3p)     0.00185
   112    C    8  py     Val( 2p)     1.03481
   113    C    8  py     Ryd( 3p)     0.00551
   114    C    8  pz     Val( 2p)     1.02279
   115    C    8  pz     Ryd( 3p)     0.00450
   116    C    8  dxy    Ryd( 3d)     0.00103
   117    C    8  dxz    Ryd( 3d)     0.00117
   118    C    8  dyz    Ryd( 3d)     0.00085
   119    C    8  dx2y2  Ryd( 3d)     0.00102
   120    C    8  dz2    Ryd( 3d)     0.00114

   121    C    9  S      Cor( 1S)     1.99936
   122    C    9  S      Val( 2S)     1.09830
   123    C    9  S      Ryd( 3S)     0.00087
   124    C    9  S      Ryd( 4S)     0.00002
   125    C    9  px     Val( 2p)     1.15031
   126    C    9  px     Ryd( 3p)     0.00195
   127    C    9  py     Val( 2p)     1.17989
   128    C    9  py     Ryd( 3p)     0.00213
   129    C    9  pz     Val( 2p)     1.24037
   130    C    9  pz     Ryd( 3p)     0.00233
   131    C    9  dxy    Ryd( 3d)     0.00060
   132    C    9  dxz    Ryd( 3d)     0.00032
   133    C    9  dyz    Ryd( 3d)     0.00055
   134    C    9  dx2y2  Ryd( 3d)     0.00079
   135    C    9  dz2    Ryd( 3d)     0.00106

   136    C   10  S      Cor( 1S)     1.99936
   137    C   10  S      Val( 2S)     1.09428
   138    C   10  S      Ryd( 3S)     0.00071
   139    C   10  S      Ryd( 4S)     0.00002
   140    C   10  px     Val( 2p)     1.24058
   141    C   10  px     Ryd( 3p)     0.00229
   142    C   10  py     Val( 2p)     1.11298
   143    C   10  py     Ryd( 3p)     0.00231
   144    C   10  pz     Val( 2p)     1.22506
   145    C   10  pz     Ryd( 3p)     0.00238
   146    C   10  dxy    Ryd( 3d)     0.00091
   147    C   10  dxz    Ryd( 3d)     0.00030
   148    C   10  dyz    Ryd( 3d)     0.00040
   149    C   10  dx2y2  Ryd( 3d)     0.00053
   150    C   10  dz2    Ryd( 3d)     0.00118

   151    C   11  S      Cor( 1S)     1.99935
   152    C   11  S      Val( 2S)     1.09513
   153    C   11  S      Ryd( 3S)     0.00077
   154    C   11  S      Ryd( 4S)     0.00002
   155    C   11  px     Val( 2p)     1.24064
   156    C   11  px     Ryd( 3p)     0.00156
   157    C   11  py     Val( 2p)     1.25550
   158    C   11  py     Ryd( 3p)     0.00230
   159    C   11  pz     Val( 2p)     1.08509
   160    C   11  pz     Ryd( 3p)     0.00383
   161    C   11  dxy    Ryd( 3d)     0.00079
   162    C   11  dxz    Ryd( 3d)     0.00049
   163    C   11  dyz    Ryd( 3d)     0.00068
   164    C   11  dx2y2  Ryd( 3d)     0.00058
   165    C   11  dz2    Ryd( 3d)     0.00073

   166    C   12  S      Cor( 1S)     1.99936
   167    C   12  S      Val( 2S)     1.09829
   168    C   12  S      Ryd( 3S)     0.00086
   169    C   12  S      Ryd( 4S)     0.00002
   170    C   12  px     Val( 2p)     1.15031
   171    C   12  px     Ryd( 3p)     0.00195
   172    C   12  py     Val( 2p)     1.17991
   173    C   12  py     Ryd( 3p)     0.00213
   174    C   12  pz     Val( 2p)     1.24036
   175    C   12  pz     Ryd( 3p)     0.00233
   176    C   12  dxy    Ryd( 3d)     0.00060
   177    C   12  dxz    Ryd( 3d)     0.00032
   178    C   12  dyz    Ryd( 3d)     0.00055
   179    C   12  dx2y2  Ryd( 3d)     0.00079
   180    C   12  dz2    Ryd( 3d)     0.00106

   181    C   13  S      Cor( 1S)     1.99936
   182    C   13  S      Val( 2S)     1.09427
   183    C   13  S      Ryd( 3S)     0.00071
   184    C   13  S      Ryd( 4S)     0.00002
   185    C   13  px     Val( 2p)     1.24059
   186    C   13  px     Ryd( 3p)     0.00229
   187    C   13  py     Val( 2p)     1.11296
   188    C   13  py     Ryd( 3p)     0.00231
   189    C   13  pz     Val( 2p)     1.22508
   190    C   13  pz     Ryd( 3p)     0.00238
   191    C   13  dxy    Ryd( 3d)     0.00091
   192    C   13  dxz    Ryd( 3d)     0.00030
   193    C   13  dyz    Ryd( 3d)     0.00040
   194    C   13  dx2y2  Ryd( 3d)     0.00053
   195    C   13  dz2    Ryd( 3d)     0.00118

   196    H   14  S      Val( 1S)     0.76080
   197    H   14  S      Ryd( 2S)     0.00996

   198    H   15  S      Val( 1S)     0.76293
   199    H   15  S      Ryd( 2S)     0.00127

   200    H   16  S      Val( 1S)     0.77875
   201    H   16  S      Ryd( 2S)     0.00136

   202    H   17  S      Val( 1S)     0.76872
   203    H   17  S      Ryd( 2S)     0.00085

   204    H   18  S      Val( 1S)     0.76871
   205    H   18  S      Ryd( 2S)     0.00085

   206    H   19  S      Val( 1S)     0.73989
   207    H   19  S      Ryd( 2S)     0.00124

   208    H   20  S      Val( 1S)     0.75610
   209    H   20  S      Ryd( 2S)     0.00342

   210    H   21  S      Val( 1S)     0.76050
   211    H   21  S      Ryd( 2S)     0.00291

   212    H   22  S      Val( 1S)     0.76690
   213    H   22  S      Ryd( 2S)     0.00486

   214    H   23  S      Val( 1S)     0.76462
   215    H   23  S      Ryd( 2S)     0.00143

   216    H   24  S      Val( 1S)     0.76339
   217    H   24  S      Ryd( 2S)     0.00531

   218    H   25  S      Val( 1S)     0.75876
   219    H   25  S      Ryd( 2S)     0.00201

   220    H   26  S      Val( 1S)     0.77551
   221    H   26  S      Ryd( 2S)     0.00144

   222    H   27  S      Val( 1S)     0.76081
   223    H   27  S      Ryd( 2S)     0.00997

   224    H   28  S      Val( 1S)     0.77876
   225    H   28  S      Ryd( 2S)     0.00136

   226    H   29  S      Val( 1S)     0.76293
   227    H   29  S      Ryd( 2S)     0.00127

   228    H   30  S      Val( 1S)     0.76689
   229    H   30  S      Ryd( 2S)     0.00485

   230    H   31  S      Val( 1S)     0.76049
   231    H   31  S      Ryd( 2S)     0.00290

   232    H   32  S      Val( 1S)     0.76462
   233    H   32  S      Ryd( 2S)     0.00143

   234    H   33  S      Val( 1S)     0.77550
   235    H   33  S      Ryd( 2S)     0.00143

   236    H   34  S      Val( 1S)     0.75876
   237    H   34  S      Ryd( 2S)     0.00200

   238    H   35  S      Val( 1S)     0.76339
   239    H   35  S      Ryd( 2S)     0.00530


 Summary of Natural Population Analysis:                  
                                                          
                                       Natural Population 
                Natural  -----------------------------------------------
    Atom  No    Charge         Core      Valence    Rydberg      Total
 -----------------------------------------------------------------------
      C    1   -0.68746      1.99935     4.67636    0.01175     6.68746
      C    2    0.13316      1.99912     3.84996    0.01776     5.86684
      N    3   -0.35991      1.99935     5.34370    0.01687     7.35991
      C    4   -0.24273      1.99903     4.20789    0.03581     6.24273
      C    5   -0.24272      1.99903     4.20788    0.03581     6.24272
      N    6   -0.35990      1.99935     5.34369    0.01687     7.35990
      C    7   -0.07678      1.99936     4.05796    0.01946     6.07678
      C    8    0.13316      1.99912     3.84996    0.01776     5.86684
      C    9   -0.67884      1.99936     4.66886    0.01061     6.67884
      C   10   -0.68328      1.99936     4.67289    0.01103     6.68328
      C   11   -0.68746      1.99935     4.67636    0.01175     6.68746
      C   12   -0.67883      1.99936     4.66886    0.01061     6.67883
      C   13   -0.68328      1.99936     4.67290    0.01103     6.68328
      H   14    0.22924      0.00000     0.76080    0.00996     0.77076
      H   15    0.23580      0.00000     0.76293    0.00127     0.76420
      H   16    0.21990      0.00000     0.77875    0.00136     0.78010
      H   17    0.23044      0.00000     0.76872    0.00085     0.76956
      H   18    0.23045      0.00000     0.76871    0.00085     0.76955
      H   19    0.25887      0.00000     0.73989    0.00124     0.74113
      H   20    0.24048      0.00000     0.75610    0.00342     0.75952
      H   21    0.23660      0.00000     0.76050    0.00291     0.76340
      H   22    0.22824      0.00000     0.76690    0.00486     0.77176
      H   23    0.23395      0.00000     0.76462    0.00143     0.76605
      H   24    0.23130      0.00000     0.76339    0.00531     0.76870
      H   25    0.23923      0.00000     0.75876    0.00201     0.76077
      H   26    0.22306      0.00000     0.77551    0.00144     0.77694
      H   27    0.22922      0.00000     0.76081    0.00997     0.77078
      H   28    0.21988      0.00000     0.77876    0.00136     0.78012
      H   29    0.23580      0.00000     0.76293    0.00127     0.76420
      H   30    0.22826      0.00000     0.76689    0.00485     0.77174
      H   31    0.23661      0.00000     0.76049    0.00290     0.76339
      H   32    0.23396      0.00000     0.76462    0.00143     0.76604
      H   33    0.22307      0.00000     0.77550    0.00143     0.77693
      H   34    0.23924      0.00000     0.75876    0.00200     0.76076
      H   35    0.23131      0.00000     0.76339    0.00530     0.76869
 =======================================================================
   * Total *   -0.00000     25.99050    75.71497    0.29453   102.00000

                                 Natural Population      
 --------------------------------------------------------
   Core                      25.99050 ( 99.9635% of  26)
   Valence                   75.71497 ( 99.6250% of  76)
   Natural Minimal Basis    101.70547 ( 99.7112% of 102)
   Natural Rydberg Basis      0.29453 (  0.2888% of 102)
 --------------------------------------------------------

    Atom  No          Natural Electron Configuration
 ----------------------------------------------------------------------------
      C    1      [core]2S( 1.10)2p( 3.58)3p( 0.01)
      C    2      [core]2S( 0.90)2p( 2.95)3p( 0.01)3d( 0.01)
      N    3      [core]2S( 1.25)2p( 4.09)3p( 0.01)
      C    4      [core]2S( 0.92)2p( 3.29)3p( 0.03)
      C    5      [core]2S( 0.92)2p( 3.29)3p( 0.03)
      N    6      [core]2S( 1.25)2p( 4.09)3p( 0.01)
      C    7      [core]2S( 1.01)2p( 3.05)3p( 0.01)3d( 0.01)
      C    8      [core]2S( 0.90)2p( 2.95)3p( 0.01)3d( 0.01)
      C    9      [core]2S( 1.10)2p( 3.57)3p( 0.01)
      C   10      [core]2S( 1.09)2p( 3.58)3p( 0.01)
      C   11      [core]2S( 1.10)2p( 3.58)3p( 0.01)
      C   12      [core]2S( 1.10)2p( 3.57)3p( 0.01)
      C   13      [core]2S( 1.09)2p( 3.58)3p( 0.01)
      H   14            1S( 0.76)2S( 0.01)
      H   15            1S( 0.76)
      H   16            1S( 0.78)
      H   17            1S( 0.77)
      H   18            1S( 0.77)
      H   19            1S( 0.74)
      H   20            1S( 0.76)
      H   21            1S( 0.76)
      H   22            1S( 0.77)
      H   23            1S( 0.76)
      H   24            1S( 0.76)2S( 0.01)
      H   25            1S( 0.76)
      H   26            1S( 0.78)
      H   27            1S( 0.76)2S( 0.01)
      H   28            1S( 0.78)
      H   29            1S( 0.76)
      H   30            1S( 0.77)
      H   31            1S( 0.76)
      H   32            1S( 0.76)
      H   33            1S( 0.78)
      H   34            1S( 0.76)
      H   35            1S( 0.76)2S( 0.01)


 NBO analysis skipped by request.
 Leave Link  607 at Sat Oct  2 11:34:50 2021, MaxMem= 1342177280 cpu:      21.0
 (Enter /sw/target/amd/app/gaussian/Gaussian09RevA.02_gcc-4.9.2/g09/l9999.exe)
 1\1\GINC-HERMITE\SP\RTD-B3LYP-FC\6-31G(d)\C11H22N2\JSCHLEINITZ\02-Oct-
 2021\0\\#p TD(NStates=10, Root=1) b3lyp/6-31G* volume pop=NPA density=
 current Geom=AllCheck Guess=Read\\CC(N1C=CN(C1)C(C)(C)C)(C)C_conf_0\\0
 ,1\C,0,1.1820431943,0.1580000762,0.7444640321\C,0,2.5266051405,0.11466
 45108,-0.0163348705\N,0,3.2912790665,1.3805807714,0.1102049813\C,0,3.6
 97510888,1.8297047736,1.3934802636\C,0,3.7124674085,3.1674142102,1.440
 0521057\N,0,3.3173939544,3.7136418942,0.1914354816\C,0,2.7531074514,2.
 578175218,-0.564142533\C,0,2.5813382116,5.0020713166,0.1537931987\C,0,
 3.4756973645,6.0832405118,0.7885779155\C,0,2.3417940012,5.3749834409,-
 1.3205841017\C,0,1.2354321972,4.9359586974,0.9105698174\C,0,3.39617265
 25,-1.0277914934,0.5407993113\C,0,2.2796875653,-0.1492984514,-1.512860
 2168\H,0,1.3477753736,0.3597223943,1.8084676452\H,0,0.6531656453,-0.79
 78167179,0.6539587098\H,0,0.5205638334,0.939868581,0.3546689351\H,0,4.
 0862569002,1.1371224577,2.1252768691\H,0,4.1159546187,3.7985824106,2.2
 179630509\H,0,3.0617358397,2.6113157702,-1.6151868416\H,0,1.6408623007
 ,2.589902193,-0.5431534975\H,0,4.4586588561,6.0972960227,0.3063497771\
 H,0,3.6206377706,5.9191024726,1.8616007097\H,0,3.0141080425,7.06977293
 78,0.6701803182\H,0,3.2889887421,5.3923992314,-1.8707300373\H,0,1.8838
 591554,6.3677099771,-1.3893755143\H,0,1.667761925,4.6683795931,-1.8172
 209168\H,0,1.3956272367,4.6569297778,1.9578250921\H,0,0.5569637041,4.1
 981752318,0.4676590722\H,0,0.7281814812,5.9073704239,0.8872222356\H,0,
 3.54413015,-0.9420055382,1.622498419\H,0,4.3788553553,-1.0302250423,0.
 0578054578\H,0,2.9126947441,-1.9931255351,0.3544931746\H,0,1.621776540
 1,0.6049275938,-1.958449649\H,0,1.7998870872,-1.1244339309,-1.65014213
 01\H,0,3.2265770602,-0.1493710483,-2.0638066776\\Version=AM64L-G09RevA
 .02\State=1-A\HF=-541.8870953\RMSD=1.917e-09\Dipole=-0.5441771,0.02646
 1,-0.601759\Quadrupole=-2.5635482,3.124155,-0.5606068,0.0276009,1.0482
 257,0.1166152\PG=C01 [X(C11H22N2)]\\@


 IT IS NOT EASY TO DESCRIBE
     THE SEA WITH THE MOUTH

                   -- KOKYU
 Job cpu time:  0 days  6 hours 33 minutes 55.7 seconds.
 File lengths (MBytes):  RWF=    197 Int=      0 D2E=      0 Chk=     27 Scr=      1
 Normal termination of Gaussian 09 at Sat Oct  2 11:35:08 2021.
