 Entering Gaussian System, Link 0=g09
 Input=C11H14O4_d9e1_conf_0.com
 Output=C11H14O4_d9e1_conf_0.log
 Initial command:
 /sw/target/amd/app/gaussian/Gaussian09RevA.02_gcc-4.9.2/g09/l1.exe /home/jschleinitz/gaussian/Gau-256215.inp -scrdir=/home/jschleinitz/gaussian/
 Entering Link 1 = /sw/target/amd/app/gaussian/Gaussian09RevA.02_gcc-4.9.2/g09/l1.exe PID=    256239.
  
 Copyright (c) 1988,1990,1992,1993,1995,1998,2003,2009, Gaussian, Inc.
                  All Rights Reserved.
  
 This is part of the Gaussian(R) 09 program.  It is based on
 the Gaussian(R) 03 system (copyright 2003, Gaussian, Inc.),
 the Gaussian(R) 98 system (copyright 1998, Gaussian, Inc.),
 the Gaussian(R) 94 system (copyright 1995, Gaussian, Inc.),
 the Gaussian 92(TM) system (copyright 1992, Gaussian, Inc.),
 the Gaussian 90(TM) system (copyright 1990, Gaussian, Inc.),
 the Gaussian 88(TM) system (copyright 1988, Gaussian, Inc.),
 the Gaussian 86(TM) system (copyright 1986, Carnegie Mellon
 University), and the Gaussian 82(TM) system (copyright 1983,
 Carnegie Mellon University). Gaussian is a federally registered
 trademark of Gaussian, Inc.
  
 This software contains proprietary and confidential information,
 including trade secrets, belonging to Gaussian, Inc.
  
 This software is provided under written license and may be
 used, copied, transmitted, or stored only in accord with that
 written license.
  
 The following legend is applicable only to US Government
 contracts under FAR:
  
                    RESTRICTED RIGHTS LEGEND
  
 Use, reproduction and disclosure by the US Government is
 subject to restrictions as set forth in subparagraphs (a)
 and (c) of the Commercial Computer Software - Restricted
 Rights clause in FAR 52.227-19.
  
 Gaussian, Inc.
 340 Quinnipiac St., Bldg. 40, Wallingford CT 06492
  
  
 ---------------------------------------------------------------
 Warning -- This program may not be used in any manner that
 competes with the business of Gaussian, Inc. or will provide
 assistance to any competitor of Gaussian, Inc.  The licensee
 of this program is prohibited from giving any competitor of
 Gaussian, Inc. access to this program.  By using this program,
 the user acknowledges that Gaussian, Inc. is engaged in the
 business of creating and licensing software in the field of
 computational chemistry and represents and warrants to the
 licensee that it is not a competitor of Gaussian, Inc. and that
 it will not use this program in any manner prohibited above.
 ---------------------------------------------------------------
  

 Cite this work as:
 Gaussian 09, Revision A.02,
 M. J. Frisch, G. W. Trucks, H. B. Schlegel, G. E. Scuseria, 
 M. A. Robb, J. R. Cheeseman, G. Scalmani, V. Barone, B. Mennucci, 
 G. A. Petersson, H. Nakatsuji, M. Caricato, X. Li, H. P. Hratchian, 
 A. F. Izmaylov, J. Bloino, G. Zheng, J. L. Sonnenberg, M. Hada, 
 M. Ehara, K. Toyota, R. Fukuda, J. Hasegawa, M. Ishida, T. Nakajima, 
 Y. Honda, O. Kitao, H. Nakai, T. Vreven, J. A. Montgomery, Jr., 
 J. E. Peralta, F. Ogliaro, M. Bearpark, J. J. Heyd, E. Brothers, 
 K. N. Kudin, V. N. Staroverov, R. Kobayashi, J. Normand, 
 K. Raghavachari, A. Rendell, J. C. Burant, S. S. Iyengar, J. Tomasi, 
 M. Cossi, N. Rega, J. M. Millam, M. Klene, J. E. Knox, J. B. Cross, 
 V. Bakken, C. Adamo, J. Jaramillo, R. Gomperts, R. E. Stratmann, 
 O. Yazyev, A. J. Austin, R. Cammi, C. Pomelli, J. W. Ochterski, 
 R. L. Martin, K. Morokuma, V. G. Zakrzewski, G. A. Voth, 
 P. Salvador, J. J. Dannenberg, S. Dapprich, A. D. Daniels, 
 O. Farkas, J. B. Foresman, J. V. Ortiz, J. Cioslowski, 
 and D. J. Fox, Gaussian, Inc., Wallingford CT, 2009.
 
 ******************************************
 Gaussian 09:  AM64L-G09RevA.02 11-Jun-2009
                 4-Oct-2021 
 ******************************************
 %nproc=4
 Will use up to    4 processors via shared memory.
 %mem=8gb
 %chk=C11H14O4_d9e1_conf_0.chk
 -----------------------------------
 #p opt b3lyp/6-31G* scf=(xqc,tight)
 -----------------------------------
 1/14=-1,18=20,19=15,26=3,38=1/1,3;
 2/9=110,12=2,17=6,18=5,40=1/2;
 3/5=1,6=6,7=1,11=2,16=1,25=1,30=1,71=1,74=-5/1,2,3;
 4//1;
 5/5=2,8=3,13=1,32=2,38=5/2,8;
 6/7=2,8=2,9=2,10=2,28=1/1;
 7//1,2,3,16;
 1/14=-1,18=20,19=15/3(2);
 2/9=110/2;
 99//99;
 2/9=110/2;
 3/5=1,6=6,7=1,11=2,16=1,25=1,30=1,71=1,74=-5/1,2,3;
 4/5=5,16=3/1;
 5/5=2,8=3,13=1,32=2,38=5/2,8;
 7//1,2,3,16;
 1/14=-1,18=20,19=15/3(-5);
 2/9=110/2;
 6/7=2,8=2,9=2,10=2,19=2,28=1/1;
 99/9=1/99;
 Leave Link    1 at Mon Oct  4 05:26:26 2021, MaxMem= 1073741824 cpu:       0.1
 (Enter /sw/target/amd/app/gaussian/Gaussian09RevA.02_gcc-4.9.2/g09/l101.exe)
 -------------------------------
 COc1cc(cc(c1OC)OC)C(=O)C_conf_0
 -------------------------------
 Symbolic Z-matrix:
 Charge =  0 Multiplicity = 1
 C                     2.34699  -0.38538   0.63545 
 O                     2.07202   0.95624   0.26295 
 C                     2.91529   1.594    -0.61197 
 C                     2.47665   2.89646  -0.89733 
 C                     3.21377   3.72542  -1.74328 
 C                     4.38831   3.2485   -2.32949 
 C                     4.84086   1.95085  -2.0711 
 C                     4.09598   1.11208  -1.2082 
 O                     4.58389  -0.11673  -0.8332 
 C                     4.7243   -1.03419  -1.91653 
 O                     6.00317   1.44069  -2.59414 
 C                     6.80465   2.30716  -3.39302 
 C                     2.81823   5.13604  -2.01866 
 O                     3.67686   5.95132  -2.34102 
 C                     1.37      5.51984  -1.90022 
 H                     1.54496  -0.71221   1.30537 
 H                     3.28392  -0.45972   1.19591 
 H                     2.32864  -1.05002  -0.23337 
 H                     1.5718    3.25631  -0.41417 
 H                     4.94233   3.92405  -2.9764 
 H                     5.70672  -0.94125  -2.38648 
 H                     3.92335  -0.92951  -2.65701 
 H                     4.66353  -2.04398  -1.49746 
 H                     7.15604   3.16233  -2.80816 
 H                     6.2663    2.62953  -4.28941 
 H                     7.68225   1.74162  -3.72069 
 H                     0.73439   4.77306  -2.3864 
 H                     1.21255   6.4724   -2.41774 
 H                     1.09206   5.64037  -0.84968 
 
 NAtoms=     29 NQM=     29 NQMF=      0 NMic=      0 NMicF=      0 NTot=     29.
                    Isotopes and Nuclear Properties:
 (Nuclear quadrupole moments (NQMom) in fm**2, nuclear magnetic moments (NMagM)
  in nuclear magnetons)

  Atom         1           2           3           4           5           6           7           8           9          10
 IAtWgt=          12          16          12          12          12          12          12          12          16          12
 AtmWgt=  12.0000000  15.9949146  12.0000000  12.0000000  12.0000000  12.0000000  12.0000000  12.0000000  15.9949146  12.0000000
 NucSpn=           0           0           0           0           0           0           0           0           0           0
 AtZEff=   0.0000000   0.0000000   0.0000000   0.0000000   0.0000000   0.0000000   0.0000000   0.0000000   0.0000000   0.0000000
 NQMom=    0.0000000   0.0000000   0.0000000   0.0000000   0.0000000   0.0000000   0.0000000   0.0000000   0.0000000   0.0000000
 NMagM=    0.0000000   0.0000000   0.0000000   0.0000000   0.0000000   0.0000000   0.0000000   0.0000000   0.0000000   0.0000000

  Atom        11          12          13          14          15          16          17          18          19          20
 IAtWgt=          16          12          12          16          12           1           1           1           1           1
 AtmWgt=  15.9949146  12.0000000  12.0000000  15.9949146  12.0000000   1.0078250   1.0078250   1.0078250   1.0078250   1.0078250
 NucSpn=           0           0           0           0           0           1           1           1           1           1
 AtZEff=   0.0000000   0.0000000   0.0000000   0.0000000   0.0000000   0.0000000   0.0000000   0.0000000   0.0000000   0.0000000
 NQMom=    0.0000000   0.0000000   0.0000000   0.0000000   0.0000000   0.0000000   0.0000000   0.0000000   0.0000000   0.0000000
 NMagM=    0.0000000   0.0000000   0.0000000   0.0000000   0.0000000   2.7928460   2.7928460   2.7928460   2.7928460   2.7928460

  Atom        21          22          23          24          25          26          27          28          29
 IAtWgt=           1           1           1           1           1           1           1           1           1
 AtmWgt=   1.0078250   1.0078250   1.0078250   1.0078250   1.0078250   1.0078250   1.0078250   1.0078250   1.0078250
 NucSpn=           1           1           1           1           1           1           1           1           1
 AtZEff=   0.0000000   0.0000000   0.0000000   0.0000000   0.0000000   0.0000000   0.0000000   0.0000000   0.0000000
 NQMom=    0.0000000   0.0000000   0.0000000   0.0000000   0.0000000   0.0000000   0.0000000   0.0000000   0.0000000
 NMagM=    2.7928460   2.7928460   2.7928460   2.7928460   2.7928460   2.7928460   2.7928460   2.7928460   2.7928460
 Leave Link  101 at Mon Oct  4 05:26:27 2021, MaxMem= 1073741824 cpu:       0.2
 (Enter /sw/target/amd/app/gaussian/Gaussian09RevA.02_gcc-4.9.2/g09/l103.exe)

 GradGradGradGradGradGradGradGradGradGradGradGradGradGradGradGradGradGrad
 Berny optimization.
 Initialization pass.
                           ----------------------------
                           !    Initial Parameters    !
                           ! (Angstroms and Degrees)  !
 --------------------------                            --------------------------
 ! Name  Definition              Value          Derivative Info.                !
 --------------------------------------------------------------------------------
 ! R1    R(1,2)                  1.4193         estimate D2E/DX2                !
 ! R2    R(1,16)                 1.0949         estimate D2E/DX2                !
 ! R3    R(1,17)                 1.0943         estimate D2E/DX2                !
 ! R4    R(1,18)                 1.094          estimate D2E/DX2                !
 ! R5    R(2,3)                  1.3723         estimate D2E/DX2                !
 ! R6    R(3,4)                  1.4036         estimate D2E/DX2                !
 ! R7    R(3,8)                  1.4078         estimate D2E/DX2                !
 ! R8    R(4,5)                  1.395          estimate D2E/DX2                !
 ! R9    R(4,19)                 1.0871         estimate D2E/DX2                !
 ! R10   R(5,6)                  1.3967         estimate D2E/DX2                !
 ! R11   R(5,13)                 1.4907         estimate D2E/DX2                !
 ! R12   R(6,7)                  1.3984         estimate D2E/DX2                !
 ! R13   R(6,20)                 1.0871         estimate D2E/DX2                !
 ! R14   R(7,8)                  1.4153         estimate D2E/DX2                !
 ! R15   R(7,11)                 1.3729         estimate D2E/DX2                !
 ! R16   R(8,9)                  1.3743         estimate D2E/DX2                !
 ! R17   R(9,10)                 1.4266         estimate D2E/DX2                !
 ! R18   R(10,21)                1.093          estimate D2E/DX2                !
 ! R19   R(10,22)                1.0958         estimate D2E/DX2                !
 ! R20   R(10,23)                1.095          estimate D2E/DX2                !
 ! R21   R(11,12)                1.4253         estimate D2E/DX2                !
 ! R22   R(12,24)                1.094          estimate D2E/DX2                !
 ! R23   R(12,25)                1.0942         estimate D2E/DX2                !
 ! R24   R(12,26)                1.0943         estimate D2E/DX2                !
 ! R25   R(13,14)                1.2271         estimate D2E/DX2                !
 ! R26   R(13,15)                1.5029         estimate D2E/DX2                !
 ! R27   R(15,27)                1.0945         estimate D2E/DX2                !
 ! R28   R(15,28)                1.0954         estimate D2E/DX2                !
 ! R29   R(15,29)                1.0933         estimate D2E/DX2                !
 ! A1    A(2,1,16)             107.5071         estimate D2E/DX2                !
 ! A2    A(2,1,17)             111.3781         estimate D2E/DX2                !
 ! A3    A(2,1,18)             111.2593         estimate D2E/DX2                !
 ! A4    A(16,1,17)            107.0691         estimate D2E/DX2                !
 ! A5    A(16,1,18)            106.994          estimate D2E/DX2                !
 ! A6    A(17,1,18)            112.3225         estimate D2E/DX2                !
 ! A7    A(1,2,3)              119.1814         estimate D2E/DX2                !
 ! A8    A(2,3,4)              111.6421         estimate D2E/DX2                !
 ! A9    A(2,3,8)              128.7768         estimate D2E/DX2                !
 ! A10   A(4,3,8)              119.5807         estimate D2E/DX2                !
 ! A11   A(3,4,5)              120.633          estimate D2E/DX2                !
 ! A12   A(3,4,19)             118.485          estimate D2E/DX2                !
 ! A13   A(5,4,19)             120.8398         estimate D2E/DX2                !
 ! A14   A(4,5,6)              119.7333         estimate D2E/DX2                !
 ! A15   A(4,5,13)             122.2841         estimate D2E/DX2                !
 ! A16   A(6,5,13)             117.9528         estimate D2E/DX2                !
 ! A17   A(5,6,7)              120.7623         estimate D2E/DX2                !
 ! A18   A(5,6,20)             117.7847         estimate D2E/DX2                !
 ! A19   A(7,6,20)             121.4456         estimate D2E/DX2                !
 ! A20   A(6,7,8)              119.4921         estimate D2E/DX2                !
 ! A21   A(6,7,11)             123.2588         estimate D2E/DX2                !
 ! A22   A(8,7,11)             117.2352         estimate D2E/DX2                !
 ! A23   A(3,8,7)              119.7863         estimate D2E/DX2                !
 ! A24   A(3,8,9)              119.2289         estimate D2E/DX2                !
 ! A25   A(7,8,9)              120.6261         estimate D2E/DX2                !
 ! A26   A(8,9,10)             113.7524         estimate D2E/DX2                !
 ! A27   A(9,10,21)            111.1188         estimate D2E/DX2                !
 ! A28   A(9,10,22)            112.3197         estimate D2E/DX2                !
 ! A29   A(9,10,23)            107.2775         estimate D2E/DX2                !
 ! A30   A(21,10,22)           110.9959         estimate D2E/DX2                !
 ! A31   A(21,10,23)           107.0295         estimate D2E/DX2                !
 ! A32   A(22,10,23)           107.8273         estimate D2E/DX2                !
 ! A33   A(7,11,12)            117.6275         estimate D2E/DX2                !
 ! A34   A(11,12,24)           110.8662         estimate D2E/DX2                !
 ! A35   A(11,12,25)           111.1999         estimate D2E/DX2                !
 ! A36   A(11,12,26)           107.7366         estimate D2E/DX2                !
 ! A37   A(24,12,25)           111.4505         estimate D2E/DX2                !
 ! A38   A(24,12,26)           107.8475         estimate D2E/DX2                !
 ! A39   A(25,12,26)           107.5504         estimate D2E/DX2                !
 ! A40   A(5,13,14)            119.4435         estimate D2E/DX2                !
 ! A41   A(5,13,15)            118.8679         estimate D2E/DX2                !
 ! A42   A(14,13,15)           121.6877         estimate D2E/DX2                !
 ! A43   A(13,15,27)           110.5081         estimate D2E/DX2                !
 ! A44   A(13,15,28)           108.8651         estimate D2E/DX2                !
 ! A45   A(13,15,29)           110.4159         estimate D2E/DX2                !
 ! A46   A(27,15,28)           107.4555         estimate D2E/DX2                !
 ! A47   A(27,15,29)           110.7563         estimate D2E/DX2                !
 ! A48   A(28,15,29)           108.7554         estimate D2E/DX2                !
 ! D1    D(16,1,2,3)          -178.1667         estimate D2E/DX2                !
 ! D2    D(17,1,2,3)            64.8326         estimate D2E/DX2                !
 ! D3    D(18,1,2,3)           -61.3222         estimate D2E/DX2                !
 ! D4    D(1,2,3,4)            178.4221         estimate D2E/DX2                !
 ! D5    D(1,2,3,8)             -1.8122         estimate D2E/DX2                !
 ! D6    D(2,3,4,5)            178.462          estimate D2E/DX2                !
 ! D7    D(2,3,4,19)             0.8059         estimate D2E/DX2                !
 ! D8    D(8,3,4,5)             -1.3279         estimate D2E/DX2                !
 ! D9    D(8,3,4,19)          -178.984          estimate D2E/DX2                !
 ! D10   D(2,3,8,7)           -178.7105         estimate D2E/DX2                !
 ! D11   D(2,3,8,9)             -5.5425         estimate D2E/DX2                !
 ! D12   D(4,3,8,7)              1.0391         estimate D2E/DX2                !
 ! D13   D(4,3,8,9)            174.2071         estimate D2E/DX2                !
 ! D14   D(3,4,5,6)              1.0366         estimate D2E/DX2                !
 ! D15   D(3,4,5,13)          -176.9391         estimate D2E/DX2                !
 ! D16   D(19,4,5,6)           178.6372         estimate D2E/DX2                !
 ! D17   D(19,4,5,13)            0.6615         estimate D2E/DX2                !
 ! D18   D(4,5,6,7)             -0.4596         estimate D2E/DX2                !
 ! D19   D(4,5,6,20)          -179.4797         estimate D2E/DX2                !
 ! D20   D(13,5,6,7)           177.6031         estimate D2E/DX2                !
 ! D21   D(13,5,6,20)           -1.417          estimate D2E/DX2                !
 ! D22   D(4,5,13,14)          153.9183         estimate D2E/DX2                !
 ! D23   D(4,5,13,15)          -26.412          estimate D2E/DX2                !
 ! D24   D(6,5,13,14)          -24.0918         estimate D2E/DX2                !
 ! D25   D(6,5,13,15)          155.5779         estimate D2E/DX2                !
 ! D26   D(5,6,7,8)              0.1819         estimate D2E/DX2                !
 ! D27   D(5,6,7,11)          -178.4254         estimate D2E/DX2                !
 ! D28   D(20,6,7,8)           179.1657         estimate D2E/DX2                !
 ! D29   D(20,6,7,11)            0.5584         estimate D2E/DX2                !
 ! D30   D(6,7,8,3)             -0.4737         estimate D2E/DX2                !
 ! D31   D(6,7,8,9)           -173.5446         estimate D2E/DX2                !
 ! D32   D(11,7,8,3)           178.2166         estimate D2E/DX2                !
 ! D33   D(11,7,8,9)             5.1457         estimate D2E/DX2                !
 ! D34   D(6,7,11,12)            2.6712         estimate D2E/DX2                !
 ! D35   D(8,7,11,12)         -175.9655         estimate D2E/DX2                !
 ! D36   D(3,8,9,10)           122.3723         estimate D2E/DX2                !
 ! D37   D(7,8,9,10)           -64.5186         estimate D2E/DX2                !
 ! D38   D(8,9,10,21)           88.7001         estimate D2E/DX2                !
 ! D39   D(8,9,10,22)          -36.3136         estimate D2E/DX2                !
 ! D40   D(8,9,10,23)         -154.6254         estimate D2E/DX2                !
 ! D41   D(7,11,12,24)          62.0998         estimate D2E/DX2                !
 ! D42   D(7,11,12,25)         -62.4849         estimate D2E/DX2                !
 ! D43   D(7,11,12,26)         179.8933         estimate D2E/DX2                !
 ! D44   D(5,13,15,27)         -45.1353         estimate D2E/DX2                !
 ! D45   D(5,13,15,28)        -162.9267         estimate D2E/DX2                !
 ! D46   D(5,13,15,29)          77.75           estimate D2E/DX2                !
 ! D47   D(14,13,15,27)        134.5266         estimate D2E/DX2                !
 ! D48   D(14,13,15,28)         16.7353         estimate D2E/DX2                !
 ! D49   D(14,13,15,29)       -102.5881         estimate D2E/DX2                !
 --------------------------------------------------------------------------------
 Trust Radius=3.00D-01 FncErr=1.00D-07 GrdErr=1.00D-06
 Number of steps in this run= 136 maximum allowed number of steps= 174.
 GradGradGradGradGradGradGradGradGradGradGradGradGradGradGradGradGradGrad

 Leave Link  103 at Mon Oct  4 05:26:28 2021, MaxMem= 1073741824 cpu:       0.0
 (Enter /sw/target/amd/app/gaussian/Gaussian09RevA.02_gcc-4.9.2/g09/l202.exe)
                          Input orientation:                          
 ---------------------------------------------------------------------
 Center     Atomic      Atomic             Coordinates (Angstroms)
 Number     Number       Type             X           Y           Z
 ---------------------------------------------------------------------
      1          6           0        2.346990   -0.385384    0.635452
      2          8           0        2.072019    0.956242    0.262954
      3          6           0        2.915287    1.594000   -0.611974
      4          6           0        2.476648    2.896460   -0.897331
      5          6           0        3.213773    3.725420   -1.743279
      6          6           0        4.388310    3.248496   -2.329492
      7          6           0        4.840856    1.950850   -2.071100
      8          6           0        4.095977    1.112076   -1.208198
      9          8           0        4.583892   -0.116730   -0.833202
     10          6           0        4.724302   -1.034195   -1.916526
     11          8           0        6.003171    1.440686   -2.594139
     12          6           0        6.804651    2.307165   -3.393019
     13          6           0        2.818230    5.136036   -2.018657
     14          8           0        3.676859    5.951319   -2.341024
     15          6           0        1.369999    5.519837   -1.900219
     16          1           0        1.544958   -0.712205    1.305368
     17          1           0        3.283918   -0.459724    1.195909
     18          1           0        2.328643   -1.050016   -0.233373
     19          1           0        1.571799    3.256308   -0.414173
     20          1           0        4.942333    3.924047   -2.976403
     21          1           0        5.706716   -0.941253   -2.386485
     22          1           0        3.923347   -0.929509   -2.657009
     23          1           0        4.663528   -2.043980   -1.497460
     24          1           0        7.156038    3.162330   -2.808159
     25          1           0        6.266300    2.629530   -4.289410
     26          1           0        7.682251    1.741622   -3.720690
     27          1           0        0.734395    4.773065   -2.386404
     28          1           0        1.212548    6.472403   -2.417736
     29          1           0        1.092065    5.640370   -0.849681
 ---------------------------------------------------------------------
                    Distance matrix (angstroms):
                    1          2          3          4          5
     1  C    0.000000
     2  O    1.419269   0.000000
     3  C    2.407695   1.372347   0.000000
     4  C    3.624464   2.296613   1.403650   0.000000
     5  C    4.827876   3.605125   2.431439   1.395047   0.000000
     6  C    5.114975   4.164182   2.803038   2.414429   1.396653
     7  C    4.359218   3.755465   2.442173   2.803817   2.429808
     8  C    2.949642   2.506986   1.407751   2.429586   2.809655
     9  O    2.689396   2.943185   2.399955   3.677485   4.179424
    10  C    3.547557   3.968196   3.446999   4.641201   4.996564
    11  O    5.208882   4.883813   3.672535   4.175499   3.704688
    12  C    6.584007   6.130982   4.834250   5.030640   4.198511
    13  C    6.144302   4.820089   3.812374   2.527796   1.490679
    14  O    7.126133   5.857219   4.749298   3.585655   2.350824
    15  C    6.500445   5.098877   4.411313   3.018703   2.577608
    16  H    1.094922   2.036697   3.297360   4.329248   5.636640
    17  H    1.094291   2.084242   2.760818   4.036993   5.114605
    18  H    1.094043   2.082611   2.734651   4.004675   5.086066
    19  H    3.868406   2.449291   2.146475   1.087054   2.163947
    20  H    6.192939   5.247857   3.889544   3.384978   2.132596
    21  H    4.552895   4.881705   4.167550   5.232490   5.329758
    22  H    3.690701   3.938231   3.400949   4.452801   4.796537
    23  H    3.559017   4.337777   4.132231   5.436041   5.953838
    24  H    6.897222   6.336073   5.026615   5.061486   4.122195
    25  H    6.978895   6.412169   5.081845   5.093026   4.123310
    26  H    7.208685   6.925384   5.692965   6.033515   5.273794
    27  H    6.192066   4.834922   4.243977   2.962167   2.767397
    28  H    7.591980   6.192965   5.473473   4.086190   3.464925
    29  H    6.331680   4.913178   4.444519   3.073823   2.994527
                    6          7          8          9         10
     6  C    0.000000
     7  C    1.398374   0.000000
     8  C    2.430442   1.415269   0.000000
     9  O    3.688073   2.423490   1.374281   0.000000
    10  C    4.315654   2.991316   2.345848   1.426551   0.000000
    11  O    2.438440   1.372885   2.380379   2.746050   2.867002
    12  C    2.802838   2.393934   3.679483   4.166497   4.203875
    13  C    2.474789   3.773484   4.299039   5.666958   6.458738
    14  O    2.794915   4.175105   4.987708   6.318026   7.076351
    15  C    3.801772   4.981337   5.228595   6.575600   7.362537
    16  H    6.081448   5.418057   4.019168   3.763402   4.537896
    17  H    5.234409   4.348364   2.984916   2.434106   3.477351
    18  H    5.207029   4.323616   2.957769   2.513358   2.927872
    19  H    3.406060   3.890548   3.405830   4.541550   5.532066
    20  H    1.087107   2.173333   3.427834   4.587991   5.074942
    21  H    4.392658   3.035365   2.863390   2.086446   1.092994
    22  H    4.216537   3.079218   2.509368   2.103141   1.095812
    23  H    5.364543   4.039699   3.219701   2.040067   1.094977
    24  H    2.810136   2.714960   4.015892   4.611792   4.931447
    25  H    2.784106   2.722756   4.062861   4.724173   4.629386
    26  H    3.880225   3.292180   4.423834   4.625028   4.439553
    27  H    3.959627   4.992729   5.107958   6.414137   7.061474
    28  H    4.526238   5.807686   6.205662   7.569239   8.302568
    29  H    4.333144   5.399802   5.445867   6.733300   7.673403
                   11         12         13         14         15
    11  O    0.000000
    12  C    1.425260   0.000000
    13  C    4.912295   5.077691   0.000000
    14  O    5.081497   4.916263   1.227132   0.000000
    15  C    6.211866   6.487308   1.502898   2.387905   0.000000
    16  H    6.302123   7.671754   6.846334   7.889470   7.010332
    17  H    5.036899   6.411669   6.470149   7.332515   7.000303
    18  H    5.027819   6.425627   6.457103   7.434957   6.845462
    19  H    5.261729   6.095666   2.767911   3.925190   2.715257
    20  H    2.727377   2.501221   2.626406   2.472845   4.057867
    21  H    2.409282   3.573625   6.738850   7.185398   7.796746
    22  H    3.153957   4.395416   6.198356   6.892489   6.977563
    23  H    3.891046   5.206727   7.431648   8.099995   8.259593
    24  H    2.083018   1.094002   4.830674   4.483455   6.313513
    25  H    2.087231   1.094193   4.829916   4.640657   6.167323
    26  H    2.044258   1.094252   6.170710   5.972285   7.578492
    27  H    6.237620   6.628873   2.146941   3.169927   1.094549
    28  H    6.949774   7.040739   2.126818   2.519969   1.095443
    29  H    6.693239   7.086076   2.144878   3.000326   1.093346
                   16         17         18         19         20
    16  H    0.000000
    17  H    1.760599   0.000000
    18  H    1.759546   1.817647   0.000000
    19  H    4.325117   4.396887   4.376064   0.000000
    20  H    7.167325   6.275028   6.252750   4.286186   0.000000
    21  H    5.567986   4.351478   4.007380   6.213459   4.960184
    22  H    4.626488   3.933770   2.903725   5.299166   4.969643
    23  H    4.399426   3.415761   2.835060   6.230999   6.154863
    24  H    7.963501   6.644182   6.904863   6.076490   2.347128
    25  H    8.047348   6.966119   6.745046   6.119531   2.269946
    26  H    8.303547   6.954438   6.972499   7.110904   3.581074
    27  H    6.661410   6.834846   6.409793   2.625165   4.333091
    28  H    8.098802   8.087236   7.912262   3.806125   4.551651
    29  H    6.723434   6.797044   6.831561   2.470539   4.721575
                   21         22         23         24         25
    21  H    0.000000
    22  H    1.803808   0.000000
    23  H    1.759151   1.770442   0.000000
    24  H    4.372384   5.216923   5.919138   0.000000
    25  H    4.084697   4.562995   5.674994   1.808208   0.000000
    26  H    3.588964   4.732411   5.327872   1.768622   1.765429
    27  H    7.574788   6.539266   7.918359   6.633992   6.230422
    28  H    8.669534   7.886316   9.234985   6.814256   6.619007
    29  H    8.183797   7.378747   8.498482   6.837258   6.904318
                   26         27         28         29
    26  H    0.000000
    27  H    7.696926   0.000000
    28  H    8.120039   1.765605   0.000000
    29  H    8.177620   1.800462   1.779211   0.000000
 Stoichiometry    C11H14O4
 Framework group  C1[X(C11H14O4)]
 Deg. of freedom    81
 Full point group                 C1      NOp   1
 Largest Abelian subgroup         C1      NOp   1
 Largest concise Abelian subgroup C1      NOp   1
                         Standard orientation:                         
 ---------------------------------------------------------------------
 Center     Atomic      Atomic             Coordinates (Angstroms)
 Number     Number       Type             X           Y           Z
 ---------------------------------------------------------------------
      1          6           0       -2.531230   -2.658640   -0.241226
      2          8           0       -1.117667   -2.540318   -0.194698
      3          6           0       -0.552836   -1.291897   -0.118886
      4          6           0        0.847213   -1.360712   -0.045683
      5          6           0        1.614395   -0.196690    0.005724
      6          6           0        0.983434    1.049314    0.006124
      7          6           0       -0.410345    1.145254   -0.054095
      8          6           0       -1.188164   -0.035682   -0.112181
      9          8           0       -2.547327    0.029962   -0.304574
     10          6           0       -3.248423    0.667797    0.761576
     11          8           0       -1.081882    2.342203   -0.088226
     12          6           0       -0.303793    3.535934   -0.119058
     13          6           0        3.104761   -0.225220    0.016681
     14          8           0        3.729730    0.740380   -0.410966
     15          6           0        3.803255   -1.439477    0.561097
     16          1           0       -2.771749   -3.726540   -0.265598
     17          1           0       -2.938627   -2.216684   -1.155652
     18          1           0       -2.993650   -2.247232    0.660906
     19          1           0        1.320120   -2.339230   -0.069065
     20          1           0        1.612060    1.935657    0.038199
     21          1           0       -3.312511    1.746990    0.600726
     22          1           0       -2.811465    0.442047    1.740815
     23          1           0       -4.272825    0.281115    0.754410
     24          1           0        0.311710    3.576652   -1.022573
     25          1           0        0.305078    3.634835    0.784687
     26          1           0       -0.995017    4.383807   -0.145653
     27          1           0        3.341957   -1.757948    1.501214
     28          1           0        4.845611   -1.181259    0.777461
     29          1           0        3.786872   -2.249917   -0.172608
 ---------------------------------------------------------------------
 Rotational constants (GHZ):      0.7701993      0.4687535      0.3008719
 Leave Link  202 at Mon Oct  4 05:26:28 2021, MaxMem= 1073741824 cpu:       0.0
 (Enter /sw/target/amd/app/gaussian/Gaussian09RevA.02_gcc-4.9.2/g09/l301.exe)
 Standard basis: 6-31G(d) (6D, 7F)
 Ernie: Thresh=  0.10000D-02 Tol=  0.10000D-05 Strict=F.
 There are   253 symmetry adapted basis functions of A   symmetry.
 Integral buffers will be    131072 words long.
 Raffenetti 2 integral format.
 Two-electron integral symmetry is turned on.
   253 basis functions,   476 primitive gaussians,   253 cartesian basis functions
    56 alpha electrons       56 beta electrons
       nuclear repulsion energy      1018.6324564572 Hartrees.
 IExCor=  402 DFT=T Ex+Corr=B3LYP ExCW=0 ScaHFX=  0.200000
 ScaDFX=  0.800000  0.720000  1.000000  0.810000 ScalE2=  1.000000  1.000000
 IRadAn=      0 IRanWt=     -1 IRanGd=            0 ICorTp=0
 NAtoms=   29 NActive=   29 NUniq=   29 SFac= 7.50D-01 NAtFMM=   80 NAOKFM=F Big=F
 Leave Link  301 at Mon Oct  4 05:26:29 2021, MaxMem= 1073741824 cpu:       0.1
 (Enter /sw/target/amd/app/gaussian/Gaussian09RevA.02_gcc-4.9.2/g09/l302.exe)
 NPDir=0 NMtPBC=     1 NCelOv=     1 NCel=       1 NClECP=     1 NCelD=      1
         NCelK=      1 NCelE2=     1 NClLst=     1 CellRange=     0.0.
 One-electron integrals computed using PRISM.
 NBasis=   253 RedAO= T  NBF=   253
 NBsUse=   253 1.00D-06 NBFU=   253
 Precomputing XC quadrature grid using
 IXCGrd= 2 IRadAn=           0 IRanWt=          -1 IRanGd=           0 AccXCQ= 1.00D-10.
 NRdTot=    1837 NPtTot=      234020 NUsed=      247269 NTot=      247301
 NSgBfM=   251   251   251   251   251 NAtAll=    29    29.
 Leave Link  302 at Mon Oct  4 05:26:34 2021, MaxMem= 1073741824 cpu:       2.3
 (Enter /sw/target/amd/app/gaussian/Gaussian09RevA.02_gcc-4.9.2/g09/l303.exe)
 DipDrv:  MaxL=1.
 Leave Link  303 at Mon Oct  4 05:26:35 2021, MaxMem= 1073741824 cpu:       0.2
 (Enter /sw/target/amd/app/gaussian/Gaussian09RevA.02_gcc-4.9.2/g09/l401.exe)
 Harris functional with IExCor=  402 diagonalized for initial guess.
 ExpMin= 1.61D-01 ExpMax= 5.48D+03 ExpMxC= 8.25D+02 IAcc=1 IRadAn=         1 AccDes= 0.00D+00
 HarFok:  IExCor=  402 AccDes= 0.00D+00 IRadAn=         1 IDoV= 1
 ScaDFX=  1.000000  1.000000  1.000000  1.000000
 FoFCou: FMM=F IPFlag=           0 FMFlag=      100000 FMFlg1=           0
         NFxFlg=           0 DoJE=T BraDBF=F KetDBF=T FulRan=T
         Omega=  0.000000  0.000000  1.000000  0.000000  0.000000 ICntrl=     500 IOpCl=  0
         NMat0=    1 NMatS0=    1 NMatT0=    0 NMatD0=    1 NMtDS0=    0 NMtDT0=    0
         I1Cent=           4 NGrid=           0.
 Petite list used in FoFCou.
 Harris En= -728.511396354443    
 Initial guess orbital symmetries:
       Occupied  (A) (A) (A) (A) (A) (A) (A) (A) (A) (A) (A) (A)
                 (A) (A) (A) (A) (A) (A) (A) (A) (A) (A) (A) (A)
                 (A) (A) (A) (A) (A) (A) (A) (A) (A) (A) (A) (A)
                 (A) (A) (A) (A) (A) (A) (A) (A) (A) (A) (A) (A)
                 (A) (A) (A) (A) (A) (A) (A) (A)
       Virtual   (A) (A) (A) (A) (A) (A) (A) (A) (A) (A) (A) (A)
                 (A) (A) (A) (A) (A) (A) (A) (A) (A) (A) (A) (A)
                 (A) (A) (A) (A) (A) (A) (A) (A) (A) (A) (A) (A)
                 (A) (A) (A) (A) (A) (A) (A) (A) (A) (A) (A) (A)
                 (A) (A) (A) (A) (A) (A) (A) (A) (A) (A) (A) (A)
                 (A) (A) (A) (A) (A) (A) (A) (A) (A) (A) (A) (A)
                 (A) (A) (A) (A) (A) (A) (A) (A) (A) (A) (A) (A)
                 (A) (A) (A) (A) (A) (A) (A) (A) (A) (A) (A) (A)
                 (A) (A) (A) (A) (A) (A) (A) (A) (A) (A) (A) (A)
                 (A) (A) (A) (A) (A) (A) (A) (A) (A) (A) (A) (A)
                 (A) (A) (A) (A) (A) (A) (A) (A) (A) (A) (A) (A)
                 (A) (A) (A) (A) (A) (A) (A) (A) (A) (A) (A) (A)
                 (A) (A) (A) (A) (A) (A) (A) (A) (A) (A) (A) (A)
                 (A) (A) (A) (A) (A) (A) (A) (A) (A) (A) (A) (A)
                 (A) (A) (A) (A) (A) (A) (A) (A) (A) (A) (A) (A)
                 (A) (A) (A) (A) (A) (A) (A) (A) (A) (A) (A) (A)
                 (A) (A) (A) (A) (A)
 The electronic state of the initial guess is 1-A.
 Leave Link  401 at Mon Oct  4 05:26:52 2021, MaxMem= 1073741824 cpu:      10.6
 (Enter /sw/target/amd/app/gaussian/Gaussian09RevA.02_gcc-4.9.2/g09/l502.exe)
 Closed shell SCF:
 Requested convergence on RMS density matrix=1.00D-08 within  64 cycles.
 Requested convergence on MAX density matrix=1.00D-06.
 Requested convergence on             energy=1.00D-06.
 No special actions if energy rises.
 Using DIIS extrapolation, IDIIS=  1040.
 Integral symmetry usage will be decided dynamically.
       246995 words used for storage of precomputed grid.
 Keep R1 ints in memory in canonical form, NReq=524858060.
 IEnd=      447995 IEndB=      447995 NGot=  1073741824 MDV=   557145642
 LenX=   557145642 LenY=   557081192
 Symmetry not used in FoFDir.
 MinBra= 0 MaxBra= 2 Meth= 1.
 IRaf=       0 NMat=   1 IRICut=       1 DoRegI=T DoRafI=F ISym2E= 0 JSym2E=0.
 Integral accuracy reduced to 1.0D-05 until final iterations.

 Cycle   1  Pass 0  IDiag  1:
 E= -728.110572293570    
 DIIS: error= 2.39D-02 at cycle   1 NSaved=   1.
 NSaved= 1 IEnMin= 1 EnMin= -728.110572293570     IErMin= 1 ErrMin= 2.39D-02
 ErrMax= 2.39D-02 EMaxC= 1.00D-01 BMatC= 3.47D-01 BMatP= 3.47D-01
 IDIUse=3 WtCom= 7.61D-01 WtEn= 2.39D-01
 Coeff-Com:  0.100D+01
 Coeff-En:   0.100D+01
 Coeff:      0.100D+01
 Gap=     0.210 Goal=   None    Shift=    0.000
 GapD=    0.210 DampG=1.000 DampE=0.500 DampFc=0.5000 IDamp=-1.
 Damping current iteration by 5.00D-01
 RMSDP=5.44D-03 MaxDP=1.80D-01              OVMax= 2.46D-01

 Cycle   2  Pass 0  IDiag  1:
 E= -728.244352783077     Delta-E=       -0.133780489506 Rises=F Damp=T
 DIIS: error= 9.17D-03 at cycle   2 NSaved=   2.
 NSaved= 2 IEnMin= 2 EnMin= -728.244352783077     IErMin= 2 ErrMin= 9.17D-03
 ErrMax= 9.17D-03 EMaxC= 1.00D-01 BMatC= 3.48D-02 BMatP= 3.47D-01
 IDIUse=3 WtCom= 9.08D-01 WtEn= 9.17D-02
 Coeff-Com:  0.122D+00 0.878D+00
 Coeff-En:   0.178D+00 0.822D+00
 Coeff:      0.127D+00 0.873D+00
 Gap=     0.234 Goal=   None    Shift=    0.000
 RMSDP=1.62D-03 MaxDP=5.83D-02 DE=-1.34D-01 OVMax= 1.67D-01

 Cycle   3  Pass 0  IDiag  1:
 E= -728.403771831606     Delta-E=       -0.159419048529 Rises=F Damp=F
 DIIS: error= 1.69D-02 at cycle   3 NSaved=   3.
 NSaved= 3 IEnMin= 3 EnMin= -728.403771831606     IErMin= 2 ErrMin= 9.17D-03
 ErrMax= 1.69D-02 EMaxC= 1.00D-01 BMatC= 4.38D-02 BMatP= 3.48D-02
 IDIUse=2 WtCom= 0.00D+00 WtEn= 1.00D+00
 Coeff-En:   0.000D+00 0.000D+00 0.100D+01
 Coeff:      0.000D+00 0.000D+00 0.100D+01
 Gap=     0.207 Goal=   None    Shift=    0.000
 RMSDP=2.72D-03 MaxDP=1.38D-01 DE=-1.59D-01 OVMax= 2.25D-01

 Cycle   4  Pass 0  IDiag  1:
 E= -728.248488845256     Delta-E=        0.155282986350 Rises=F Damp=F
 DIIS: error= 3.72D-02 at cycle   4 NSaved=   4.
 NSaved= 4 IEnMin= 3 EnMin= -728.403771831606     IErMin= 2 ErrMin= 9.17D-03
 ErrMax= 3.72D-02 EMaxC= 1.00D-01 BMatC= 2.30D-01 BMatP= 3.48D-02
 IDIUse=2 WtCom= 0.00D+00 WtEn= 1.00D+00
 Coeff-En:   0.000D+00 0.000D+00 0.782D+00 0.218D+00
 Coeff:      0.000D+00 0.000D+00 0.782D+00 0.218D+00
 Gap=     0.184 Goal=   None    Shift=    0.000
 RMSDP=1.53D-03 MaxDP=7.33D-02 DE= 1.55D-01 OVMax= 8.25D-02

 Cycle   5  Pass 0  IDiag  1:
 E= -728.429532399079     Delta-E=       -0.181043553823 Rises=F Damp=F
 DIIS: error= 8.99D-03 at cycle   5 NSaved=   5.
 NSaved= 5 IEnMin= 5 EnMin= -728.429532399079     IErMin= 5 ErrMin= 8.99D-03
 ErrMax= 8.99D-03 EMaxC= 1.00D-01 BMatC= 1.47D-02 BMatP= 3.48D-02
 IDIUse=3 WtCom= 9.10D-01 WtEn= 8.99D-02
 Coeff-Com:  0.685D-02 0.112D-01 0.365D+00 0.326D-02 0.614D+00
 Coeff-En:   0.000D+00 0.000D+00 0.298D+00 0.000D+00 0.702D+00
 Coeff:      0.623D-02 0.102D-01 0.359D+00 0.296D-02 0.622D+00
 Gap=     0.181 Goal=   None    Shift=    0.000
 RMSDP=5.14D-04 MaxDP=2.23D-02 DE=-1.81D-01 OVMax= 3.72D-02

 Cycle   6  Pass 0  IDiag  1:
 E= -728.442300575111     Delta-E=       -0.012768176033 Rises=F Damp=F
 DIIS: error= 1.00D-03 at cycle   6 NSaved=   6.
 NSaved= 6 IEnMin= 6 EnMin= -728.442300575111     IErMin= 6 ErrMin= 1.00D-03
 ErrMax= 1.00D-03 EMaxC= 1.00D-01 BMatC= 2.31D-04 BMatP= 1.47D-02
 IDIUse=3 WtCom= 9.90D-01 WtEn= 1.00D-02
 Coeff-Com: -0.181D-02 0.626D-02 0.136D+00-0.436D-01 0.409D+00 0.494D+00
 Coeff-En:   0.000D+00 0.000D+00 0.000D+00 0.000D+00 0.000D+00 0.100D+01
 Coeff:     -0.179D-02 0.619D-02 0.135D+00-0.432D-01 0.405D+00 0.499D+00
 Gap=     0.173 Goal=   None    Shift=    0.000
 RMSDP=7.77D-05 MaxDP=3.32D-03 DE=-1.28D-02 OVMax= 7.83D-03

 Cycle   7  Pass 0  IDiag  1:
 E= -728.442540957399     Delta-E=       -0.000240382288 Rises=F Damp=F
 DIIS: error= 1.57D-04 at cycle   7 NSaved=   7.
 NSaved= 7 IEnMin= 7 EnMin= -728.442540957399     IErMin= 7 ErrMin= 1.57D-04
 ErrMax= 1.57D-04 EMaxC= 1.00D-01 BMatC= 1.16D-05 BMatP= 2.31D-04
 IDIUse=3 WtCom= 9.98D-01 WtEn= 1.57D-03
 Coeff-Com: -0.133D-02 0.363D-02 0.586D-01-0.263D-01 0.200D+00 0.283D+00
 Coeff-Com:  0.482D+00
 Coeff-En:   0.000D+00 0.000D+00 0.000D+00 0.000D+00 0.000D+00 0.000D+00
 Coeff-En:   0.100D+01
 Coeff:     -0.133D-02 0.362D-02 0.585D-01-0.263D-01 0.199D+00 0.283D+00
 Coeff:      0.483D+00
 Gap=     0.172 Goal=   None    Shift=    0.000
 RMSDP=1.58D-05 MaxDP=5.23D-04 DE=-2.40D-04 OVMax= 1.24D-03

 Cycle   8  Pass 0  IDiag  1:
 E= -728.442551240417     Delta-E=       -0.000010283018 Rises=F Damp=F
 DIIS: error= 5.09D-05 at cycle   8 NSaved=   8.
 NSaved= 8 IEnMin= 8 EnMin= -728.442551240417     IErMin= 8 ErrMin= 5.09D-05
 ErrMax= 5.09D-05 EMaxC= 1.00D-01 BMatC= 9.17D-07 BMatP= 1.16D-05
 IDIUse=1 WtCom= 1.00D+00 WtEn= 0.00D+00
 Coeff-Com: -0.161D-03 0.478D-03 0.119D-01-0.679D-02 0.417D-01 0.684D-01
 Coeff-Com:  0.207D+00 0.678D+00
 Coeff:     -0.161D-03 0.478D-03 0.119D-01-0.679D-02 0.417D-01 0.684D-01
 Coeff:      0.207D+00 0.678D+00
 Gap=     0.172 Goal=   None    Shift=    0.000
 RMSDP=4.81D-06 MaxDP=1.41D-04 DE=-1.03D-05 OVMax= 2.05D-04

 Initial convergence to 1.0D-05 achieved.  Increase integral accuracy.
 Cycle   9  Pass 1  IDiag  1:
 E= -728.442571180847     Delta-E=       -0.000019940429 Rises=F Damp=F
 DIIS: error= 1.40D-05 at cycle   1 NSaved=   1.
 NSaved= 1 IEnMin= 1 EnMin= -728.442571180847     IErMin= 1 ErrMin= 1.40D-05
 ErrMax= 1.40D-05 EMaxC= 1.00D-01 BMatC= 1.81D-07 BMatP= 1.81D-07
 IDIUse=1 WtCom= 1.00D+00 WtEn= 0.00D+00
 Coeff-Com:  0.100D+01
 Coeff:      0.100D+01
 Gap=     0.172 Goal=   None    Shift=    0.000
 RMSDP=4.81D-06 MaxDP=1.41D-04 DE=-1.99D-05 OVMax= 1.82D-04

 Cycle  10  Pass 1  IDiag  1:
 E= -728.442571170269     Delta-E=        0.000000010577 Rises=F Damp=F
 DIIS: error= 1.95D-05 at cycle   2 NSaved=   2.
 NSaved= 2 IEnMin= 1 EnMin= -728.442571180847     IErMin= 1 ErrMin= 1.40D-05
 ErrMax= 1.95D-05 EMaxC= 1.00D-01 BMatC= 2.51D-07 BMatP= 1.81D-07
 IDIUse=1 WtCom= 1.00D+00 WtEn= 0.00D+00
 Coeff-Com:  0.548D+00 0.452D+00
 Coeff:      0.548D+00 0.452D+00
 Gap=     0.172 Goal=   None    Shift=    0.000
 RMSDP=2.28D-06 MaxDP=7.91D-05 DE= 1.06D-08 OVMax= 1.40D-04

 Cycle  11  Pass 1  IDiag  1:
 E= -728.442571362241     Delta-E=       -0.000000191972 Rises=F Damp=F
 DIIS: error= 6.76D-06 at cycle   3 NSaved=   3.
 NSaved= 3 IEnMin= 3 EnMin= -728.442571362241     IErMin= 3 ErrMin= 6.76D-06
 ErrMax= 6.76D-06 EMaxC= 1.00D-01 BMatC= 2.09D-08 BMatP= 1.81D-07
 IDIUse=1 WtCom= 1.00D+00 WtEn= 0.00D+00
 Coeff-Com:  0.768D-01 0.226D+00 0.697D+00
 Coeff:      0.768D-01 0.226D+00 0.697D+00
 Gap=     0.172 Goal=   None    Shift=    0.000
 RMSDP=8.43D-07 MaxDP=3.49D-05 DE=-1.92D-07 OVMax= 5.61D-05

 Cycle  12  Pass 1  IDiag  1:
 E= -728.442571374522     Delta-E=       -0.000000012280 Rises=F Damp=F
 DIIS: error= 4.26D-06 at cycle   4 NSaved=   4.
 NSaved= 4 IEnMin= 4 EnMin= -728.442571374522     IErMin= 4 ErrMin= 4.26D-06
 ErrMax= 4.26D-06 EMaxC= 1.00D-01 BMatC= 5.71D-09 BMatP= 2.09D-08
 IDIUse=1 WtCom= 1.00D+00 WtEn= 0.00D+00
 Coeff-Com: -0.130D-01 0.938D-01 0.442D+00 0.477D+00
 Coeff:     -0.130D-01 0.938D-01 0.442D+00 0.477D+00
 Gap=     0.172 Goal=   None    Shift=    0.000
 RMSDP=3.72D-07 MaxDP=1.69D-05 DE=-1.23D-08 OVMax= 2.67D-05

 Cycle  13  Pass 1  IDiag  1:
 E= -728.442571379379     Delta-E=       -0.000000004857 Rises=F Damp=F
 DIIS: error= 1.39D-06 at cycle   5 NSaved=   5.
 NSaved= 5 IEnMin= 5 EnMin= -728.442571379379     IErMin= 5 ErrMin= 1.39D-06
 ErrMax= 1.39D-06 EMaxC= 1.00D-01 BMatC= 3.06D-10 BMatP= 5.71D-09
 IDIUse=1 WtCom= 1.00D+00 WtEn= 0.00D+00
 Coeff-Com: -0.107D-01 0.482D-01 0.238D+00 0.297D+00 0.427D+00
 Coeff:     -0.107D-01 0.482D-01 0.238D+00 0.297D+00 0.427D+00
 Gap=     0.172 Goal=   None    Shift=    0.000
 RMSDP=7.06D-08 MaxDP=3.28D-06 DE=-4.86D-09 OVMax= 4.20D-06

 Cycle  14  Pass 1  IDiag  1:
 E= -728.442571379628     Delta-E=       -0.000000000250 Rises=F Damp=F
 DIIS: error= 1.71D-07 at cycle   6 NSaved=   6.
 NSaved= 6 IEnMin= 6 EnMin= -728.442571379628     IErMin= 6 ErrMin= 1.71D-07
 ErrMax= 1.71D-07 EMaxC= 1.00D-01 BMatC= 1.45D-11 BMatP= 3.06D-10
 IDIUse=1 WtCom= 1.00D+00 WtEn= 0.00D+00
 Coeff-Com: -0.461D-02 0.180D-01 0.891D-01 0.122D+00 0.227D+00 0.547D+00
 Coeff:     -0.461D-02 0.180D-01 0.891D-01 0.122D+00 0.227D+00 0.547D+00
 Gap=     0.172 Goal=   None    Shift=    0.000
 RMSDP=2.33D-08 MaxDP=7.17D-07 DE=-2.50D-10 OVMax= 1.63D-06

 Cycle  15  Pass 1  IDiag  1:
 E= -728.442571379637     Delta-E=       -0.000000000009 Rises=F Damp=F
 DIIS: error= 9.13D-08 at cycle   7 NSaved=   7.
 NSaved= 7 IEnMin= 7 EnMin= -728.442571379637     IErMin= 7 ErrMin= 9.13D-08
 ErrMax= 9.13D-08 EMaxC= 1.00D-01 BMatC= 3.05D-12 BMatP= 1.45D-11
 IDIUse=1 WtCom= 1.00D+00 WtEn= 0.00D+00
 Coeff-Com: -0.120D-02 0.357D-02 0.173D-01 0.298D-01 0.685D-01 0.336D+00
 Coeff-Com:  0.546D+00
 Coeff:     -0.120D-02 0.357D-02 0.173D-01 0.298D-01 0.685D-01 0.336D+00
 Coeff:      0.546D+00
 Gap=     0.172 Goal=   None    Shift=    0.000
 RMSDP=8.62D-09 MaxDP=3.35D-07 DE=-8.87D-12 OVMax= 6.69D-07

 SCF Done:  E(RB3LYP) =  -728.442571380     A.U. after   15 cycles
             Convg  =    0.8619D-08             -V/T =  2.0091
 KE= 7.218651320726D+02 PE=-3.736469801928D+03 EE= 1.267529642018D+03
 Leave Link  502 at Mon Oct  4 05:40:20 2021, MaxMem= 1073741824 cpu:     278.6
 (Enter /sw/target/amd/app/gaussian/Gaussian09RevA.02_gcc-4.9.2/g09/l508.exe)
 QCSCF skips out because SCF is already converged.
 Leave Link  508 at Mon Oct  4 05:40:23 2021, MaxMem= 1073741824 cpu:       0.0
 (Enter /sw/target/amd/app/gaussian/Gaussian09RevA.02_gcc-4.9.2/g09/l601.exe)
 Copying SCF densities to generalized density rwf, IOpCl= 0 IROHF=0.

 **********************************************************************

            Population analysis using the SCF density.

 **********************************************************************

 Orbital symmetries:
       Occupied  (A) (A) (A) (A) (A) (A) (A) (A) (A) (A) (A) (A)
                 (A) (A) (A) (A) (A) (A) (A) (A) (A) (A) (A) (A)
                 (A) (A) (A) (A) (A) (A) (A) (A) (A) (A) (A) (A)
                 (A) (A) (A) (A) (A) (A) (A) (A) (A) (A) (A) (A)
                 (A) (A) (A) (A) (A) (A) (A) (A)
       Virtual   (A) (A) (A) (A) (A) (A) (A) (A) (A) (A) (A) (A)
                 (A) (A) (A) (A) (A) (A) (A) (A) (A) (A) (A) (A)
                 (A) (A) (A) (A) (A) (A) (A) (A) (A) (A) (A) (A)
                 (A) (A) (A) (A) (A) (A) (A) (A) (A) (A) (A) (A)
                 (A) (A) (A) (A) (A) (A) (A) (A) (A) (A) (A) (A)
                 (A) (A) (A) (A) (A) (A) (A) (A) (A) (A) (A) (A)
                 (A) (A) (A) (A) (A) (A) (A) (A) (A) (A) (A) (A)
                 (A) (A) (A) (A) (A) (A) (A) (A) (A) (A) (A) (A)
                 (A) (A) (A) (A) (A) (A) (A) (A) (A) (A) (A) (A)
                 (A) (A) (A) (A) (A) (A) (A) (A) (A) (A) (A) (A)
                 (A) (A) (A) (A) (A) (A) (A) (A) (A) (A) (A) (A)
                 (A) (A) (A) (A) (A) (A) (A) (A) (A) (A) (A) (A)
                 (A) (A) (A) (A) (A) (A) (A) (A) (A) (A) (A) (A)
                 (A) (A) (A) (A) (A) (A) (A) (A) (A) (A) (A) (A)
                 (A) (A) (A) (A) (A) (A) (A) (A) (A) (A) (A) (A)
                 (A) (A) (A) (A) (A) (A) (A) (A) (A) (A) (A) (A)
                 (A) (A) (A) (A) (A)
 The electronic state is 1-A.
 Alpha  occ. eigenvalues --  -19.18512 -19.17737 -19.17027 -19.12835 -10.26950
 Alpha  occ. eigenvalues --  -10.25487 -10.25324 -10.24860 -10.24428 -10.23218
 Alpha  occ. eigenvalues --  -10.23054 -10.19438 -10.18793 -10.18521 -10.18515
 Alpha  occ. eigenvalues --   -1.07501  -1.06220  -1.04632  -1.02591  -0.85362
 Alpha  occ. eigenvalues --   -0.77375  -0.76007  -0.73745  -0.71790  -0.68968
 Alpha  occ. eigenvalues --   -0.67812  -0.61757  -0.60080  -0.55429  -0.52315
 Alpha  occ. eigenvalues --   -0.51689  -0.49964  -0.48386  -0.48070  -0.46949
 Alpha  occ. eigenvalues --   -0.46615  -0.45223  -0.44386  -0.44291  -0.43852
 Alpha  occ. eigenvalues --   -0.42367  -0.41419  -0.40147  -0.38820  -0.37770
 Alpha  occ. eigenvalues --   -0.37136  -0.35537  -0.35398  -0.34633  -0.33703
 Alpha  occ. eigenvalues --   -0.33221  -0.29736  -0.27983  -0.24255  -0.22206
 Alpha  occ. eigenvalues --   -0.21505
 Alpha virt. eigenvalues --   -0.04275   0.01067   0.04502   0.07037   0.09861
 Alpha virt. eigenvalues --    0.10879   0.11591   0.12416   0.13923   0.14545
 Alpha virt. eigenvalues --    0.14953   0.15488   0.15866   0.15995   0.16341
 Alpha virt. eigenvalues --    0.16934   0.17257   0.18176   0.19174   0.19249
 Alpha virt. eigenvalues --    0.20175   0.21973   0.23349   0.27038   0.28471
 Alpha virt. eigenvalues --    0.30776   0.33274   0.34379   0.36609   0.40835
 Alpha virt. eigenvalues --    0.42302   0.47351   0.48681   0.50301   0.51251
 Alpha virt. eigenvalues --    0.51417   0.53006   0.53523   0.54334   0.54707
 Alpha virt. eigenvalues --    0.54903   0.56673   0.57108   0.57483   0.59117
 Alpha virt. eigenvalues --    0.59947   0.60835   0.61449   0.62701   0.63769
 Alpha virt. eigenvalues --    0.66675   0.67658   0.69617   0.70722   0.71960
 Alpha virt. eigenvalues --    0.74023   0.74715   0.75379   0.78267   0.79837
 Alpha virt. eigenvalues --    0.81536   0.82927   0.83541   0.84642   0.84806
 Alpha virt. eigenvalues --    0.86012   0.86501   0.86796   0.87169   0.88503
 Alpha virt. eigenvalues --    0.88983   0.90407   0.91144   0.91968   0.93363
 Alpha virt. eigenvalues --    0.94583   0.96156   0.96892   0.98108   0.98726
 Alpha virt. eigenvalues --    1.00171   1.01697   1.04605   1.05301   1.06564
 Alpha virt. eigenvalues --    1.08299   1.09299   1.11014   1.12362   1.13720
 Alpha virt. eigenvalues --    1.16701   1.19030   1.20926   1.21894   1.22765
 Alpha virt. eigenvalues --    1.25899   1.31025   1.32037   1.36757   1.37492
 Alpha virt. eigenvalues --    1.38359   1.40210   1.42220   1.44940   1.46564
 Alpha virt. eigenvalues --    1.47842   1.49208   1.49640   1.50314   1.52937
 Alpha virt. eigenvalues --    1.53587   1.55851   1.65717   1.68086   1.71214
 Alpha virt. eigenvalues --    1.71526   1.73441   1.74540   1.77839   1.78718
 Alpha virt. eigenvalues --    1.79771   1.82122   1.85487   1.87669   1.88185
 Alpha virt. eigenvalues --    1.89824   1.91974   1.93037   1.93211   1.94331
 Alpha virt. eigenvalues --    1.96250   1.98761   1.99670   2.00612   2.04910
 Alpha virt. eigenvalues --    2.05993   2.06455   2.09132   2.10301   2.10590
 Alpha virt. eigenvalues --    2.10954   2.13297   2.18020   2.20360   2.22436
 Alpha virt. eigenvalues --    2.22587   2.23348   2.24708   2.25931   2.27769
 Alpha virt. eigenvalues --    2.29078   2.31880   2.34261   2.35159   2.36011
 Alpha virt. eigenvalues --    2.39069   2.40865   2.42641   2.43212   2.45636
 Alpha virt. eigenvalues --    2.50984   2.53148   2.55755   2.59811   2.61645
 Alpha virt. eigenvalues --    2.63144   2.66180   2.68498   2.71345   2.76680
 Alpha virt. eigenvalues --    2.77502   2.80168   2.81176   2.90832   2.94004
 Alpha virt. eigenvalues --    2.96748   3.01595   3.02602   3.09411   3.11849
 Alpha virt. eigenvalues --    3.31682   3.45517   3.96820   3.98924   4.05215
 Alpha virt. eigenvalues --    4.10765   4.18344   4.20954   4.21688   4.23668
 Alpha virt. eigenvalues --    4.28862   4.35426   4.37239   4.46196   4.58805
 Alpha virt. eigenvalues --    4.63141   5.05219
          Condensed to atoms (all electrons):
              1          2          3          4          5          6
     1  C    4.883546   0.239475  -0.033545   0.005017  -0.000105  -0.000038
     2  O    0.239475   8.219775   0.265100  -0.058642   0.003040   0.000229
     3  C   -0.033545   0.265100   4.671165   0.504191  -0.005108  -0.043707
     4  C    0.005017  -0.058642   0.504191   5.183165   0.493397  -0.073822
     5  C   -0.000105   0.003040  -0.005108   0.493397   4.980564   0.447462
     6  C   -0.000038   0.000229  -0.043707  -0.073822   0.447462   5.326158
     7  C    0.000473   0.003629  -0.032359  -0.037533   0.004846   0.378772
     8  C   -0.010418  -0.047426   0.429341  -0.064096  -0.027821  -0.053164
     9  O   -0.001320  -0.003184  -0.067847   0.003617  -0.000123   0.004804
    10  C   -0.000346   0.000057  -0.001177  -0.000111   0.000035  -0.000253
    11  O   -0.000001  -0.000005   0.002421   0.000227   0.003376  -0.064898
    12  C    0.000000   0.000000  -0.000054   0.000019   0.000617  -0.006172
    13  C    0.000001  -0.000046   0.003334  -0.038271   0.291656  -0.026056
    14  O   -0.000000   0.000000  -0.000075   0.003032  -0.094234   0.000412
    15  C   -0.000000  -0.000000  -0.000256  -0.007535  -0.126786   0.009453
    16  H    0.370217  -0.032680   0.002200  -0.000223  -0.000001  -0.000001
    17  H    0.376083  -0.033196  -0.002947   0.000024   0.000016  -0.000007
    18  H    0.370190  -0.035493  -0.002356   0.000232   0.000011   0.000006
    19  H   -0.000235   0.001095  -0.034555   0.339636  -0.040432   0.006737
    20  H   -0.000000   0.000002   0.000220   0.005997  -0.041601   0.348633
    21  H    0.000117  -0.000004  -0.000601   0.000010   0.000002   0.000007
    22  H   -0.000202  -0.000080   0.002361  -0.000169  -0.000040  -0.000013
    23  H   -0.000125  -0.000022   0.000241   0.000008  -0.000001   0.000022
    24  H    0.000000   0.000000  -0.000031   0.000001  -0.000098   0.006096
    25  H    0.000000   0.000000   0.000001  -0.000007  -0.000049   0.005014
    26  H   -0.000000  -0.000000   0.000004   0.000000   0.000001   0.000282
    27  H   -0.000000  -0.000001  -0.000005   0.000864   0.006234  -0.000695
    28  H    0.000000  -0.000000   0.000002   0.000131   0.005471  -0.000144
    29  H    0.000000  -0.000002   0.000128   0.000665  -0.000194  -0.000096
              7          8          9         10         11         12
     1  C    0.000473  -0.010418  -0.001320  -0.000346  -0.000001   0.000000
     2  O    0.003629  -0.047426  -0.003184   0.000057  -0.000005   0.000000
     3  C   -0.032359   0.429341  -0.067847  -0.001177   0.002421  -0.000054
     4  C   -0.037533  -0.064096   0.003617  -0.000111   0.000227   0.000019
     5  C    0.004846  -0.027821  -0.000123   0.000035   0.003376   0.000617
     6  C    0.378772  -0.053164   0.004804  -0.000253  -0.064898  -0.006172
     7  C    4.792439   0.397381  -0.061062  -0.010442   0.282195  -0.043953
     8  C    0.397381   4.963552   0.237557  -0.040926  -0.056270   0.004510
     9  O   -0.061062   0.237557   8.266832   0.242745  -0.000220  -0.000120
    10  C   -0.010442  -0.040926   0.242745   4.922324  -0.002868   0.000241
    11  O    0.282195  -0.056270  -0.000220  -0.002868   8.209119   0.247153
    12  C   -0.043953   0.004510  -0.000120   0.000241   0.247153   4.892840
    13  C    0.006396   0.000372   0.000000   0.000000  -0.000042  -0.000034
    14  O    0.001315   0.000013   0.000000   0.000000   0.000000  -0.000017
    15  C   -0.000063   0.000000  -0.000000  -0.000000   0.000000  -0.000000
    16  H    0.000025   0.000351   0.001112  -0.000074  -0.000000   0.000000
    17  H   -0.000178   0.002088   0.000593   0.000359   0.000001  -0.000000
    18  H   -0.000243   0.002970  -0.003577   0.000089   0.000000  -0.000000
    19  H   -0.000293   0.006453  -0.000054   0.000003   0.000002  -0.000000
    20  H   -0.044889   0.003094  -0.000039  -0.000004  -0.007419   0.006486
    21  H    0.003299  -0.004936  -0.035497   0.375373   0.007925  -0.000105
    22  H    0.001439   0.003308  -0.033900   0.355215  -0.000673  -0.000016
    23  H   -0.000047   0.002693  -0.034984   0.372677   0.000368  -0.000011
    24  H   -0.004914  -0.000286  -0.000005   0.000016  -0.034912   0.368255
    25  H   -0.005859  -0.000361   0.000002  -0.000059  -0.034648   0.365941
    26  H    0.003009   0.000065  -0.000006   0.000039  -0.031045   0.382110
    27  H   -0.000027   0.000003   0.000000   0.000000   0.000000   0.000000
    28  H    0.000001   0.000000  -0.000000   0.000000  -0.000000   0.000000
    29  H    0.000005  -0.000000  -0.000000   0.000000  -0.000000   0.000000
             13         14         15         16         17         18
     1  C    0.000001  -0.000000  -0.000000   0.370217   0.376083   0.370190
     2  O   -0.000046   0.000000  -0.000000  -0.032680  -0.033196  -0.035493
     3  C    0.003334  -0.000075  -0.000256   0.002200  -0.002947  -0.002356
     4  C   -0.038271   0.003032  -0.007535  -0.000223   0.000024   0.000232
     5  C    0.291656  -0.094234  -0.126786  -0.000001   0.000016   0.000011
     6  C   -0.026056   0.000412   0.009453  -0.000001  -0.000007   0.000006
     7  C    0.006396   0.001315  -0.000063   0.000025  -0.000178  -0.000243
     8  C    0.000372   0.000013   0.000000   0.000351   0.002088   0.002970
     9  O    0.000000   0.000000  -0.000000   0.001112   0.000593  -0.003577
    10  C    0.000000   0.000000  -0.000000  -0.000074   0.000359   0.000089
    11  O   -0.000042   0.000000   0.000000  -0.000000   0.000001   0.000000
    12  C   -0.000034  -0.000017  -0.000000   0.000000  -0.000000  -0.000000
    13  C    4.566388   0.572335   0.316470  -0.000000   0.000000  -0.000000
    14  O    0.572335   8.035497  -0.087905   0.000000  -0.000000  -0.000000
    15  C    0.316470  -0.087905   5.373605   0.000000  -0.000000   0.000000
    16  H   -0.000000   0.000000   0.000000   0.583417  -0.037456  -0.038438
    17  H    0.000000  -0.000000  -0.000000  -0.037456   0.564113  -0.037819
    18  H   -0.000000  -0.000000   0.000000  -0.038438  -0.037819   0.596136
    19  H   -0.010610   0.000043   0.006772  -0.000051   0.000035   0.000035
    20  H   -0.008003   0.016978   0.000962   0.000000   0.000000   0.000000
    21  H    0.000000  -0.000000  -0.000000   0.000002  -0.000024  -0.000004
    22  H   -0.000000  -0.000000   0.000000  -0.000001   0.000064   0.001052
    23  H   -0.000000  -0.000000   0.000000  -0.000055  -0.000114   0.001257
    24  H   -0.000012  -0.000001  -0.000000   0.000000  -0.000000   0.000000
    25  H    0.000009  -0.000005  -0.000000   0.000000   0.000000  -0.000000
    26  H   -0.000000  -0.000000  -0.000000  -0.000000  -0.000000   0.000000
    27  H   -0.022440   0.002410   0.347755  -0.000000  -0.000000   0.000000
    28  H   -0.020409   0.004918   0.350782  -0.000000  -0.000000   0.000000
    29  H   -0.015277   0.000392   0.352042   0.000000   0.000000  -0.000000
             19         20         21         22         23         24
     1  C   -0.000235  -0.000000   0.000117  -0.000202  -0.000125   0.000000
     2  O    0.001095   0.000002  -0.000004  -0.000080  -0.000022   0.000000
     3  C   -0.034555   0.000220  -0.000601   0.002361   0.000241  -0.000031
     4  C    0.339636   0.005997   0.000010  -0.000169   0.000008   0.000001
     5  C   -0.040432  -0.041601   0.000002  -0.000040  -0.000001  -0.000098
     6  C    0.006737   0.348633   0.000007  -0.000013   0.000022   0.006096
     7  C   -0.000293  -0.044889   0.003299   0.001439  -0.000047  -0.004914
     8  C    0.006453   0.003094  -0.004936   0.003308   0.002693  -0.000286
     9  O   -0.000054  -0.000039  -0.035497  -0.033900  -0.034984  -0.000005
    10  C    0.000003  -0.000004   0.375373   0.355215   0.372677   0.000016
    11  O    0.000002  -0.007419   0.007925  -0.000673   0.000368  -0.034912
    12  C   -0.000000   0.006486  -0.000105  -0.000016  -0.000011   0.368255
    13  C   -0.010610  -0.008003   0.000000  -0.000000  -0.000000  -0.000012
    14  O    0.000043   0.016978  -0.000000  -0.000000  -0.000000  -0.000001
    15  C    0.006772   0.000962  -0.000000   0.000000   0.000000  -0.000000
    16  H   -0.000051   0.000000   0.000002  -0.000001  -0.000055   0.000000
    17  H    0.000035   0.000000  -0.000024   0.000064  -0.000114  -0.000000
    18  H    0.000035   0.000000  -0.000004   0.001052   0.001257   0.000000
    19  H    0.583986  -0.000150  -0.000000   0.000003  -0.000000   0.000000
    20  H   -0.000150   0.558209   0.000003   0.000001  -0.000000   0.001347
    21  H   -0.000000   0.000003   0.559633  -0.039008  -0.038882   0.000034
    22  H    0.000003   0.000001  -0.039008   0.597448  -0.031154  -0.000003
    23  H   -0.000000  -0.000000  -0.038882  -0.031154   0.577398   0.000000
    24  H    0.000000   0.001347   0.000034  -0.000003   0.000000   0.574203
    25  H    0.000000   0.001601   0.000055   0.000016   0.000000  -0.043773
    26  H   -0.000000  -0.000062  -0.000077   0.000001  -0.000002  -0.032948
    27  H    0.000397  -0.000061   0.000000  -0.000000  -0.000000   0.000000
    28  H   -0.000099  -0.000028   0.000000   0.000000  -0.000000   0.000000
    29  H    0.001201  -0.000010   0.000000  -0.000000   0.000000  -0.000000
             25         26         27         28         29
     1  C    0.000000  -0.000000  -0.000000   0.000000   0.000000
     2  O    0.000000  -0.000000  -0.000001  -0.000000  -0.000002
     3  C    0.000001   0.000004  -0.000005   0.000002   0.000128
     4  C   -0.000007   0.000000   0.000864   0.000131   0.000665
     5  C   -0.000049   0.000001   0.006234   0.005471  -0.000194
     6  C    0.005014   0.000282  -0.000695  -0.000144  -0.000096
     7  C   -0.005859   0.003009  -0.000027   0.000001   0.000005
     8  C   -0.000361   0.000065   0.000003   0.000000  -0.000000
     9  O    0.000002  -0.000006   0.000000  -0.000000  -0.000000
    10  C   -0.000059   0.000039   0.000000   0.000000   0.000000
    11  O   -0.034648  -0.031045   0.000000  -0.000000  -0.000000
    12  C    0.365941   0.382110   0.000000   0.000000   0.000000
    13  C    0.000009  -0.000000  -0.022440  -0.020409  -0.015277
    14  O   -0.000005  -0.000000   0.002410   0.004918   0.000392
    15  C   -0.000000  -0.000000   0.347755   0.350782   0.352042
    16  H    0.000000  -0.000000  -0.000000  -0.000000   0.000000
    17  H    0.000000  -0.000000  -0.000000  -0.000000   0.000000
    18  H   -0.000000   0.000000   0.000000   0.000000  -0.000000
    19  H    0.000000  -0.000000   0.000397  -0.000099   0.001201
    20  H    0.001601  -0.000062  -0.000061  -0.000028  -0.000010
    21  H    0.000055  -0.000077   0.000000   0.000000   0.000000
    22  H    0.000016   0.000001  -0.000000   0.000000  -0.000000
    23  H    0.000000  -0.000002  -0.000000  -0.000000   0.000000
    24  H   -0.043773  -0.032948   0.000000   0.000000  -0.000000
    25  H    0.587881  -0.034521  -0.000000  -0.000000   0.000000
    26  H   -0.034521   0.544539   0.000000   0.000000  -0.000000
    27  H   -0.000000   0.000000   0.545057  -0.025309  -0.023779
    28  H   -0.000000   0.000000  -0.025309   0.525896  -0.020201
    29  H    0.000000  -0.000000  -0.023779  -0.020201   0.525931
 Mulliken atomic charges:
              1
     1  C   -0.198783
     2  O   -0.521620
     3  C    0.343917
     4  C   -0.259824
     5  C    0.099867
     6  C   -0.265019
     7  C    0.366638
     8  C    0.251954
     9  O   -0.515324
    10  C   -0.212910
    11  O   -0.519786
    12  C   -0.217690
    13  C    0.384239
    14  O   -0.455107
    15  C   -0.535297
    16  H    0.151655
    17  H    0.168364
    18  H    0.145952
    19  H    0.140083
    20  H    0.158733
    21  H    0.172679
    22  H    0.144353
    23  H    0.150734
    24  H    0.167032
    25  H    0.158764
    26  H    0.168612
    27  H    0.169599
    28  H    0.178989
    29  H    0.179195
 Sum of Mulliken atomic charges =  -0.00000
 Mulliken charges with hydrogens summed into heavy atoms:
              1
     1  C    0.267189
     2  O   -0.521620
     3  C    0.343917
     4  C   -0.119740
     5  C    0.099867
     6  C   -0.106286
     7  C    0.366638
     8  C    0.251954
     9  O   -0.515324
    10  C    0.254856
    11  O   -0.519786
    12  C    0.276718
    13  C    0.384239
    14  O   -0.455107
    15  C   -0.007514
 Sum of Mulliken charges with hydrogens summed into heavy atoms =  -0.00000
 Electronic spatial extent (au):  <R**2>=           3624.4201
 Charge=             -0.0000 electrons
 Dipole moment (field-independent basis, Debye):
    X=             -2.5281    Y=              0.0371    Z=              1.9030  Tot=              3.1645
 Quadrupole moment (field-independent basis, Debye-Ang):
   XX=            -88.7711   YY=            -77.2797   ZZ=            -87.9361
   XY=             -4.8311   XZ=              0.5140   YZ=              1.1775
 Traceless Quadrupole moment (field-independent basis, Debye-Ang):
   XX=             -4.1088   YY=              7.3826   ZZ=             -3.2738
   XY=             -4.8311   XZ=              0.5140   YZ=              1.1775
 Octapole moment (field-independent basis, Debye-Ang**2):
  XXX=            -70.6659  YYY=             41.7935  ZZZ=             -2.1644  XYY=            -10.1389
  XXY=            -40.9592  XXZ=             23.3342  XZZ=             -4.3247  YZZ=              0.9171
  YYZ=             -3.1840  XYZ=             -0.1244
 Hexadecapole moment (field-independent basis, Debye-Ang**3):
 XXXX=          -2799.3453 YYYY=          -1538.3614 ZZZZ=           -165.2383 XXXY=            -85.8004
 XXXZ=             25.9800 YYYX=             21.7673 YYYZ=             -0.7672 ZZZX=             -1.1407
 ZZZY=             -0.8783 XXYY=           -701.0881 XXZZ=           -480.5693 YYZZ=           -314.7342
 XXYZ=             20.9746 YYXZ=              2.6797 ZZXY=              3.7842
 N-N= 1.018632456457D+03 E-N=-3.736469815432D+03  KE= 7.218651320726D+02
 No NMR shielding tensors so no spin-rotation constants.
 Leave Link  601 at Mon Oct  4 05:40:27 2021, MaxMem= 1073741824 cpu:       1.4
 (Enter /sw/target/amd/app/gaussian/Gaussian09RevA.02_gcc-4.9.2/g09/l701.exe)
 Compute integral first derivatives.
 ... and contract with generalized density number  0.
 Leave Link  701 at Mon Oct  4 05:40:31 2021, MaxMem= 1073741824 cpu:       1.3
 (Enter /sw/target/amd/app/gaussian/Gaussian09RevA.02_gcc-4.9.2/g09/l702.exe)
 L702 exits ... SP integral derivatives will be done elsewhere.
 Leave Link  702 at Mon Oct  4 05:40:31 2021, MaxMem= 1073741824 cpu:       0.1
 (Enter /sw/target/amd/app/gaussian/Gaussian09RevA.02_gcc-4.9.2/g09/l703.exe)
 Compute integral first derivatives, UseDBF=F ICtDFT=           0.
 Integral derivatives from FoFDir, PRISM(SPDF).
 Calling FoFJK, ICntrl=      2127 FMM=F ISym2X=0 I1Cent= 0 IOpClX= 0 NMat=1 NMatS=1 NMatT=0.
 FoFCou: FMM=F IPFlag=           0 FMFlag=      100000 FMFlg1=         800
         NFxFlg=           0 DoJE=F BraDBF=F KetDBF=F FulRan=T
         Omega=  0.000000  0.000000  1.000000  0.000000  0.000000 ICntrl=    2127 IOpCl=  0
         NMat0=    1 NMatS0=    1 NMatT0=    0 NMatD0=    1 NMtDS0=    0 NMtDT0=    0
         I1Cent=           0 NGrid=           0.
 Symmetry not used in FoFCou.
 Leave Link  703 at Mon Oct  4 05:44:10 2021, MaxMem= 1073741824 cpu:     112.3
 (Enter /sw/target/amd/app/gaussian/Gaussian09RevA.02_gcc-4.9.2/g09/l716.exe)
 Dipole        =-9.94643951D-01 1.45775002D-02 7.48689836D-01
 ***** Axes restored to original set *****
 -------------------------------------------------------------------
 Center     Atomic                   Forces (Hartrees/Bohr)
 Number     Number              X              Y              Z
 -------------------------------------------------------------------
      1        6          -0.004613046   -0.008168001    0.008780800
      2        8           0.008901310   -0.003595037   -0.004156891
      3        6          -0.011222131    0.010854103    0.001599043
      4        6           0.002576535    0.004877386   -0.004413637
      5        6          -0.004141763   -0.006095456    0.004137343
      6        6           0.009201827   -0.002677725   -0.004905685
      7        6          -0.000796834    0.012796604   -0.003693002
      8        6           0.002593215   -0.001825989    0.010365186
      9        8          -0.000332644    0.000550576   -0.009278526
     10        6           0.006156196   -0.014134257    0.000873128
     11        8          -0.002987975   -0.001701372    0.002822588
     12        6           0.002150839   -0.003469795   -0.000102465
     13        6           0.015318440    0.003639650   -0.001888690
     14        8          -0.006686315   -0.001536283   -0.001563117
     15        6          -0.004949233    0.006562453   -0.008288722
     16        1          -0.003519795    0.005983159   -0.000704828
     17        1           0.000954666   -0.002389417   -0.005119604
     18        1           0.004513169   -0.000967837    0.000782828
     19        1           0.000942893   -0.003249318   -0.000416721
     20        1          -0.001147365   -0.001835113    0.002886944
     21        1          -0.001828585    0.003381660   -0.002928625
     22        1           0.000783562    0.002937406   -0.000374024
     23        1          -0.001752644    0.000416166    0.003086731
     24        1          -0.002177781    0.003445680   -0.001013699
     25        1          -0.001372101    0.003709506    0.000298432
     26        1          -0.002659788   -0.003900182    0.003305832
     27        1          -0.002184922   -0.001949245    0.005235736
     28        1           0.001825508    0.000374920    0.003463274
     29        1          -0.003545239   -0.002034241    0.001210373
 -------------------------------------------------------------------
 Cartesian Forces:  Max     0.015318440 RMS     0.004985101
 Leave Link  716 at Mon Oct  4 05:44:11 2021, MaxMem= 1073741824 cpu:       0.1
 (Enter /sw/target/amd/app/gaussian/Gaussian09RevA.02_gcc-4.9.2/g09/l103.exe)

 GradGradGradGradGradGradGradGradGradGradGradGradGradGradGradGradGradGrad
 Berny optimization.
 Internal  Forces:  Max     0.023589162 RMS     0.004004374
 Search for a local minimum.
 Step number   1 out of a maximum of  136
 All quantities printed in internal units (Hartrees-Bohrs-Radians)
 RMS Force = .40044D-02 SwitMx=.10000D-02 MixMth= 1
 Mixed Optimization -- RFO/linear search
 Second derivative matrix not updated -- first step.
     Eigenvalues ---    0.00728   0.00791   0.00889   0.01341   0.01358
     Eigenvalues ---    0.01437   0.01752   0.01947   0.02003   0.02013
     Eigenvalues ---    0.02024   0.02032   0.02050   0.02058   0.02065
     Eigenvalues ---    0.02100   0.02121   0.02135   0.07251   0.07587
     Eigenvalues ---    0.09836   0.09910   0.09983   0.10543   0.10544
     Eigenvalues ---    0.10612   0.15987   0.15998   0.16000   0.16000
     Eigenvalues ---    0.16000   0.16000   0.16000   0.16000   0.16000
     Eigenvalues ---    0.16000   0.16000   0.16000   0.16000   0.16000
     Eigenvalues ---    0.23458   0.23487   0.24815   0.24965   0.24984
     Eigenvalues ---    0.24993   0.25000   0.25000   0.25000   0.25000
     Eigenvalues ---    0.25000   0.25000   0.32075   0.33375   0.34150
     Eigenvalues ---    0.34191   0.34244   0.34250   0.34292   0.34321
     Eigenvalues ---    0.34326   0.34333   0.34350   0.34354   0.34429
     Eigenvalues ---    0.34469   0.35149   0.35155   0.40895   0.41462
     Eigenvalues ---    0.41489   0.41678   0.42571   0.44169   0.45421
     Eigenvalues ---    0.45489   0.46221   0.50163   0.50426   0.50528
     Eigenvalues ---    0.922921000.000001000.000001000.000001000.00000
     Eigenvalues --- 1000.000001000.000001000.000001000.000001000.00000
     Eigenvalues --- 1000.000001000.000001000.000001000.000001000.00000
     Eigenvalues --- 1000.000001000.000001000.000001000.000001000.00000
     Eigenvalues --- 1000.000001000.000001000.000001000.000001000.00000
     Eigenvalues --- 1000.000001000.000001000.000001000.000001000.00000
     Eigenvalues --- 1000.000001000.000001000.000001000.000001000.00000
     Eigenvalues --- 1000.000001000.000001000.000001000.000001000.00000
     Eigenvalues --- 1000.000001000.000001000.000001000.000001000.00000
     Eigenvalues --- 1000.00000
 RFO step:  Lambda=-1.00929040D-02 EMin= 7.27612903D-03
 Linear search not attempted -- first point.
 Maximum step size (   0.300) exceeded in Quadratic search.
    -- Step size scaled by   0.861
 Iteration  1 RMS(Cart)=  0.07586850 RMS(Int)=  0.00271407
 Iteration  2 RMS(Cart)=  0.00385595 RMS(Int)=  0.00008788
 Iteration  3 RMS(Cart)=  0.00000776 RMS(Int)=  0.00008773
 Iteration  4 RMS(Cart)=  0.00000000 RMS(Int)=  0.00008773
 Variable       Old X    -DE/DX   Delta X   Delta X   Delta X     New X
                                 (Linear)    (Quad)   (Total)
    R1        2.68203   0.00571   0.00000   0.01128   0.01128   2.69331
    R2        2.06910   0.00036   0.00000   0.00088   0.00088   2.06998
    R3        2.06791  -0.00164   0.00000  -0.00400  -0.00400   2.06391
    R4        2.06744  -0.00011   0.00000  -0.00027  -0.00027   2.06717
    R5        2.59336   0.00015   0.00000   0.00024   0.00024   2.59360
    R6        2.65251   0.00107   0.00000   0.00203   0.00203   2.65455
    R7        2.66026   0.00177   0.00000   0.00331   0.00334   2.66360
    R8        2.63626  -0.00124   0.00000  -0.00217  -0.00220   2.63406
    R9        2.05423  -0.00205   0.00000  -0.00487  -0.00487   2.04936
   R10        2.63929   0.00335   0.00000   0.00616   0.00613   2.64542
   R11        2.81698   0.00518   0.00000   0.01298   0.01298   2.82995
   R12        2.64254  -0.00611   0.00000  -0.01126  -0.01125   2.63129
   R13        2.05434  -0.00344   0.00000  -0.00820  -0.00820   2.04613
   R14        2.67447   0.00105   0.00000   0.00196   0.00199   2.67646
   R15        2.59438  -0.00728   0.00000  -0.01219  -0.01219   2.58219
   R16        2.59701   0.00484   0.00000   0.00815   0.00815   2.60517
   R17        2.69579   0.00459   0.00000   0.00931   0.00931   2.70510
   R18        2.06546  -0.00010   0.00000  -0.00023  -0.00023   2.06523
   R19        2.07078  -0.00004   0.00000  -0.00009  -0.00009   2.07069
   R20        2.06921   0.00089   0.00000   0.00219   0.00219   2.07139
   R21        2.69335  -0.00380   0.00000  -0.00768  -0.00768   2.68567
   R22        2.06736   0.00145   0.00000   0.00353   0.00353   2.07090
   R23        2.06773   0.00153   0.00000   0.00372   0.00372   2.07145
   R24        2.06784  -0.00111   0.00000  -0.00270  -0.00270   2.06514
   R25        2.31894  -0.00529   0.00000  -0.00488  -0.00488   2.31406
   R26        2.84007   0.00942   0.00000   0.02452   0.02452   2.86458
   R27        2.06840   0.00027   0.00000   0.00066   0.00066   2.06906
   R28        2.07009  -0.00157   0.00000  -0.00385  -0.00385   2.06624
   R29        2.06612   0.00184   0.00000   0.00448   0.00448   2.07060
    A1        1.87635  -0.00993   0.00000  -0.04809  -0.04793   1.82842
    A2        1.94391   0.00295   0.00000   0.01421   0.01431   1.95822
    A3        1.94184   0.00319   0.00000   0.01460   0.01469   1.95653
    A4        1.86871   0.00503   0.00000   0.02858   0.02875   1.89746
    A5        1.86740   0.00396   0.00000   0.02136   0.02151   1.88891
    A6        1.96040  -0.00537   0.00000  -0.03093  -0.03088   1.92951
    A7        2.08011   0.02359   0.00000   0.07812   0.07812   2.15823
    A8        1.94852   0.00356   0.00000   0.01189   0.01184   1.96036
    A9        2.24758  -0.00159   0.00000  -0.00519  -0.00524   2.24234
   A10        2.08708  -0.00197   0.00000  -0.00666  -0.00661   2.08047
   A11        2.10544   0.00275   0.00000   0.01060   0.01052   2.11596
   A12        2.06795  -0.00400   0.00000  -0.01828  -0.01837   2.04959
   A13        2.10905   0.00129   0.00000   0.00854   0.00846   2.11751
   A14        2.08974  -0.00032   0.00000  -0.00088  -0.00091   2.08883
   A15        2.13426  -0.00056   0.00000  -0.00191  -0.00190   2.13236
   A16        2.05866   0.00089   0.00000   0.00289   0.00291   2.06157
   A17        2.10770  -0.00375   0.00000  -0.01416  -0.01417   2.09353
   A18        2.05573   0.00194   0.00000   0.00737   0.00735   2.06308
   A19        2.11962   0.00180   0.00000   0.00666   0.00665   2.12627
   A20        2.08553   0.00671   0.00000   0.02195   0.02201   2.10754
   A21        2.15127   0.00402   0.00000   0.01353   0.01349   2.16476
   A22        2.04614  -0.01073   0.00000  -0.03531  -0.03535   2.01079
   A23        2.09066  -0.00342   0.00000  -0.01074  -0.01080   2.07987
   A24        2.08094   0.00675   0.00000   0.02370   0.02353   2.10447
   A25        2.10532  -0.00322   0.00000  -0.00958  -0.00980   2.09552
   A26        1.98535   0.01615   0.00000   0.05350   0.05350   2.03885
   A27        1.93939   0.00075   0.00000   0.00317   0.00303   1.94242
   A28        1.96035  -0.00323   0.00000  -0.02028  -0.02044   1.93991
   A29        1.87235  -0.00271   0.00000  -0.00942  -0.00951   1.86284
   A30        1.93724  -0.00211   0.00000  -0.01805  -0.01825   1.91899
   A31        1.86802   0.00486   0.00000   0.03274   0.03268   1.90070
   A32        1.88194   0.00292   0.00000   0.01544   0.01533   1.89728
   A33        2.05299   0.00084   0.00000   0.00278   0.00278   2.05577
   A34        1.93498   0.00182   0.00000   0.00816   0.00820   1.94318
   A35        1.94080   0.00156   0.00000   0.00687   0.00691   1.94772
   A36        1.88036  -0.00774   0.00000  -0.03720  -0.03714   1.84322
   A37        1.94518  -0.00359   0.00000  -0.02165  -0.02162   1.92356
   A38        1.88229   0.00388   0.00000   0.02163   0.02170   1.90399
   A39        1.87711   0.00405   0.00000   0.02250   0.02256   1.89967
   A40        2.08468   0.00482   0.00000   0.01596   0.01595   2.10063
   A41        2.07464  -0.00109   0.00000  -0.00361  -0.00361   2.07102
   A42        2.12385  -0.00373   0.00000  -0.01237  -0.01237   2.11148
   A43        1.92873   0.00273   0.00000   0.01458   0.01447   1.94320
   A44        1.90005  -0.00109   0.00000   0.00053   0.00040   1.90046
   A45        1.92712   0.00188   0.00000   0.00248   0.00248   1.92961
   A46        1.87545   0.00269   0.00000   0.02785   0.02761   1.90306
   A47        1.93306  -0.00522   0.00000  -0.03760  -0.03759   1.89548
   A48        1.89814  -0.00098   0.00000  -0.00696  -0.00696   1.89118
    D1       -3.10960   0.00001   0.00000  -0.01023  -0.01025  -3.11984
    D2        1.13154  -0.00174   0.00000  -0.02377  -0.02366   1.10789
    D3       -1.07027   0.00063   0.00000  -0.00508  -0.00517  -1.07545
    D4        3.11405  -0.00104   0.00000  -0.03022  -0.03025   3.08380
    D5       -0.03163  -0.00074   0.00000  -0.01980  -0.01977  -0.05140
    D6        3.11475   0.00048   0.00000   0.01647   0.01653   3.13128
    D7        0.01407  -0.00038   0.00000  -0.00768  -0.00749   0.00658
    D8       -0.02318   0.00021   0.00000   0.00713   0.00713  -0.01605
    D9       -3.12386  -0.00066   0.00000  -0.01703  -0.01689  -3.14075
   D10       -3.11909  -0.00027   0.00000  -0.00799  -0.00797  -3.12705
   D11       -0.09674   0.00060   0.00000   0.02345   0.02367  -0.07306
   D12        0.01814   0.00007   0.00000   0.00319   0.00318   0.02132
   D13        3.04049   0.00094   0.00000   0.03463   0.03482   3.07531
   D14        0.01809  -0.00040   0.00000  -0.01228  -0.01233   0.00576
   D15       -3.08817  -0.00051   0.00000  -0.01567  -0.01575  -3.10392
   D16        3.11781   0.00035   0.00000   0.01182   0.01200   3.12980
[...]
 Integrated density= 1.0240370248734595D+02 error=-9.5962975126540471D+00
 Molar volume = 2206.777 bohr**3/mol (196.930 cm**3/mol)
 Recommended a0 for SCRF calculation =  5.20 angstrom (  9.83 bohr)
 Leave Link  604 at Mon Oct  4 15:21:13 2021, MaxMem= 1073741824 cpu:       0.3
 (Enter /sw/target/amd/app/gaussian/Gaussian09RevA.02_gcc-4.9.2/g09/l607.exe)
 ******************************Gaussian NBO Version 3.1******************************
             N A T U R A L   A T O M I C   O R B I T A L   A N D
          N A T U R A L   B O N D   O R B I T A L   A N A L Y S I S
 ******************************Gaussian NBO Version 3.1******************************
       /RESON  / : Allow strongly delocalized NBO set

 Analyzing the CI density

 Job title: COc1cc(cc(c1OC)OC)C(=O)C_conf_0                                 

 Storage needed:    194832 in NPA (1073737329 available)


 NATURAL POPULATIONS:  Natural atomic orbital occupancies 
                                                          
   NAO  Atom  No  lang   Type(AO)    Occupancy
 --------------------------------------------
     1    C    1  S      Cor( 1S)     1.99942
     2    C    1  S      Val( 2S)     1.09905
     3    C    1  S      Ryd( 3S)     0.00130
     4    C    1  S      Ryd( 4S)     0.00003
     5    C    1  px     Val( 2p)     0.74233
     6    C    1  px     Ryd( 3p)     0.00261
     7    C    1  py     Val( 2p)     1.21550
     8    C    1  py     Ryd( 3p)     0.00263
     9    C    1  pz     Val( 2p)     1.23107
    10    C    1  pz     Ryd( 3p)     0.00026
    11    C    1  dxy    Ryd( 3d)     0.00100
    12    C    1  dxz    Ryd( 3d)     0.00185
    13    C    1  dyz    Ryd( 3d)     0.00049
    14    C    1  dx2y2  Ryd( 3d)     0.00205
    15    C    1  dz2    Ryd( 3d)     0.00116

    16    O    2  S      Cor( 1S)     1.99974
    17    O    2  S      Val( 2S)     1.58193
    18    O    2  S      Ryd( 3S)     0.00095
    19    O    2  S      Ryd( 4S)     0.00004
    20    O    2  px     Val( 2p)     1.48268
    21    O    2  px     Ryd( 3p)     0.00126
    22    O    2  py     Val( 2p)     1.60712
    23    O    2  py     Ryd( 3p)     0.00211
    24    O    2  pz     Val( 2p)     1.84785
    25    O    2  pz     Ryd( 3p)     0.00254
    26    O    2  dxy    Ryd( 3d)     0.00123
    27    O    2  dxz    Ryd( 3d)     0.00054
    28    O    2  dyz    Ryd( 3d)     0.00131
    29    O    2  dx2y2  Ryd( 3d)     0.00123
    30    O    2  dz2    Ryd( 3d)     0.00074

    31    C    3  S      Cor( 1S)     1.99872
    32    C    3  S      Val( 2S)     0.82886
    33    C    3  S      Ryd( 3S)     0.00151
    34    C    3  S      Ryd( 4S)     0.00017
    35    C    3  px     Val( 2p)     1.00239
    36    C    3  px     Ryd( 3p)     0.00526
    37    C    3  py     Val( 2p)     0.84610
    38    C    3  py     Ryd( 3p)     0.00929
    39    C    3  pz     Val( 2p)     0.99414
    40    C    3  pz     Ryd( 3p)     0.00074
    41    C    3  dxy    Ryd( 3d)     0.00144
    42    C    3  dxz    Ryd( 3d)     0.00116
    43    C    3  dyz    Ryd( 3d)     0.00199
    44    C    3  dx2y2  Ryd( 3d)     0.00152
    45    C    3  dz2    Ryd( 3d)     0.00048

    46    C    4  S      Cor( 1S)     1.99898
    47    C    4  S      Val( 2S)     0.93769
    48    C    4  S      Ryd( 3S)     0.00075
    49    C    4  S      Ryd( 4S)     0.00006
    50    C    4  px     Val( 2p)     1.07107
    51    C    4  px     Ryd( 3p)     0.00347
    52    C    4  py     Val( 2p)     1.17139
    53    C    4  py     Ryd( 3p)     0.00469
    54    C    4  pz     Val( 2p)     1.11148
    55    C    4  pz     Ryd( 3p)     0.00208
    56    C    4  dxy    Ryd( 3d)     0.00060
    57    C    4  dxz    Ryd( 3d)     0.00053
    58    C    4  dyz    Ryd( 3d)     0.00037
    59    C    4  dx2y2  Ryd( 3d)     0.00069
    60    C    4  dz2    Ryd( 3d)     0.00047

    61    C    5  S      Cor( 1S)     1.99890
    62    C    5  S      Val( 2S)     0.87572
    63    C    5  S      Ryd( 3S)     0.00046
    64    C    5  S      Ryd( 4S)     0.00004
    65    C    5  px     Val( 2p)     1.02253
    66    C    5  px     Ryd( 3p)     0.00473
    67    C    5  py     Val( 2p)     1.10755
    68    C    5  py     Ryd( 3p)     0.00570
    69    C    5  pz     Val( 2p)     1.11264
    70    C    5  pz     Ryd( 3p)     0.00102
    71    C    5  dxy    Ryd( 3d)     0.00058
    72    C    5  dxz    Ryd( 3d)     0.00086
    73    C    5  dyz    Ryd( 3d)     0.00078
    74    C    5  dx2y2  Ryd( 3d)     0.00071
    75    C    5  dz2    Ryd( 3d)     0.00040

    76    C    6  S      Cor( 1S)     1.99898
    77    C    6  S      Val( 2S)     0.93513
    78    C    6  S      Ryd( 3S)     0.00067
    79    C    6  S      Ryd( 4S)     0.00006
    80    C    6  px     Val( 2p)     1.11232
    81    C    6  px     Ryd( 3p)     0.00349
    82    C    6  py     Val( 2p)     1.15133
    83    C    6  py     Ryd( 3p)     0.00337
    84    C    6  pz     Val( 2p)     1.12913
    85    C    6  pz     Ryd( 3p)     0.00241
    86    C    6  dxy    Ryd( 3d)     0.00064
    87    C    6  dxz    Ryd( 3d)     0.00057
    88    C    6  dyz    Ryd( 3d)     0.00034
    89    C    6  dx2y2  Ryd( 3d)     0.00063
    90    C    6  dz2    Ryd( 3d)     0.00047

    91    C    7  S      Cor( 1S)     1.99876
    92    C    7  S      Val( 2S)     0.83100
    93    C    7  S      Ryd( 3S)     0.00173
    94    C    7  S      Ryd( 4S)     0.00017
    95    C    7  px     Val( 2p)     1.01418
    96    C    7  px     Ryd( 3p)     0.00797
    97    C    7  py     Val( 2p)     0.83584
    98    C    7  py     Ryd( 3p)     0.00529
    99    C    7  pz     Val( 2p)     0.99977
   100    C    7  pz     Ryd( 3p)     0.00066
   101    C    7  dxy    Ryd( 3d)     0.00172
   102    C    7  dxz    Ryd( 3d)     0.00130
   103    C    7  dyz    Ryd( 3d)     0.00173
   104    C    7  dx2y2  Ryd( 3d)     0.00117
   105    C    7  dz2    Ryd( 3d)     0.00051

   106    C    8  S      Cor( 1S)     1.99869
   107    C    8  S      Val( 2S)     0.83081
   108    C    8  S      Ryd( 3S)     0.00137
   109    C    8  S      Ryd( 4S)     0.00017
   110    C    8  px     Val( 2p)     0.77355
   111    C    8  px     Ryd( 3p)     0.00713
   112    C    8  py     Val( 2p)     1.06792
   113    C    8  py     Ryd( 3p)     0.00449
   114    C    8  pz     Val( 2p)     1.13531
   115    C    8  pz     Ryd( 3p)     0.00396
   116    C    8  dxy    Ryd( 3d)     0.00177
   117    C    8  dxz    Ryd( 3d)     0.00161
   118    C    8  dyz    Ryd( 3d)     0.00052
   119    C    8  dx2y2  Ryd( 3d)     0.00141
   120    C    8  dz2    Ryd( 3d)     0.00048

   121    O    9  S      Cor( 1S)     1.99976
   122    O    9  S      Val( 2S)     1.59649
   123    O    9  S      Ryd( 3S)     0.00110
   124    O    9  S      Ryd( 4S)     0.00008
   125    O    9  px     Val( 2p)     1.43796
   126    O    9  px     Ryd( 3p)     0.00147
   127    O    9  py     Val( 2p)     1.86501
   128    O    9  py     Ryd( 3p)     0.00350
   129    O    9  pz     Val( 2p)     1.64445
   130    O    9  pz     Ryd( 3p)     0.00136
   131    O    9  dxy    Ryd( 3d)     0.00052
   132    O    9  dxz    Ryd( 3d)     0.00145
   133    O    9  dyz    Ryd( 3d)     0.00120
   134    O    9  dx2y2  Ryd( 3d)     0.00076
   135    O    9  dz2    Ryd( 3d)     0.00140

   136    C   10  S      Cor( 1S)     1.99941
   137    C   10  S      Val( 2S)     1.10285
   138    C   10  S      Ryd( 3S)     0.00131
   139    C   10  S      Ryd( 4S)     0.00003
   140    C   10  px     Val( 2p)     1.09198
   141    C   10  px     Ryd( 3p)     0.00115
   142    C   10  py     Val( 2p)     1.17228
   143    C   10  py     Ryd( 3p)     0.00073
   144    C   10  pz     Val( 2p)     0.92618
   145    C   10  pz     Ryd( 3p)     0.00273
   146    C   10  dxy    Ryd( 3d)     0.00065
   147    C   10  dxz    Ryd( 3d)     0.00124
   148    C   10  dyz    Ryd( 3d)     0.00167
   149    C   10  dx2y2  Ryd( 3d)     0.00150
   150    C   10  dz2    Ryd( 3d)     0.00158

   151    O   11  S      Cor( 1S)     1.99974
   152    O   11  S      Val( 2S)     1.58947
   153    O   11  S      Ryd( 3S)     0.00084
   154    O   11  S      Ryd( 4S)     0.00005
   155    O   11  px     Val( 2p)     1.72238
   156    O   11  px     Ryd( 3p)     0.00249
   157    O   11  py     Val( 2p)     1.35751
   158    O   11  py     Ryd( 3p)     0.00089
   159    O   11  pz     Val( 2p)     1.84393
   160    O   11  pz     Ryd( 3p)     0.00242
   161    O   11  dxy    Ryd( 3d)     0.00126
   162    O   11  dxz    Ryd( 3d)     0.00169
   163    O   11  dyz    Ryd( 3d)     0.00028
   164    O   11  dx2y2  Ryd( 3d)     0.00126
   165    O   11  dz2    Ryd( 3d)     0.00076

   166    C   12  S      Cor( 1S)     1.99943
   167    C   12  S      Val( 2S)     1.09934
   168    C   12  S      Ryd( 3S)     0.00147
   169    C   12  S      Ryd( 4S)     0.00003
   170    C   12  px     Val( 2p)     1.11680
   171    C   12  px     Ryd( 3p)     0.00320
   172    C   12  py     Val( 2p)     0.85743
   173    C   12  py     Ryd( 3p)     0.00243
   174    C   12  pz     Val( 2p)     1.22676
   175    C   12  pz     Ryd( 3p)     0.00027
   176    C   12  dxy    Ryd( 3d)     0.00194
   177    C   12  dxz    Ryd( 3d)     0.00145
   178    C   12  dyz    Ryd( 3d)     0.00100
   179    C   12  dx2y2  Ryd( 3d)     0.00109
   180    C   12  dz2    Ryd( 3d)     0.00108

   181    C   13  S      Cor( 1S)     1.99929
   182    C   13  S      Val( 2S)     0.83923
   183    C   13  S      Ryd( 3S)     0.00453
   184    C   13  S      Ryd( 4S)     0.00019
   185    C   13  px     Val( 2p)     0.94804
   186    C   13  px     Ryd( 3p)     0.00578
   187    C   13  py     Val( 2p)     0.83364
   188    C   13  py     Ryd( 3p)     0.01299
   189    C   13  pz     Val( 2p)     0.98254
   190    C   13  pz     Ryd( 3p)     0.00347
   191    C   13  dxy    Ryd( 3d)     0.00137
   192    C   13  dxz    Ryd( 3d)     0.00123
   193    C   13  dyz    Ryd( 3d)     0.00145
   194    C   13  dx2y2  Ryd( 3d)     0.00121
   195    C   13  dz2    Ryd( 3d)     0.00035

   196    O   14  S      Cor( 1S)     1.99981
   197    O   14  S      Val( 2S)     1.70357
   198    O   14  S      Ryd( 3S)     0.00015
   199    O   14  S      Ryd( 4S)     0.00002
   200    O   14  px     Val( 2p)     1.28045
   201    O   14  px     Ryd( 3p)     0.00122
   202    O   14  py     Val( 2p)     1.47308
   203    O   14  py     Ryd( 3p)     0.00064
   204    O   14  pz     Val( 2p)     1.78566
   205    O   14  pz     Ryd( 3p)     0.00337
   206    O   14  dxy    Ryd( 3d)     0.00385
   207    O   14  dxz    Ryd( 3d)     0.00124
   208    O   14  dyz    Ryd( 3d)     0.00335
   209    O   14  dx2y2  Ryd( 3d)     0.00284
   210    O   14  dz2    Ryd( 3d)     0.00131

   211    C   15  S      Cor( 1S)     1.99932
   212    C   15  S      Val( 2S)     1.12900
   213    C   15  S      Ryd( 3S)     0.00020
   214    C   15  S      Ryd( 4S)     0.00001
   215    C   15  px     Val( 2p)     1.22164
   216    C   15  px     Ryd( 3p)     0.00163
   217    C   15  py     Val( 2p)     1.08597
   218    C   15  py     Ryd( 3p)     0.00135
   219    C   15  pz     Val( 2p)     1.26428
   220    C   15  pz     Ryd( 3p)     0.00008
   221    C   15  dxy    Ryd( 3d)     0.00055
   222    C   15  dxz    Ryd( 3d)     0.00038
   223    C   15  dyz    Ryd( 3d)     0.00111
   224    C   15  dx2y2  Ryd( 3d)     0.00073
   225    C   15  dz2    Ryd( 3d)     0.00071

   226    H   16  S      Val( 1S)     0.78479
   227    H   16  S      Ryd( 2S)     0.00083

   228    H   17  S      Val( 1S)     0.78118
   229    H   17  S      Ryd( 2S)     0.00150

   230    H   18  S      Val( 1S)     0.80144
   231    H   18  S      Ryd( 2S)     0.00176

   232    H   19  S      Val( 1S)     0.75928
   233    H   19  S      Ryd( 2S)     0.00142

   234    H   20  S      Val( 1S)     0.75852
   235    H   20  S      Ryd( 2S)     0.00096

   236    H   21  S      Val( 1S)     0.78453
   237    H   21  S      Ryd( 2S)     0.00191

   238    H   22  S      Val( 1S)     0.80886
   239    H   22  S      Ryd( 2S)     0.00208

   240    H   23  S      Val( 1S)     0.78486
   241    H   23  S      Ryd( 2S)     0.00091

   242    H   24  S      Val( 1S)     0.79250
   243    H   24  S      Ryd( 2S)     0.00197

   244    H   25  S      Val( 1S)     0.79563
   245    H   25  S      Ryd( 2S)     0.00193

   246    H   26  S      Val( 1S)     0.77340
   247    H   26  S      Ryd( 2S)     0.00053

   248    H   27  S      Val( 1S)     0.73817
   249    H   27  S      Ryd( 2S)     0.00131

   250    H   28  S      Val( 1S)     0.74312
   251    H   28  S      Ryd( 2S)     0.00113

   252    H   29  S      Val( 1S)     0.73752
   253    H   29  S      Ryd( 2S)     0.00135

 WARNING:  1 low occupancy (<1.9990e) core orbital  found on  C    3
           1 low occupancy (<1.9990e) core orbital  found on  C    4
           1 low occupancy (<1.9990e) core orbital  found on  C    5
           1 low occupancy (<1.9990e) core orbital  found on  C    6
           1 low occupancy (<1.9990e) core orbital  found on  C    7
           1 low occupancy (<1.9990e) core orbital  found on  C    8


 Summary of Natural Population Analysis:                  
                                                          
                                       Natural Population 
                Natural  -----------------------------------------------
    Atom  No    Charge         Core      Valence    Rydberg      Total
 -----------------------------------------------------------------------
      C    1   -0.30076      1.99942     4.28795    0.01339     6.30076
      O    2   -0.53126      1.99974     6.51958    0.01194     8.53126
      C    3    0.30623      1.99872     3.67149    0.02356     5.69377
      C    4   -0.30432      1.99898     4.29162    0.01371     6.30432
      C    5   -0.13263      1.99890     4.11844    0.01530     6.13263
      C    6   -0.33954      1.99898     4.32790    0.01266     6.33954
      C    7    0.29820      1.99876     3.68080    0.02224     5.70180
      C    8    0.17079      1.99869     3.80759    0.02292     5.82921
      O    9   -0.55652      1.99976     6.54392    0.01285     8.55652
      C   10   -0.30530      1.99941     4.29329    0.01259     6.30530
      O   11   -0.52498      1.99974     6.51329    0.01195     8.52498
      C   12   -0.31372      1.99943     4.30033    0.01396     6.31372
      C   13    0.36470      1.99929     3.60344    0.03257     5.63530
      O   14   -0.26056      1.99981     6.24276    0.01799     8.26056
      C   15   -0.70696      1.99932     4.70089    0.00675     6.70696
      H   16    0.21438      0.00000     0.78479    0.00083     0.78562
      H   17    0.21732      0.00000     0.78118    0.00150     0.78268
      H   18    0.19680      0.00000     0.80144    0.00176     0.80320
      H   19    0.23929      0.00000     0.75928    0.00142     0.76071
      H   20    0.24052      0.00000     0.75852    0.00096     0.75948
      H   21    0.21356      0.00000     0.78453    0.00191     0.78644
      H   22    0.18906      0.00000     0.80886    0.00208     0.81094
      H   23    0.21423      0.00000     0.78486    0.00091     0.78577
      H   24    0.20554      0.00000     0.79250    0.00197     0.79446
      H   25    0.20243      0.00000     0.79563    0.00193     0.79757
      H   26    0.22607      0.00000     0.77340    0.00053     0.77393
      H   27    0.26053      0.00000     0.73817    0.00131     0.73947
      H   28    0.25575      0.00000     0.74312    0.00113     0.74425
      H   29    0.26113      0.00000     0.73752    0.00135     0.73887
 =======================================================================
   * Total *   -0.00000     29.98894    81.74709    0.26397   112.00000

                                 Natural Population      
 --------------------------------------------------------
   Core                      29.98894 ( 99.9631% of  30)
   Valence                   81.74709 ( 99.6916% of  82)
   Natural Minimal Basis    111.73603 ( 99.7643% of 112)
   Natural Rydberg Basis      0.26397 (  0.2357% of 112)
 --------------------------------------------------------

    Atom  No          Natural Electron Configuration
 ----------------------------------------------------------------------------
      C    1      [core]2S( 1.10)2p( 3.19)3p( 0.01)3d( 0.01)
      O    2      [core]2S( 1.58)2p( 4.94)3p( 0.01)3d( 0.01)
      C    3      [core]2S( 0.83)2p( 2.84)3p( 0.02)3d( 0.01)
      C    4      [core]2S( 0.94)2p( 3.35)3p( 0.01)
      C    5      [core]2S( 0.88)2p( 3.24)3p( 0.01)
      C    6      [core]2S( 0.94)2p( 3.39)3p( 0.01)
      C    7      [core]2S( 0.83)2p( 2.85)3p( 0.01)3d( 0.01)
      C    8      [core]2S( 0.83)2p( 2.98)3p( 0.02)3d( 0.01)
      O    9      [core]2S( 1.60)2p( 4.95)3p( 0.01)3d( 0.01)
      C   10      [core]2S( 1.10)2p( 3.19)3d( 0.01)
      O   11      [core]2S( 1.59)2p( 4.92)3p( 0.01)3d( 0.01)
      C   12      [core]2S( 1.10)2p( 3.20)3p( 0.01)3d( 0.01)
      C   13      [core]2S( 0.84)2p( 2.76)3p( 0.02)3d( 0.01)
      O   14      [core]2S( 1.70)2p( 4.54)3p( 0.01)3d( 0.01)
      C   15      [core]2S( 1.13)2p( 3.57)
      H   16            1S( 0.78)
      H   17            1S( 0.78)
      H   18            1S( 0.80)
      H   19            1S( 0.76)
      H   20            1S( 0.76)
      H   21            1S( 0.78)
      H   22            1S( 0.81)
      H   23            1S( 0.78)
      H   24            1S( 0.79)
      H   25            1S( 0.80)
      H   26            1S( 0.77)
      H   27            1S( 0.74)
      H   28            1S( 0.74)
      H   29            1S( 0.74)


 NBO analysis skipped by request.
 Leave Link  607 at Mon Oct  4 15:22:02 2021, MaxMem= 1073741824 cpu:      19.5
 (Enter /sw/target/amd/app/gaussian/Gaussian09RevA.02_gcc-4.9.2/g09/l9999.exe)
 1\1\GINC-HERMITE\SP\RTD-B3LYP-FC\6-31G(d)\C11H14O4\JSCHLEINITZ\04-Oct-
 2021\0\\#p TD(NStates=10, Root=1) b3lyp/6-31G* volume pop=NPA density=
 current Geom=AllCheck Guess=Read\\COc1cc(cc(c1OC)OC)C(=O)C_conf_0\\0,1
 \C,0,2.2938595572,-0.4159011439,0.5745036816\O,0,2.0769831331,0.932313
 2881,0.1645957944\C,0,2.9078326823,1.5989720785,-0.6853370754\C,0,2.44
 91282098,2.8828112276,-1.0262973465\C,0,3.1844395285,3.707732142,-1.87
 20098337\C,0,4.4125296902,3.2633434353,-2.3902002851\C,0,4.8829735537,
 2.0016362118,-2.0536902896\C,0,4.1303581953,1.1430377743,-1.2087998914
 \O,0,4.6448447277,-0.0794378926,-0.8469187959\C,0,4.710695026,-1.06564
 97241,-1.8827499637\O,0,6.0749483196,1.4869519985,-2.4766524511\C,0,6.
 9037179064,2.3109897549,-3.2854393001\C,0,2.7219536237,5.0781197953,-2
 .2602238743\O,0,3.3919113744,5.7723969391,-3.0116763475\C,0,1.40493448
 71,5.5956662525,-1.7040522228\H,0,1.4516704272,-0.6419960858,1.2331766
 573\H,0,3.2335757435,-0.5331948205,1.1180725547\H,0,2.2777899506,-1.10
 67430432,-0.2760034971\H,0,1.4999852969,3.192315642,-0.6043141625\H,0,
 4.9640921799,3.9348200991,-3.035230131\H,0,5.3559241639,-0.7387238665,
 -2.701983375\H,0,3.7081567077,-1.293942407,-2.269427383\H,0,5.13160122
 33,-1.960058482,-1.4176280802\H,0,7.17877869,3.2354417898,-2.762828375
 \H,0,6.4154890223,2.5656466441,-4.2346689352\H,0,7.8019083928,1.723588
 8824,-3.4840188151\H,0,0.5714766629,4.9441396427,-1.9919479398\H,0,1.2
 315029338,6.5995511812,-2.0952802677\H,0,1.4267414337,5.6314367753,-0.
 6084260917\\Version=AM64L-G09RevA.02\State=1-A\HF=-728.4501296\RMSD=6.
 031e-09\Dipole=-0.2610295,0.0119831,-0.379005\Quadrupole=1.5691623,2.8
 939251,-4.4630874,-2.8469428,-4.0838215,1.0065609\PG=C01 [X(C11H14O4)]
 \\@


 We're simply so accustomed to the marvels of everyday thought
 that we never wonder about it.
 -- Marvin Minsky in "Why people think computers are smart"
 Job cpu time:  0 days  2 hours 55 minutes 16.6 seconds.
 File lengths (MBytes):  RWF=    220 Int=      0 D2E=      0 Chk=     30 Scr=      1
 Normal termination of Gaussian 09 at Mon Oct  4 15:23:02 2021.
