 Entering Gaussian System, Link 0=g09
 Input=C11H14O_0252_conf_0.com
 Output=C11H14O_0252_conf_0.log
 Initial command:
 /sw/target/amd/app/gaussian/Gaussian09RevA.02_gcc-4.9.2/g09/l1.exe /home/jschleinitz/gaussian/Gau-4124215.inp -scrdir=/home/jschleinitz/gaussian/
 Entering Link 1 = /sw/target/amd/app/gaussian/Gaussian09RevA.02_gcc-4.9.2/g09/l1.exe PID=   4124228.
  
 Copyright (c) 1988,1990,1992,1993,1995,1998,2003,2009, Gaussian, Inc.
                  All Rights Reserved.
  
 This is part of the Gaussian(R) 09 program.  It is based on
 the Gaussian(R) 03 system (copyright 2003, Gaussian, Inc.),
 the Gaussian(R) 98 system (copyright 1998, Gaussian, Inc.),
 the Gaussian(R) 94 system (copyright 1995, Gaussian, Inc.),
 the Gaussian 92(TM) system (copyright 1992, Gaussian, Inc.),
 the Gaussian 90(TM) system (copyright 1990, Gaussian, Inc.),
 the Gaussian 88(TM) system (copyright 1988, Gaussian, Inc.),
 the Gaussian 86(TM) system (copyright 1986, Carnegie Mellon
 University), and the Gaussian 82(TM) system (copyright 1983,
 Carnegie Mellon University). Gaussian is a federally registered
 trademark of Gaussian, Inc.
  
 This software contains proprietary and confidential information,
 including trade secrets, belonging to Gaussian, Inc.
  
 This software is provided under written license and may be
 used, copied, transmitted, or stored only in accord with that
 written license.
  
 The following legend is applicable only to US Government
 contracts under FAR:
  
                    RESTRICTED RIGHTS LEGEND
  
 Use, reproduction and disclosure by the US Government is
 subject to restrictions as set forth in subparagraphs (a)
 and (c) of the Commercial Computer Software - Restricted
 Rights clause in FAR 52.227-19.
  
 Gaussian, Inc.
 340 Quinnipiac St., Bldg. 40, Wallingford CT 06492
  
  
 ---------------------------------------------------------------
 Warning -- This program may not be used in any manner that
 competes with the business of Gaussian, Inc. or will provide
 assistance to any competitor of Gaussian, Inc.  The licensee
 of this program is prohibited from giving any competitor of
 Gaussian, Inc. access to this program.  By using this program,
 the user acknowledges that Gaussian, Inc. is engaged in the
 business of creating and licensing software in the field of
 computational chemistry and represents and warrants to the
 licensee that it is not a competitor of Gaussian, Inc. and that
 it will not use this program in any manner prohibited above.
 ---------------------------------------------------------------
  

 Cite this work as:
 Gaussian 09, Revision A.02,
 M. J. Frisch, G. W. Trucks, H. B. Schlegel, G. E. Scuseria, 
 M. A. Robb, J. R. Cheeseman, G. Scalmani, V. Barone, B. Mennucci, 
 G. A. Petersson, H. Nakatsuji, M. Caricato, X. Li, H. P. Hratchian, 
 A. F. Izmaylov, J. Bloino, G. Zheng, J. L. Sonnenberg, M. Hada, 
 M. Ehara, K. Toyota, R. Fukuda, J. Hasegawa, M. Ishida, T. Nakajima, 
 Y. Honda, O. Kitao, H. Nakai, T. Vreven, J. A. Montgomery, Jr., 
 J. E. Peralta, F. Ogliaro, M. Bearpark, J. J. Heyd, E. Brothers, 
 K. N. Kudin, V. N. Staroverov, R. Kobayashi, J. Normand, 
 K. Raghavachari, A. Rendell, J. C. Burant, S. S. Iyengar, J. Tomasi, 
 M. Cossi, N. Rega, J. M. Millam, M. Klene, J. E. Knox, J. B. Cross, 
 V. Bakken, C. Adamo, J. Jaramillo, R. Gomperts, R. E. Stratmann, 
 O. Yazyev, A. J. Austin, R. Cammi, C. Pomelli, J. W. Ochterski, 
 R. L. Martin, K. Morokuma, V. G. Zakrzewski, G. A. Voth, 
 P. Salvador, J. J. Dannenberg, S. Dapprich, A. D. Daniels, 
 O. Farkas, J. B. Foresman, J. V. Ortiz, J. Cioslowski, 
 and D. J. Fox, Gaussian, Inc., Wallingford CT, 2009.
 
 ******************************************
 Gaussian 09:  AM64L-G09RevA.02 11-Jun-2009
                 4-Oct-2021 
 ******************************************
 %nproc=4
 Will use up to    4 processors via shared memory.
 %mem=8gb
 %chk=C11H14O_0252_conf_0.chk
 -----------------------------------
 #p opt b3lyp/6-31G* scf=(xqc,tight)
 -----------------------------------
 1/14=-1,18=20,19=15,26=3,38=1/1,3;
 2/9=110,12=2,17=6,18=5,40=1/2;
 3/5=1,6=6,7=1,11=2,16=1,25=1,30=1,71=1,74=-5/1,2,3;
 4//1;
 5/5=2,8=3,13=1,32=2,38=5/2,8;
 6/7=2,8=2,9=2,10=2,28=1/1;
 7//1,2,3,16;
 1/14=-1,18=20,19=15/3(2);
 2/9=110/2;
 99//99;
 2/9=110/2;
 3/5=1,6=6,7=1,11=2,16=1,25=1,30=1,71=1,74=-5/1,2,3;
 4/5=5,16=3/1;
 5/5=2,8=3,13=1,32=2,38=5/2,8;
 7//1,2,3,16;
 1/14=-1,18=20,19=15/3(-5);
 2/9=110/2;
 6/7=2,8=2,9=2,10=2,19=2,28=1/1;
 99/9=1/99;
 Leave Link    1 at Mon Oct  4 04:13:04 2021, MaxMem= 1073741824 cpu:       0.1
 (Enter /sw/target/amd/app/gaussian/Gaussian09RevA.02_gcc-4.9.2/g09/l101.exe)
 --------------------------
 CC(CC(=O)c1ccccc1)C_conf_0
 --------------------------
 Symbolic Z-matrix:
 Charge =  0 Multiplicity = 1
 C                     0.61622  -0.22907   0.16831 
 C                     2.13128  -0.2534   -0.04977 
 C                     2.70218   1.16219  -0.2463 
 C                     2.18296   1.87529  -1.48658 
 O                     1.80309   1.27784  -2.49027 
 C                     2.14977   3.3679   -1.46976 
 C                     3.06606   4.11663  -0.72051 
 C                     3.00094   5.51405  -0.72701 
 C                     2.02594   6.16659  -1.48088 
 C                     1.11532   5.42574  -2.23356 
 C                     1.17877   4.03087  -2.23359 
 C                     2.81089  -0.91302   1.15437 
 H                     0.09201   0.12433  -0.72487 
 H                     0.34614   0.42687   1.00254 
 H                     0.23842  -1.23278   0.39265 
 H                     2.3408   -0.86253  -0.93816 
 H                     3.79331   1.10656  -0.3404 
 H                     2.46477   1.76176   0.64047 
 H                     3.84785   3.63322  -0.14025 
 H                     3.71743   6.09348  -0.15056 
 H                     1.97783   7.25087  -1.48567 
 H                     0.35745   5.93473  -2.82435 
 H                     0.46637   3.45886  -2.82546 
 H                     2.67274  -0.31497   2.06222 
 H                     3.8869   -1.02171   0.98252 
 H                     2.40009  -1.91055   1.34316 
 
 NAtoms=     26 NQM=     26 NQMF=      0 NMic=      0 NMicF=      0 NTot=     26.
                    Isotopes and Nuclear Properties:
 (Nuclear quadrupole moments (NQMom) in fm**2, nuclear magnetic moments (NMagM)
  in nuclear magnetons)

  Atom         1           2           3           4           5           6           7           8           9          10
 IAtWgt=          12          12          12          12          16          12          12          12          12          12
 AtmWgt=  12.0000000  12.0000000  12.0000000  12.0000000  15.9949146  12.0000000  12.0000000  12.0000000  12.0000000  12.0000000
 NucSpn=           0           0           0           0           0           0           0           0           0           0
 AtZEff=   0.0000000   0.0000000   0.0000000   0.0000000   0.0000000   0.0000000   0.0000000   0.0000000   0.0000000   0.0000000
 NQMom=    0.0000000   0.0000000   0.0000000   0.0000000   0.0000000   0.0000000   0.0000000   0.0000000   0.0000000   0.0000000
 NMagM=    0.0000000   0.0000000   0.0000000   0.0000000   0.0000000   0.0000000   0.0000000   0.0000000   0.0000000   0.0000000

  Atom        11          12          13          14          15          16          17          18          19          20
 IAtWgt=          12          12           1           1           1           1           1           1           1           1
 AtmWgt=  12.0000000  12.0000000   1.0078250   1.0078250   1.0078250   1.0078250   1.0078250   1.0078250   1.0078250   1.0078250
 NucSpn=           0           0           1           1           1           1           1           1           1           1
 AtZEff=   0.0000000   0.0000000   0.0000000   0.0000000   0.0000000   0.0000000   0.0000000   0.0000000   0.0000000   0.0000000
 NQMom=    0.0000000   0.0000000   0.0000000   0.0000000   0.0000000   0.0000000   0.0000000   0.0000000   0.0000000   0.0000000
 NMagM=    0.0000000   0.0000000   2.7928460   2.7928460   2.7928460   2.7928460   2.7928460   2.7928460   2.7928460   2.7928460

  Atom        21          22          23          24          25          26
 IAtWgt=           1           1           1           1           1           1
 AtmWgt=   1.0078250   1.0078250   1.0078250   1.0078250   1.0078250   1.0078250
 NucSpn=           1           1           1           1           1           1
 AtZEff=   0.0000000   0.0000000   0.0000000   0.0000000   0.0000000   0.0000000
 NQMom=    0.0000000   0.0000000   0.0000000   0.0000000   0.0000000   0.0000000
 NMagM=    2.7928460   2.7928460   2.7928460   2.7928460   2.7928460   2.7928460
 Leave Link  101 at Mon Oct  4 04:13:06 2021, MaxMem= 1073741824 cpu:       0.2
 (Enter /sw/target/amd/app/gaussian/Gaussian09RevA.02_gcc-4.9.2/g09/l103.exe)

 GradGradGradGradGradGradGradGradGradGradGradGradGradGradGradGradGradGrad
 Berny optimization.
 Initialization pass.
                           ----------------------------
                           !    Initial Parameters    !
                           ! (Angstroms and Degrees)  !
 --------------------------                            --------------------------
 ! Name  Definition              Value          Derivative Info.                !
 --------------------------------------------------------------------------------
 ! R1    R(1,2)                  1.5309         estimate D2E/DX2                !
 ! R2    R(1,13)                 1.0943         estimate D2E/DX2                !
 ! R3    R(1,14)                 1.095          estimate D2E/DX2                !
 ! R4    R(1,15)                 1.0957         estimate D2E/DX2                !
 ! R5    R(2,3)                  1.539          estimate D2E/DX2                !
 ! R6    R(2,12)                 1.532          estimate D2E/DX2                !
 ! R7    R(2,16)                 1.0973         estimate D2E/DX2                !
 ! R8    R(3,4)                  1.522          estimate D2E/DX2                !
 ! R9    R(3,17)                 1.0966         estimate D2E/DX2                !
 ! R10   R(3,18)                 1.0965         estimate D2E/DX2                !
 ! R11   R(4,5)                  1.2283         estimate D2E/DX2                !
 ! R12   R(4,6)                  1.4931         estimate D2E/DX2                !
 ! R13   R(6,7)                  1.4006         estimate D2E/DX2                !
 ! R14   R(6,11)                 1.4021         estimate D2E/DX2                !
 ! R15   R(7,8)                  1.399          estimate D2E/DX2                !
 ! R16   R(7,19)                 1.087          estimate D2E/DX2                !
 ! R17   R(8,9)                  1.3945         estimate D2E/DX2                !
 ! R18   R(8,20)                 1.0869         estimate D2E/DX2                !
 ! R19   R(9,10)                 1.3945         estimate D2E/DX2                !
 ! R20   R(9,21)                 1.0854         estimate D2E/DX2                !
 ! R21   R(10,11)                1.3963         estimate D2E/DX2                !
 ! R22   R(10,22)                1.0874         estimate D2E/DX2                !
 ! R23   R(11,23)                1.0886         estimate D2E/DX2                !
 ! R24   R(12,24)                1.0959         estimate D2E/DX2                !
 ! R25   R(12,25)                1.0951         estimate D2E/DX2                !
 ! R26   R(12,26)                1.0952         estimate D2E/DX2                !
 ! A1    A(2,1,13)             111.2814         estimate D2E/DX2                !
 ! A2    A(2,1,14)             111.231          estimate D2E/DX2                !
 ! A3    A(2,1,15)             110.8463         estimate D2E/DX2                !
 ! A4    A(13,1,14)            108.0724         estimate D2E/DX2                !
 ! A5    A(13,1,15)            107.325          estimate D2E/DX2                !
 ! A6    A(14,1,15)            107.9211         estimate D2E/DX2                !
 ! A7    A(1,2,3)              111.7589         estimate D2E/DX2                !
 ! A8    A(1,2,12)             109.5059         estimate D2E/DX2                !
 ! A9    A(1,2,16)             108.2465         estimate D2E/DX2                !
 ! A10   A(3,2,12)             109.3817         estimate D2E/DX2                !
 ! A11   A(3,2,16)             109.6565         estimate D2E/DX2                !
 ! A12   A(12,2,16)            108.2182         estimate D2E/DX2                !
 ! A13   A(2,3,4)              114.1097         estimate D2E/DX2                !
 ! A14   A(2,3,17)             109.4756         estimate D2E/DX2                !
 ! A15   A(2,3,18)             108.6259         estimate D2E/DX2                !
 ! A16   A(4,3,17)             107.0548         estimate D2E/DX2                !
 ! A17   A(4,3,18)             109.2081         estimate D2E/DX2                !
 ! A18   A(17,3,18)            108.2154         estimate D2E/DX2                !
 ! A19   A(3,4,5)              122.9237         estimate D2E/DX2                !
 ! A20   A(3,4,6)              117.8264         estimate D2E/DX2                !
 ! A21   A(5,4,6)              119.2484         estimate D2E/DX2                !
 ! A22   A(4,6,7)              121.7294         estimate D2E/DX2                !
 ! A23   A(4,6,11)             118.8137         estimate D2E/DX2                !
 ! A24   A(7,6,11)             119.4555         estimate D2E/DX2                !
 ! A25   A(6,7,8)              120.0708         estimate D2E/DX2                !
 ! A26   A(6,7,19)             121.2227         estimate D2E/DX2                !
 ! A27   A(8,7,19)             118.6975         estimate D2E/DX2                !
 ! A28   A(7,8,9)              120.1633         estimate D2E/DX2                !
 ! A29   A(7,8,20)             119.9579         estimate D2E/DX2                !
 ! A30   A(9,8,20)             119.8763         estimate D2E/DX2                !
 ! A31   A(8,9,10)             119.9828         estimate D2E/DX2                !
 ! A32   A(8,9,21)             120.0553         estimate D2E/DX2                !
 ! A33   A(10,9,21)            119.9614         estimate D2E/DX2                !
 ! A34   A(9,10,11)            120.0702         estimate D2E/DX2                !
 ! A35   A(9,10,22)            119.9787         estimate D2E/DX2                !
 ! A36   A(11,10,22)           119.9507         estimate D2E/DX2                !
 ! A37   A(6,11,10)            120.2531         estimate D2E/DX2                !
 ! A38   A(6,11,23)            120.0639         estimate D2E/DX2                !
 ! A39   A(10,11,23)           119.6821         estimate D2E/DX2                !
 ! A40   A(2,12,24)            111.1164         estimate D2E/DX2                !
 ! A41   A(2,12,25)            110.8113         estimate D2E/DX2                !
 ! A42   A(2,12,26)            111.1785         estimate D2E/DX2                !
 ! A43   A(24,12,25)           107.9411         estimate D2E/DX2                !
 ! A44   A(24,12,26)           107.8764         estimate D2E/DX2                !
 ! A45   A(25,12,26)           107.7705         estimate D2E/DX2                !
 ! D1    D(13,1,2,3)            65.5545         estimate D2E/DX2                !
 ! D2    D(13,1,2,12)         -173.0821         estimate D2E/DX2                !
 ! D3    D(13,1,2,16)          -55.306          estimate D2E/DX2                !
 ! D4    D(14,1,2,3)           -55.0084         estimate D2E/DX2                !
 ! D5    D(14,1,2,12)           66.355          estimate D2E/DX2                !
 ! D6    D(14,1,2,16)         -175.869          estimate D2E/DX2                !
 ! D7    D(15,1,2,3)          -175.0858         estimate D2E/DX2                !
 ! D8    D(15,1,2,12)          -53.7224         estimate D2E/DX2                !
 ! D9    D(15,1,2,16)           64.0536         estimate D2E/DX2                !
 ! D10   D(1,2,3,4)            -63.3375         estimate D2E/DX2                !
 ! D11   D(1,2,3,17)           176.7234         estimate D2E/DX2                !
 ! D12   D(1,2,3,18)            58.749          estimate D2E/DX2                !
 ! D13   D(12,2,3,4)           175.2273         estimate D2E/DX2                !
 ! D14   D(12,2,3,17)           55.2882         estimate D2E/DX2                !
 ! D15   D(12,2,3,18)          -62.6862         estimate D2E/DX2                !
 ! D16   D(16,2,3,4)            56.6994         estimate D2E/DX2                !
 ! D17   D(16,2,3,17)          -63.2397         estimate D2E/DX2                !
 ! D18   D(16,2,3,18)          178.7859         estimate D2E/DX2                !
 ! D19   D(1,2,12,24)          -64.9911         estimate D2E/DX2                !
 ! D20   D(1,2,12,25)          175.0056         estimate D2E/DX2                !
 ! D21   D(1,2,12,26)           55.176          estimate D2E/DX2                !
 ! D22   D(3,2,12,24)           57.7959         estimate D2E/DX2                !
 ! D23   D(3,2,12,25)          -62.2074         estimate D2E/DX2                !
 ! D24   D(3,2,12,26)          177.9631         estimate D2E/DX2                !
 ! D25   D(16,2,12,24)         177.2151         estimate D2E/DX2                !
 ! D26   D(16,2,12,25)          57.2118         estimate D2E/DX2                !
 ! D27   D(16,2,12,26)         -62.6178         estimate D2E/DX2                !
 ! D28   D(2,3,4,5)            -27.465          estimate D2E/DX2                !
 ! D29   D(2,3,4,6)            152.9906         estimate D2E/DX2                !
 ! D30   D(17,3,4,5)            93.8244         estimate D2E/DX2                !
 ! D31   D(17,3,4,6)           -85.72           estimate D2E/DX2                !
 ! D32   D(18,3,4,5)          -149.2313         estimate D2E/DX2                !
 ! D33   D(18,3,4,6)            31.2243         estimate D2E/DX2                !
 ! D34   D(3,4,6,7)             29.5793         estimate D2E/DX2                !
 ! D35   D(3,4,6,11)          -150.8579         estimate D2E/DX2                !
 ! D36   D(5,4,6,7)           -149.9823         estimate D2E/DX2                !
 ! D37   D(5,4,6,11)            29.5805         estimate D2E/DX2                !
 ! D38   D(4,6,7,8)           -179.8228         estimate D2E/DX2                !
 ! D39   D(4,6,7,19)             1.281          estimate D2E/DX2                !
 ! D40   D(11,6,7,8)             0.6171         estimate D2E/DX2                !
 ! D41   D(11,6,7,19)         -178.2791         estimate D2E/DX2                !
 ! D42   D(4,6,11,10)          179.6131         estimate D2E/DX2                !
 ! D43   D(4,6,11,23)           -0.0262         estimate D2E/DX2                !
 ! D44   D(7,6,11,10)           -0.8139         estimate D2E/DX2                !
 ! D45   D(7,6,11,23)          179.5467         estimate D2E/DX2                !
 ! D46   D(6,7,8,9)             -0.1234         estimate D2E/DX2                !
 ! D47   D(6,7,8,20)          -179.5596         estimate D2E/DX2                !
 ! D48   D(19,7,8,9)           178.8005         estimate D2E/DX2                !
 ! D49   D(19,7,8,20)           -0.6358         estimate D2E/DX2                !
 ! D50   D(7,8,9,10)            -0.1803         estimate D2E/DX2                !
 ! D51   D(7,8,9,21)          -179.9207         estimate D2E/DX2                !
 ! D52   D(20,8,9,10)          179.2565         estimate D2E/DX2                !
 ! D53   D(20,8,9,21)           -0.484          estimate D2E/DX2                !
 ! D54   D(8,9,10,11)           -0.0157         estimate D2E/DX2                !
 ! D55   D(8,9,10,22)         -179.7685         estimate D2E/DX2                !
 ! D56   D(21,9,10,11)         179.725          estimate D2E/DX2                !
 ! D57   D(21,9,10,22)          -0.0278         estimate D2E/DX2                !
 ! D58   D(9,10,11,6)            0.5158         estimate D2E/DX2                !
 ! D59   D(9,10,11,23)        -179.8435         estimate D2E/DX2                !
 ! D60   D(22,10,11,6)        -179.7313         estimate D2E/DX2                !
 ! D61   D(22,10,11,23)         -0.0906         estimate D2E/DX2                !
 --------------------------------------------------------------------------------
 Trust Radius=3.00D-01 FncErr=1.00D-07 GrdErr=1.00D-06
 Number of steps in this run= 142 maximum allowed number of steps= 156.
 GradGradGradGradGradGradGradGradGradGradGradGradGradGradGradGradGradGrad

 Leave Link  103 at Mon Oct  4 04:13:06 2021, MaxMem= 1073741824 cpu:       0.0
 (Enter /sw/target/amd/app/gaussian/Gaussian09RevA.02_gcc-4.9.2/g09/l202.exe)
                          Input orientation:                          
 ---------------------------------------------------------------------
 Center     Atomic      Atomic             Coordinates (Angstroms)
 Number     Number       Type             X           Y           Z
 ---------------------------------------------------------------------
      1          6           0        0.616215   -0.229074    0.168310
      2          6           0        2.131284   -0.253402   -0.049774
      3          6           0        2.702181    1.162192   -0.246301
      4          6           0        2.182965    1.875288   -1.486584
      5          8           0        1.803094    1.277836   -2.490273
      6          6           0        2.149768    3.367900   -1.469764
      7          6           0        3.066058    4.116629   -0.720514
      8          6           0        3.000941    5.514050   -0.727013
      9          6           0        2.025938    6.166592   -1.480883
     10          6           0        1.115322    5.425738   -2.233559
     11          6           0        1.178773    4.030865   -2.233588
     12          6           0        2.810886   -0.913018    1.154366
     13          1           0        0.092012    0.124326   -0.724867
     14          1           0        0.346144    0.426865    1.002536
     15          1           0        0.238416   -1.232782    0.392650
     16          1           0        2.340795   -0.862528   -0.938161
     17          1           0        3.793312    1.106559   -0.340404
     18          1           0        2.464773    1.761764    0.640469
     19          1           0        3.847850    3.633221   -0.140251
     20          1           0        3.717434    6.093482   -0.150565
     21          1           0        1.977825    7.250867   -1.485670
     22          1           0        0.357453    5.934735   -2.824347
     23          1           0        0.466371    3.458861   -2.825459
     24          1           0        2.672743   -0.314972    2.062223
     25          1           0        3.886897   -1.021714    0.982519
     26          1           0        2.400091   -1.910550    1.343162
 ---------------------------------------------------------------------
                    Distance matrix (angstroms):
                    1          2          3          4          5
     1  C    0.000000
     2  C    1.530878   0.000000
     3  C    2.541413   1.538978   0.000000
     4  C    3.101889   2.568738   1.521970   0.000000
     5  O    3.278341   2.899729   2.420153   1.228268   0.000000
     6  C    4.239493   3.889800   2.582087   1.493076   2.351593
     7  C    5.067236   4.518945   3.014297   2.527910   3.575734
     8  C    6.282674   5.871836   4.388509   3.806129   4.742302
     9  C    6.753643   6.578411   5.198607   4.294179   4.996845
    10  C    6.164007   6.168770   4.964388   3.782001   4.212366
    11  C    4.922669   4.902169   3.807803   2.492575   2.834578
    12  C    2.501332   1.531961   2.506028   3.891471   4.370225
    13  H    1.094278   2.181068   2.849416   2.831636   2.715704
    14  H    1.095047   2.181019   2.766082   3.415780   3.878991
    15  H    1.095669   2.176666   3.494896   4.119816   4.130698
    16  H    2.144695   1.097342   2.169968   2.796662   2.698024
    17  H    3.483769   2.167094   1.096593   2.120823   2.934661
    18  H    2.757451   2.156049   1.096454   2.148641   3.236286
    19  H    5.045394   4.249779   2.725764   2.770340   3.905313
    20  H    7.049394   6.542857   5.035626   4.683237   5.685893
    21  H    7.780691   7.641950   6.255613   5.379492   6.059444
    22  H    6.856785   7.009834   5.909419   4.647710   4.887555
    23  H    4.752470   4.925166   4.114073   2.692023   2.579933
    24  H    2.797068   2.181170   2.740833   4.198946   4.900872
    25  H    3.462452   2.176720   2.771822   4.170429   4.657301
    26  H    2.718428   2.181437   3.472663   4.731508   5.021696
                    6          7          8          9         10
     6  C    0.000000
     7  C    1.400557   0.000000
     8  C    2.425311   1.398952   0.000000
     9  C    2.801451   2.421231   1.394547   0.000000
    10  C    2.426552   2.794359   2.415168   1.394491   0.000000
    11  C    1.402063   2.420453   2.791039   2.417763   1.396316
    12  C    5.064523   5.373791   6.699470   7.594837   7.384632
    13  H    3.912800   4.978298   6.124622   6.389101   5.606094
    14  H    4.244410   4.897060   5.993224   6.475611   6.004388
    15  H    5.318659   6.152308   7.375970   7.839394   7.211229
    16  H    4.267976   5.036406   6.414135   7.057068   6.536217
    17  H    3.015021   3.119920   4.494807   5.479802   5.423188
    18  H    2.670578   2.785535   4.029533   4.908688   4.848274
    19  H    2.172897   1.087008   2.144542   3.396266   3.880949
    20  H    3.409789   2.158027   1.086921   2.153196   3.399373
    21  H    3.886804   3.404873   2.153801   1.085353   2.152752
    22  H    3.411147   3.881773   3.400561   2.154644   1.087416
    23  H    2.163332   3.409080   3.879603   3.401755   2.154087
    24  H    5.129521   5.247610   6.470320   7.415027   7.337237
    25  H    5.319777   5.475096   6.813489   7.823252   7.719743
    26  H    5.986422   6.405400   7.731192   8.564779   8.262245
                   11         12         13         14         15
    11  C    0.000000
    12  C    6.211602   0.000000
    13  H    4.326469   3.464083   0.000000
    14  H    4.914731   2.809500   1.772014   0.000000
    15  H    5.957128   2.701863   1.764091   1.771439   0.000000
    16  H    5.193623   2.145274   2.465035   3.067160   2.515580
    17  H    4.355631   2.697812   3.848664   3.761441   4.318237
    18  H    3.881084   2.745604   3.189881   2.530145   3.739704
    19  H    3.415282   4.839381   5.173049   4.883505   6.081939
    20  H    3.877909   7.184408   7.007449   6.693713   8.128518
    21  H    3.400923   8.620486   7.410985   7.444498   8.861486
    22  H    2.155988   8.291031   6.183780   6.706847   7.857260
    23  H    1.088585   6.359959   3.958757   4.884772   5.693830
    24  H    6.290646   1.095878   3.823745   2.662014   3.091246
    25  H    6.573115   1.095056   4.316217   3.825665   3.701879
    26  H    7.041673   1.095202   3.707383   3.130213   2.456763
                   16         17         18         19         20
    16  H    0.000000
    17  H    2.518814   0.000000
    18  H    3.065021   1.776632   0.000000
    19  H    4.808288   2.535164   2.454542   0.000000
    20  H    7.134530   4.991112   4.578065   2.463737   0.000000
    21  H    8.139944   6.508467   5.906592   4.288881   2.479574
    22  H    7.327628   6.425447   5.818886   4.968320   4.296951
    23  H    5.074423   4.772563   4.345849   4.321475   4.966458
    24  H    3.067949   3.008163   2.525365   4.671188   6.859744
    25  H    2.470786   2.507675   3.144390   4.788587   7.206845
    26  H    2.511234   3.725373   3.739499   5.918607   8.248099
                   21         22         23         24         25
    21  H    0.000000
    22  H    2.479892   0.000000
    23  H    4.296375   2.478268   0.000000
    24  H    8.385247   8.264258   6.557387   0.000000
    25  H    8.841500   8.679942   6.802665   1.771840   0.000000
    26  H    9.597508   9.115316   7.067337   1.771230   1.769374
                   26
    26  H    0.000000
 Stoichiometry    C11H14O
 Framework group  C1[X(C11H14O)]
 Deg. of freedom    72
 Full point group                 C1      NOp   1
 Largest Abelian subgroup         C1      NOp   1
 Largest concise Abelian subgroup C1      NOp   1
                         Standard orientation:                         
 ---------------------------------------------------------------------
 Center     Atomic      Atomic             Coordinates (Angstroms)
 Number     Number       Type             X           Y           Z
 ---------------------------------------------------------------------
      1          6           0        2.876332   -0.883585    1.170110
      2          6           0        2.840030    0.011317   -0.071430
      3          6           0        1.437042    0.596175   -0.312298
      4          6           0        0.369679   -0.448689   -0.604509
      5          8           0        0.622041   -1.534939   -1.119307
      6          6           0       -1.043364   -0.118812   -0.252704
      7          6           0       -1.515773    1.199645   -0.260428
      8          6           0       -2.845833    1.469689    0.078813
      9          6           0       -3.706518    0.427878    0.423218
     10          6           0       -3.242627   -0.887188    0.426263
     11          6           0       -1.917034   -1.162269    0.084458
     12          6           0        3.846219    1.154806    0.092638
     13          1           0        2.258962   -1.776777    1.034074
     14          1           0        2.511842   -0.350126    2.054246
     15          1           0        3.897770   -1.221444    1.377487
     16          1           0        3.142804   -0.590431   -0.937678
     17          1           0        1.466747    1.275012   -1.173004
     18          1           0        1.142682    1.175306    0.570975
     19          1           0       -0.871035    2.027550   -0.544104
     20          1           0       -3.212440    2.492828    0.065275
     21          1           0       -4.738433    0.639255    0.684870
     22          1           0       -3.914824   -1.699867    0.691177
     23          1           0       -1.562273   -2.191423    0.086452
     24          1           0        3.560452    1.816780    0.917912
     25          1           0        3.902001    1.757862   -0.819698
     26          1           0        4.850514    0.771192    0.301680
 ---------------------------------------------------------------------
 Rotational constants (GHZ):      2.1464438      0.4668063      0.4222197
 Leave Link  202 at Mon Oct  4 04:13:06 2021, MaxMem= 1073741824 cpu:       0.0
 (Enter /sw/target/amd/app/gaussian/Gaussian09RevA.02_gcc-4.9.2/g09/l301.exe)
 Standard basis: 6-31G(d) (6D, 7F)
 Ernie: Thresh=  0.10000D-02 Tol=  0.10000D-05 Strict=F.
 There are   208 symmetry adapted basis functions of A   symmetry.
 Integral buffers will be    131072 words long.
 Raffenetti 2 integral format.
 Two-electron integral symmetry is turned on.
   208 basis functions,   392 primitive gaussians,   208 cartesian basis functions
    44 alpha electrons       44 beta electrons
       nuclear repulsion energy       659.2366814816 Hartrees.
 IExCor=  402 DFT=T Ex+Corr=B3LYP ExCW=0 ScaHFX=  0.200000
 ScaDFX=  0.800000  0.720000  1.000000  0.810000 ScalE2=  1.000000  1.000000
 IRadAn=      0 IRanWt=     -1 IRanGd=            0 ICorTp=0
 NAtoms=   26 NActive=   26 NUniq=   26 SFac= 7.50D-01 NAtFMM=   80 NAOKFM=F Big=F
 Leave Link  301 at Mon Oct  4 04:13:07 2021, MaxMem= 1073741824 cpu:       0.1
 (Enter /sw/target/amd/app/gaussian/Gaussian09RevA.02_gcc-4.9.2/g09/l302.exe)
 NPDir=0 NMtPBC=     1 NCelOv=     1 NCel=       1 NClECP=     1 NCelD=      1
         NCelK=      1 NCelE2=     1 NClLst=     1 CellRange=     0.0.
 One-electron integrals computed using PRISM.
 NBasis=   208 RedAO= T  NBF=   208
 NBsUse=   208 1.00D-06 NBFU=   208
 Precomputing XC quadrature grid using
 IXCGrd= 2 IRadAn=           0 IRanWt=          -1 IRanGd=           0 AccXCQ= 1.00D-10.
 NRdTot=    1644 NPtTot=      209006 NUsed=      220865 NTot=      220897
 NSgBfM=   207   207   207   207   207 NAtAll=    26    26.
 Leave Link  302 at Mon Oct  4 04:13:14 2021, MaxMem= 1073741824 cpu:       1.9
 (Enter /sw/target/amd/app/gaussian/Gaussian09RevA.02_gcc-4.9.2/g09/l303.exe)
 DipDrv:  MaxL=1.
 Leave Link  303 at Mon Oct  4 04:13:15 2021, MaxMem= 1073741824 cpu:       0.2
 (Enter /sw/target/amd/app/gaussian/Gaussian09RevA.02_gcc-4.9.2/g09/l401.exe)
 Harris functional with IExCor=  402 diagonalized for initial guess.
 ExpMin= 1.61D-01 ExpMax= 5.48D+03 ExpMxC= 8.25D+02 IAcc=1 IRadAn=         1 AccDes= 0.00D+00
 HarFok:  IExCor=  402 AccDes= 0.00D+00 IRadAn=         1 IDoV= 1
 ScaDFX=  1.000000  1.000000  1.000000  1.000000
 FoFCou: FMM=F IPFlag=           0 FMFlag=      100000 FMFlg1=           0
         NFxFlg=           0 DoJE=T BraDBF=F KetDBF=T FulRan=T
         Omega=  0.000000  0.000000  1.000000  0.000000  0.000000 ICntrl=     500 IOpCl=  0
         NMat0=    1 NMatS0=    1 NMatT0=    0 NMatD0=    1 NMtDS0=    0 NMtDT0=    0
         I1Cent=           4 NGrid=           0.
 Petite list used in FoFCou.
 Harris En= -502.934415603908    
 Initial guess orbital symmetries:
       Occupied  (A) (A) (A) (A) (A) (A) (A) (A) (A) (A) (A) (A)
                 (A) (A) (A) (A) (A) (A) (A) (A) (A) (A) (A) (A)
                 (A) (A) (A) (A) (A) (A) (A) (A) (A) (A) (A) (A)
                 (A) (A) (A) (A) (A) (A) (A) (A)
       Virtual   (A) (A) (A) (A) (A) (A) (A) (A) (A) (A) (A) (A)
                 (A) (A) (A) (A) (A) (A) (A) (A) (A) (A) (A) (A)
                 (A) (A) (A) (A) (A) (A) (A) (A) (A) (A) (A) (A)
                 (A) (A) (A) (A) (A) (A) (A) (A) (A) (A) (A) (A)
                 (A) (A) (A) (A) (A) (A) (A) (A) (A) (A) (A) (A)
                 (A) (A) (A) (A) (A) (A) (A) (A) (A) (A) (A) (A)
                 (A) (A) (A) (A) (A) (A) (A) (A) (A) (A) (A) (A)
                 (A) (A) (A) (A) (A) (A) (A) (A) (A) (A) (A) (A)
                 (A) (A) (A) (A) (A) (A) (A) (A) (A) (A) (A) (A)
                 (A) (A) (A) (A) (A) (A) (A) (A) (A) (A) (A) (A)
                 (A) (A) (A) (A) (A) (A) (A) (A) (A) (A) (A) (A)
                 (A) (A) (A) (A) (A) (A) (A) (A) (A) (A) (A) (A)
                 (A) (A) (A) (A) (A) (A) (A) (A) (A) (A) (A) (A)
                 (A) (A) (A) (A) (A) (A) (A) (A)
 The electronic state of the initial guess is 1-A.
 Leave Link  401 at Mon Oct  4 04:13:30 2021, MaxMem= 1073741824 cpu:       8.3
 (Enter /sw/target/amd/app/gaussian/Gaussian09RevA.02_gcc-4.9.2/g09/l502.exe)
 Closed shell SCF:
 Requested convergence on RMS density matrix=1.00D-08 within  64 cycles.
 Requested convergence on MAX density matrix=1.00D-06.
 Requested convergence on             energy=1.00D-06.
 No special actions if energy rises.
 Using DIIS extrapolation, IDIIS=  1040.
 Integral symmetry usage will be decided dynamically.
       220618 words used for storage of precomputed grid.
 Keep R1 ints in memory in canonical form, NReq=241161070.
 IEnd=      358780 IEndB=      358780 NGot=  1073741824 MDV=   837192997
 LenX=   837192997 LenY=   837149292
 Symmetry not used in FoFDir.
 MinBra= 0 MaxBra= 2 Meth= 1.
 IRaf=       0 NMat=   1 IRICut=       1 DoRegI=T DoRafI=F ISym2E= 0 JSym2E=0.
 Integral accuracy reduced to 1.0D-05 until final iterations.

 Cycle   1  Pass 0  IDiag  1:
 E= -502.463743674827    
 DIIS: error= 4.09D-02 at cycle   1 NSaved=   1.
 NSaved= 1 IEnMin= 1 EnMin= -502.463743674827     IErMin= 1 ErrMin= 4.09D-02
 ErrMax= 4.09D-02 EMaxC= 1.00D-01 BMatC= 3.54D-01 BMatP= 3.54D-01
 IDIUse=3 WtCom= 5.91D-01 WtEn= 4.09D-01
 Coeff-Com:  0.100D+01
 Coeff-En:   0.100D+01
 Coeff:      0.100D+01
 Gap=     0.145 Goal=   None    Shift=    0.000
 GapD=    0.145 DampG=1.000 DampE=0.500 DampFc=0.5000 IDamp=-1.
 Damping current iteration by 5.00D-01
 RMSDP=6.71D-03 MaxDP=1.72D-01              OVMax= 1.87D-01

 Cycle   2  Pass 0  IDiag  1:
 E= -502.612071148416     Delta-E=       -0.148327473589 Rises=F Damp=T
 DIIS: error= 7.74D-03 at cycle   2 NSaved=   2.
 NSaved= 2 IEnMin= 2 EnMin= -502.612071148416     IErMin= 2 ErrMin= 7.74D-03
 ErrMax= 7.74D-03 EMaxC= 1.00D-01 BMatC= 3.29D-02 BMatP= 3.54D-01
 IDIUse=3 WtCom= 9.23D-01 WtEn= 7.74D-02
 Coeff-Com:  0.137D+00 0.863D+00
 Coeff-En:   0.191D+00 0.809D+00
 Coeff:      0.141D+00 0.859D+00
 Gap=     0.209 Goal=   None    Shift=    0.000
 RMSDP=1.74D-03 MaxDP=5.78D-02 DE=-1.48D-01 OVMax= 1.36D-01

 Cycle   3  Pass 0  IDiag  1:
 E= -502.797090839168     Delta-E=       -0.185019690752 Rises=F Damp=F
 DIIS: error= 1.27D-02 at cycle   3 NSaved=   3.
 NSaved= 3 IEnMin= 3 EnMin= -502.797090839168     IErMin= 2 ErrMin= 7.74D-03
 ErrMax= 1.27D-02 EMaxC= 1.00D-01 BMatC= 4.29D-02 BMatP= 3.29D-02
 IDIUse=2 WtCom= 0.00D+00 WtEn= 1.00D+00
 Coeff-En:   0.000D+00 0.000D+00 0.100D+01
 Coeff:      0.000D+00 0.000D+00 0.100D+01
 Gap=     0.200 Goal=   None    Shift=    0.000
 RMSDP=3.08D-03 MaxDP=1.37D-01 DE=-1.85D-01 OVMax= 1.62D-01

 Cycle   4  Pass 0  IDiag  1:
 E= -502.619419385550     Delta-E=        0.177671453618 Rises=F Damp=F
 DIIS: error= 3.45D-02 at cycle   4 NSaved=   4.
 NSaved= 4 IEnMin= 3 EnMin= -502.797090839168     IErMin= 2 ErrMin= 7.74D-03
 ErrMax= 3.45D-02 EMaxC= 1.00D-01 BMatC= 2.63D-01 BMatP= 3.29D-02
 IDIUse=2 WtCom= 0.00D+00 WtEn= 1.00D+00
 Coeff-En:   0.000D+00 0.000D+00 0.798D+00 0.202D+00
 Coeff:      0.000D+00 0.000D+00 0.798D+00 0.202D+00
 Gap=     0.179 Goal=   None    Shift=    0.000
 RMSDP=1.69D-03 MaxDP=7.03D-02 DE= 1.78D-01 OVMax= 9.84D-02

 Cycle   5  Pass 0  IDiag  1:
 E= -502.817552550754     Delta-E=       -0.198133165204 Rises=F Damp=F
 DIIS: error= 8.98D-03 at cycle   5 NSaved=   5.
 NSaved= 5 IEnMin= 5 EnMin= -502.817552550754     IErMin= 2 ErrMin= 7.74D-03
 ErrMax= 8.98D-03 EMaxC= 1.00D-01 BMatC= 1.96D-02 BMatP= 3.29D-02
 IDIUse=3 WtCom= 9.10D-01 WtEn= 8.98D-02
 Coeff-Com: -0.198D-02 0.208D-01 0.303D+00-0.969D-01 0.776D+00
 Coeff-En:   0.000D+00 0.000D+00 0.352D+00 0.000D+00 0.648D+00
 Coeff:     -0.181D-02 0.189D-01 0.307D+00-0.882D-01 0.764D+00
 Gap=     0.193 Goal=   None    Shift=    0.000
 RMSDP=5.98D-04 MaxDP=2.59D-02 DE=-1.98D-01 OVMax= 3.06D-02

 Cycle   6  Pass 0  IDiag  1:
 E= -502.833720265243     Delta-E=       -0.016167714489 Rises=F Damp=F
 DIIS: error= 4.50D-04 at cycle   6 NSaved=   6.
 NSaved= 6 IEnMin= 6 EnMin= -502.833720265243     IErMin= 6 ErrMin= 4.50D-04
 ErrMax= 4.50D-04 EMaxC= 1.00D-01 BMatC= 4.53D-05 BMatP= 1.96D-02
 IDIUse=3 WtCom= 9.96D-01 WtEn= 4.50D-03
 Coeff-Com: -0.200D-02 0.973D-02 0.148D+00-0.606D-01 0.432D+00 0.473D+00
 Coeff-En:   0.000D+00 0.000D+00 0.000D+00 0.000D+00 0.000D+00 0.100D+01
 Coeff:     -0.199D-02 0.968D-02 0.147D+00-0.603D-01 0.430D+00 0.475D+00
 Gap=     0.193 Goal=   None    Shift=    0.000
 RMSDP=4.77D-05 MaxDP=1.60D-03 DE=-1.62D-02 OVMax= 3.74D-03

 Cycle   7  Pass 0  IDiag  1:
 E= -502.833764609601     Delta-E=       -0.000044344358 Rises=F Damp=F
 DIIS: error= 2.16D-04 at cycle   7 NSaved=   7.
 NSaved= 7 IEnMin= 7 EnMin= -502.833764609601     IErMin= 7 ErrMin= 2.16D-04
 ErrMax= 2.16D-04 EMaxC= 1.00D-01 BMatC= 7.12D-06 BMatP= 4.53D-05
 IDIUse=3 WtCom= 9.98D-01 WtEn= 2.16D-03
 Coeff-Com: -0.579D-03 0.208D-02 0.488D-01-0.230D-01 0.149D+00 0.263D+00
 Coeff-Com:  0.561D+00
 Coeff-En:   0.000D+00 0.000D+00 0.000D+00 0.000D+00 0.000D+00 0.111D+00
 Coeff-En:   0.889D+00
 Coeff:     -0.578D-03 0.207D-02 0.487D-01-0.230D-01 0.149D+00 0.262D+00
 Coeff:      0.561D+00
 Gap=     0.193 Goal=   None    Shift=    0.000
 RMSDP=1.46D-05 MaxDP=4.27D-04 DE=-4.43D-05 OVMax= 1.15D-03

 Cycle   8  Pass 0  IDiag  1:
 E= -502.833771613336     Delta-E=       -0.000007003734 Rises=F Damp=F
 DIIS: error= 3.91D-05 at cycle   8 NSaved=   8.
 NSaved= 8 IEnMin= 8 EnMin= -502.833771613336     IErMin= 8 ErrMin= 3.91D-05
 ErrMax= 3.91D-05 EMaxC= 1.00D-01 BMatC= 6.40D-07 BMatP= 7.12D-06
 IDIUse=1 WtCom= 1.00D+00 WtEn= 0.00D+00
 Coeff-Com:  0.894D-04-0.477D-03 0.113D-01-0.485D-02 0.306D-01 0.803D-01
 Coeff-Com:  0.294D+00 0.589D+00
 Coeff:      0.894D-04-0.477D-03 0.113D-01-0.485D-02 0.306D-01 0.803D-01
 Coeff:      0.294D+00 0.589D+00
 Gap=     0.193 Goal=   None    Shift=    0.000
 RMSDP=3.84D-06 MaxDP=1.04D-04 DE=-7.00D-06 OVMax= 2.32D-04

 Initial convergence to 1.0D-05 achieved.  Increase integral accuracy.
 Cycle   9  Pass 1  IDiag  1:
 E= -502.833842729982     Delta-E=       -0.000071116647 Rises=F Damp=F
 DIIS: error= 1.73D-05 at cycle   1 NSaved=   1.
 NSaved= 1 IEnMin= 1 EnMin= -502.833842729982     IErMin= 1 ErrMin= 1.73D-05
 ErrMax= 1.73D-05 EMaxC= 1.00D-01 BMatC= 1.07D-07 BMatP= 1.07D-07
 IDIUse=1 WtCom= 1.00D+00 WtEn= 0.00D+00
 Coeff-Com:  0.100D+01
 Coeff:      0.100D+01
 Gap=     0.193 Goal=   None    Shift=    0.000
 RMSDP=3.84D-06 MaxDP=1.04D-04 DE=-7.11D-05 OVMax= 1.37D-04

 Cycle  10  Pass 1  IDiag  1:
 E= -502.833842810145     Delta-E=       -0.000000080163 Rises=F Damp=F
 DIIS: error= 1.51D-05 at cycle   2 NSaved=   2.
 NSaved= 2 IEnMin= 2 EnMin= -502.833842810145     IErMin= 2 ErrMin= 1.51D-05
 ErrMax= 1.51D-05 EMaxC= 1.00D-01 BMatC= 6.77D-08 BMatP= 1.07D-07
 IDIUse=1 WtCom= 1.00D+00 WtEn= 0.00D+00
 Coeff-Com:  0.419D+00 0.581D+00
 Coeff:      0.419D+00 0.581D+00
 Gap=     0.193 Goal=   None    Shift=    0.000
 RMSDP=1.90D-06 MaxDP=7.17D-05 DE=-8.02D-08 OVMax= 1.16D-04

 Cycle  11  Pass 1  IDiag  1:
 E= -502.833842840721     Delta-E=       -0.000000030575 Rises=F Damp=F
 DIIS: error= 1.09D-05 at cycle   3 NSaved=   3.
 NSaved= 3 IEnMin= 3 EnMin= -502.833842840721     IErMin= 3 ErrMin= 1.09D-05
 ErrMax= 1.09D-05 EMaxC= 1.00D-01 BMatC= 3.57D-08 BMatP= 6.77D-08
 IDIUse=1 WtCom= 1.00D+00 WtEn= 0.00D+00
 Coeff-Com:  0.217D-01 0.415D+00 0.563D+00
 Coeff:      0.217D-01 0.415D+00 0.563D+00
 Gap=     0.193 Goal=   None    Shift=    0.000
 RMSDP=1.04D-06 MaxDP=4.29D-05 DE=-3.06D-08 OVMax= 5.10D-05

 Cycle  12  Pass 1  IDiag  1:
 E= -502.833842868611     Delta-E=       -0.000000027890 Rises=F Damp=F
 DIIS: error= 3.39D-06 at cycle   4 NSaved=   4.
 NSaved= 4 IEnMin= 4 EnMin= -502.833842868611     IErMin= 4 ErrMin= 3.39D-06
 ErrMax= 3.39D-06 EMaxC= 1.00D-01 BMatC= 4.45D-09 BMatP= 3.57D-08
 IDIUse=1 WtCom= 1.00D+00 WtEn= 0.00D+00
 Coeff-Com: -0.178D-01 0.227D+00 0.374D+00 0.417D+00
 Coeff:     -0.178D-01 0.227D+00 0.374D+00 0.417D+00
 Gap=     0.193 Goal=   None    Shift=    0.000
 RMSDP=3.02D-07 MaxDP=1.05D-05 DE=-2.79D-08 OVMax= 1.52D-05

 Cycle  13  Pass 1  IDiag  1:
 E= -502.833842872464     Delta-E=       -0.000000003853 Rises=F Damp=F
 DIIS: error= 5.57D-07 at cycle   5 NSaved=   5.
 NSaved= 5 IEnMin= 5 EnMin= -502.833842872464     IErMin= 5 ErrMin= 5.57D-07
 ErrMax= 5.57D-07 EMaxC= 1.00D-01 BMatC= 7.75D-11 BMatP= 4.45D-09
 IDIUse=1 WtCom= 1.00D+00 WtEn= 0.00D+00
 Coeff-Com: -0.102D-01 0.991D-01 0.171D+00 0.208D+00 0.532D+00
 Coeff:     -0.102D-01 0.991D-01 0.171D+00 0.208D+00 0.532D+00
 Gap=     0.193 Goal=   None    Shift=    0.000
 RMSDP=5.40D-08 MaxDP=1.92D-06 DE=-3.85D-09 OVMax= 3.69D-06

 Cycle  14  Pass 1  IDiag  1:
 E= -502.833842872527     Delta-E=       -0.000000000063 Rises=F Damp=F
 DIIS: error= 2.37D-07 at cycle   6 NSaved=   6.
 NSaved= 6 IEnMin= 6 EnMin= -502.833842872527     IErMin= 6 ErrMin= 2.37D-07
 ErrMax= 2.37D-07 EMaxC= 1.00D-01 BMatC= 1.08D-11 BMatP= 7.75D-11
 IDIUse=1 WtCom= 1.00D+00 WtEn= 0.00D+00
 Coeff-Com: -0.352D-02 0.292D-01 0.527D-01 0.672D-01 0.303D+00 0.552D+00
 Coeff:     -0.352D-02 0.292D-01 0.527D-01 0.672D-01 0.303D+00 0.552D+00
 Gap=     0.193 Goal=   None    Shift=    0.000
 RMSDP=2.21D-08 MaxDP=5.60D-07 DE=-6.34D-11 OVMax= 1.76D-06

 Cycle  15  Pass 1  IDiag  1:
 E= -502.833842872548     Delta-E=       -0.000000000021 Rises=F Damp=F
 DIIS: error= 8.04D-08 at cycle   7 NSaved=   7.
 NSaved= 7 IEnMin= 7 EnMin= -502.833842872548     IErMin= 7 ErrMin= 8.04D-08
 ErrMax= 8.04D-08 EMaxC= 1.00D-01 BMatC= 1.34D-12 BMatP= 1.08D-11
 IDIUse=1 WtCom= 1.00D+00 WtEn= 0.00D+00
 Coeff-Com: -0.611D-03 0.304D-02 0.662D-02 0.956D-02 0.933D-01 0.313D+00
 Coeff-Com:  0.575D+00
 Coeff:     -0.611D-03 0.304D-02 0.662D-02 0.956D-02 0.933D-01 0.313D+00
 Coeff:      0.575D+00
 Gap=     0.193 Goal=   None    Shift=    0.000
 RMSDP=8.31D-09 MaxDP=2.38D-07 DE=-2.09D-11 OVMax= 6.51D-07

 SCF Done:  E(RB3LYP) =  -502.833842873     A.U. after   15 cycles
             Convg  =    0.8312D-08             -V/T =  2.0097
 KE= 4.979945543292D+02 PE=-2.484830779397D+03 EE= 8.247657007133D+02
 Leave Link  502 at Mon Oct  4 04:20:17 2021, MaxMem= 1073741824 cpu:     170.5
 (Enter /sw/target/amd/app/gaussian/Gaussian09RevA.02_gcc-4.9.2/g09/l508.exe)
 QCSCF skips out because SCF is already converged.
 Leave Link  508 at Mon Oct  4 04:20:19 2021, MaxMem= 1073741824 cpu:       0.0
 (Enter /sw/target/amd/app/gaussian/Gaussian09RevA.02_gcc-4.9.2/g09/l601.exe)
 Copying SCF densities to generalized density rwf, IOpCl= 0 IROHF=0.

 **********************************************************************

            Population analysis using the SCF density.

 **********************************************************************

 Orbital symmetries:
       Occupied  (A) (A) (A) (A) (A) (A) (A) (A) (A) (A) (A) (A)
                 (A) (A) (A) (A) (A) (A) (A) (A) (A) (A) (A) (A)
                 (A) (A) (A) (A) (A) (A) (A) (A) (A) (A) (A) (A)
                 (A) (A) (A) (A) (A) (A) (A) (A)
       Virtual   (A) (A) (A) (A) (A) (A) (A) (A) (A) (A) (A) (A)
                 (A) (A) (A) (A) (A) (A) (A) (A) (A) (A) (A) (A)
                 (A) (A) (A) (A) (A) (A) (A) (A) (A) (A) (A) (A)
                 (A) (A) (A) (A) (A) (A) (A) (A) (A) (A) (A) (A)
                 (A) (A) (A) (A) (A) (A) (A) (A) (A) (A) (A) (A)
                 (A) (A) (A) (A) (A) (A) (A) (A) (A) (A) (A) (A)
                 (A) (A) (A) (A) (A) (A) (A) (A) (A) (A) (A) (A)
                 (A) (A) (A) (A) (A) (A) (A) (A) (A) (A) (A) (A)
                 (A) (A) (A) (A) (A) (A) (A) (A) (A) (A) (A) (A)
                 (A) (A) (A) (A) (A) (A) (A) (A) (A) (A) (A) (A)
                 (A) (A) (A) (A) (A) (A) (A) (A) (A) (A) (A) (A)
                 (A) (A) (A) (A) (A) (A) (A) (A) (A) (A) (A) (A)
                 (A) (A) (A) (A) (A) (A) (A) (A) (A) (A) (A) (A)
                 (A) (A) (A) (A) (A) (A) (A) (A)
 The electronic state is 1-A.
 Alpha  occ. eigenvalues --  -19.13446 -10.27235 -10.20291 -10.20043 -10.20021
 Alpha  occ. eigenvalues --  -10.19919 -10.19794 -10.19722 -10.19090 -10.18891
 Alpha  occ. eigenvalues --  -10.17247 -10.16730  -1.03020  -0.86157  -0.80999
 Alpha  occ. eigenvalues --   -0.76764  -0.75192  -0.71195  -0.67919  -0.63036
 Alpha  occ. eigenvalues --   -0.61110  -0.57170  -0.54149  -0.51177  -0.47920
 Alpha  occ. eigenvalues --   -0.46243  -0.45804  -0.44603  -0.43495  -0.42882
 Alpha  occ. eigenvalues --   -0.42475  -0.39862  -0.38687  -0.38043  -0.37064
 Alpha  occ. eigenvalues --   -0.36166  -0.35243  -0.34789  -0.33177  -0.32572
 Alpha  occ. eigenvalues --   -0.32487  -0.25871  -0.25803  -0.24240
 Alpha virt. eigenvalues --   -0.04939  -0.00877   0.03289   0.08294   0.09285
 Alpha virt. eigenvalues --    0.12594   0.12817   0.14582   0.14802   0.15287
 Alpha virt. eigenvalues --    0.15820   0.16214   0.17455   0.17999   0.18851
 Alpha virt. eigenvalues --    0.19434   0.19553   0.21436   0.24215   0.24394
 Alpha virt. eigenvalues --    0.24767   0.26069   0.29076   0.29961   0.30990
 Alpha virt. eigenvalues --    0.32276   0.37544   0.38127   0.47262   0.49394
 Alpha virt. eigenvalues --    0.51683   0.52180   0.52389   0.53433   0.54528
 Alpha virt. eigenvalues --    0.55155   0.56423   0.58086   0.58674   0.59133
 Alpha virt. eigenvalues --    0.59533   0.60743   0.61380   0.62529   0.64611
 Alpha virt. eigenvalues --    0.65688   0.66039   0.67083   0.68797   0.72161
 Alpha virt. eigenvalues --    0.72573   0.72853   0.76692   0.79278   0.81160
 Alpha virt. eigenvalues --    0.81646   0.82896   0.83412   0.83815   0.84442
 Alpha virt. eigenvalues --    0.85951   0.87578   0.88778   0.89904   0.90855
 Alpha virt. eigenvalues --    0.92233   0.92597   0.93501   0.94432   0.95126
 Alpha virt. eigenvalues --    0.97326   0.97944   0.99035   1.00773   1.01832
 Alpha virt. eigenvalues --    1.02904   1.05243   1.09510   1.11075   1.13714
 Alpha virt. eigenvalues --    1.15779   1.17007   1.21125   1.22213   1.22723
 Alpha virt. eigenvalues --    1.28231   1.38290   1.41227   1.42890   1.44633
 Alpha virt. eigenvalues --    1.45631   1.46467   1.48133   1.48528   1.49598
 Alpha virt. eigenvalues --    1.50420   1.52769   1.66117   1.67613   1.69675
 Alpha virt. eigenvalues --    1.74767   1.76168   1.79683   1.79957   1.81241
 Alpha virt. eigenvalues --    1.82677   1.88378   1.88549   1.89256   1.92391
 Alpha virt. eigenvalues --    1.92930   1.96233   1.96761   1.99406   2.01191
 Alpha virt. eigenvalues --    2.04344   2.05186   2.06615   2.09630   2.10766
 Alpha virt. eigenvalues --    2.13672   2.14123   2.15598   2.15692   2.23587
 Alpha virt. eigenvalues --    2.24176   2.25954   2.28383   2.29680   2.29865
 Alpha virt. eigenvalues --    2.31825   2.37860   2.40749   2.46768   2.50588
 Alpha virt. eigenvalues --    2.52262   2.53542   2.56975   2.59734   2.62696
 Alpha virt. eigenvalues --    2.65335   2.69113   2.71932   2.73012   2.74198
 Alpha virt. eigenvalues --    2.75053   2.80145   2.87150   2.97663   3.01342
 Alpha virt. eigenvalues --    3.14930   3.41237   4.01650   4.07923   4.10762
 Alpha virt. eigenvalues --    4.13050   4.16668   4.27482   4.29239   4.32244
 Alpha virt. eigenvalues --    4.36385   4.51209   4.59213   4.70893
          Condensed to atoms (all electrons):
              1          2          3          4          5          6
     1  C    5.118208   0.386865  -0.049822  -0.002949  -0.004519  -0.000276
     2  C    0.386865   4.830538   0.356173  -0.021806   0.004435   0.004995
     3  C   -0.049822   0.356173   5.381093   0.283902  -0.093110  -0.115013
     4  C   -0.002949  -0.021806   0.283902   4.628563   0.540381   0.306518
     5  O   -0.004519   0.004435  -0.093110   0.540381   8.073380  -0.086957
     6  C   -0.000276   0.004995  -0.115013   0.306518  -0.086957   4.932084
     7  C    0.000023   0.000249  -0.007609  -0.043692   0.002616   0.515097
     8  C    0.000000  -0.000001  -0.000199   0.004573  -0.000071  -0.014940
     9  C   -0.000000   0.000000  -0.000021   0.000342  -0.000012  -0.034712
    10  C   -0.000000   0.000001  -0.000103   0.005926   0.000756  -0.021221
    11  C    0.000045  -0.000203   0.009468  -0.031155   0.003333   0.505568
    12  C   -0.060265   0.370563  -0.048545   0.004012   0.000325  -0.000136
    13  H    0.369081  -0.028116  -0.006308   0.005278   0.006059  -0.000208
    14  H    0.370350  -0.036311  -0.007017  -0.000358   0.000086  -0.000001
    15  H    0.373156  -0.031071   0.005136   0.000060   0.000038   0.000005
    16  H   -0.041833   0.382392  -0.045980  -0.003537   0.007707   0.000507
    17  H    0.005164  -0.026738   0.344394  -0.017426  -0.000626  -0.001047
    18  H   -0.006581  -0.036120   0.347274  -0.029431   0.002693   0.005096
    19  H    0.000004  -0.000011   0.006428  -0.010574   0.000040  -0.041633
    20  H    0.000000  -0.000000   0.000014  -0.000137   0.000001   0.003627
    21  H    0.000000  -0.000000  -0.000000   0.000008   0.000000   0.000601
    22  H    0.000000  -0.000000   0.000002  -0.000147   0.000002   0.003609
    23  H    0.000005  -0.000021   0.000738  -0.007434   0.010903  -0.044355
    24  H   -0.004920  -0.032104  -0.007311   0.000041  -0.000003  -0.000001
    25  H    0.005682  -0.031083  -0.003988   0.000018   0.000004   0.000005
    26  H   -0.004250  -0.029954   0.004751  -0.000088   0.000003   0.000002
              7          8          9         10         11         12
     1  C    0.000023   0.000000  -0.000000  -0.000000   0.000045  -0.060265
     2  C    0.000249  -0.000001   0.000000   0.000001  -0.000203   0.370563
     3  C   -0.007609  -0.000199  -0.000021  -0.000103   0.009468  -0.048545
     4  C   -0.043692   0.004573   0.000342   0.005926  -0.031155   0.004012
     5  O    0.002616  -0.000071  -0.000012   0.000756   0.003333   0.000325
     6  C    0.515097  -0.014940  -0.034712  -0.021221   0.505568  -0.000136
     7  C    4.998272   0.521992  -0.036503  -0.041472  -0.063459  -0.000002
     8  C    0.521992   4.865444   0.551249  -0.027059  -0.042250   0.000000
     9  C   -0.036503   0.551249   4.846846   0.541593  -0.033435  -0.000000
    10  C   -0.041472  -0.027059   0.541593   4.896043   0.502503  -0.000000
    11  C   -0.063459  -0.042250  -0.033435   0.502503   4.974044   0.000001
    12  C   -0.000002   0.000000  -0.000000  -0.000000   0.000001   5.125598
    13  H   -0.000010   0.000000   0.000000   0.000001   0.000007   0.005557
    14  H   -0.000012  -0.000000   0.000000  -0.000000  -0.000004  -0.004835
    15  H   -0.000000  -0.000000   0.000000   0.000000  -0.000000  -0.004865
    16  H   -0.000020   0.000000   0.000000  -0.000000  -0.000009  -0.045123
    17  H    0.000786   0.000101  -0.000000   0.000005  -0.000110  -0.004263
    18  H    0.001135  -0.000022   0.000009  -0.000048  -0.000460  -0.004256
    19  H    0.354800  -0.043837   0.004595   0.000373   0.005455   0.000001
    20  H   -0.039415   0.358013  -0.042850   0.004596   0.000820  -0.000000
    21  H    0.004920  -0.043029   0.359950  -0.043111   0.004594  -0.000000
    22  H    0.000795   0.004645  -0.043578   0.359409  -0.039425   0.000000
    23  H    0.005585   0.000319   0.004470  -0.043652   0.358050   0.000000
    24  H   -0.000005  -0.000000   0.000000   0.000000   0.000000   0.369653
    25  H   -0.000000   0.000000  -0.000000  -0.000000  -0.000000   0.368410
    26  H    0.000000   0.000000   0.000000   0.000000  -0.000000   0.371886
             13         14         15         16         17         18
     1  C    0.369081   0.370350   0.373156  -0.041833   0.005164  -0.006581
     2  C   -0.028116  -0.036311  -0.031071   0.382392  -0.026738  -0.036120
     3  C   -0.006308  -0.007017   0.005136  -0.045980   0.344394   0.347274
     4  C    0.005278  -0.000358   0.000060  -0.003537  -0.017426  -0.029431
     5  O    0.006059   0.000086   0.000038   0.007707  -0.000626   0.002693
     6  C   -0.000208  -0.000001   0.000005   0.000507  -0.001047   0.005096
     7  C   -0.000010  -0.000012  -0.000000  -0.000020   0.000786   0.001135
     8  C    0.000000  -0.000000  -0.000000   0.000000   0.000101  -0.000022
     9  C    0.000000   0.000000   0.000000   0.000000  -0.000000   0.000009
    10  C    0.000001  -0.000000   0.000000  -0.000000   0.000005  -0.000048
    11  C    0.000007  -0.000004  -0.000000  -0.000009  -0.000110  -0.000460
    12  C    0.005557  -0.004835  -0.004865  -0.045123  -0.004263  -0.004256
    13  H    0.549037  -0.030618  -0.028080  -0.003923   0.000013  -0.000311
    14  H   -0.030618   0.590619  -0.031281   0.005642   0.000027   0.006079
    15  H   -0.028080  -0.031281   0.573573  -0.002693  -0.000161  -0.000064
    16  H   -0.003923   0.005642  -0.002693   0.595723  -0.002774   0.005789
    17  H    0.000013   0.000027  -0.000161  -0.002774   0.562929  -0.030992
    18  H   -0.000311   0.006079  -0.000064   0.005789  -0.030992   0.583246
    19  H   -0.000001  -0.000001  -0.000000   0.000000   0.001178   0.001009
    20  H   -0.000000  -0.000000   0.000000  -0.000000  -0.000003  -0.000005
    21  H   -0.000000   0.000000  -0.000000   0.000000   0.000000  -0.000000
    22  H   -0.000000  -0.000000  -0.000000  -0.000000  -0.000000   0.000000
    23  H    0.000047  -0.000000  -0.000000  -0.000003  -0.000008  -0.000036
    24  H   -0.000072   0.004490  -0.000229   0.005470  -0.000333   0.005268
    25  H   -0.000201  -0.000063   0.000039  -0.003691   0.004629  -0.000259
    26  H   -0.000000  -0.000186   0.004736  -0.002291   0.000008  -0.000059
             19         20         21         22         23         24
     1  C    0.000004   0.000000   0.000000   0.000000   0.000005  -0.004920
     2  C   -0.000011  -0.000000  -0.000000  -0.000000  -0.000021  -0.032104
     3  C    0.006428   0.000014  -0.000000   0.000002   0.000738  -0.007311
     4  C   -0.010574  -0.000137   0.000008  -0.000147  -0.007434   0.000041
     5  O    0.000040   0.000001   0.000000   0.000002   0.010903  -0.000003
     6  C   -0.041633   0.003627   0.000601   0.003609  -0.044355  -0.000001
     7  C    0.354800  -0.039415   0.004920   0.000795   0.005585  -0.000005
     8  C   -0.043837   0.358013  -0.043029   0.004645   0.000319  -0.000000
     9  C    0.004595  -0.042850   0.359950  -0.043578   0.004470   0.000000
    10  C    0.000373   0.004596  -0.043111   0.359409  -0.043652   0.000000
    11  C    0.005455   0.000820   0.004594  -0.039425   0.358050   0.000000
    12  C    0.000001  -0.000000  -0.000000   0.000000   0.000000   0.369653
    13  H   -0.000001  -0.000000  -0.000000  -0.000000   0.000047  -0.000072
    14  H   -0.000001  -0.000000   0.000000  -0.000000  -0.000000   0.004490
    15  H   -0.000000   0.000000  -0.000000  -0.000000  -0.000000  -0.000229
    16  H    0.000000  -0.000000   0.000000  -0.000000  -0.000003   0.005470
    17  H    0.001178  -0.000003   0.000000  -0.000000  -0.000008  -0.000333
    18  H    0.001009  -0.000005  -0.000000   0.000000  -0.000036   0.005268
    19  H    0.590007  -0.005260  -0.000177   0.000017  -0.000146   0.000004
    20  H   -0.005260   0.591502  -0.005592  -0.000179   0.000017   0.000000
    21  H   -0.000177  -0.005592   0.591392  -0.005564  -0.000165   0.000000
    22  H    0.000017  -0.000179  -0.005564   0.588077  -0.004927   0.000000
    23  H   -0.000146   0.000017  -0.000165  -0.004927   0.563587   0.000000
    24  H    0.000004   0.000000   0.000000   0.000000   0.000000   0.586745
    25  H   -0.000000  -0.000000   0.000000  -0.000000  -0.000000  -0.031992
    26  H   -0.000000  -0.000000   0.000000  -0.000000  -0.000000  -0.031431
             25         26
     1  C    0.005682  -0.004250
     2  C   -0.031083  -0.029954
     3  C   -0.003988   0.004751
     4  C    0.000018  -0.000088
     5  O    0.000004   0.000003
     6  C    0.000005   0.000002
     7  C   -0.000000   0.000000
     8  C    0.000000   0.000000
     9  C   -0.000000   0.000000
    10  C   -0.000000   0.000000
    11  C   -0.000000  -0.000000
    12  C    0.368410   0.371886
    13  H   -0.000201  -0.000000
    14  H   -0.000063  -0.000186
    15  H    0.000039   0.004736
    16  H   -0.003691  -0.002291
    17  H    0.004629   0.000008
    18  H   -0.000259  -0.000059
    19  H   -0.000000  -0.000000
    20  H   -0.000000  -0.000000
    21  H    0.000000   0.000000
    22  H   -0.000000  -0.000000
    23  H   -0.000000  -0.000000
    24  H   -0.031992  -0.031431
    25  H    0.584205  -0.029238
    26  H   -0.029238   0.571890
 Mulliken atomic charges:
              1
     1  C   -0.453168
     2  C   -0.062671
     3  C   -0.354347
     4  C    0.389113
     5  O   -0.467466
     6  C    0.082785
     7  C   -0.174070
     8  C   -0.134930
     9  C   -0.117941
    10  C   -0.134540
    11  C   -0.153377
    12  C   -0.443717
    13  H    0.162770
    14  H    0.133396
    15  H    0.141700
    16  H    0.148646
    17  H    0.165249
    18  H    0.151047
    19  H    0.137729
    20  H    0.134854
    21  H    0.136175
    22  H    0.137265
    23  H    0.157027
    24  H    0.136730
    25  H    0.137522
    26  H    0.144221
 Sum of Mulliken atomic charges =  -0.00000
 Mulliken charges with hydrogens summed into heavy atoms:
              1
     1  C   -0.015302
     2  C    0.085975
     3  C   -0.038051
     4  C    0.389113
     5  O   -0.467466
     6  C    0.082785
     7  C   -0.036341
     8  C   -0.000076
     9  C    0.018234
    10  C    0.002725
    11  C    0.003650
    12  C   -0.025245
 Sum of Mulliken charges with hydrogens summed into heavy atoms =  -0.00000
 Electronic spatial extent (au):  <R**2>=           2739.0702
 Charge=              0.0000 electrons
 Dipole moment (field-independent basis, Debye):
    X=             -1.0188    Y=              2.2047    Z=              1.1466  Tot=              2.6858
 Quadrupole moment (field-independent basis, Debye-Ang):
   XX=            -64.6090   YY=            -71.3233   ZZ=            -75.3750
   XY=              1.2967   XZ=             -1.3767   YZ=             -4.0106
 Traceless Quadrupole moment (field-independent basis, Debye-Ang):
   XX=              5.8268   YY=             -0.8875   ZZ=             -4.9392
   XY=              1.2967   XZ=             -1.3767   YZ=             -4.0106
 Octapole moment (field-independent basis, Debye-Ang**2):
  XXX=            -22.9879  YYY=              1.1890  ZZZ=             -5.1898  XYY=            -12.4945
  XXY=             -3.4851  XXZ=              7.2007  XZZ=              6.6380  YZZ=              2.5430
  YYZ=              3.5244  XYZ=             -1.0206
 Hexadecapole moment (field-independent basis, Debye-Ang**3):
 XXXX=          -2762.6839 YYYY=           -543.5780 ZZZZ=           -247.7619 XXXY=            -30.2581
 XXXZ=            -50.5407 YYYX=             -6.1876 YYYZ=             -7.6461 ZZZX=             -3.5553
 ZZZY=              3.5584 XXYY=           -559.9097 XXZZ=           -549.0408 YYZZ=           -141.7872
 XXYZ=             -4.5003 YYXZ=             -3.0655 ZZXY=              6.4064
 N-N= 6.592366814816D+02 E-N=-2.484830787586D+03  KE= 4.979945543292D+02
 No NMR shielding tensors so no spin-rotation constants.
 Leave Link  601 at Mon Oct  4 04:20:22 2021, MaxMem= 1073741824 cpu:       1.3
 (Enter /sw/target/amd/app/gaussian/Gaussian09RevA.02_gcc-4.9.2/g09/l701.exe)
 Compute integral first derivatives.
 ... and contract with generalized density number  0.
 Leave Link  701 at Mon Oct  4 04:20:25 2021, MaxMem= 1073741824 cpu:       1.3
 (Enter /sw/target/amd/app/gaussian/Gaussian09RevA.02_gcc-4.9.2/g09/l702.exe)
 L702 exits ... SP integral derivatives will be done elsewhere.
 Leave Link  702 at Mon Oct  4 04:20:25 2021, MaxMem= 1073741824 cpu:       0.1
 (Enter /sw/target/amd/app/gaussian/Gaussian09RevA.02_gcc-4.9.2/g09/l703.exe)
 Compute integral first derivatives, UseDBF=F ICtDFT=           0.
 Integral derivatives from FoFDir, PRISM(SPDF).
 Calling FoFJK, ICntrl=      2127 FMM=F ISym2X=0 I1Cent= 0 IOpClX= 0 NMat=1 NMatS=1 NMatT=0.
 FoFCou: FMM=F IPFlag=           0 FMFlag=      100000 FMFlg1=         800
         NFxFlg=           0 DoJE=F BraDBF=F KetDBF=F FulRan=T
         Omega=  0.000000  0.000000  1.000000  0.000000  0.000000 ICntrl=    2127 IOpCl=  0
         NMat0=    1 NMatS0=    1 NMatT0=    0 NMatD0=    1 NMtDS0=    0 NMtDT0=    0
         I1Cent=           0 NGrid=           0.
 Symmetry not used in FoFCou.
 Leave Link  703 at Mon Oct  4 04:22:25 2021, MaxMem= 1073741824 cpu:      64.0
 (Enter /sw/target/amd/app/gaussian/Gaussian09RevA.02_gcc-4.9.2/g09/l716.exe)
 Dipole        =-4.00821111D-01 8.67408592D-01 4.51100570D-01
 ***** Axes restored to original set *****
 -------------------------------------------------------------------
 Center     Atomic                   Forces (Hartrees/Bohr)
 Number     Number              X              Y              Z
 -------------------------------------------------------------------
      1        6          -0.003495737    0.000444749   -0.005279772
      2        6          -0.000582287   -0.003302747    0.004365760
      3        6          -0.006705192   -0.006149825   -0.003738867
      4        6          -0.001955279   -0.000651562   -0.013036519
      5        8           0.000950524   -0.000942492    0.010693724
      6        6          -0.000029986    0.000776954    0.001108678
      7        6          -0.000243022    0.008190170    0.002386971
      8        6           0.002189825   -0.002674257   -0.000275238
      9        6           0.000528283    0.000753807    0.000556501
     10        6          -0.001169495   -0.003710759   -0.001187931
     11        6          -0.002207553    0.005471756   -0.003190854
     12        6           0.003673766   -0.001245454   -0.001372345
     13        1          -0.000228664    0.000781827   -0.000040691
     14        1          -0.000370763    0.000601135    0.002185909
     15        1           0.000176869   -0.000199118    0.000532883
     16        1           0.000338714    0.002843138   -0.001268753
     17        1           0.002810614    0.001159074    0.002060369
     18        1           0.003295385    0.001252988    0.000204618
     19        1          -0.001720601   -0.001439275   -0.000195381
     20        1           0.000191980   -0.000487128   -0.000017893
     21        1          -0.000010597    0.001069944    0.000340882
     22        1           0.000046687   -0.000574587    0.000386133
     23        1           0.003098122   -0.001357999    0.001899183
     24        1          -0.000247232    0.000164991    0.001334165
     25        1           0.001831808   -0.000331382    0.001425976
     26        1          -0.000166167   -0.000443948    0.000122490
 -------------------------------------------------------------------
 Cartesian Forces:  Max     0.013036519 RMS     0.002986804
 Leave Link  716 at Mon Oct  4 04:22:25 2021, MaxMem= 1073741824 cpu:       0.0
 (Enter /sw/target/amd/app/gaussian/Gaussian09RevA.02_gcc-4.9.2/g09/l103.exe)

 GradGradGradGradGradGradGradGradGradGradGradGradGradGradGradGradGradGrad
 Berny optimization.
 Internal  Forces:  Max     0.008739718 RMS     0.001843706
 Search for a local minimum.
 Step number   1 out of a maximum of  142
 All quantities printed in internal units (Hartrees-Bohrs-Radians)
 RMS Force = .18437D-02 SwitMx=.10000D-02 MixMth= 1
 Mixed Optimization -- RFO/linear search
 Second derivative matrix not updated -- first step.
     Eigenvalues ---    0.00250   0.00343   0.00357   0.00475   0.00621
     Eigenvalues ---    0.00858   0.01698   0.02078   0.02092   0.02101
     Eigenvalues ---    0.02118   0.02131   0.02149   0.02152   0.02161
     Eigenvalues ---    0.03734   0.03910   0.04550   0.04909   0.05321
     Eigenvalues ---    0.05459   0.05482   0.05521   0.05532   0.09514
     Eigenvalues ---    0.12934   0.15997   0.15999   0.16000   0.16000
     Eigenvalues ---    0.16000   0.16000   0.16000   0.16000   0.16000
     Eigenvalues ---    0.16000   0.16000   0.16196   0.16649   0.22000
     Eigenvalues ---    0.22000   0.22035   0.23479   0.24999   0.24999
     Eigenvalues ---    0.25000   0.28610   0.29243   0.29343   0.30178
     Eigenvalues ---    0.33115   0.33978   0.34062   0.34077   0.34142
     Eigenvalues ---    0.34166   0.34218   0.34235   0.34236   0.34323
     Eigenvalues ---    0.34977   0.35113   0.35161   0.35171   0.35355
     Eigenvalues ---    0.41694   0.41888   0.45503   0.46019   0.46052
     Eigenvalues ---    0.46468   0.918121000.000001000.000001000.00000
     Eigenvalues --- 1000.000001000.000001000.000001000.000001000.00000
     Eigenvalues --- 1000.000001000.000001000.000001000.000001000.00000
     Eigenvalues --- 1000.000001000.000001000.000001000.000001000.00000
     Eigenvalues --- 1000.000001000.000001000.000001000.000001000.00000
     Eigenvalues --- 1000.000001000.000001000.000001000.000001000.00000
     Eigenvalues --- 1000.000001000.000001000.000001000.000001000.00000
     Eigenvalues --- 1000.000001000.000001000.000001000.000001000.00000
     Eigenvalues --- 1000.000001000.000001000.000001000.000001000.00000
     Eigenvalues --- 1000.000001000.000001000.000001000.000001000.00000
     Eigenvalues --- 1000.000001000.000001000.000001000.000001000.00000
     Eigenvalues --- 1000.000001000.000001000.000001000.000001000.00000
     Eigenvalues --- 1000.000001000.00000
 RFO step:  Lambda=-3.87619392D-03 EMin= 2.50348460D-03
 Linear search not attempted -- first point.
 Maximum step size (   0.300) exceeded in Quadratic search.
    -- Step size scaled by   0.717
 Iteration  1 RMS(Cart)=  0.08404087 RMS(Int)=  0.00184634
 Iteration  2 RMS(Cart)=  0.00308414 RMS(Int)=  0.00006867
 Iteration  3 RMS(Cart)=  0.00000296 RMS(Int)=  0.00006865
 Iteration  4 RMS(Cart)=  0.00000000 RMS(Int)=  0.00006865
 Variable       Old X    -DE/DX   Delta X   Delta X   Delta X     New X
                                 (Linear)    (Quad)   (Total)
    R1        2.89294   0.00354   0.00000   0.00853   0.00853   2.90147
    R2        2.06789   0.00040   0.00000   0.00082   0.00082   2.06870
    R3        2.06934   0.00212   0.00000   0.00439   0.00439   2.07373
    R4        2.07051   0.00023   0.00000   0.00048   0.00048   2.07099
    R5        2.90825   0.00054   0.00000   0.00134   0.00134   2.90959
    R6        2.89499   0.00425   0.00000   0.01028   0.01028   2.90527
    R7        2.07368  -0.00049   0.00000  -0.00102  -0.00102   2.07266
    R8        2.87611   0.00262   0.00000   0.00615   0.00615   2.88226
    R9        2.07226   0.00256   0.00000   0.00533   0.00533   2.07759
   R10        2.07200   0.00014   0.00000   0.00029   0.00029   2.07228
   R11        2.32109  -0.00857   0.00000  -0.00667  -0.00667   2.31442
   R12        2.82151   0.00602   0.00000   0.01289   0.01289   2.83439
   R13        2.64667   0.00222   0.00000   0.00335   0.00335   2.65002
   R14        2.64951  -0.00002   0.00000  -0.00015  -0.00015   2.64937
   R15        2.64364  -0.00300   0.00000  -0.00465  -0.00465   2.63899
   R16        2.05415  -0.00070   0.00000  -0.00142  -0.00142   2.05273
   R17        2.63531   0.00126   0.00000   0.00204   0.00204   2.63735
   R18        2.05398  -0.00014   0.00000  -0.00029  -0.00029   2.05370
   R19        2.63521   0.00279   0.00000   0.00436   0.00436   2.63957
   R20        2.05102   0.00107   0.00000   0.00214   0.00214   2.05316
   R21        2.63865  -0.00270   0.00000  -0.00416  -0.00416   2.63449
   R22        2.05492  -0.00051   0.00000  -0.00103  -0.00103   2.05388
   R23        2.05713  -0.00235   0.00000  -0.00476  -0.00476   2.05237
   R24        2.07091   0.00123   0.00000   0.00255   0.00255   2.07346
   R25        2.06936   0.00161   0.00000   0.00333   0.00333   2.07269
   R26        2.06963   0.00049   0.00000   0.00101   0.00101   2.07064
    A1        1.94223   0.00042   0.00000   0.00353   0.00353   1.94576
    A2        1.94135  -0.00027   0.00000  -0.00254  -0.00254   1.93880
    A3        1.93463  -0.00032   0.00000  -0.00179  -0.00180   1.93284
    A4        1.88622   0.00003   0.00000   0.00084   0.00084   1.88706
    A5        1.87317   0.00038   0.00000   0.00424   0.00424   1.87741
    A6        1.88358  -0.00022   0.00000  -0.00422  -0.00424   1.87934
    A7        1.95056  -0.00120   0.00000  -0.00136  -0.00167   1.94889
    A8        1.91124   0.00246   0.00000   0.02255   0.02246   1.93370
    A9        1.88926  -0.00002   0.00000  -0.00344  -0.00367   1.88559
   A10        1.90907   0.00036   0.00000   0.00794   0.00783   1.91690
   A11        1.91387  -0.00141   0.00000  -0.02838  -0.02841   1.88546
   A12        1.88876  -0.00016   0.00000   0.00272   0.00274   1.89150
   A13        1.99159  -0.00136   0.00000  -0.00038  -0.00048   1.99111
   A14        1.91071  -0.00005   0.00000  -0.00575  -0.00573   1.90498
   A15        1.89588   0.00243   0.00000   0.01904   0.01895   1.91483
   A16        1.86846   0.00052   0.00000  -0.00333  -0.00334   1.86512
   A17        1.90604   0.00041   0.00000   0.00945   0.00929   1.91533
   A18        1.88871  -0.00208   0.00000  -0.02085  -0.02078   1.86794
   A19        2.14542  -0.00874   0.00000  -0.02463  -0.02475   2.12067
   A20        2.05646   0.00411   0.00000   0.01169   0.01156   2.06802
   A21        2.08128   0.00463   0.00000   0.01315   0.01302   2.09430
   A22        2.12458   0.00283   0.00000   0.00823   0.00822   2.13280
   A23        2.07369  -0.00154   0.00000  -0.00413  -0.00414   2.06955
   A24        2.08489  -0.00129   0.00000  -0.00417  -0.00420   2.08069
   A25        2.09563   0.00146   0.00000   0.00436   0.00435   2.09998
   A26        2.11574  -0.00270   0.00000  -0.01083  -0.01082   2.10491
   A27        2.07166   0.00124   0.00000   0.00644   0.00644   2.07811
   A28        2.09725  -0.00063   0.00000  -0.00184  -0.00188   2.09537
   A29        2.09366  -0.00019   0.00000  -0.00124  -0.00125   2.09241
   A30        2.09224   0.00082   0.00000   0.00317   0.00316   2.09540
   A31        2.09409  -0.00040   0.00000  -0.00090  -0.00091   2.09318
   A32        2.09536  -0.00005   0.00000  -0.00064  -0.00064   2.09472
   A33        2.09372   0.00045   0.00000   0.00155   0.00156   2.09528
   A34        2.09562  -0.00004   0.00000  -0.00001  -0.00002   2.09560
   A35        2.09402   0.00040   0.00000   0.00166   0.00167   2.09569
   A36        2.09353  -0.00036   0.00000  -0.00167  -0.00166   2.09187
   A37        2.09881   0.00090   0.00000   0.00255   0.00254   2.10135
   A38        2.09551  -0.00360   0.00000  -0.01505  -0.01505   2.08046
   A39        2.08885   0.00270   0.00000   0.01252   0.01252   2.10137
   A40        1.93935   0.00017   0.00000  -0.00018  -0.00019   1.93916
   A41        1.93402   0.00235   0.00000   0.01180   0.01179   1.94581
   A42        1.94043  -0.00046   0.00000  -0.00259  -0.00260   1.93783
   A43        1.88393  -0.00115   0.00000  -0.00393  -0.00394   1.87998
   A44        1.88280  -0.00032   0.00000  -0.00423  -0.00424   1.87856
   A45        1.88095  -0.00071   0.00000  -0.00135  -0.00136   1.87959
    D1        1.14414  -0.00165   0.00000  -0.04484  -0.04486   1.09928
    D2       -3.02085  -0.00030   0.00000  -0.02031  -0.02030  -3.04115
    D3       -0.96527   0.00086   0.00000  -0.00641  -0.00640  -0.97168
    D4       -0.96008  -0.00179   0.00000  -0.04658  -0.04660  -1.00667
    D5        1.15811  -0.00044   0.00000  -0.02205  -0.02204   1.13608
    D6       -3.06949   0.00072   0.00000  -0.00815  -0.00814  -3.07763
    D7       -3.05582  -0.00112   0.00000  -0.03837  -0.03839  -3.09421
    D8       -0.93763   0.00023   0.00000  -0.01384  -0.01383  -0.95146
    D9        1.11795   0.00140   0.00000   0.00006   0.00007   1.11801
   D10       -1.10545   0.00063   0.00000  -0.02083  -0.02094  -1.12639
   D11        3.08440   0.00090   0.00000  -0.01217  -0.01227   3.07214
   D12        1.02536   0.00202   0.00000   0.00517   0.00515   1.03051
   D13        3.05829  -0.00194   0.00000  -0.05379  -0.05380   3.00449
   D14        0.96496  -0.00166   0.00000  -0.04513  -0.04513   0.91983
   D15       -1.09408  -0.00054   0.00000  -0.02779  -0.02772  -1.12180
   D16        0.98959  -0.00111   0.00000  -0.04497  -0.04495   0.94464
   D17       -1.10374  -0.00084   0.00000  -0.03632  -0.03628  -1.14002
   D18        3.12040   0.00028   0.00000  -0.01897  -0.01886   3.10154
   D19       -1.13431   0.00078   0.00000   0.02063   0.02058  -1.11373
   D20        3.05442   0.00055   0.00000   0.01784   0.01779   3.07221
   D21        0.96300   0.00019   0.00000   0.01342   0.01336   0.97637
   D22        1.00873   0.00112   0.00000   0.03866   0.03874   1.04747
   D23       -1.08572   0.00089   0.00000   0.03588   0.03595  -1.04977
   D24        3.10604   0.00053   0.00000   0.03145   0.03153   3.13757
   D25        3.09299  -0.00047   0.00000   0.01060   0.01058   3.10357
   D26        0.99853  -0.00070   0.00000   0.00781   0.00779   1.00632
   D27       -1.09289  -0.00106   0.00000   0.00339   0.00337  -1.08952
   D28       -0.47935   0.00166   0.00000   0.06367   0.06355  -0.41580
   D29        2.67019   0.00122   0.00000   0.03401   0.03415   2.70434
   D30        1.63754   0.00111   0.00000   0.05381   0.05368   1.69123
   D31       -1.49610   0.00067   0.00000   0.02414   0.02428  -1.47182
   D32       -2.60458  -0.00084   0.00000   0.03230   0.03215  -2.57243
   D33        0.54497  -0.00128   0.00000   0.00263   0.00274   0.54771
   D34        0.51626  -0.00161   0.00000  -0.09266  -0.09244   0.42381
   D35       -2.63297  -0.00193   0.00000  -0.10346  -0.10327  -2.73624
   D36       -2.61769  -0.00197   0.00000  -0.12102  -0.12121  -2.73889
   D37        0.51628  -0.00229   0.00000  -0.13182  -0.13204   0.38424
   D38       -3.13850  -0.00074   0.00000  -0.02226  -0.02230   3.12239
   D39        0.02236  -0.00070   0.00000  -0.02054  -0.02056   0.00179
   D40        0.01077  -0.00042   0.00000  -0.01139  -0.01140  -0.00063
   D41       -3.11156  -0.00038   0.00000  -0.00967  -0.00967  -3.12122
   D42        3.13484   0.00027   0.00000   0.00929   0.00923  -3.13912
   D43       -0.00046   0.00013   0.00000   0.00535   0.00533   0.00488
   D44       -0.01421  -0.00002   0.00000  -0.00120  -0.00122  -0.01542
   D45        3.13368  -0.00016   0.00000  -0.00514  -0.00511   3.12857
   D46       -0.00215   0.00060   0.00000   0.01689   0.01689   0.01474
   D47       -3.13391   0.00019   0.00000   0.00516   0.00519  -3.12872
   D48        3.12066   0.00051   0.00000   0.01502   0.01499   3.13565
   D49       -0.01110   0.00010   0.00000   0.00329   0.00329  -0.00781
   D50       -0.00315  -0.00034   0.00000  -0.00972  -0.00970  -0.01284
   D51       -3.14021  -0.00041   0.00000  -0.01167  -0.01166   3.13132
   D52        3.12862   0.00007   0.00000   0.00198   0.00200   3.13062
   D53       -0.00845  -0.00001   0.00000   0.00003   0.00004  -0.00840
   D54       -0.00027  -0.00010   0.00000  -0.00291  -0.00289  -0.00316
   D55       -3.13755  -0.00002   0.00000  -0.00039  -0.00039  -3.13794
   D56        3.13679  -0.00003   0.00000  -0.00096  -0.00094   3.13585
   D57       -0.00049   0.00005   0.00000   0.00156   0.00157   0.00108
   D58        0.00900   0.00029   0.00000   0.00840   0.00838   0.01739
   D59       -3.13886   0.00041   0.00000   0.01223   0.01222  -3.12664
   D60       -3.13690   0.00021   0.00000   0.00589   0.00589  -3.13101
   D61       -0.00158   0.00033   0.00000   0.00972   0.00973   0.00815
         Item               Value     Threshold  Converged?
 Maximum Force            0.008740     0.000450     NO 
 RMS     Force            0.001844     0.000300     NO 
 Maximum Displacement     0.278747     0.001800     NO 
 RMS     Displacement     0.084226     0.001200     NO 
 Predicted change in Energy=-1.958702D-03
 GradGradGradGradGradGradGradGradGradGradGradGradGradGradGradGradGradGrad

 Leave Link  103 at Mon Oct  4 04:22:39 2021, MaxMem= 1073741824 cpu:       5.6
 (Enter /sw/target/amd/app/gaussian/Gaussian09RevA.02_gcc-4.9.2/g09/l202.exe)
                          Input orientation:                          
 ---------------------------------------------------------------------
 Center     Atomic      Atomic             Coordinates (Angstroms)
 Number     Number       Type             X           Y           Z
 ---------------------------------------------------------------------
      1          6           0        0.605151   -0.242537    0.233286
      2          6           0        2.116665   -0.256857   -0.036068
      3          6           0        2.673979    1.166044   -0.224206
      4          6           0        2.130333    1.890134   -1.451584
      5          8           0        1.688080    1.275044   -2.413903
      6          6           0        2.119821    3.389994   -1.451134
      7          6           0        2.995996    4.143189   -0.656436
      8          6           0        2.967764    5.538591   -0.703813
      9          6           0        2.053068    6.191523   -1.531331
     10          6           0        1.175882    5.447712   -2.324010
     11          6           0        1.215986    4.054542   -2.291977
     12          6           0        2.867447   -0.964570    1.103699
     13          1           0        0.050319    0.167569   -0.616635
     14          1           0        0.367653    0.360423    1.118867
     15          1           0        0.233153   -1.257723    0.412337
     16          1           0        2.290986   -0.815136   -0.963923
     17          1           0        3.765697    1.112982   -0.342735
     18          1           0        2.477238    1.762216    0.674914
[...]
     3  C   -0.324491
     4  C    0.305726
     5  O   -0.326020
     6  C    0.107591
     7  C   -0.206522
     8  C   -0.130607
     9  C   -0.147453
    10  C   -0.132195
    11  C   -0.186850
    12  C   -0.451353
    13  H    0.166172
    14  H    0.141426
    15  H    0.148215
    16  H    0.148669
    17  H    0.180656
    18  H    0.178582
    19  H    0.115547
    20  H    0.124338
    21  H    0.117784
    22  H    0.125681
    23  H    0.135248
    24  H    0.144467
    25  H    0.146560
    26  H    0.153127
 Sum of Mulliken atomic charges =  -0.00000
 Mulliken charges with hydrogens summed into heavy atoms:
              1
     1  C    0.005710
     2  C    0.064473
     3  C    0.034747
     4  C    0.305726
     5  O   -0.326020
     6  C    0.107591
     7  C   -0.090975
     8  C   -0.006269
     9  C   -0.029669
    10  C   -0.006514
    11  C   -0.051602
    12  C   -0.007199
 Sum of Mulliken charges with hydrogens summed into heavy atoms =  -0.00000
 Electronic spatial extent (au):  <R**2>=           2844.3638
 Charge=             -0.0000 electrons
 Dipole moment (field-independent basis, Debye):
    X=              2.0876    Y=              1.3198    Z=              0.0783  Tot=              2.4711
 Quadrupole moment (field-independent basis, Debye-Ang):
   XX=            -67.2972   YY=            -70.8457   ZZ=            -75.0409
   XY=              1.8548   XZ=             -0.4616   YZ=              0.1827
 Traceless Quadrupole moment (field-independent basis, Debye-Ang):
   XX=              3.7641   YY=              0.2155   ZZ=             -3.9796
   XY=              1.8548   XZ=             -0.4616   YZ=              0.1827
 Octapole moment (field-independent basis, Debye-Ang**2):
  XXX=              8.1941  YYY=             -0.6061  ZZZ=             -3.0867  XYY=             -6.3777
  XXY=             -4.6154  XXZ=              0.1460  XZZ=             12.3158  YZZ=             -1.2541
  YYZ=              1.2482  XYZ=             -2.3493
 Hexadecapole moment (field-independent basis, Debye-Ang**3):
 XXXX=          -2987.3640 YYYY=           -552.7704 ZZZZ=           -189.3782 XXXY=            -12.5928
 XXXZ=            -16.3230 YYYX=             -3.0992 YYYZ=              6.0449 ZZZX=             -1.8244
 ZZZY=              1.9952 XXYY=           -594.8176 XXZZ=           -584.7876 YYZZ=           -128.5694
 XXYZ=              9.7995 YYXZ=             -0.5757 ZZXY=              3.4287
 N-N= 6.561027603255D+02 E-N=-2.478065150140D+03  KE= 4.980253920891D+02
 No NMR shielding tensors so no spin-rotation constants.
 Leave Link  601 at Mon Oct  4 11:00:54 2021, MaxMem= 1073741824 cpu:       1.3
 (Enter /sw/target/amd/app/gaussian/Gaussian09RevA.02_gcc-4.9.2/g09/l604.exe)
 Evaluate density.
 Using the total density.
 Monte-Carlo method of calculating molar volume:
 based on  0.001 e/bohr**3 density envelope.
 Number of points per bohr**3 =   20 CutOff= 1.00D-04
 Using the CI density.
 There are       399 points.  Will hold       399 in memory.
 LenV=  1073613764 MDV=  1073741824.
 Box volume = 7940.168 fraction occupied=0.185
 Integrated density= 6.0192675107268045D+01 error=-2.7807324892731955D+01
 Molar volume = 1472.613 bohr**3/mol (131.414 cm**3/mol)
 Recommended a0 for SCRF calculation =  4.61 angstrom (  8.71 bohr)
 Leave Link  604 at Mon Oct  4 11:00:56 2021, MaxMem= 1073741824 cpu:       0.3
 (Enter /sw/target/amd/app/gaussian/Gaussian09RevA.02_gcc-4.9.2/g09/l607.exe)
 ******************************Gaussian NBO Version 3.1******************************
             N A T U R A L   A T O M I C   O R B I T A L   A N D
          N A T U R A L   B O N D   O R B I T A L   A N A L Y S I S
 ******************************Gaussian NBO Version 3.1******************************
       /RESON  / : Allow strongly delocalized NBO set

 Analyzing the CI density

 Job title: CC(CC(=O)c1ccccc1)C_conf_0                                      

 Storage needed:    132054 in NPA (1073738184 available)


 NATURAL POPULATIONS:  Natural atomic orbital occupancies 
                                                          
   NAO  Atom  No  lang   Type(AO)    Occupancy
 --------------------------------------------
     1    C    1  S      Cor( 1S)     1.99942
     2    C    1  S      Val( 2S)     1.09882
     3    C    1  S      Ryd( 3S)     0.00053
     4    C    1  S      Ryd( 4S)     0.00002
     5    C    1  px     Val( 2p)     1.24030
     6    C    1  px     Ryd( 3p)     0.00220
     7    C    1  py     Val( 2p)     1.21205
     8    C    1  py     Ryd( 3p)     0.00201
     9    C    1  pz     Val( 2p)     1.11883
    10    C    1  pz     Ryd( 3p)     0.00108
    11    C    1  dxy    Ryd( 3d)     0.00088
    12    C    1  dxz    Ryd( 3d)     0.00020
    13    C    1  dyz    Ryd( 3d)     0.00092
    14    C    1  dx2y2  Ryd( 3d)     0.00051
    15    C    1  dz2    Ryd( 3d)     0.00080

    16    C    2  S      Cor( 1S)     1.99925
    17    C    2  S      Val( 2S)     0.97229
    18    C    2  S      Ryd( 3S)     0.00091
    19    C    2  S      Ryd( 4S)     0.00002
    20    C    2  px     Val( 2p)     1.01483
    21    C    2  px     Ryd( 3p)     0.00236
    22    C    2  py     Val( 2p)     1.11549
    23    C    2  py     Ryd( 3p)     0.00298
    24    C    2  pz     Val( 2p)     1.13974
    25    C    2  pz     Ryd( 3p)     0.00284
    26    C    2  dxy    Ryd( 3d)     0.00066
    27    C    2  dxz    Ryd( 3d)     0.00038
    28    C    2  dyz    Ryd( 3d)     0.00122
    29    C    2  dx2y2  Ryd( 3d)     0.00070
    30    C    2  dz2    Ryd( 3d)     0.00070

    31    C    3  S      Cor( 1S)     1.99919
    32    C    3  S      Val( 2S)     1.05256
    33    C    3  S      Ryd( 3S)     0.00083
    34    C    3  S      Ryd( 4S)     0.00002
    35    C    3  px     Val( 2p)     1.03333
    36    C    3  px     Ryd( 3p)     0.00200
    37    C    3  py     Val( 2p)     1.12409
    38    C    3  py     Ryd( 3p)     0.00203
    39    C    3  pz     Val( 2p)     1.26268
    40    C    3  pz     Ryd( 3p)     0.00224
    41    C    3  dxy    Ryd( 3d)     0.00089
    42    C    3  dxz    Ryd( 3d)     0.00061
    43    C    3  dyz    Ryd( 3d)     0.00130
    44    C    3  dx2y2  Ryd( 3d)     0.00045
    45    C    3  dz2    Ryd( 3d)     0.00061

    46    C    4  S      Cor( 1S)     1.99926
    47    C    4  S      Val( 2S)     0.83784
    48    C    4  S      Ryd( 3S)     0.00458
    49    C    4  S      Ryd( 4S)     0.00019
    50    C    4  px     Val( 2p)     0.99279
    51    C    4  px     Ryd( 3p)     0.00349
    52    C    4  py     Val( 2p)     0.79212
    53    C    4  py     Ryd( 3p)     0.01604
    54    C    4  pz     Val( 2p)     0.96321
    55    C    4  pz     Ryd( 3p)     0.00354
    56    C    4  dxy    Ryd( 3d)     0.00128
    57    C    4  dxz    Ryd( 3d)     0.00078
    58    C    4  dyz    Ryd( 3d)     0.00179
    59    C    4  dx2y2  Ryd( 3d)     0.00129
    60    C    4  dz2    Ryd( 3d)     0.00049

    61    O    5  S      Cor( 1S)     1.99980
    62    O    5  S      Val( 2S)     1.70185
    63    O    5  S      Ryd( 3S)     0.00019
    64    O    5  S      Ryd( 4S)     0.00002
    65    O    5  px     Val( 2p)     1.19974
    66    O    5  px     Ryd( 3p)     0.00151
    67    O    5  py     Val( 2p)     1.58494
    68    O    5  py     Ryd( 3p)     0.00033
    69    O    5  pz     Val( 2p)     1.76799
    70    O    5  pz     Ryd( 3p)     0.00308
    71    O    5  dxy    Ryd( 3d)     0.00289
    72    O    5  dxz    Ryd( 3d)     0.00036
    73    O    5  dyz    Ryd( 3d)     0.00424
    74    O    5  dx2y2  Ryd( 3d)     0.00363
    75    O    5  dz2    Ryd( 3d)     0.00147

    76    C    6  S      Cor( 1S)     1.99889
    77    C    6  S      Val( 2S)     0.88481
    78    C    6  S      Ryd( 3S)     0.00047
    79    C    6  S      Ryd( 4S)     0.00004
    80    C    6  px     Val( 2p)     1.01679
    81    C    6  px     Ryd( 3p)     0.00471
    82    C    6  py     Val( 2p)     1.11194
    83    C    6  py     Ryd( 3p)     0.00548
    84    C    6  pz     Val( 2p)     1.12312
    85    C    6  pz     Ryd( 3p)     0.00119
    86    C    6  dxy    Ryd( 3d)     0.00064
    87    C    6  dxz    Ryd( 3d)     0.00081
    88    C    6  dyz    Ryd( 3d)     0.00059
    89    C    6  dx2y2  Ryd( 3d)     0.00071
    90    C    6  dz2    Ryd( 3d)     0.00041

    91    C    7  S      Cor( 1S)     1.99904
    92    C    7  S      Val( 2S)     0.94148
    93    C    7  S      Ryd( 3S)     0.00055
    94    C    7  S      Ryd( 4S)     0.00004
    95    C    7  px     Val( 2p)     1.12907
    96    C    7  px     Ryd( 3p)     0.00354
    97    C    7  py     Val( 2p)     1.12042
    98    C    7  py     Ryd( 3p)     0.00429
    99    C    7  pz     Val( 2p)     1.04513
   100    C    7  pz     Ryd( 3p)     0.00170
   101    C    7  dxy    Ryd( 3d)     0.00087
   102    C    7  dxz    Ryd( 3d)     0.00048
   103    C    7  dyz    Ryd( 3d)     0.00039
   104    C    7  dx2y2  Ryd( 3d)     0.00056
   105    C    7  dz2    Ryd( 3d)     0.00045

   106    C    8  S      Cor( 1S)     1.99910
   107    C    8  S      Val( 2S)     0.95810
   108    C    8  S      Ryd( 3S)     0.00062
   109    C    8  S      Ryd( 4S)     0.00003
   110    C    8  px     Val( 2p)     1.06769
   111    C    8  px     Ryd( 3p)     0.00459
   112    C    8  py     Val( 2p)     1.18342
   113    C    8  py     Ryd( 3p)     0.00527
   114    C    8  pz     Val( 2p)     1.00498
   115    C    8  pz     Ryd( 3p)     0.00079
   116    C    8  dxy    Ryd( 3d)     0.00068
   117    C    8  dxz    Ryd( 3d)     0.00069
   118    C    8  dyz    Ryd( 3d)     0.00036
   119    C    8  dx2y2  Ryd( 3d)     0.00079
   120    C    8  dz2    Ryd( 3d)     0.00042

   121    C    9  S      Cor( 1S)     1.99910
   122    C    9  S      Val( 2S)     0.95721
   123    C    9  S      Ryd( 3S)     0.00053
   124    C    9  S      Ryd( 4S)     0.00003
   125    C    9  px     Val( 2p)     1.18479
   126    C    9  px     Ryd( 3p)     0.00485
   127    C    9  py     Val( 2p)     1.06493
   128    C    9  py     Ryd( 3p)     0.00451
   129    C    9  pz     Val( 2p)     1.05038
   130    C    9  pz     Ryd( 3p)     0.00200
   131    C    9  dxy    Ryd( 3d)     0.00066
   132    C    9  dxz    Ryd( 3d)     0.00034
   133    C    9  dyz    Ryd( 3d)     0.00047
   134    C    9  dx2y2  Ryd( 3d)     0.00080
   135    C    9  dz2    Ryd( 3d)     0.00043

   136    C   10  S      Cor( 1S)     1.99910
   137    C   10  S      Val( 2S)     0.95903
   138    C   10  S      Ryd( 3S)     0.00059
   139    C   10  S      Ryd( 4S)     0.00003
   140    C   10  px     Val( 2p)     1.12249
   141    C   10  px     Ryd( 3p)     0.00482
   142    C   10  py     Val( 2p)     1.13500
   143    C   10  py     Ryd( 3p)     0.00484
   144    C   10  pz     Val( 2p)     0.99953
   145    C   10  pz     Ryd( 3p)     0.00070
   146    C   10  dxy    Ryd( 3d)     0.00087
   147    C   10  dxz    Ryd( 3d)     0.00053
   148    C   10  dyz    Ryd( 3d)     0.00048
   149    C   10  dx2y2  Ryd( 3d)     0.00060
   150    C   10  dz2    Ryd( 3d)     0.00045

   151    C   11  S      Cor( 1S)     1.99905
   152    C   11  S      Val( 2S)     0.94536
   153    C   11  S      Ryd( 3S)     0.00062
   154    C   11  S      Ryd( 4S)     0.00004
   155    C   11  px     Val( 2p)     1.07297
   156    C   11  px     Ryd( 3p)     0.00400
   157    C   11  py     Val( 2p)     1.17232
   158    C   11  py     Ryd( 3p)     0.00475
   159    C   11  pz     Val( 2p)     1.02771
   160    C   11  pz     Ryd( 3p)     0.00214
   161    C   11  dxy    Ryd( 3d)     0.00077
   162    C   11  dxz    Ryd( 3d)     0.00058
   163    C   11  dyz    Ryd( 3d)     0.00032
   164    C   11  dx2y2  Ryd( 3d)     0.00068
   165    C   11  dz2    Ryd( 3d)     0.00043

   166    C   12  S      Cor( 1S)     1.99942
   167    C   12  S      Val( 2S)     1.09815
   168    C   12  S      Ryd( 3S)     0.00040
   169    C   12  S      Ryd( 4S)     0.00002
   170    C   12  px     Val( 2p)     1.17934
   171    C   12  px     Ryd( 3p)     0.00185
   172    C   12  py     Val( 2p)     1.15115
   173    C   12  py     Ryd( 3p)     0.00130
   174    C   12  pz     Val( 2p)     1.23745
   175    C   12  pz     Ryd( 3p)     0.00191
   176    C   12  dxy    Ryd( 3d)     0.00058
   177    C   12  dxz    Ryd( 3d)     0.00016
   178    C   12  dyz    Ryd( 3d)     0.00118
   179    C   12  dx2y2  Ryd( 3d)     0.00074
   180    C   12  dz2    Ryd( 3d)     0.00068

   181    H   13  S      Val( 1S)     0.75691
   182    H   13  S      Ryd( 2S)     0.00129

   183    H   14  S      Val( 1S)     0.77454
   184    H   14  S      Ryd( 2S)     0.00118

   185    H   15  S      Val( 1S)     0.76376
   186    H   15  S      Ryd( 2S)     0.00079

   187    H   16  S      Val( 1S)     0.74896
   188    H   16  S      Ryd( 2S)     0.00219

   189    H   17  S      Val( 1S)     0.73410
   190    H   17  S      Ryd( 2S)     0.00195

   191    H   18  S      Val( 1S)     0.73941
   192    H   18  S      Ryd( 2S)     0.00194

   193    H   19  S      Val( 1S)     0.77199
   194    H   19  S      Ryd( 2S)     0.00095

   195    H   20  S      Val( 1S)     0.76412
   196    H   20  S      Ryd( 2S)     0.00082

   197    H   21  S      Val( 1S)     0.76839
   198    H   21  S      Ryd( 2S)     0.00081

   199    H   22  S      Val( 1S)     0.76319
   200    H   22  S      Ryd( 2S)     0.00084

   201    H   23  S      Val( 1S)     0.76163
   202    H   23  S      Ryd( 2S)     0.00086

   203    H   24  S      Val( 1S)     0.77172
   204    H   24  S      Ryd( 2S)     0.00121

   205    H   25  S      Val( 1S)     0.76658
   206    H   25  S      Ryd( 2S)     0.00089

   207    H   26  S      Val( 1S)     0.75936
   208    H   26  S      Ryd( 2S)     0.00081

 WARNING:  1 low occupancy (<1.9990e) core orbital  found on  C    6


 Summary of Natural Population Analysis:                  
                                                          
                                       Natural Population 
                Natural  -----------------------------------------------
    Atom  No    Charge         Core      Valence    Rydberg      Total
 -----------------------------------------------------------------------
      C    1   -0.67858      1.99942     4.67000    0.00916     6.67858
      C    2   -0.25437      1.99925     4.24235    0.01277     6.25437
      C    3   -0.48283      1.99919     4.47266    0.01098     6.48283
      C    4    0.38133      1.99926     3.58595    0.03346     5.61867
      O    5   -0.27205      1.99980     6.25452    0.01772     8.27205
      C    6   -0.15060      1.99889     4.13666    0.01505     6.15060
      C    7   -0.24801      1.99904     4.23610    0.01287     6.24801
      C    8   -0.22753      1.99910     4.21419    0.01425     6.22753
      C    9   -0.27102      1.99910     4.25731    0.01461     6.27102
      C   10   -0.22906      1.99910     4.21605    0.01391     6.22906
      C   11   -0.23174      1.99905     4.21836    0.01433     6.23174
      C   12   -0.67433      1.99942     4.66609    0.00882     6.67433
      H   13    0.24179      0.00000     0.75691    0.00129     0.75821
      H   14    0.22428      0.00000     0.77454    0.00118     0.77572
      H   15    0.23545      0.00000     0.76376    0.00079     0.76455
      H   16    0.24885      0.00000     0.74896    0.00219     0.75115
      H   17    0.26395      0.00000     0.73410    0.00195     0.73605
      H   18    0.25865      0.00000     0.73941    0.00194     0.74135
      H   19    0.22707      0.00000     0.77199    0.00095     0.77293
      H   20    0.23505      0.00000     0.76412    0.00082     0.76495
      H   21    0.23081      0.00000     0.76839    0.00081     0.76919
      H   22    0.23597      0.00000     0.76319    0.00084     0.76403
      H   23    0.23750      0.00000     0.76163    0.00086     0.76250
      H   24    0.22707      0.00000     0.77172    0.00121     0.77293
      H   25    0.23252      0.00000     0.76658    0.00089     0.76748
      H   26    0.23983      0.00000     0.75936    0.00081     0.76017
 =======================================================================
   * Total *    0.00000     23.99062    63.81492    0.19445    88.00000

                                 Natural Population      
 --------------------------------------------------------
   Core                      23.99062 ( 99.9609% of  24)
   Valence                   63.81492 ( 99.7108% of  64)
   Natural Minimal Basis     87.80555 ( 99.7790% of  88)
   Natural Rydberg Basis      0.19445 (  0.2210% of  88)
 --------------------------------------------------------

    Atom  No          Natural Electron Configuration
 ----------------------------------------------------------------------------
      C    1      [core]2S( 1.10)2p( 3.57)3p( 0.01)
      C    2      [core]2S( 0.97)2p( 3.27)3p( 0.01)
      C    3      [core]2S( 1.05)2p( 3.42)3p( 0.01)
      C    4      [core]2S( 0.84)2p( 2.75)3p( 0.02)3d( 0.01)
      O    5      [core]2S( 1.70)2p( 4.55)3d( 0.01)
      C    6      [core]2S( 0.88)2p( 3.25)3p( 0.01)
      C    7      [core]2S( 0.94)2p( 3.29)3p( 0.01)
      C    8      [core]2S( 0.96)2p( 3.26)3p( 0.01)
      C    9      [core]2S( 0.96)2p( 3.30)3p( 0.01)
      C   10      [core]2S( 0.96)2p( 3.26)3p( 0.01)
      C   11      [core]2S( 0.95)2p( 3.27)3p( 0.01)
      C   12      [core]2S( 1.10)2p( 3.57)3p( 0.01)
      H   13            1S( 0.76)
      H   14            1S( 0.77)
      H   15            1S( 0.76)
      H   16            1S( 0.75)
      H   17            1S( 0.73)
      H   18            1S( 0.74)
      H   19            1S( 0.77)
      H   20            1S( 0.76)
      H   21            1S( 0.77)
      H   22            1S( 0.76)
      H   23            1S( 0.76)
      H   24            1S( 0.77)
      H   25            1S( 0.77)
      H   26            1S( 0.76)


 NBO analysis skipped by request.
 Leave Link  607 at Mon Oct  4 11:01:21 2021, MaxMem= 1073741824 cpu:      14.7
 (Enter /sw/target/amd/app/gaussian/Gaussian09RevA.02_gcc-4.9.2/g09/l9999.exe)
 1\1\GINC-HERMITE\SP\RTD-B3LYP-FC\6-31G(d)\C11H14O1\JSCHLEINITZ\04-Oct-
 2021\0\\#p TD(NStates=10, Root=1) b3lyp/6-31G* volume pop=NPA density=
 current Geom=AllCheck Guess=Read\\CC(CC(=O)c1ccccc1)C_conf_0\\0,1\C,0,
 0.6299816973,-0.4601207509,0.4363578601\C,0,2.080266474,-0.2613480645,
 -0.0284085204\C,0,2.4453385629,1.2290604174,-0.1255462149\C,0,1.776998
 4145,1.9749750005,-1.2782896838\O,0,1.1106815231,1.3809928222,-2.11415
 78225\C,0,1.9730887351,3.4607797159,-1.3872756652\C,0,2.7608794598,4.1
 967984003,-0.4888650406\C,0,2.9111841417,5.5746010242,-0.6459700988\C,
 0,2.2742437608,6.2318382828,-1.7000122472\C,0,1.486910667,5.5072697217
 ,-2.600054115\C,0,1.3394244329,4.1325515091,-2.4450992932\C,0,3.060120
 8852,-0.991251008,0.9017266699\H,0,-0.0731376138,0.0220688971,-0.24810
 64851\H,0,0.4794657,-0.0416226623,1.4409442822\H,0,0.3793519836,-1.526
 4621079,0.4820625081\H,0,2.1718090999,-0.6862055098,-1.0357888339\H,0,
 3.5328521184,1.3439664407,-0.2540500263\H,0,2.2087934583,1.7392489046,
 0.8195628127\H,0,3.2631266819,3.7007307772,0.3355666608\H,0,3.52483840
 99,6.1343914223,0.0545628407\H,0,2.390744241,7.3056948045,-1.820415350
 9\H,0,0.9903017147,6.0169820876,-3.4213058476\H,0,0.7357774828,3.54961
 25756,-3.132992793\H,0,3.015810795,-0.5861606825,1.9214711346\H,0,4.09
 55670317,-0.8991671977,0.5512494451\H,0,2.8211245992,-2.0594942028,0.9
 610926951\\Version=AM64L-G09RevA.02\State=1-A\HF=-502.8376785\RMSD=8.2
 46e-09\Dipole=0.3211687,-0.6488091,0.648905\Quadrupole=-1.6447948,1.90
 17882,-0.2569934,-0.5405123,1.8210822,-1.8817114\PG=C01 [X(C11H14O1)]\
 \@


 CURIOUSER AND CURIOUSER

                  -- ALICE, IN WONDERLAND
 Job cpu time:  0 days  2 hours 15 minutes 50.9 seconds.
 File lengths (MBytes):  RWF=    146 Int=      0 D2E=      0 Chk=     20 Scr=      1
 Normal termination of Gaussian 09 at Mon Oct  4 11:01:47 2021.
