 Entering Gaussian System, Link 0=g09
 Input=C11H10O_b7a8_conf_0.com
 Output=C11H10O_b7a8_conf_0.log
 Initial command:
 /sw/target/amd/app/gaussian/Gaussian09RevA.02_gcc-4.9.2/g09/l1.exe /home/jschleinitz/gaussian/Gau-3086748.inp -scrdir=/home/jschleinitz/gaussian/
 Entering Link 1 = /sw/target/amd/app/gaussian/Gaussian09RevA.02_gcc-4.9.2/g09/l1.exe PID=   3086750.
  
 Copyright (c) 1988,1990,1992,1993,1995,1998,2003,2009, Gaussian, Inc.
                  All Rights Reserved.
  
 This is part of the Gaussian(R) 09 program.  It is based on
 the Gaussian(R) 03 system (copyright 2003, Gaussian, Inc.),
 the Gaussian(R) 98 system (copyright 1998, Gaussian, Inc.),
 the Gaussian(R) 94 system (copyright 1995, Gaussian, Inc.),
 the Gaussian 92(TM) system (copyright 1992, Gaussian, Inc.),
 the Gaussian 90(TM) system (copyright 1990, Gaussian, Inc.),
 the Gaussian 88(TM) system (copyright 1988, Gaussian, Inc.),
 the Gaussian 86(TM) system (copyright 1986, Carnegie Mellon
 University), and the Gaussian 82(TM) system (copyright 1983,
 Carnegie Mellon University). Gaussian is a federally registered
 trademark of Gaussian, Inc.
  
 This software contains proprietary and confidential information,
 including trade secrets, belonging to Gaussian, Inc.
  
 This software is provided under written license and may be
 used, copied, transmitted, or stored only in accord with that
 written license.
  
 The following legend is applicable only to US Government
 contracts under FAR:
  
                    RESTRICTED RIGHTS LEGEND
  
 Use, reproduction and disclosure by the US Government is
 subject to restrictions as set forth in subparagraphs (a)
 and (c) of the Commercial Computer Software - Restricted
 Rights clause in FAR 52.227-19.
  
 Gaussian, Inc.
 340 Quinnipiac St., Bldg. 40, Wallingford CT 06492
  
  
 ---------------------------------------------------------------
 Warning -- This program may not be used in any manner that
 competes with the business of Gaussian, Inc. or will provide
 assistance to any competitor of Gaussian, Inc.  The licensee
 of this program is prohibited from giving any competitor of
 Gaussian, Inc. access to this program.  By using this program,
 the user acknowledges that Gaussian, Inc. is engaged in the
 business of creating and licensing software in the field of
 computational chemistry and represents and warrants to the
 licensee that it is not a competitor of Gaussian, Inc. and that
 it will not use this program in any manner prohibited above.
 ---------------------------------------------------------------
  

 Cite this work as:
 Gaussian 09, Revision A.02,
 M. J. Frisch, G. W. Trucks, H. B. Schlegel, G. E. Scuseria, 
 M. A. Robb, J. R. Cheeseman, G. Scalmani, V. Barone, B. Mennucci, 
 G. A. Petersson, H. Nakatsuji, M. Caricato, X. Li, H. P. Hratchian, 
 A. F. Izmaylov, J. Bloino, G. Zheng, J. L. Sonnenberg, M. Hada, 
 M. Ehara, K. Toyota, R. Fukuda, J. Hasegawa, M. Ishida, T. Nakajima, 
 Y. Honda, O. Kitao, H. Nakai, T. Vreven, J. A. Montgomery, Jr., 
 J. E. Peralta, F. Ogliaro, M. Bearpark, J. J. Heyd, E. Brothers, 
 K. N. Kudin, V. N. Staroverov, R. Kobayashi, J. Normand, 
 K. Raghavachari, A. Rendell, J. C. Burant, S. S. Iyengar, J. Tomasi, 
 M. Cossi, N. Rega, J. M. Millam, M. Klene, J. E. Knox, J. B. Cross, 
 V. Bakken, C. Adamo, J. Jaramillo, R. Gomperts, R. E. Stratmann, 
 O. Yazyev, A. J. Austin, R. Cammi, C. Pomelli, J. W. Ochterski, 
 R. L. Martin, K. Morokuma, V. G. Zakrzewski, G. A. Voth, 
 P. Salvador, J. J. Dannenberg, S. Dapprich, A. D. Daniels, 
 O. Farkas, J. B. Foresman, J. V. Ortiz, J. Cioslowski, 
 and D. J. Fox, Gaussian, Inc., Wallingford CT, 2009.
 
 ******************************************
 Gaussian 09:  AM64L-G09RevA.02 11-Jun-2009
                28-Sep-2021 
 ******************************************
 %nproc=3
 Will use up to    3 processors via shared memory.
 %mem=6gb
 %chk=C11H10O_b7a8_conf_0.chk
 -----------------------------------
 #p opt b3lyp/6-31G* scf=(xqc,tight)
 -----------------------------------
 1/14=-1,18=20,19=15,26=3,38=1/1,3;
 2/9=110,12=2,17=6,18=5,40=1/2;
 3/5=1,6=6,7=1,11=2,16=1,25=1,30=1,71=1,74=-5/1,2,3;
 4//1;
 5/5=2,8=3,13=1,32=2,38=5/2,8;
 6/7=2,8=2,9=2,10=2,28=1/1;
 7//1,2,3,16;
 1/14=-1,18=20,19=15/3(2);
 2/9=110/2;
 99//99;
 2/9=110/2;
 3/5=1,6=6,7=1,11=2,16=1,25=1,30=1,71=1,74=-5/1,2,3;
 4/5=5,16=3/1;
 5/5=2,8=3,13=1,32=2,38=5/2,8;
 7//1,2,3,16;
 1/14=-1,18=20,19=15/3(-5);
 2/9=110/2;
 6/7=2,8=2,9=2,10=2,19=2,28=1/1;
 99/9=1/99;
 Leave Link    1 at Tue Sep 28 14:14:14 2021, MaxMem=  805306368 cpu:       0.0
 (Enter /sw/target/amd/app/gaussian/Gaussian09RevA.02_gcc-4.9.2/g09/l101.exe)
 -------------------------
 COc1ccc2c(c1)cccc2_conf_0
 -------------------------
 Symbolic Z-matrix:
 Charge =  0 Multiplicity = 1
 C                     2.94763  -0.97169   0.83374 
 O                     2.38344   0.02587  -0.00878 
 C                     3.19172   0.51553  -0.99815 
 C                     2.75112   1.70441  -1.57839 
 C                     3.49101   2.31741  -2.5913 
 C                     4.68339   1.74161  -3.05096 
 C                     5.12538   0.52443  -2.48281 
 C                     4.36876  -0.07708  -1.45958 
 C                     6.31439  -0.0568   -2.95405 
 C                     7.05994   0.55606  -3.96267 
 C                     6.62709   1.75785  -4.51496 
 C                     5.44525   2.34657  -4.0634 
 H                     2.24565  -1.15216   1.65358 
 H                     3.89255  -0.63397   1.27319 
 H                     3.07769  -1.91455   0.29322 
 H                     1.82866   2.16357  -1.23193 
 H                     3.12733   3.24976  -3.01684 
 H                     4.71647  -1.01632  -1.0415 
 H                     6.67115  -0.99546  -2.5357 
 H                     7.97868   0.09492  -4.31545 
 H                     7.20779   2.2377   -5.29833 
 H                     5.12168   3.2851   -4.50819 
 
 NAtoms=     22 NQM=     22 NQMF=      0 NMic=      0 NMicF=      0 NTot=     22.
                    Isotopes and Nuclear Properties:
 (Nuclear quadrupole moments (NQMom) in fm**2, nuclear magnetic moments (NMagM)
  in nuclear magnetons)

  Atom         1           2           3           4           5           6           7           8           9          10
 IAtWgt=          12          16          12          12          12          12          12          12          12          12
 AtmWgt=  12.0000000  15.9949146  12.0000000  12.0000000  12.0000000  12.0000000  12.0000000  12.0000000  12.0000000  12.0000000
 NucSpn=           0           0           0           0           0           0           0           0           0           0
 AtZEff=   0.0000000   0.0000000   0.0000000   0.0000000   0.0000000   0.0000000   0.0000000   0.0000000   0.0000000   0.0000000
 NQMom=    0.0000000   0.0000000   0.0000000   0.0000000   0.0000000   0.0000000   0.0000000   0.0000000   0.0000000   0.0000000
 NMagM=    0.0000000   0.0000000   0.0000000   0.0000000   0.0000000   0.0000000   0.0000000   0.0000000   0.0000000   0.0000000

  Atom        11          12          13          14          15          16          17          18          19          20
 IAtWgt=          12          12           1           1           1           1           1           1           1           1
 AtmWgt=  12.0000000  12.0000000   1.0078250   1.0078250   1.0078250   1.0078250   1.0078250   1.0078250   1.0078250   1.0078250
 NucSpn=           0           0           1           1           1           1           1           1           1           1
 AtZEff=   0.0000000   0.0000000   0.0000000   0.0000000   0.0000000   0.0000000   0.0000000   0.0000000   0.0000000   0.0000000
 NQMom=    0.0000000   0.0000000   0.0000000   0.0000000   0.0000000   0.0000000   0.0000000   0.0000000   0.0000000   0.0000000
 NMagM=    0.0000000   0.0000000   2.7928460   2.7928460   2.7928460   2.7928460   2.7928460   2.7928460   2.7928460   2.7928460

  Atom        21          22
 IAtWgt=           1           1
 AtmWgt=   1.0078250   1.0078250
 NucSpn=           1           1
 AtZEff=   0.0000000   0.0000000
 NQMom=    0.0000000   0.0000000
 NMagM=    2.7928460   2.7928460
 Leave Link  101 at Tue Sep 28 14:14:15 2021, MaxMem=  805306368 cpu:       0.1
 (Enter /sw/target/amd/app/gaussian/Gaussian09RevA.02_gcc-4.9.2/g09/l103.exe)

 GradGradGradGradGradGradGradGradGradGradGradGradGradGradGradGradGradGrad
 Berny optimization.
 Initialization pass.
                           ----------------------------
                           !    Initial Parameters    !
                           ! (Angstroms and Degrees)  !
 --------------------------                            --------------------------
 ! Name  Definition              Value          Derivative Info.                !
 --------------------------------------------------------------------------------
 ! R1    R(1,2)                  1.4224         estimate D2E/DX2                !
 ! R2    R(1,13)                 1.0943         estimate D2E/DX2                !
 ! R3    R(1,14)                 1.0955         estimate D2E/DX2                !
 ! R4    R(1,15)                 1.0946         estimate D2E/DX2                !
 ! R5    R(2,3)                  1.3682         estimate D2E/DX2                !
 ! R6    R(3,4)                  1.3944         estimate D2E/DX2                !
 ! R7    R(3,8)                  1.3963         estimate D2E/DX2                !
 ! R8    R(4,5)                  1.3961         estimate D2E/DX2                !
 ! R9    R(4,16)                 1.0871         estimate D2E/DX2                !
 ! R10   R(5,6)                  1.4016         estimate D2E/DX2                !
 ! R11   R(5,17)                 1.0875         estimate D2E/DX2                !
 ! R12   R(6,7)                  1.4141         estimate D2E/DX2                !
 ! R13   R(6,12)                 1.4041         estimate D2E/DX2                !
 ! R14   R(7,8)                  1.4076         estimate D2E/DX2                !
 ! R15   R(7,9)                  1.4049         estimate D2E/DX2                !
 ! R16   R(8,18)                 1.0853         estimate D2E/DX2                !
 ! R17   R(9,10)                 1.396          estimate D2E/DX2                !
 ! R18   R(9,19)                 1.0878         estimate D2E/DX2                !
 ! R19   R(10,11)                1.3917         estimate D2E/DX2                !
 ! R20   R(10,20)                1.0868         estimate D2E/DX2                !
 ! R21   R(11,12)                1.3954         estimate D2E/DX2                !
 ! R22   R(11,21)                1.0868         estimate D2E/DX2                !
 ! R23   R(12,22)                1.0878         estimate D2E/DX2                !
 ! A1    A(2,1,13)             107.757          estimate D2E/DX2                !
 ! A2    A(2,1,14)             111.3176         estimate D2E/DX2                !
 ! A3    A(2,1,15)             111.0233         estimate D2E/DX2                !
 ! A4    A(13,1,14)            107.6758         estimate D2E/DX2                !
 ! A5    A(13,1,15)            107.7059         estimate D2E/DX2                !
 ! A6    A(14,1,15)            111.1715         estimate D2E/DX2                !
 ! A7    A(1,2,3)              116.4225         estimate D2E/DX2                !
 ! A8    A(2,3,4)              114.7964         estimate D2E/DX2                !
 ! A9    A(2,3,8)              125.8095         estimate D2E/DX2                !
 ! A10   A(4,3,8)              119.3887         estimate D2E/DX2                !
 ! A11   A(3,4,5)              120.5852         estimate D2E/DX2                !
 ! A12   A(3,4,16)             119.7115         estimate D2E/DX2                !
 ! A13   A(5,4,16)             119.7002         estimate D2E/DX2                !
 ! A14   A(4,5,6)              120.5565         estimate D2E/DX2                !
 ! A15   A(4,5,17)             118.8881         estimate D2E/DX2                !
 ! A16   A(6,5,17)             120.5553         estimate D2E/DX2                !
 ! A17   A(5,6,7)              119.1917         estimate D2E/DX2                !
 ! A18   A(5,6,12)             121.404          estimate D2E/DX2                !
 ! A19   A(7,6,12)             119.4043         estimate D2E/DX2                !
 ! A20   A(6,7,8)              119.4645         estimate D2E/DX2                !
 ! A21   A(6,7,9)              119.0705         estimate D2E/DX2                !
 ! A22   A(8,7,9)              121.465          estimate D2E/DX2                !
 ! A23   A(3,8,7)              120.7973         estimate D2E/DX2                !
 ! A24   A(3,8,18)             120.6695         estimate D2E/DX2                !
 ! A25   A(7,8,18)             118.5316         estimate D2E/DX2                !
 ! A26   A(7,9,10)             120.8458         estimate D2E/DX2                !
 ! A27   A(7,9,19)             120.369          estimate D2E/DX2                !
 ! A28   A(10,9,19)            118.7852         estimate D2E/DX2                !
 ! A29   A(9,10,11)            119.9836         estimate D2E/DX2                !
 ! A30   A(9,10,20)            119.9815         estimate D2E/DX2                !
 ! A31   A(11,10,20)           120.0349         estimate D2E/DX2                !
 ! A32   A(10,11,12)           119.956          estimate D2E/DX2                !
 ! A33   A(10,11,21)           120.0763         estimate D2E/DX2                !
 ! A34   A(12,11,21)           119.9677         estimate D2E/DX2                !
 ! A35   A(6,12,11)            120.738          estimate D2E/DX2                !
 ! A36   A(6,12,22)            120.3417         estimate D2E/DX2                !
 ! A37   A(11,12,22)           118.9203         estimate D2E/DX2                !
 ! D1    D(13,1,2,3)           171.7485         estimate D2E/DX2                !
 ! D2    D(14,1,2,3)            53.8955         estimate D2E/DX2                !
 ! D3    D(15,1,2,3)           -70.5286         estimate D2E/DX2                !
 ! D4    D(1,2,3,4)           -164.434          estimate D2E/DX2                !
 ! D5    D(1,2,3,8)             16.4185         estimate D2E/DX2                !
 ! D6    D(2,3,4,5)            179.3695         estimate D2E/DX2                !
 ! D7    D(2,3,4,16)             0.0084         estimate D2E/DX2                !
 ! D8    D(8,3,4,5)             -1.424          estimate D2E/DX2                !
 ! D9    D(8,3,4,16)           179.2149         estimate D2E/DX2                !
 ! D10   D(2,3,8,7)           -179.6684         estimate D2E/DX2                !
 ! D11   D(2,3,8,18)             0.7847         estimate D2E/DX2                !
 ! D12   D(4,3,8,7)              1.2198         estimate D2E/DX2                !
 ! D13   D(4,3,8,18)          -178.3271         estimate D2E/DX2                !
 ! D14   D(3,4,5,6)              0.5916         estimate D2E/DX2                !
 ! D15   D(3,4,5,17)          -179.3349         estimate D2E/DX2                !
 ! D16   D(16,4,5,6)           179.9528         estimate D2E/DX2                !
 ! D17   D(16,4,5,17)            0.0263         estimate D2E/DX2                !
 ! D18   D(4,5,6,7)              0.4536         estimate D2E/DX2                !
 ! D19   D(4,5,6,12)          -179.6432         estimate D2E/DX2                !
 ! D20   D(17,5,6,7)          -179.6212         estimate D2E/DX2                !
 ! D21   D(17,5,6,12)            0.2821         estimate D2E/DX2                !
 ! D22   D(5,6,7,8)             -0.6514         estimate D2E/DX2                !
 ! D23   D(5,6,7,9)            179.4169         estimate D2E/DX2                !
 ! D24   D(12,6,7,8)           179.4434         estimate D2E/DX2                !
 ! D25   D(12,6,7,9)            -0.4883         estimate D2E/DX2                !
 ! D26   D(5,6,12,11)         -179.6939         estimate D2E/DX2                !
 ! D27   D(5,6,12,22)            0.3544         estimate D2E/DX2                !
 ! D28   D(7,6,12,11)            0.2091         estimate D2E/DX2                !
 ! D29   D(7,6,12,22)         -179.7425         estimate D2E/DX2                !
 ! D30   D(6,7,8,3)             -0.1846         estimate D2E/DX2                !
 ! D31   D(6,7,8,18)           179.3719         estimate D2E/DX2                !
 ! D32   D(9,7,8,3)            179.7455         estimate D2E/DX2                !
 ! D33   D(9,7,8,18)            -0.698          estimate D2E/DX2                !
 ! D34   D(6,7,9,10)             0.4096         estimate D2E/DX2                !
 ! D35   D(6,7,9,19)          -179.6774         estimate D2E/DX2                !
 ! D36   D(8,7,9,10)          -179.5208         estimate D2E/DX2                !
 ! D37   D(8,7,9,19)             0.3922         estimate D2E/DX2                !
 ! D38   D(7,9,10,11)           -0.0424         estimate D2E/DX2                !
 ! D39   D(7,9,10,20)          179.892          estimate D2E/DX2                !
 ! D40   D(19,9,10,11)        -179.9567         estimate D2E/DX2                !
 ! D41   D(19,9,10,20)          -0.0223         estimate D2E/DX2                !
 ! D42   D(9,10,11,12)          -0.2456         estimate D2E/DX2                !
 ! D43   D(9,10,11,21)         179.8293         estimate D2E/DX2                !
 ! D44   D(20,10,11,12)        179.8201         estimate D2E/DX2                !
 ! D45   D(20,10,11,21)         -0.105          estimate D2E/DX2                !
 ! D46   D(10,11,12,6)           0.161          estimate D2E/DX2                !
 ! D47   D(10,11,12,22)       -179.8867         estimate D2E/DX2                !
 ! D48   D(21,11,12,6)        -179.9138         estimate D2E/DX2                !
 ! D49   D(21,11,12,22)          0.0385         estimate D2E/DX2                !
 --------------------------------------------------------------------------------
 Trust Radius=3.00D-01 FncErr=1.00D-07 GrdErr=1.00D-06
 Number of steps in this run= 119 maximum allowed number of steps= 132.
 GradGradGradGradGradGradGradGradGradGradGradGradGradGradGradGradGradGrad

 Leave Link  103 at Tue Sep 28 14:14:15 2021, MaxMem=  805306368 cpu:       0.0
 (Enter /sw/target/amd/app/gaussian/Gaussian09RevA.02_gcc-4.9.2/g09/l202.exe)
                          Input orientation:                          
 ---------------------------------------------------------------------
 Center     Atomic      Atomic             Coordinates (Angstroms)
 Number     Number       Type             X           Y           Z
 ---------------------------------------------------------------------
      1          6           0        2.947627   -0.971686    0.833740
      2          8           0        2.383437    0.025869   -0.008777
      3          6           0        3.191717    0.515532   -0.998148
      4          6           0        2.751118    1.704408   -1.578394
      5          6           0        3.491008    2.317412   -2.591302
      6          6           0        4.683388    1.741613   -3.050962
      7          6           0        5.125378    0.524431   -2.482814
      8          6           0        4.368757   -0.077081   -1.459584
      9          6           0        6.314392   -0.056804   -2.954048
     10          6           0        7.059939    0.556057   -3.962670
     11          6           0        6.627088    1.757851   -4.514961
     12          6           0        5.445253    2.346573   -4.063398
     13          1           0        2.245654   -1.152160    1.653576
     14          1           0        3.892553   -0.633966    1.273193
     15          1           0        3.077692   -1.914550    0.293219
     16          1           0        1.828657    2.163570   -1.231932
     17          1           0        3.127329    3.249755   -3.016837
     18          1           0        4.716470   -1.016318   -1.041502
     19          1           0        6.671153   -0.995457   -2.535699
     20          1           0        7.978685    0.094916   -4.315447
     21          1           0        7.207791    2.237697   -5.298332
     22          1           0        5.121684    3.285096   -4.508186
 ---------------------------------------------------------------------
                    Distance matrix (angstroms):
                    1          2          3          4          5
     1  C    0.000000
     2  O    1.422414   0.000000
     3  C    2.372175   1.368190   0.000000
     4  C    3.608114   2.327312   1.394360   0.000000
     5  C    4.779576   3.625923   2.423734   1.396136   0.000000
     6  C    5.046362   4.181918   2.818226   2.429714   1.401642
     7  C    4.240342   3.726615   2.437899   2.801327   2.428521
     8  C    2.842405   2.461084   1.396257   2.409268   2.790130
     9  C    5.149704   4.912623   3.728835   4.206093   3.706749
    10  C    6.500051   6.146872   4.873722   5.056622   4.209547
    11  C    7.042543   6.427599   5.070808   4.863068   3.721366
    12  C    6.421133   5.585726   4.222190   3.721020   2.446833
    13  H    1.094289   2.042095   3.272289   4.342937   5.622084
    14  H    1.095472   2.087166   2.640362   3.860365   4.879160
    15  H    1.094565   2.082887   2.754257   4.087352   5.138171
    16  H    3.917771   2.524610   2.151422   1.087106   2.152898
    17  H    5.716626   4.471604   3.399298   2.144470   1.087477
    18  H    2.578242   2.756033   2.161786   3.399002   3.875228
    19  H    5.021785   5.080644   4.093119   4.855139   4.592550
    20  H    7.277589   7.061088   5.839216   6.116321   5.296357
    21  H    8.127204   7.493061   6.130765   5.829603   4.598786
    22  H    7.168186   6.193968   4.869869   4.086788   2.696286
                    6          7          8          9         10
     6  C    0.000000
     7  C    1.414100   0.000000
     8  C    2.437031   1.407583   0.000000
     9  C    2.429788   1.404867   2.453432   0.000000
    10  C    2.807979   2.435878   3.729446   1.395979   0.000000
    11  C    2.433419   2.811775   4.219284   2.413959   1.391651
    12  C    1.404080   2.433262   3.716556   2.786087   2.413152
    13  H    6.037313   5.311637   3.918562   6.243767   7.591941
    14  H    4.996711   4.119385   2.829305   4.905914   6.234000
    15  H    5.208583   4.224690   2.848765   4.946937   6.330464
    16  H    3.411218   3.888425   3.394768   5.293162   6.116154
    17  H    2.167251   3.421223   3.877372   4.592891   4.859633
    18  H    3.412507   2.149068   1.085295   2.670553   4.061703
    19  H    3.421733   2.168474   2.702307   1.087825   2.143501
    20  H    3.894806   3.418243   4.606204   2.155526   1.086828
    21  H    3.416047   3.898572   5.306062   3.399789   2.152619
    22  H    2.167475   3.423947   4.600555   3.873784   3.391471
                   11         12         13         14         15
    11  C    0.000000
    12  C    1.395434   0.000000
    13  H    8.106539   7.427137   0.000000
    14  H    6.833828   6.306640   1.767905   0.000000
    15  H    7.014509   6.537784   1.767512   1.806721   0.000000
    16  H    5.828193   4.596788   4.415213   4.285036   4.529596
    17  H    4.088822   2.698852   6.478192   5.837228   6.134247
    18  H    4.838531   4.579521   3.658802   2.486534   2.296496
    19  H    3.391183   3.873739   6.095869   4.728525   4.664811
    20  H    2.152201   3.398788   8.369711   6.961368   7.021216
    21  H    1.086802   2.154867   9.189285   7.900772   8.097179
    22  H    2.144474   1.087824   8.119612   7.091838   7.366662
                   16         17         18         19         20
    16  H    0.000000
    17  H    2.460129   0.000000
    18  H    4.299700   4.962530   0.000000
    19  H    5.926974   5.550856   2.460455   0.000000
    20  H    7.184026   5.930856   4.753482   2.462936   0.000000
    21  H    6.743603   4.783267   5.908967   4.286422   2.480293
    22  H    4.778670   2.490546   5.539337   4.961320   4.286823
                   21         22
    21  H    0.000000
    22  H    2.464390   0.000000
 Stoichiometry    C11H10O
 Framework group  C1[X(C11H10O)]
 Deg. of freedom    60
 Full point group                 C1      NOp   1
 Largest Abelian subgroup         C1      NOp   1
 Largest concise Abelian subgroup C1      NOp   1
                         Standard orientation:                         
 ---------------------------------------------------------------------
 Center     Atomic      Atomic             Coordinates (Angstroms)
 Number     Number       Type             X           Y           Z
 ---------------------------------------------------------------------
      1          6           0       -3.625252   -1.092797    0.188307
      2          8           0       -3.086805    0.188677   -0.113622
      3          6           0       -1.723597    0.299932   -0.078581
      4          6           0       -1.244502    1.608812   -0.039348
      5          6           0        0.127550    1.861824    0.012143
      6          6           0        1.047601    0.804418    0.012832
      7          6           0        0.570221   -0.525225   -0.049104
      8          6           0       -0.816596   -0.761470   -0.096192
      9          6           0        1.495045   -1.582683   -0.060746
     10          6           0        2.867490   -1.333918   -0.003581
     11          6           0        3.334758   -0.024860    0.065121
     12          6           0        2.430832    1.038207    0.071624
     13          1           0       -4.711807   -0.988471    0.265648
     14          1           0       -3.257200   -1.462534    1.151578
     15          1           0       -3.415658   -1.806014   -0.615101
     16          1           0       -1.945789    2.439472   -0.038414
     17          1           0        0.470445    2.893021    0.052927
     18          1           0       -1.166023   -1.787352   -0.153919
     19          1           0        1.151261   -2.613418   -0.113290
     20          1           0        3.570479   -2.162734   -0.011677
     21          1           0        4.402821    0.170427    0.112482
     22          1           0        2.814603    2.054744    0.123893
 ---------------------------------------------------------------------
 Rotational constants (GHZ):      2.3657425      0.6205354      0.4943561
 Leave Link  202 at Tue Sep 28 14:14:15 2021, MaxMem=  805306368 cpu:       0.0
 (Enter /sw/target/amd/app/gaussian/Gaussian09RevA.02_gcc-4.9.2/g09/l301.exe)
 Standard basis: 6-31G(d) (6D, 7F)
 Ernie: Thresh=  0.10000D-02 Tol=  0.10000D-05 Strict=F.
 There are   200 symmetry adapted basis functions of A   symmetry.
 Integral buffers will be    131072 words long.
 Raffenetti 2 integral format.
 Two-electron integral symmetry is turned on.
   200 basis functions,   376 primitive gaussians,   200 cartesian basis functions
    42 alpha electrons       42 beta electrons
       nuclear repulsion energy       636.7723212447 Hartrees.
 IExCor=  402 DFT=T Ex+Corr=B3LYP ExCW=0 ScaHFX=  0.200000
 ScaDFX=  0.800000  0.720000  1.000000  0.810000 ScalE2=  1.000000  1.000000
 IRadAn=      0 IRanWt=     -1 IRanGd=            0 ICorTp=0
 NAtoms=   22 NActive=   22 NUniq=   22 SFac= 7.50D-01 NAtFMM=   80 NAOKFM=F Big=F
 Leave Link  301 at Tue Sep 28 14:14:15 2021, MaxMem=  805306368 cpu:       0.1
 (Enter /sw/target/amd/app/gaussian/Gaussian09RevA.02_gcc-4.9.2/g09/l302.exe)
 NPDir=0 NMtPBC=     1 NCelOv=     1 NCel=       1 NClECP=     1 NCelD=      1
         NCelK=      1 NCelE2=     1 NClLst=     1 CellRange=     0.0.
 One-electron integrals computed using PRISM.
 NBasis=   200 RedAO= T  NBF=   200
 NBsUse=   200 1.00D-06 NBFU=   200
 Precomputing XC quadrature grid using
 IXCGrd= 2 IRadAn=           0 IRanWt=          -1 IRanGd=           0 AccXCQ= 1.00D-10.
 NRdTot=    1387 NPtTot=      176334 NUsed=      186342 NTot=      186374
 NSgBfM=   199   199   199   199   199 NAtAll=    22    22.
 Leave Link  302 at Tue Sep 28 14:14:15 2021, MaxMem=  805306368 cpu:       1.0
 (Enter /sw/target/amd/app/gaussian/Gaussian09RevA.02_gcc-4.9.2/g09/l303.exe)
 DipDrv:  MaxL=1.
 Leave Link  303 at Tue Sep 28 14:14:15 2021, MaxMem=  805306368 cpu:       0.1
 (Enter /sw/target/amd/app/gaussian/Gaussian09RevA.02_gcc-4.9.2/g09/l401.exe)
 Harris functional with IExCor=  402 diagonalized for initial guess.
 ExpMin= 1.61D-01 ExpMax= 5.48D+03 ExpMxC= 8.25D+02 IAcc=1 IRadAn=         1 AccDes= 0.00D+00
 HarFok:  IExCor=  402 AccDes= 0.00D+00 IRadAn=         1 IDoV= 1
 ScaDFX=  1.000000  1.000000  1.000000  1.000000
 FoFCou: FMM=F IPFlag=           0 FMFlag=      100000 FMFlg1=           0
         NFxFlg=           0 DoJE=T BraDBF=F KetDBF=T FulRan=T
         Omega=  0.000000  0.000000  1.000000  0.000000  0.000000 ICntrl=     500 IOpCl=  0
         NMat0=    1 NMatS0=    1 NMatT0=    0 NMatD0=    1 NMtDS0=    0 NMtDT0=    0
         I1Cent=           4 NGrid=           0.
 Petite list used in FoFCou.
 Harris En= -500.470624684946    
 Initial guess orbital symmetries:
       Occupied  (A) (A) (A) (A) (A) (A) (A) (A) (A) (A) (A) (A)
                 (A) (A) (A) (A) (A) (A) (A) (A) (A) (A) (A) (A)
                 (A) (A) (A) (A) (A) (A) (A) (A) (A) (A) (A) (A)
                 (A) (A) (A) (A) (A) (A)
       Virtual   (A) (A) (A) (A) (A) (A) (A) (A) (A) (A) (A) (A)
                 (A) (A) (A) (A) (A) (A) (A) (A) (A) (A) (A) (A)
                 (A) (A) (A) (A) (A) (A) (A) (A) (A) (A) (A) (A)
                 (A) (A) (A) (A) (A) (A) (A) (A) (A) (A) (A) (A)
                 (A) (A) (A) (A) (A) (A) (A) (A) (A) (A) (A) (A)
                 (A) (A) (A) (A) (A) (A) (A) (A) (A) (A) (A) (A)
                 (A) (A) (A) (A) (A) (A) (A) (A) (A) (A) (A) (A)
                 (A) (A) (A) (A) (A) (A) (A) (A) (A) (A) (A) (A)
                 (A) (A) (A) (A) (A) (A) (A) (A) (A) (A) (A) (A)
                 (A) (A) (A) (A) (A) (A) (A) (A) (A) (A) (A) (A)
                 (A) (A) (A) (A) (A) (A) (A) (A) (A) (A) (A) (A)
                 (A) (A) (A) (A) (A) (A) (A) (A) (A) (A) (A) (A)
                 (A) (A) (A) (A) (A) (A) (A) (A) (A) (A) (A) (A)
                 (A) (A)
 The electronic state of the initial guess is 1-A.
 Leave Link  401 at Tue Sep 28 14:14:17 2021, MaxMem=  805306368 cpu:       4.5
 (Enter /sw/target/amd/app/gaussian/Gaussian09RevA.02_gcc-4.9.2/g09/l502.exe)
 Closed shell SCF:
 Requested convergence on RMS density matrix=1.00D-08 within  64 cycles.
 Requested convergence on MAX density matrix=1.00D-06.
 Requested convergence on             energy=1.00D-06.
 No special actions if energy rises.
 Using DIIS extrapolation, IDIIS=  1040.
 Integral symmetry usage will be decided dynamically.
       186131 words used for storage of precomputed grid.
 Keep R1 ints in memory in canonical form, NReq=206389645.
 IEnd=      314381 IEndB=      314381 NGot=   805306368 MDV=   603021334
 LenX=   603021334 LenY=   602980893
 Symmetry not used in FoFDir.
 MinBra= 0 MaxBra= 2 Meth= 1.
 IRaf=       0 NMat=   1 IRICut=       1 DoRegI=T DoRafI=F ISym2E= 0 JSym2E=0.
 Integral accuracy reduced to 1.0D-05 until final iterations.

 Cycle   1  Pass 0  IDiag  1:
 E= -500.147598681811    
 DIIS: error= 3.99D-02 at cycle   1 NSaved=   1.
 NSaved= 1 IEnMin= 1 EnMin= -500.147598681811     IErMin= 1 ErrMin= 3.99D-02
 ErrMax= 3.99D-02 EMaxC= 1.00D-01 BMatC= 2.37D-01 BMatP= 2.37D-01
 IDIUse=3 WtCom= 6.01D-01 WtEn= 3.99D-01
 Coeff-Com:  0.100D+01
 Coeff-En:   0.100D+01
 Coeff:      0.100D+01
 Gap=     0.183 Goal=   None    Shift=    0.000
 GapD=    0.183 DampG=1.000 DampE=0.500 DampFc=0.5000 IDamp=-1.
 Damping current iteration by 5.00D-01
 RMSDP=6.09D-03 MaxDP=1.26D-01              OVMax= 1.65D-01

 Cycle   2  Pass 0  IDiag  1:
 E= -500.273885311501     Delta-E=       -0.126286629691 Rises=F Damp=T
 DIIS: error= 6.16D-03 at cycle   2 NSaved=   2.
 NSaved= 2 IEnMin= 2 EnMin= -500.273885311501     IErMin= 2 ErrMin= 6.16D-03
 ErrMax= 6.16D-03 EMaxC= 1.00D-01 BMatC= 1.34D-02 BMatP= 2.37D-01
 IDIUse=3 WtCom= 9.38D-01 WtEn= 6.16D-02
 Coeff-Com: -0.766D-02 0.101D+01
 Coeff-En:   0.000D+00 0.100D+01
 Coeff:     -0.719D-02 0.101D+01
 Gap=     0.174 Goal=   None    Shift=    0.000
 RMSDP=2.04D-03 MaxDP=4.10D-02 DE=-1.26D-01 OVMax= 1.45D-01

 Cycle   3  Pass 0  IDiag  1:
 E= -500.398608459886     Delta-E=       -0.124723148385 Rises=F Damp=F
 DIIS: error= 5.74D-03 at cycle   3 NSaved=   3.
 NSaved= 3 IEnMin= 3 EnMin= -500.398608459886     IErMin= 3 ErrMin= 5.74D-03
 ErrMax= 5.74D-03 EMaxC= 1.00D-01 BMatC= 1.18D-02 BMatP= 1.34D-02
 IDIUse=3 WtCom= 9.43D-01 WtEn= 5.74D-02
 Coeff-Com: -0.451D-01 0.506D+00 0.539D+00
 Coeff-En:   0.000D+00 0.000D+00 0.100D+01
 Coeff:     -0.425D-01 0.477D+00 0.565D+00
 Gap=     0.169 Goal=   None    Shift=    0.000
 RMSDP=1.00D-03 MaxDP=3.32D-02 DE=-1.25D-01 OVMax= 7.21D-02

 Cycle   4  Pass 0  IDiag  1:
 E= -500.407030415104     Delta-E=       -0.008421955217 Rises=F Damp=F
 DIIS: error= 3.74D-03 at cycle   4 NSaved=   4.
 NSaved= 4 IEnMin= 4 EnMin= -500.407030415104     IErMin= 4 ErrMin= 3.74D-03
 ErrMax= 3.74D-03 EMaxC= 1.00D-01 BMatC= 4.21D-03 BMatP= 1.18D-02
 IDIUse=3 WtCom= 9.63D-01 WtEn= 3.74D-02
 Coeff-Com: -0.243D-01 0.122D+00 0.380D+00 0.522D+00
 Coeff-En:   0.000D+00 0.000D+00 0.303D+00 0.697D+00
 Coeff:     -0.234D-01 0.117D+00 0.377D+00 0.529D+00
 Gap=     0.166 Goal=   None    Shift=    0.000
 RMSDP=4.08D-04 MaxDP=1.32D-02 DE=-8.42D-03 OVMax= 3.24D-02

 Cycle   5  Pass 0  IDiag  1:
 E= -500.411670618290     Delta-E=       -0.004640203186 Rises=F Damp=F
 DIIS: error= 5.65D-04 at cycle   5 NSaved=   5.
 NSaved= 5 IEnMin= 5 EnMin= -500.411670618290     IErMin= 5 ErrMin= 5.65D-04
 ErrMax= 5.65D-04 EMaxC= 1.00D-01 BMatC= 1.27D-04 BMatP= 4.21D-03
 IDIUse=3 WtCom= 9.94D-01 WtEn= 5.65D-03
 Coeff-Com: -0.803D-02 0.280D-01 0.145D+00 0.253D+00 0.582D+00
 Coeff-En:   0.000D+00 0.000D+00 0.000D+00 0.000D+00 0.100D+01
 Coeff:     -0.799D-02 0.278D-01 0.144D+00 0.252D+00 0.584D+00
 Gap=     0.165 Goal=   None    Shift=    0.000
 RMSDP=7.17D-05 MaxDP=2.79D-03 DE=-4.64D-03 OVMax= 4.39D-03

 Cycle   6  Pass 0  IDiag  1:
 E= -500.411777241367     Delta-E=       -0.000106623077 Rises=F Damp=F
 DIIS: error= 2.08D-04 at cycle   6 NSaved=   6.
 NSaved= 6 IEnMin= 6 EnMin= -500.411777241367     IErMin= 6 ErrMin= 2.08D-04
 ErrMax= 2.08D-04 EMaxC= 1.00D-01 BMatC= 1.78D-05 BMatP= 1.27D-04
 IDIUse=3 WtCom= 9.98D-01 WtEn= 2.08D-03
 Coeff-Com: -0.188D-02 0.266D-02 0.397D-01 0.841D-01 0.328D+00 0.547D+00
 Coeff-En:   0.000D+00 0.000D+00 0.000D+00 0.000D+00 0.696D-01 0.930D+00
 Coeff:     -0.187D-02 0.266D-02 0.396D-01 0.839D-01 0.328D+00 0.548D+00
 Gap=     0.166 Goal=   None    Shift=    0.000
 RMSDP=2.16D-05 MaxDP=5.36D-04 DE=-1.07D-04 OVMax= 1.00D-03

 Cycle   7  Pass 0  IDiag  1:
 E= -500.411792707984     Delta-E=       -0.000015466617 Rises=F Damp=F
 DIIS: error= 4.25D-05 at cycle   7 NSaved=   7.
 NSaved= 7 IEnMin= 7 EnMin= -500.411792707984     IErMin= 7 ErrMin= 4.25D-05
 ErrMax= 4.25D-05 EMaxC= 1.00D-01 BMatC= 4.26D-07 BMatP= 1.78D-05
 IDIUse=1 WtCom= 1.00D+00 WtEn= 0.00D+00
 Coeff-Com: -0.565D-03 0.307D-03 0.141D-01 0.306D-01 0.134D+00 0.250D+00
 Coeff-Com:  0.571D+00
 Coeff:     -0.565D-03 0.307D-03 0.141D-01 0.306D-01 0.134D+00 0.250D+00
 Coeff:      0.571D+00
 Gap=     0.166 Goal=   None    Shift=    0.000
 RMSDP=5.32D-06 MaxDP=1.48D-04 DE=-1.55D-05 OVMax= 3.46D-04

 Initial convergence to 1.0D-05 achieved.  Increase integral accuracy.
 Cycle   8  Pass 1  IDiag  1:
 E= -500.411772208558     Delta-E=        0.000020499426 Rises=F Damp=F
 DIIS: error= 2.02D-05 at cycle   1 NSaved=   1.
 NSaved= 1 IEnMin= 1 EnMin= -500.411772208558     IErMin= 1 ErrMin= 2.02D-05
 ErrMax= 2.02D-05 EMaxC= 1.00D-01 BMatC= 1.81D-07 BMatP= 1.81D-07
 IDIUse=1 WtCom= 1.00D+00 WtEn= 0.00D+00
 Coeff-Com:  0.100D+01
 Coeff:      0.100D+01
 Gap=     0.166 Goal=   None    Shift=    0.000
 RMSDP=5.32D-06 MaxDP=1.48D-04 DE= 2.05D-05 OVMax= 3.81D-04

 Cycle   9  Pass 1  IDiag  1:
 E= -500.411771850984     Delta-E=        0.000000357574 Rises=F Damp=F
 DIIS: error= 4.39D-05 at cycle   2 NSaved=   2.
 NSaved= 2 IEnMin= 1 EnMin= -500.411772208558     IErMin= 1 ErrMin= 2.02D-05
 ErrMax= 4.39D-05 EMaxC= 1.00D-01 BMatC= 5.32D-07 BMatP= 1.81D-07
 IDIUse=1 WtCom= 1.00D+00 WtEn= 0.00D+00
 Coeff-Com:  0.639D+00 0.361D+00
 Coeff:      0.639D+00 0.361D+00
 Gap=     0.166 Goal=   None    Shift=    0.000
 RMSDP=4.22D-06 MaxDP=1.11D-04 DE= 3.58D-07 OVMax= 2.84D-04

 Cycle  10  Pass 1  IDiag  1:
 E= -500.411772395294     Delta-E=       -0.000000544310 Rises=F Damp=F
 DIIS: error= 5.55D-06 at cycle   3 NSaved=   3.
 NSaved= 3 IEnMin= 3 EnMin= -500.411772395294     IErMin= 3 ErrMin= 5.55D-06
 ErrMax= 5.55D-06 EMaxC= 1.00D-01 BMatC= 5.61D-09 BMatP= 1.81D-07
 IDIUse=1 WtCom= 1.00D+00 WtEn= 0.00D+00
 Coeff-Com:  0.934D-01 0.111D+00 0.795D+00
 Coeff:      0.934D-01 0.111D+00 0.795D+00
 Gap=     0.166 Goal=   None    Shift=    0.000
 RMSDP=7.34D-07 MaxDP=2.23D-05 DE=-5.44D-07 OVMax= 5.47D-05

 Cycle  11  Pass 1  IDiag  1:
 E= -500.411772397584     Delta-E=       -0.000000002290 Rises=F Damp=F
 DIIS: error= 3.91D-06 at cycle   4 NSaved=   4.
 NSaved= 4 IEnMin= 4 EnMin= -500.411772397584     IErMin= 4 ErrMin= 3.91D-06
 ErrMax= 3.91D-06 EMaxC= 1.00D-01 BMatC= 3.61D-09 BMatP= 5.61D-09
 IDIUse=1 WtCom= 1.00D+00 WtEn= 0.00D+00
 Coeff-Com: -0.132D-01 0.313D-01 0.527D+00 0.455D+00
 Coeff:     -0.132D-01 0.313D-01 0.527D+00 0.455D+00
 Gap=     0.166 Goal=   None    Shift=    0.000
 RMSDP=3.58D-07 MaxDP=1.35D-05 DE=-2.29D-09 OVMax= 2.96D-05

 Cycle  12  Pass 1  IDiag  1:
 E= -500.411772401465     Delta-E=       -0.000000003881 Rises=F Damp=F
 DIIS: error= 8.34D-07 at cycle   5 NSaved=   5.
 NSaved= 5 IEnMin= 5 EnMin= -500.411772401465     IErMin= 5 ErrMin= 8.34D-07
 ErrMax= 8.34D-07 EMaxC= 1.00D-01 BMatC= 1.19D-10 BMatP= 3.61D-09
 IDIUse=1 WtCom= 1.00D+00 WtEn= 0.00D+00
 Coeff-Com: -0.115D-01 0.145D-01 0.284D+00 0.268D+00 0.445D+00
 Coeff:     -0.115D-01 0.145D-01 0.284D+00 0.268D+00 0.445D+00
 Gap=     0.166 Goal=   None    Shift=    0.000
 RMSDP=7.55D-08 MaxDP=2.19D-06 DE=-3.88D-09 OVMax= 6.92D-06

 Cycle  13  Pass 1  IDiag  1:
 E= -500.411772401583     Delta-E=       -0.000000000118 Rises=F Damp=F
 DIIS: error= 1.87D-07 at cycle   6 NSaved=   6.
 NSaved= 6 IEnMin= 6 EnMin= -500.411772401583     IErMin= 6 ErrMin= 1.87D-07
 ErrMax= 1.87D-07 EMaxC= 1.00D-01 BMatC= 8.49D-12 BMatP= 1.19D-10
 IDIUse=1 WtCom= 1.00D+00 WtEn= 0.00D+00
 Coeff-Com: -0.469D-02 0.379D-02 0.860D-01 0.850D-01 0.236D+00 0.594D+00
 Coeff:     -0.469D-02 0.379D-02 0.860D-01 0.850D-01 0.236D+00 0.594D+00
 Gap=     0.166 Goal=   None    Shift=    0.000
 RMSDP=2.02D-08 MaxDP=6.03D-07 DE=-1.18D-10 OVMax= 1.86D-06

 Cycle  14  Pass 1  IDiag  1:
 E= -500.411772401573     Delta-E=        0.000000000010 Rises=F Damp=F
 DIIS: error= 4.35D-08 at cycle   7 NSaved=   7.
 NSaved= 7 IEnMin= 6 EnMin= -500.411772401583     IErMin= 7 ErrMin= 4.35D-08
 ErrMax= 4.35D-08 EMaxC= 1.00D-01 BMatC= 8.53D-13 BMatP= 8.49D-12
 IDIUse=1 WtCom= 1.00D+00 WtEn= 0.00D+00
 Coeff-Com: -0.153D-02 0.984D-03 0.232D-01 0.230D-01 0.810D-01 0.312D+00
 Coeff-Com:  0.561D+00
 Coeff:     -0.153D-02 0.984D-03 0.232D-01 0.230D-01 0.810D-01 0.312D+00
 Coeff:      0.561D+00
 Gap=     0.166 Goal=   None    Shift=    0.000
 RMSDP=6.27D-09 MaxDP=1.60D-07 DE= 1.00D-11 OVMax= 3.27D-07

 SCF Done:  E(RB3LYP) =  -500.411772402     A.U. after   14 cycles
             Convg  =    0.6269D-08             -V/T =  2.0093
 KE= 4.957821857882D+02 PE=-2.435154333644D+03 EE= 8.021880542099D+02
 Leave Link  502 at Tue Sep 28 14:15:06 2021, MaxMem=  805306368 cpu:     102.3
 (Enter /sw/target/amd/app/gaussian/Gaussian09RevA.02_gcc-4.9.2/g09/l508.exe)
 QCSCF skips out because SCF is already converged.
 Leave Link  508 at Tue Sep 28 14:15:06 2021, MaxMem=  805306368 cpu:       0.0
 (Enter /sw/target/amd/app/gaussian/Gaussian09RevA.02_gcc-4.9.2/g09/l601.exe)
 Copying SCF densities to generalized density rwf, IOpCl= 0 IROHF=0.

 **********************************************************************

            Population analysis using the SCF density.

 **********************************************************************

 Orbital symmetries:
       Occupied  (A) (A) (A) (A) (A) (A) (A) (A) (A) (A) (A) (A)
                 (A) (A) (A) (A) (A) (A) (A) (A) (A) (A) (A) (A)
                 (A) (A) (A) (A) (A) (A) (A) (A) (A) (A) (A) (A)
                 (A) (A) (A) (A) (A) (A)
       Virtual   (A) (A) (A) (A) (A) (A) (A) (A) (A) (A) (A) (A)
                 (A) (A) (A) (A) (A) (A) (A) (A) (A) (A) (A) (A)
                 (A) (A) (A) (A) (A) (A) (A) (A) (A) (A) (A) (A)
                 (A) (A) (A) (A) (A) (A) (A) (A) (A) (A) (A) (A)
                 (A) (A) (A) (A) (A) (A) (A) (A) (A) (A) (A) (A)
                 (A) (A) (A) (A) (A) (A) (A) (A) (A) (A) (A) (A)
                 (A) (A) (A) (A) (A) (A) (A) (A) (A) (A) (A) (A)
                 (A) (A) (A) (A) (A) (A) (A) (A) (A) (A) (A) (A)
                 (A) (A) (A) (A) (A) (A) (A) (A) (A) (A) (A) (A)
                 (A) (A) (A) (A) (A) (A) (A) (A) (A) (A) (A) (A)
                 (A) (A) (A) (A) (A) (A) (A) (A) (A) (A) (A) (A)
                 (A) (A) (A) (A) (A) (A) (A) (A) (A) (A) (A) (A)
                 (A) (A) (A) (A) (A) (A) (A) (A) (A) (A) (A) (A)
                 (A) (A)
 The electronic state is 1-A.
 Alpha  occ. eigenvalues --  -19.17753 -10.24520 -10.23983 -10.19229 -10.18996
 Alpha  occ. eigenvalues --  -10.18693 -10.18568 -10.18547 -10.18523 -10.18441
 Alpha  occ. eigenvalues --  -10.18341 -10.18297  -1.06192  -0.87125  -0.81519
 Alpha  occ. eigenvalues --   -0.76898  -0.74989  -0.71140  -0.69628  -0.62142
 Alpha  occ. eigenvalues --   -0.60028  -0.59449  -0.52637  -0.51204  -0.50428
 Alpha  occ. eigenvalues --   -0.46962  -0.46103  -0.44959  -0.43767  -0.42372
 Alpha  occ. eigenvalues --   -0.40752  -0.39972  -0.39033  -0.37472  -0.35448
 Alpha  occ. eigenvalues --   -0.34571  -0.33624  -0.32341  -0.29571  -0.27659
 Alpha  occ. eigenvalues --   -0.22754  -0.20077
 Alpha virt. eigenvalues --   -0.03519   0.00528   0.03796   0.09488   0.10341
 Alpha virt. eigenvalues --    0.10964   0.11661   0.12531   0.14726   0.15373
 Alpha virt. eigenvalues --    0.16663   0.17434   0.17641   0.19350   0.20629
 Alpha virt. eigenvalues --    0.21227   0.24937   0.26224   0.28984   0.31835
 Alpha virt. eigenvalues --    0.32281   0.34606   0.35644   0.38999   0.48225
 Alpha virt. eigenvalues --    0.49452   0.50033   0.51357   0.52358   0.53750
 Alpha virt. eigenvalues --    0.54293   0.55308   0.55825   0.56368   0.57441
 Alpha virt. eigenvalues --    0.57850   0.59250   0.61181   0.61386   0.61524
 Alpha virt. eigenvalues --    0.62318   0.62613   0.63482   0.63790   0.65422
 Alpha virt. eigenvalues --    0.68310   0.69219   0.70185   0.75164   0.77130
 Alpha virt. eigenvalues --    0.82488   0.82725   0.83288   0.83966   0.84519
 Alpha virt. eigenvalues --    0.85104   0.85886   0.87400   0.88216   0.90088
 Alpha virt. eigenvalues --    0.91648   0.92718   0.94186   0.95648   0.97071
 Alpha virt. eigenvalues --    0.98425   1.02425   1.04449   1.05299   1.06332
 Alpha virt. eigenvalues --    1.08511   1.13146   1.15627   1.17601   1.20648
 Alpha virt. eigenvalues --    1.22049   1.24008   1.25857   1.27512   1.34265
 Alpha virt. eigenvalues --    1.37467   1.38443   1.40414   1.42002   1.45341
 Alpha virt. eigenvalues --    1.46806   1.47532   1.48144   1.49819   1.50840
 Alpha virt. eigenvalues --    1.51194   1.53011   1.53396   1.69825   1.75024
 Alpha virt. eigenvalues --    1.79139   1.80153   1.84613   1.86284   1.87115
 Alpha virt. eigenvalues --    1.90615   1.92109   1.92480   1.94953   1.95326
 Alpha virt. eigenvalues --    1.97272   1.97490   2.01184   2.03971   2.06127
 Alpha virt. eigenvalues --    2.07108   2.10719   2.11568   2.14948   2.15981
 Alpha virt. eigenvalues --    2.18814   2.21010   2.22752   2.27074   2.28140
 Alpha virt. eigenvalues --    2.31236   2.31711   2.33933   2.35266   2.37392
 Alpha virt. eigenvalues --    2.39900   2.43083   2.52726   2.57758   2.60819
 Alpha virt. eigenvalues --    2.63161   2.64247   2.65738   2.68064   2.71362
 Alpha virt. eigenvalues --    2.77803   2.78860   2.80214   2.86222   2.88272
 Alpha virt. eigenvalues --    2.90619   3.01098   3.08211   3.14384   3.40264
 Alpha virt. eigenvalues --    3.50239   4.05108   4.09478   4.11118   4.12263
 Alpha virt. eigenvalues --    4.13989   4.20878   4.26780   4.34162   4.38954
 Alpha virt. eigenvalues --    4.43762   4.60754   4.84980
          Condensed to atoms (all electrons):
              1          2          3          4          5          6
     1  C    4.896955   0.249196  -0.044729   0.004121  -0.000141   0.000009
     2  O    0.249196   8.201668   0.273706  -0.053417   0.003096   0.000355
     3  C   -0.044729   0.273706   4.559393   0.504033  -0.003610  -0.036417
     4  C    0.004121  -0.053417   0.504033   5.019433   0.490699  -0.007411
     5  C   -0.000141   0.003096  -0.003610   0.490699   5.149255   0.437734
     6  C    0.000009   0.000355  -0.036417  -0.007411   0.437734   4.690426
     7  C    0.000476   0.002960   0.024104  -0.035511  -0.025433   0.489732
     8  C   -0.007671  -0.055683   0.422496  -0.058883  -0.078382  -0.036164
     9  C   -0.000021  -0.000055   0.007317  -0.000474   0.017104  -0.027337
    10  C   -0.000000   0.000000  -0.000283   0.000056  -0.000692  -0.040191
    11  C    0.000000  -0.000000   0.000058  -0.000363   0.008822  -0.002209
    12  C   -0.000000   0.000001  -0.000746   0.008877  -0.103501   0.443176
    13  H    0.382924  -0.031276   0.003211  -0.000114   0.000004  -0.000000
    14  H    0.362256  -0.035600  -0.003172   0.000374  -0.000017  -0.000004
    15  H    0.366689  -0.036269  -0.005386  -0.000157   0.000007   0.000005
    16  H   -0.000184   0.000093  -0.035400   0.343369  -0.037292   0.003342
    17  H    0.000003  -0.000063   0.003916  -0.042248   0.355395  -0.040175
    18  H    0.005864  -0.007019  -0.048846   0.004643   0.000492   0.004911
    19  H   -0.000004  -0.000000   0.000209   0.000014  -0.000198   0.004849
    20  H   -0.000000  -0.000000   0.000003  -0.000001   0.000010   0.001040
    21  H   -0.000000   0.000000  -0.000000   0.000003  -0.000203   0.002754
    22  H    0.000000  -0.000000   0.000011   0.000221  -0.008510  -0.042002
              7          8          9         10         11         12
     1  C    0.000476  -0.007671  -0.000021  -0.000000   0.000000  -0.000000
     2  O    0.002960  -0.055683  -0.000055   0.000000  -0.000000   0.000001
     3  C    0.024104   0.422496   0.007317  -0.000283   0.000058  -0.000746
     4  C   -0.035511  -0.058883  -0.000474   0.000056  -0.000363   0.008877
     5  C   -0.025433  -0.078382   0.017104  -0.000692   0.008822  -0.103501
     6  C    0.489732  -0.036164  -0.027337  -0.040191  -0.002209   0.443176
     7  C    4.674600   0.391639   0.448970  -0.002731  -0.040047  -0.025906
     8  C    0.391639   5.418400  -0.093101   0.008005  -0.000637   0.018138
     9  C    0.448970  -0.093101   5.129663   0.513615  -0.020733  -0.077073
    10  C   -0.002731   0.008005   0.513615   4.889815   0.509339  -0.018792
    11  C   -0.040047  -0.000637  -0.020733   0.509339   4.901872   0.506695
    12  C   -0.025906   0.018138  -0.077073  -0.018792   0.506695   5.139395
    13  H    0.000008   0.000205  -0.000000   0.000000   0.000000  -0.000000
    14  H   -0.000307   0.006843  -0.000013  -0.000000   0.000000   0.000000
    15  H   -0.000123   0.003276  -0.000006  -0.000000  -0.000000   0.000000
    16  H    0.000414   0.007326   0.000008  -0.000000   0.000003  -0.000170
    17  H    0.004631   0.000386  -0.000201   0.000012   0.000205  -0.008599
    18  H   -0.037097   0.346734  -0.008995   0.000166   0.000014  -0.000196
    19  H   -0.040818  -0.009287   0.352592  -0.045684   0.004672   0.000584
    20  H    0.002830  -0.000198  -0.037047   0.356389  -0.042307   0.004436
    21  H    0.001055   0.000011   0.004414  -0.042423   0.356477  -0.036846
    22  H    0.004479  -0.000194   0.000583   0.004676  -0.045526   0.354732
             13         14         15         16         17         18
     1  C    0.382924   0.362256   0.366689  -0.000184   0.000003   0.005864
     2  O   -0.031276  -0.035600  -0.036269   0.000093  -0.000063  -0.007019
     3  C    0.003211  -0.003172  -0.005386  -0.035400   0.003916  -0.048846
     4  C   -0.000114   0.000374  -0.000157   0.343369  -0.042248   0.004643
     5  C    0.000004  -0.000017   0.000007  -0.037292   0.355395   0.000492
     6  C   -0.000000  -0.000004   0.000005   0.003342  -0.040175   0.004911
     7  C    0.000008  -0.000307  -0.000123   0.000414   0.004631  -0.037097
     8  C    0.000205   0.006843   0.003276   0.007326   0.000386   0.346734
     9  C   -0.000000  -0.000013  -0.000006   0.000008  -0.000201  -0.008995
    10  C    0.000000  -0.000000  -0.000000  -0.000000   0.000012   0.000166
    11  C    0.000000   0.000000  -0.000000   0.000003   0.000205   0.000014
    12  C   -0.000000   0.000000   0.000000  -0.000170  -0.008599  -0.000196
    13  H    0.545894  -0.031515  -0.036385  -0.000031  -0.000000  -0.000146
    14  H   -0.031515   0.590501  -0.045814   0.000035   0.000000   0.001342
    15  H   -0.036385  -0.045814   0.598822   0.000028  -0.000000   0.002499
    16  H   -0.000031   0.000035   0.000028   0.586318  -0.005845  -0.000171
    17  H   -0.000000   0.000000  -0.000000  -0.005845   0.593596   0.000019
    18  H   -0.000146   0.001342   0.002499  -0.000171   0.000019   0.601335
    19  H    0.000000  -0.000002  -0.000006  -0.000000   0.000003   0.006771
    20  H   -0.000000   0.000000   0.000000   0.000000  -0.000000  -0.000012
    21  H    0.000000  -0.000000  -0.000000  -0.000000  -0.000011   0.000000
    22  H    0.000000   0.000000  -0.000000  -0.000011   0.006147   0.000003
             19         20         21         22
     1  C   -0.000004  -0.000000  -0.000000   0.000000
     2  O   -0.000000  -0.000000   0.000000  -0.000000
     3  C    0.000209   0.000003  -0.000000   0.000011
     4  C    0.000014  -0.000001   0.000003   0.000221
     5  C   -0.000198   0.000010  -0.000203  -0.008510
     6  C    0.004849   0.001040   0.002754  -0.042002
     7  C   -0.040818   0.002830   0.001055   0.004479
     8  C   -0.009287  -0.000198   0.000011  -0.000194
     9  C    0.352592  -0.037047   0.004414   0.000583
    10  C   -0.045684   0.356389  -0.042423   0.004676
    11  C    0.004672  -0.042307   0.356477  -0.045526
    12  C    0.000584   0.004436  -0.036846   0.354732
    13  H    0.000000  -0.000000   0.000000   0.000000
    14  H   -0.000002   0.000000  -0.000000   0.000000
    15  H   -0.000006   0.000000  -0.000000  -0.000000
    16  H   -0.000000   0.000000  -0.000000  -0.000011
    17  H    0.000003  -0.000000  -0.000011   0.006147
    18  H    0.006771  -0.000012   0.000000   0.000003
    19  H    0.607813  -0.005398  -0.000201   0.000020
    20  H   -0.005398   0.598762  -0.005280  -0.000201
    21  H   -0.000201  -0.005280   0.600011  -0.005319
    22  H    0.000020  -0.000201  -0.005319   0.603476
 Mulliken atomic charges:
              1
     1  C   -0.215745
     2  O   -0.511694
     3  C    0.380133
     4  C   -0.177265
     5  C   -0.204639
     6  C    0.153578
     7  C    0.162074
     8  C   -0.283259
     9  C   -0.209210
    10  C   -0.131276
    11  C   -0.136335
    12  C   -0.204204
    13  H    0.167223
    14  H    0.155093
    15  H    0.152821
    16  H    0.138167
    17  H    0.132830
    18  H    0.127688
    19  H    0.124073
    20  H    0.126976
    21  H    0.125559
    22  H    0.127414
 Sum of Mulliken atomic charges =  -0.00000
 Mulliken charges with hydrogens summed into heavy atoms:
              1
     1  C    0.259391
     2  O   -0.511694
     3  C    0.380133
     4  C   -0.039098
     5  C   -0.071809
     6  C    0.153578
     7  C    0.162074
     8  C   -0.155571
     9  C   -0.085138
    10  C   -0.004301
    11  C   -0.010776
    12  C   -0.076789
 Sum of Mulliken charges with hydrogens summed into heavy atoms =  -0.00000
 Electronic spatial extent (au):  <R**2>=           2212.0661
 Charge=             -0.0000 electrons
 Dipole moment (field-independent basis, Debye):
    X=             -0.4577    Y=             -1.0206    Z=              0.3582  Tot=              1.1745
 Quadrupole moment (field-independent basis, Debye-Ang):
   XX=            -61.6655   YY=            -61.5974   ZZ=            -73.3867
   XY=              4.8773   XZ=             -1.0502   YZ=              0.2189
 Traceless Quadrupole moment (field-independent basis, Debye-Ang):
   XX=              3.8844   YY=              3.9525   ZZ=             -7.8369
   XY=              4.8773   XZ=             -1.0502   YZ=              0.2189
 Octapole moment (field-independent basis, Debye-Ang**2):
  XXX=            -16.3503  YYY=              3.0968  ZZZ=              0.2588  XYY=             -5.1792
  XXY=            -18.5053  XXZ=              5.7835  XZZ=            -11.1272  YZZ=             -1.1931
  YYZ=             -0.3032  XYZ=              0.9949
 Hexadecapole moment (field-independent basis, Debye-Ang**3):
 XXXX=          -1999.0563 YYYY=           -621.1049 ZZZZ=            -84.5608 XXXY=             62.0426
 XXXZ=            -13.7275 YYYX=             -2.7067 YYYZ=              2.8737 ZZZX=             -0.9427
 ZZZY=             -1.0810 XXYY=           -437.2637 XXZZ=           -401.5965 YYZZ=           -135.7240
 XXYZ=             -0.8853 YYXZ=              1.0885 ZZXY=              5.2954
 N-N= 6.367723212447D+02 E-N=-2.435154331464D+03  KE= 4.957821857882D+02
 No NMR shielding tensors so no spin-rotation constants.
 Leave Link  601 at Tue Sep 28 14:15:07 2021, MaxMem=  805306368 cpu:       0.5
 (Enter /sw/target/amd/app/gaussian/Gaussian09RevA.02_gcc-4.9.2/g09/l701.exe)
 Compute integral first derivatives.
 ... and contract with generalized density number  0.
 Leave Link  701 at Tue Sep 28 14:15:07 2021, MaxMem=  805306368 cpu:       0.6
 (Enter /sw/target/amd/app/gaussian/Gaussian09RevA.02_gcc-4.9.2/g09/l702.exe)
 L702 exits ... SP integral derivatives will be done elsewhere.
 Leave Link  702 at Tue Sep 28 14:15:07 2021, MaxMem=  805306368 cpu:       0.0
 (Enter /sw/target/amd/app/gaussian/Gaussian09RevA.02_gcc-4.9.2/g09/l703.exe)
 Compute integral first derivatives, UseDBF=F ICtDFT=           0.
 Integral derivatives from FoFDir, PRISM(SPDF).
 Calling FoFJK, ICntrl=      2127 FMM=F ISym2X=0 I1Cent= 0 IOpClX= 0 NMat=1 NMatS=1 NMatT=0.
 FoFCou: FMM=F IPFlag=           0 FMFlag=      100000 FMFlg1=         800
         NFxFlg=           0 DoJE=F BraDBF=F KetDBF=F FulRan=T
         Omega=  0.000000  0.000000  1.000000  0.000000  0.000000 ICntrl=    2127 IOpCl=  0
         NMat0=    1 NMatS0=    1 NMatT0=    0 NMatD0=    1 NMtDS0=    0 NMtDT0=    0
         I1Cent=           0 NGrid=           0.
 Symmetry not used in FoFCou.
 Leave Link  703 at Tue Sep 28 14:15:20 2021, MaxMem=  805306368 cpu:      38.6
 (Enter /sw/target/amd/app/gaussian/Gaussian09RevA.02_gcc-4.9.2/g09/l716.exe)
 Dipole        =-1.80065195D-01-4.01548978D-01 1.40926709D-01
 ***** Axes restored to original set *****
 -------------------------------------------------------------------
 Center     Atomic                   Forces (Hartrees/Bohr)
 Number     Number              X              Y              Z
 -------------------------------------------------------------------
      1        6          -0.005632811   -0.001375730    0.002760316
      2        8           0.005055408   -0.001769214    0.003800811
      3        6           0.011604025   -0.016001547    0.000582269
      4        6           0.001460196    0.027983509   -0.022162107
      5        6          -0.024013123   -0.005717880    0.021365310
      6        6           0.000990354    0.010586365   -0.008495986
      7        6           0.000751789   -0.008367957    0.005577068
      8        6          -0.014789880   -0.003660980    0.014882312
      9        6           0.020105992    0.000317619   -0.015311595
     10        6          -0.003380418   -0.017980552    0.015607182
     11        6          -0.014872176    0.018847017   -0.002734051
     12        6           0.020815475   -0.000945700   -0.014748424
     13        1          -0.002547621    0.002793494   -0.002688497
     14        1           0.002843614   -0.001046045   -0.002650193
     15        1           0.003613300   -0.001418445   -0.000476078
     16        1           0.000705637   -0.002104595    0.001465515
     17        1           0.001626817   -0.000476181   -0.000887783
     18        1           0.000385436    0.000600757    0.000392777
     19        1          -0.002153118    0.000214061    0.001617556
     20        1          -0.000125713   -0.000572854    0.000503094
     21        1          -0.000410053    0.000387726   -0.000033548
     22        1          -0.002033129   -0.000292867    0.001634054
 -------------------------------------------------------------------
 Cartesian Forces:  Max     0.027983509 RMS     0.009606130
 Leave Link  716 at Tue Sep 28 14:15:20 2021, MaxMem=  805306368 cpu:       0.0
 (Enter /sw/target/amd/app/gaussian/Gaussian09RevA.02_gcc-4.9.2/g09/l103.exe)

 GradGradGradGradGradGradGradGradGradGradGradGradGradGradGradGradGradGrad
 Berny optimization.
 Internal  Forces:  Max     0.020651947 RMS     0.004938581
 Search for a local minimum.
 Step number   1 out of a maximum of  119
 All quantities printed in internal units (Hartrees-Bohrs-Radians)
 RMS Force = .49386D-02 SwitMx=.10000D-02 MixMth= 1
 Mixed Optimization -- RFO/linear search
 Second derivative matrix not updated -- first step.
     Eigenvalues ---    0.01395   0.01979   0.01990   0.02010   0.02063
     Eigenvalues ---    0.02080   0.02081   0.02087   0.02091   0.02101
     Eigenvalues ---    0.02113   0.02140   0.02146   0.02153   0.02161
     Eigenvalues ---    0.02164   0.02179   0.09980   0.10541   0.15999
     Eigenvalues ---    0.16000   0.16000   0.16000   0.16000   0.16000
     Eigenvalues ---    0.16000   0.16000   0.16000   0.16000   0.22000
     Eigenvalues ---    0.22295   0.22707   0.23518   0.24367   0.24750
     Eigenvalues ---    0.24997   0.25000   0.34188   0.34290   0.34322
     Eigenvalues ---    0.35065   0.35065   0.35106   0.35149   0.35182
     Eigenvalues ---    0.35185   0.35362   0.38538   0.41047   0.41675
     Eigenvalues ---    0.42099   0.43602   0.44534   0.45441   0.45720
     Eigenvalues ---    0.45741   0.45819   0.46380   0.46663   0.51326
     Eigenvalues --- 1000.000001000.000001000.000001000.000001000.00000
     Eigenvalues --- 1000.000001000.000001000.000001000.000001000.00000
     Eigenvalues --- 1000.000001000.000001000.000001000.000001000.00000
     Eigenvalues --- 1000.000001000.000001000.000001000.000001000.00000
     Eigenvalues --- 1000.000001000.000001000.000001000.000001000.00000
     Eigenvalues --- 1000.000001000.000001000.000001000.000001000.00000
     Eigenvalues --- 1000.000001000.000001000.000001000.000001000.00000
     Eigenvalues --- 1000.000001000.000001000.000001000.000001000.00000
     Eigenvalues --- 1000.000001000.000001000.000001000.000001000.00000
     Eigenvalues --- 1000.000001000.000001000.000001000.00000
 RFO step:  Lambda=-7.03567165D-03 EMin= 1.39528423D-02
 Linear search not attempted -- first point.
 Iteration  1 RMS(Cart)=  0.04819119 RMS(Int)=  0.00130348
 Iteration  2 RMS(Cart)=  0.00182164 RMS(Int)=  0.00004956
 Iteration  3 RMS(Cart)=  0.00000304 RMS(Int)=  0.00004951
 Iteration  4 RMS(Cart)=  0.00000000 RMS(Int)=  0.00004951
 Variable       Old X    -DE/DX   Delta X   Delta X   Delta X     New X
                                 (Linear)    (Quad)   (Total)
    R1        2.68797  -0.00177   0.00000  -0.00413  -0.00413   2.68384
    R2        2.06791  -0.00084   0.00000  -0.00240  -0.00240   2.06551
    R3        2.07014   0.00107   0.00000   0.00305   0.00305   2.07320
    R4        2.06843   0.00189   0.00000   0.00539   0.00539   2.07381
    R5        2.58550  -0.00042   0.00000  -0.00080  -0.00080   2.58470
    R6        2.63496   0.02065   0.00000   0.04207   0.04206   2.67702
    R7        2.63854  -0.01010   0.00000  -0.02209  -0.02211   2.61643
    R8        2.63831  -0.01691   0.00000  -0.03706  -0.03706   2.60126
    R9        2.05433  -0.00102   0.00000  -0.00285  -0.00285   2.05149
   R10        2.64872   0.01536   0.00000   0.03392   0.03393   2.68265
   R11        2.05503  -0.00060   0.00000  -0.00169  -0.00169   2.05335
   R12        2.67226   0.01719   0.00000   0.04250   0.04251   2.71477
   R13        2.65333   0.01125   0.00000   0.02550   0.02550   2.67883
   R14        2.65995   0.01076   0.00000   0.02494   0.02494   2.68489
   R15        2.65481   0.01065   0.00000   0.02420   0.02420   2.67901
   R16        2.05091  -0.00025   0.00000  -0.00068  -0.00068   2.05023
   R17        2.63802  -0.01162   0.00000  -0.02558  -0.02558   2.61244
   R18        2.05569  -0.00027   0.00000  -0.00075  -0.00075   2.05494
   R19        2.62984   0.01851   0.00000   0.03714   0.03714   2.66698
   R20        2.05381  -0.00003   0.00000  -0.00007  -0.00007   2.05374
   R21        2.63699  -0.01171   0.00000  -0.02566  -0.02566   2.61133
   R22        2.05376  -0.00002   0.00000  -0.00007  -0.00007   2.05369
   R23        2.05569  -0.00032   0.00000  -0.00089  -0.00089   2.05480
    A1        1.88071  -0.00592   0.00000  -0.03261  -0.03255   1.84816
    A2        1.94286  -0.00014   0.00000  -0.00216  -0.00214   1.94072
    A3        1.93772   0.00260   0.00000   0.01394   0.01400   1.95173
    A4        1.87930   0.00420   0.00000   0.02822   0.02823   1.90753
    A5        1.87982   0.00267   0.00000   0.01852   0.01862   1.89845
    A6        1.94031  -0.00335   0.00000  -0.02497  -0.02494   1.91537
    A7        2.03196   0.00571   0.00000   0.02220   0.02220   2.05416
    A8        2.00357   0.00095   0.00000   0.00528   0.00530   2.00888
    A9        2.19579  -0.00528   0.00000  -0.01898  -0.01895   2.17684
   A10        2.08373   0.00433   0.00000   0.01368   0.01363   2.09736
   A11        2.10461   0.00080   0.00000  -0.00096  -0.00101   2.10360
   A12        2.08936  -0.00291   0.00000  -0.01447  -0.01447   2.07489
   A13        2.08916   0.00211   0.00000   0.01554   0.01554   2.10470
   A14        2.10411   0.00189   0.00000   0.00839   0.00839   2.11250
   A15        2.07499   0.00092   0.00000   0.00698   0.00698   2.08197
   A16        2.10409  -0.00281   0.00000  -0.01538  -0.01538   2.08871
   A17        2.08029  -0.00404   0.00000  -0.01336  -0.01335   2.06694
   A18        2.11890   0.00575   0.00000   0.01716   0.01716   2.13606
   A19        2.08400  -0.00171   0.00000  -0.00380  -0.00381   2.08019
   A20        2.08505  -0.00076   0.00000   0.00035   0.00034   2.08539
   A21        2.07817  -0.00260   0.00000  -0.00779  -0.00779   2.07038
   A22        2.11996   0.00336   0.00000   0.00744   0.00745   2.12741
   A23        2.10831  -0.00221   0.00000  -0.00771  -0.00776   2.10055
   A24        2.10608   0.00118   0.00000   0.00432   0.00434   2.11042
   A25        2.06877   0.00103   0.00000   0.00343   0.00345   2.07221
   A26        2.10916  -0.00039   0.00000  -0.00106  -0.00107   2.10809
   A27        2.10083  -0.00257   0.00000  -0.01601  -0.01600   2.08483
   A28        2.07319   0.00296   0.00000   0.01707   0.01707   2.09027
   A29        2.09411   0.00329   0.00000   0.01001   0.01001   2.10411
   A30        2.09407  -0.00244   0.00000  -0.00977  -0.00977   2.08430
   A31        2.09500  -0.00085   0.00000  -0.00024  -0.00024   2.09477
   A32        2.09363   0.00154   0.00000   0.00241   0.00241   2.09604
   A33        2.09573  -0.00020   0.00000   0.00224   0.00224   2.09796
   A34        2.09383  -0.00135   0.00000  -0.00465  -0.00465   2.08918
   A35        2.10728  -0.00014   0.00000   0.00027   0.00028   2.10755
   A36        2.10036  -0.00261   0.00000  -0.01615  -0.01615   2.08421
   A37        2.07555   0.00274   0.00000   0.01588   0.01588   2.09143
    D1        2.99758  -0.00004   0.00000  -0.00559  -0.00552   2.99206
    D2        0.94065  -0.00145   0.00000  -0.01873  -0.01874   0.92191
    D3       -1.23096   0.00109   0.00000   0.00505   0.00499  -1.22597
    D4       -2.86991  -0.00252   0.00000  -0.08979  -0.08976  -2.95967
    D5        0.28656  -0.00250   0.00000  -0.08845  -0.08847   0.19808
    D6        3.13059   0.00057   0.00000   0.02035   0.02040  -3.13220
    D7        0.00015   0.00024   0.00000   0.00945   0.00961   0.00976
    D8       -0.02485   0.00047   0.00000   0.01881   0.01888  -0.00597
    D9        3.12789   0.00014   0.00000   0.00791   0.00810   3.13599
   D10       -3.13581  -0.00044   0.00000  -0.01432  -0.01422   3.13316
   D11        0.01370  -0.00056   0.00000  -0.01939  -0.01933  -0.00564
   D12        0.02129  -0.00039   0.00000  -0.01284  -0.01279   0.00850
   D13       -3.11239  -0.00051   0.00000  -0.01791  -0.01790  -3.13030
   D14        0.01033  -0.00039   0.00000  -0.01191  -0.01179  -0.00147
   D15       -3.12998  -0.00030   0.00000  -0.00935  -0.00925  -3.13924
   D16        3.14077  -0.00010   0.00000  -0.00120  -0.00101   3.13975
   D17        0.00046  -0.00001   0.00000   0.00136   0.00152   0.00198
   D18        0.00792  -0.00008   0.00000  -0.00190  -0.00181   0.00610
   D19       -3.13537  -0.00002   0.00000   0.00005   0.00010  -3.13526
   D20       -3.13498  -0.00017   0.00000  -0.00449  -0.00435  -3.13933
   D21        0.00492  -0.00010   0.00000  -0.00254  -0.00243   0.00249
   D22       -0.01137   0.00022   0.00000   0.00787   0.00786  -0.00351
   D23        3.13141   0.00016   0.00000   0.00560   0.00558   3.13700
   D24        3.13188   0.00015   0.00000   0.00594   0.00598   3.13786
   D25       -0.00852   0.00009   0.00000   0.00367   0.00371  -0.00482
   D26       -3.13625  -0.00006   0.00000  -0.00222  -0.00223  -3.13849
   D27        0.00619  -0.00011   0.00000  -0.00370  -0.00368   0.00251
   D28        0.00365   0.00000   0.00000  -0.00028  -0.00031   0.00334
   D29       -3.13710  -0.00005   0.00000  -0.00175  -0.00176  -3.13885
   D30       -0.00322   0.00000   0.00000  -0.00049  -0.00051  -0.00373
   D31        3.13063   0.00012   0.00000   0.00448   0.00450   3.13513
   D32        3.13715   0.00006   0.00000   0.00183   0.00183   3.13898
   D33       -0.01218   0.00017   0.00000   0.00679   0.00684  -0.00534
   D34        0.00715  -0.00012   0.00000  -0.00431  -0.00432   0.00283
   D35       -3.13596  -0.00007   0.00000  -0.00234  -0.00235  -3.13831
   D36       -3.13323  -0.00017   0.00000  -0.00663  -0.00665  -3.13988
   D37        0.00684  -0.00012   0.00000  -0.00466  -0.00468   0.00216
   D38       -0.00074   0.00003   0.00000   0.00147   0.00148   0.00074
   D39        3.13971   0.00004   0.00000   0.00205   0.00207  -3.14140
   D40       -3.14084  -0.00001   0.00000  -0.00044  -0.00047  -3.14130
   D41       -0.00039   0.00000   0.00000   0.00014   0.00013  -0.00026
   D42       -0.00429   0.00004   0.00000   0.00193   0.00195  -0.00233
   D43        3.13861   0.00001   0.00000   0.00078   0.00080   3.13941
   D44        3.13845   0.00003   0.00000   0.00135   0.00136   3.13982
   D45       -0.00183  -0.00000   0.00000   0.00020   0.00021  -0.00162
   D46        0.00281  -0.00008   0.00000  -0.00258  -0.00257   0.00024
   D47       -3.13962  -0.00003   0.00000  -0.00114  -0.00114  -3.14075
   D48       -3.14009  -0.00005   0.00000  -0.00143  -0.00142  -3.14150
   D49        0.00067  -0.00001   0.00000   0.00001   0.00002   0.00069
         Item               Value     Threshold  Converged?
 Maximum Force            0.020652     0.000450     NO 
 RMS     Force            0.004939     0.000300     NO 
 Maximum Displacement     0.244974     0.001800     NO 
 RMS     Displacement     0.048409     0.001200     NO 
 Predicted change in Energy=-3.647727D-03
 GradGradGradGradGradGradGradGradGradGradGradGradGradGradGradGradGradGrad

 Leave Link  103 at Tue Sep 28 14:15:20 2021, MaxMem=  805306368 cpu:       0.5
 (Enter /sw/target/amd/app/gaussian/Gaussian09RevA.02_gcc-4.9.2/g09/l202.exe)
                          Input orientation:                          
 ---------------------------------------------------------------------
 Center     Atomic      Atomic             Coordinates (Angstroms)
 Number     Number       Type             X           Y           Z
 ---------------------------------------------------------------------
      1          6           0        2.928370   -1.014796    0.814093
      2          8           0        2.418330    0.049572    0.024137
      3          6           0        3.218054    0.543606   -0.969418
      4          6           0        2.760519    1.742965   -1.568588
      5          6           0        3.473934    2.331700   -2.588028
      6          6           0        4.682017    1.756944   -3.062845
      7          6           0        5.142794    0.537547   -2.459058
      8          6           0        4.387253   -0.052580   -1.410476
      9          6           0        6.345799   -0.043091   -2.933859
     10          6           0        7.064014    0.551872   -3.954318
     11          6           0        6.612964    1.752128   -4.543999
     12          6           0        5.443171    2.342713   -4.105458
     13          1           0        2.214225   -1.150571    1.630336
     14          1           0        3.911665   -0.763601    1.230787
     15          1           0        2.995269   -1.950187    0.244103
     16          1           0        1.838373    2.189685   -1.209959
     17          1           0        3.105617    3.252675   -3.031664
     18          1           0        4.743327   -0.976681   -0.967383
     19          1           0        6.705373   -0.967706   -2.488555
     20          1           0        7.983323    0.087532   -4.301267
     21          1           0        7.183152    2.216005   -5.344478
     22          1           0        5.099227    3.267028   -4.563369
 ---------------------------------------------------------------------
                    Distance matrix (angstroms):
                    1          2          3          4          5
     1  C    0.000000
     2  O    1.420229   0.000000
     3  C    2.386094   1.367764   0.000000
     4  C    3.648368   2.349776   1.416618   0.000000
     5  C    4.803238   3.625715   2.425418   1.376527   0.000000
     6  C    5.078234   4.191521   2.828040   2.434164   1.419599
     7  C    4.245817   3.718478   2.433863   2.814464   2.453714
     8  C    2.828940   2.438279   1.384556   2.428013   2.811685
     9  C    5.164317   4.917656   3.739790   4.231808   3.742571
    10  C    6.503517   6.137001   4.868378   5.062656   4.233582
    11  C    7.066912   6.431292   5.075783   4.867699   3.743693
    12  C    6.465220   5.609074   4.245312   3.740592   2.486083
    13  H    1.093020   2.015411   3.261385   4.347886   5.613170
    14  H    1.097088   2.085019   2.651563   3.929951   4.935164
    15  H    1.097415   2.092912   2.782313   4.120720   5.156029
    16  H    3.943802   2.537602   2.161240   1.085600   2.143432
    17  H    5.747396   4.479971   3.406546   2.130470   1.086584
    18  H    2.543458   2.727988   2.153540   3.418984   3.896567
    19  H    5.017515   5.072200   4.093072   4.874008   4.619326
    20  H    7.275616   7.048383   5.832410   6.122555   5.320345
    21  H    8.152866   7.497932   6.136780   5.834449   4.622737
    22  H    7.208587   6.211638   4.885931   4.094025   2.723672
                    6          7          8          9         10
     6  C    0.000000
     7  C    1.436594   0.000000
     8  C    2.468114   1.420781   0.000000
     9  C    2.454574   1.417673   2.481268   0.000000
    10  C    2.814398   2.434562   3.741864   1.382443   0.000000
    11  C    2.433598   2.825524   4.246143   2.426261   1.411307
    12  C    1.417576   2.461602   3.757036   2.807034   2.420142
    13  H    6.047280   5.305602   3.895404   6.255262   7.589936
    14  H    5.038042   4.101661   2.776329   4.877337   6.209113
    15  H    5.246317   4.255322   2.876832   4.996250   6.359381
    16  H    3.421514   3.899873   3.400698   5.317331   6.125460
    17  H    2.173297   3.442366   3.898147   4.622815   4.880014
    18  H    3.444913   2.162766   1.084934   2.703060   4.079686
    19  H    3.442019   2.169864   2.715399   1.087429   2.141541
    20  H    3.901185   3.415385   4.616062   2.137371   1.086791
    21  H    3.416469   3.912279   5.332907   3.408190   2.171653
    22  H    2.169330   3.446751   4.633297   3.894372   3.406377
                   11         12         13         14         15
    11  C    0.000000
    12  C    1.381856   0.000000
    13  H    8.117696   7.451742   0.000000
    14  H    6.853763   6.361620   1.786250   0.000000
    15  H    7.051296   6.583304   1.780746   1.794802   0.000000
    16  H    5.839863   4.626219   4.400665   4.356338   4.537758
    17  H    4.103691   2.728594   6.474365   5.911740   6.149194
    18  H    4.871768   4.621220   3.629703   2.359876   2.339042
    19  H    3.410409   3.894406   6.096648   4.656175   4.711429
    20  H    2.169719   3.402433   8.366559   6.921449   7.049353
    21  H    1.086766   2.139803   9.201745   7.925578   8.131897
    22  H    2.141657   1.087354   8.136363   7.157410   7.399849
                   16         17         18         19         20
    16  H    0.000000
    17  H    2.460582   0.000000
    18  H    4.303891   4.983051   0.000000
    19  H    5.940675   5.573583   2.482674   0.000000
    20  H    7.192749   5.951641   4.769162   2.456137   0.000000
    21  H    6.757337   4.801050   5.941797   4.303555   2.501791
    22  H    4.799916   2.514122   5.573764   4.981720   4.300686
                   21         22
    21  H    0.000000
    22  H    2.461203   0.000000
 Stoichiometry    C11H10O
 Framework group  C1[X(C11H10O)]
 Deg. of freedom    60
 Full point group                 C1      NOp   1
 Largest Abelian subgroup         C1      NOp   1
 Largest concise Abelian subgroup C1      NOp   1
                         Standard orientation:                         
 ---------------------------------------------------------------------
 Center     Atomic      Atomic             Coordinates (Angstroms)
 Number     Number       Type             X           Y           Z
 ---------------------------------------------------------------------
      1          6           0       -3.641789   -1.099922    0.115901
      2          8           0       -3.083379    0.190960   -0.081204
      3          6           0       -1.720942    0.306331   -0.046085
      4          6           0       -1.230944    1.635185   -0.016790
      5          6           0        0.123279    1.880658    0.008663
      6          6           0        1.060549    0.814457    0.008045
      7          6           0        0.563557   -0.532961   -0.027554
      8          6           0       -0.838572   -0.760585   -0.056519
      9          6           0        1.495993   -1.600818   -0.034026
     10          6           0        2.855706   -1.353057   -0.003330
     11          6           0        3.343076   -0.029158    0.036037
     12          6           0        2.460593    1.034195    0.041437
     13          1           0       -4.720570   -0.948815    0.205844
     14          1           0       -3.262185   -1.559920    1.036718
     15          1           0       -3.447918   -1.762879   -0.736873
     16          1           0       -1.941344    2.456070   -0.014415
     17          1           0        0.476953    2.907781    0.033139
     18          1           0       -1.200360   -1.782891   -0.089416
     19          1           0        1.134628   -2.626012   -0.063942
     20          1           0        3.550852   -2.188432   -0.009206
     21          1           0        4.413116    0.158987    0.062086
     22          1           0        2.840811    2.052476    0.071031
 ---------------------------------------------------------------------
 Rotational constants (GHZ):      2.3308323      0.6185816      0.4908280
 Leave Link  202 at Tue Sep 28 14:15:20 2021, MaxMem=  805306368 cpu:       0.0
 (Enter /sw/target/amd/app/gaussian/Gaussian09RevA.02_gcc-4.9.2/g09/l301.exe)
 Standard basis: 6-31G(d) (6D, 7F)
 Ernie: Thresh=  0.10000D-02 Tol=  0.10000D-05 Strict=F.
 There are   200 symmetry adapted basis functions of A   symmetry.
 Integral buffers will be    131072 words long.
 Raffenetti 2 integral format.
 Two-electron integral symmetry is turned on.
   200 basis functions,   376 primitive gaussians,   200 cartesian basis functions
    42 alpha electrons       42 beta electrons
       nuclear repulsion energy       634.6155450348 Hartrees.
 IExCor=  402 DFT=T Ex+Corr=B3LYP ExCW=0 ScaHFX=  0.200000
 ScaDFX=  0.800000  0.720000  1.000000  0.810000 ScalE2=  1.000000  1.000000
 IRadAn=      0 IRanWt=     -1 IRanGd=            0 ICorTp=0
 NAtoms=   22 NActive=   22 NUniq=   22 SFac= 7.50D-01 NAtFMM=   80 NAOKFM=F Big=F
 Leave Link  301 at Tue Sep 28 14:15:20 2021, MaxMem=  805306368 cpu:       0.1
 (Enter /sw/target/amd/app/gaussian/Gaussian09RevA.02_gcc-4.9.2/g09/l302.exe)
 NPDir=0 NMtPBC=     1 NCelOv=     1 NCel=       1 NClECP=     1 NCelD=      1
         NCelK=      1 NCelE2=     1 NClLst=     1 CellRange=     0.0.
 One-electron integrals computed using PRISM.
 NBasis=   200 RedAO= T  NBF=   200
 NBsUse=   200 1.00D-06 NBFU=   200
 Precomputing XC quadrature grid using
 IXCGrd= 2 IRadAn=           0 IRanWt=          -1 IRanGd=           0 AccXCQ= 1.00D-10.
 NRdTot=    1387 NPtTot=      176334 NUsed=      186342 NTot=      186374
 NSgBfM=   199   199   199   199   199 NAtAll=    22    22.
 Leave Link  302 at Tue Sep 28 14:15:21 2021, MaxMem=  805306368 cpu:       1.0
 (Enter /sw/target/amd/app/gaussian/Gaussian09RevA.02_gcc-4.9.2/g09/l303.exe)
 DipDrv:  MaxL=1.
 Leave Link  303 at Tue Sep 28 14:15:21 2021, MaxMem=  805306368 cpu:       0.1
 (Enter /sw/target/amd/app/gaussian/Gaussian09RevA.02_gcc-4.9.2/g09/l401.exe)
 Initial guess read from the read-write file.
 B after Tr=     0.000000    0.000000    0.000000
         Rot=    1.000000    0.000000    0.000000    0.000000 Ang=   0.00 deg.
 Guess basis will be translated and rotated to current coordinates.
 Initial guess orbital symmetries:
       Occupied  (A) (A) (A) (A) (A) (A) (A) (A) (A) (A) (A) (A)
                 (A) (A) (A) (A) (A) (A) (A) (A) (A) (A) (A) (A)
                 (A) (A) (A) (A) (A) (A) (A) (A) (A) (A) (A) (A)
                 (A) (A) (A) (A) (A) (A)
       Virtual   (A) (A) (A) (A) (A) (A) (A) (A) (A) (A) (A) (A)
                 (A) (A) (A) (A) (A) (A) (A) (A) (A) (A) (A) (A)
                 (A) (A) (A) (A) (A) (A) (A) (A) (A) (A) (A) (A)
                 (A) (A) (A) (A) (A) (A) (A) (A) (A) (A) (A) (A)
                 (A) (A) (A) (A) (A) (A) (A) (A) (A) (A) (A) (A)
                 (A) (A) (A) (A) (A) (A) (A) (A) (A) (A) (A) (A)
                 (A) (A) (A) (A) (A) (A) (A) (A) (A) (A) (A) (A)
                 (A) (A) (A) (A) (A) (A) (A) (A) (A) (A) (A) (A)
                 (A) (A) (A) (A) (A) (A) (A) (A) (A) (A) (A) (A)
                 (A) (A) (A) (A) (A) (A) (A) (A) (A) (A) (A) (A)
                 (A) (A) (A) (A) (A) (A) (A) (A) (A) (A) (A) (A)
                 (A) (A) (A) (A) (A) (A) (A) (A) (A) (A) (A) (A)
                 (A) (A) (A) (A) (A) (A) (A) (A) (A) (A) (A) (A)
                 (A) (A)
 The electronic state of the initial guess is 1-A.
 Generating alternative initial guess.
 Harris functional with IExCor=  402 diagonalized for initial guess.
 ExpMin= 1.61D-01 ExpMax= 5.48D+03 ExpMxC= 8.25D+02 IAcc=1 IRadAn=         1 AccDes= 0.00D+00
 HarFok:  IExCor=  402 AccDes= 0.00D+00 IRadAn=         1 IDoV= 1
 ScaDFX=  1.000000  1.000000  1.000000  1.000000
 FoFCou: FMM=F IPFlag=           0 FMFlag=      100000 FMFlg1=           0
         NFxFlg=           0 DoJE=T BraDBF=F KetDBF=T FulRan=T
[...]
     8  C   -0.009801  -0.000196   0.000011  -0.000193
     9  C    0.351125  -0.038355   0.004157   0.000549
    10  C   -0.045437   0.357934  -0.038967   0.004560
    11  C    0.004888  -0.042011   0.355543  -0.047974
    12  C    0.000555   0.004485  -0.039842   0.354532
    13  H    0.000000  -0.000000   0.000000   0.000000
    14  H   -0.000004   0.000000  -0.000000  -0.000000
    15  H   -0.000004   0.000000  -0.000000  -0.000000
    16  H   -0.000000   0.000000  -0.000000  -0.000011
    17  H    0.000003  -0.000000  -0.000010   0.006422
    18  H    0.006854  -0.000013  -0.000000   0.000003
    19  H    0.621748  -0.006053  -0.000190   0.000020
    20  H   -0.006053   0.609796  -0.005117  -0.000195
    21  H   -0.000190  -0.005117   0.595043  -0.005492
    22  H    0.000020  -0.000195  -0.005492   0.608081
 Mulliken atomic charges:
              1
     1  C   -0.228060
     2  O   -0.462030
     3  C    0.380801
     4  C   -0.197960
     5  C   -0.209889
     6  C    0.149956
     7  C    0.134498
     8  C   -0.263741
     9  C   -0.205277
    10  C   -0.159462
    11  C   -0.112439
    12  C   -0.216482
    13  H    0.180797
    14  H    0.169285
    15  H    0.169293
    16  H    0.125739
    17  H    0.125013
    18  H    0.135662
    19  H    0.114482
    20  H    0.115371
    21  H    0.131243
    22  H    0.123200
 Sum of Mulliken atomic charges =  -0.00000
 Mulliken charges with hydrogens summed into heavy atoms:
              1
     1  C    0.291315
     2  O   -0.462030
     3  C    0.380801
     4  C   -0.072221
     5  C   -0.084877
     6  C    0.149956
     7  C    0.134498
     8  C   -0.128079
     9  C   -0.090795
    10  C   -0.044091
    11  C    0.018804
    12  C   -0.093281
 Sum of Mulliken charges with hydrogens summed into heavy atoms =  -0.00000
 Electronic spatial extent (au):  <R**2>=           2225.4182
 Charge=             -0.0000 electrons
 Dipole moment (field-independent basis, Debye):
    X=              2.1391    Y=             -1.6035    Z=              0.0005  Tot=              2.6734
 Quadrupole moment (field-independent basis, Debye-Ang):
   XX=            -58.3441   YY=            -63.9320   ZZ=            -73.6558
   XY=             -7.4484   XZ=              0.0015   YZ=              0.0002
 Traceless Quadrupole moment (field-independent basis, Debye-Ang):
   XX=              6.9665   YY=              1.3786   ZZ=             -8.3452
   XY=             -7.4484   XZ=              0.0015   YZ=              0.0002
 Octapole moment (field-independent basis, Debye-Ang**2):
  XXX=             36.5252  YYY=             -0.0492  ZZZ=             -0.0002  XYY=              8.7421
  XXY=            -18.5164  XXZ=              0.0080  XZZ=             12.3503  YZZ=             -1.7941
  YYZ=              0.0014  XYZ=             -0.0007
 Hexadecapole moment (field-independent basis, Debye-Ang**3):
 XXXX=          -1945.0645 YYYY=           -643.8152 ZZZZ=            -81.4644 XXXY=            -85.8189
 XXXZ=              0.0296 YYYX=             -7.7819 YYYZ=              0.0046 ZZZX=             -0.0005
 ZZZY=             -0.0011 XXYY=           -448.5293 XXZZ=           -402.6785 YYZZ=           -139.0589
 XXYZ=             -0.0018 YYXZ=             -0.0001 ZZXY=             -7.7240
 N-N= 6.347758876095D+02 E-N=-2.430899717166D+03  KE= 4.958049733283D+02
 No NMR shielding tensors so no spin-rotation constants.
 Leave Link  601 at Tue Sep 28 14:40:50 2021, MaxMem=  805306368 cpu:       0.5
 (Enter /sw/target/amd/app/gaussian/Gaussian09RevA.02_gcc-4.9.2/g09/l604.exe)
 Evaluate density.
 Using the total density.
 Monte-Carlo method of calculating molar volume:
 based on  0.001 e/bohr**3 density envelope.
 Number of points per bohr**3 =   20 CutOff= 1.00D-04
 Using the CI density.
 There are       377 points.  Will hold       377 in memory.
 LenV=   805189260 MDV=   805306368.
 Box volume = 6700.771 fraction occupied=0.212
 Integrated density= 5.3902881261657662D+01 error=-3.0097118738342338D+01
 Molar volume = 1421.914 bohr**3/mol (126.890 cm**3/mol)
 Recommended a0 for SCRF calculation =  4.56 angstrom (  8.62 bohr)
 Leave Link  604 at Tue Sep 28 14:40:50 2021, MaxMem=  805306368 cpu:       0.1
 (Enter /sw/target/amd/app/gaussian/Gaussian09RevA.02_gcc-4.9.2/g09/l607.exe)
 ******************************Gaussian NBO Version 3.1******************************
             N A T U R A L   A T O M I C   O R B I T A L   A N D
          N A T U R A L   B O N D   O R B I T A L   A N A L Y S I S
 ******************************Gaussian NBO Version 3.1******************************
       /RESON  / : Allow strongly delocalized NBO set

 Analyzing the CI density

 Job title: COc1ccc2c(c1)cccc2_conf_0                                       

 Storage needed:    121674 in NPA ( 805303728 available)


 NATURAL POPULATIONS:  Natural atomic orbital occupancies 
                                                          
   NAO  Atom  No  lang   Type(AO)    Occupancy
 --------------------------------------------
     1    C    1  S      Cor( 1S)     1.99943
     2    C    1  S      Val( 2S)     1.10381
     3    C    1  S      Ryd( 3S)     0.00147
     4    C    1  S      Ryd( 4S)     0.00003
     5    C    1  px     Val( 2p)     1.15539
     6    C    1  px     Ryd( 3p)     0.00255
     7    C    1  py     Val( 2p)     0.82132
     8    C    1  py     Ryd( 3p)     0.00335
     9    C    1  pz     Val( 2p)     1.23165
    10    C    1  pz     Ryd( 3p)     0.00028
    11    C    1  dxy    Ryd( 3d)     0.00133
    12    C    1  dxz    Ryd( 3d)     0.00049
    13    C    1  dyz    Ryd( 3d)     0.00184
    14    C    1  dx2y2  Ryd( 3d)     0.00175
    15    C    1  dz2    Ryd( 3d)     0.00110

    16    O    2  S      Cor( 1S)     1.99975
    17    O    2  S      Val( 2S)     1.59782
    18    O    2  S      Ryd( 3S)     0.00078
    19    O    2  S      Ryd( 4S)     0.00005
    20    O    2  px     Val( 2p)     1.49886
    21    O    2  px     Ryd( 3p)     0.00147
    22    O    2  py     Val( 2p)     1.60077
    23    O    2  py     Ryd( 3p)     0.00173
    24    O    2  pz     Val( 2p)     1.74353
    25    O    2  pz     Ryd( 3p)     0.00216
    26    O    2  dxy    Ryd( 3d)     0.00136
    27    O    2  dxz    Ryd( 3d)     0.00100
    28    O    2  dyz    Ryd( 3d)     0.00111
    29    O    2  dx2y2  Ryd( 3d)     0.00135
    30    O    2  dz2    Ryd( 3d)     0.00077

    31    C    3  S      Cor( 1S)     1.99880
    32    C    3  S      Val( 2S)     0.84201
    33    C    3  S      Ryd( 3S)     0.00134
    34    C    3  S      Ryd( 4S)     0.00014
    35    C    3  px     Val( 2p)     0.74942
    36    C    3  px     Ryd( 3p)     0.00798
    37    C    3  py     Val( 2p)     1.08957
    38    C    3  py     Ryd( 3p)     0.00533
    39    C    3  pz     Val( 2p)     0.92682
    40    C    3  pz     Ryd( 3p)     0.00105
    41    C    3  dxy    Ryd( 3d)     0.00132
    42    C    3  dxz    Ryd( 3d)     0.00185
    43    C    3  dyz    Ryd( 3d)     0.00125
    44    C    3  dx2y2  Ryd( 3d)     0.00185
    45    C    3  dz2    Ryd( 3d)     0.00048

    46    C    4  S      Cor( 1S)     1.99905
    47    C    4  S      Val( 2S)     0.95353
    48    C    4  S      Ryd( 3S)     0.00086
    49    C    4  S      Ryd( 4S)     0.00004
    50    C    4  px     Val( 2p)     1.13327
    51    C    4  px     Ryd( 3p)     0.00535
    52    C    4  py     Val( 2p)     1.10857
    53    C    4  py     Ryd( 3p)     0.00460
    54    C    4  pz     Val( 2p)     1.13527
    55    C    4  pz     Ryd( 3p)     0.00401
    56    C    4  dxy    Ryd( 3d)     0.00074
    57    C    4  dxz    Ryd( 3d)     0.00058
    58    C    4  dyz    Ryd( 3d)     0.00032
    59    C    4  dx2y2  Ryd( 3d)     0.00060
    60    C    4  dz2    Ryd( 3d)     0.00046

    61    C    5  S      Cor( 1S)     1.99907
    62    C    5  S      Val( 2S)     0.94613
    63    C    5  S      Ryd( 3S)     0.00062
    64    C    5  S      Ryd( 4S)     0.00005
    65    C    5  px     Val( 2p)     1.07291
    66    C    5  px     Ryd( 3p)     0.00422
    67    C    5  py     Val( 2p)     1.16811
    68    C    5  py     Ryd( 3p)     0.00475
    69    C    5  pz     Val( 2p)     1.01681
    70    C    5  pz     Ryd( 3p)     0.00275
    71    C    5  dxy    Ryd( 3d)     0.00073
    72    C    5  dxz    Ryd( 3d)     0.00078
    73    C    5  dyz    Ryd( 3d)     0.00030
    74    C    5  dx2y2  Ryd( 3d)     0.00073
    75    C    5  dz2    Ryd( 3d)     0.00043

    76    C    6  S      Cor( 1S)     1.99902
    77    C    6  S      Val( 2S)     0.87200
    78    C    6  S      Ryd( 3S)     0.00046
    79    C    6  S      Ryd( 4S)     0.00006
    80    C    6  px     Val( 2p)     1.09603
    81    C    6  px     Ryd( 3p)     0.00483
    82    C    6  py     Val( 2p)     1.07677
    83    C    6  py     Ryd( 3p)     0.00537
    84    C    6  pz     Val( 2p)     0.98712
    85    C    6  pz     Ryd( 3p)     0.00114
    86    C    6  dxy    Ryd( 3d)     0.00071
    87    C    6  dxz    Ryd( 3d)     0.00087
    88    C    6  dyz    Ryd( 3d)     0.00059
    89    C    6  dx2y2  Ryd( 3d)     0.00072
    90    C    6  dz2    Ryd( 3d)     0.00034

    91    C    7  S      Cor( 1S)     1.99904
    92    C    7  S      Val( 2S)     0.86972
    93    C    7  S      Ryd( 3S)     0.00058
    94    C    7  S      Ryd( 4S)     0.00007
    95    C    7  px     Val( 2p)     1.07818
    96    C    7  px     Ryd( 3p)     0.00500
    97    C    7  py     Val( 2p)     1.09002
    98    C    7  py     Ryd( 3p)     0.00580
    99    C    7  pz     Val( 2p)     0.99813
   100    C    7  pz     Ryd( 3p)     0.00112
   101    C    7  dxy    Ryd( 3d)     0.00067
   102    C    7  dxz    Ryd( 3d)     0.00078
   103    C    7  dyz    Ryd( 3d)     0.00068
   104    C    7  dx2y2  Ryd( 3d)     0.00075
   105    C    7  dz2    Ryd( 3d)     0.00034

   106    C    8  S      Cor( 1S)     1.99899
   107    C    8  S      Val( 2S)     0.95259
   108    C    8  S      Ryd( 3S)     0.00063
   109    C    8  S      Ryd( 4S)     0.00006
   110    C    8  px     Val( 2p)     1.07928
   111    C    8  px     Ryd( 3p)     0.00339
   112    C    8  py     Val( 2p)     1.18126
   113    C    8  py     Ryd( 3p)     0.00352
   114    C    8  pz     Val( 2p)     1.04779
   115    C    8  pz     Ryd( 3p)     0.00263
   116    C    8  dxy    Ryd( 3d)     0.00081
   117    C    8  dxz    Ryd( 3d)     0.00053
   118    C    8  dyz    Ryd( 3d)     0.00043
   119    C    8  dx2y2  Ryd( 3d)     0.00059
   120    C    8  dz2    Ryd( 3d)     0.00045

   121    C    9  S      Cor( 1S)     1.99906
   122    C    9  S      Val( 2S)     0.94623
   123    C    9  S      Ryd( 3S)     0.00062
   124    C    9  S      Ryd( 4S)     0.00004
   125    C    9  px     Val( 2p)     1.07756
   126    C    9  px     Ryd( 3p)     0.00423
   127    C    9  py     Val( 2p)     1.15937
   128    C    9  py     Ryd( 3p)     0.00458
   129    C    9  pz     Val( 2p)     1.02952
   130    C    9  pz     Ryd( 3p)     0.00289
   131    C    9  dxy    Ryd( 3d)     0.00077
   132    C    9  dxz    Ryd( 3d)     0.00071
   133    C    9  dyz    Ryd( 3d)     0.00028
   134    C    9  dx2y2  Ryd( 3d)     0.00071
   135    C    9  dz2    Ryd( 3d)     0.00043

   136    C   10  S      Cor( 1S)     1.99912
   137    C   10  S      Val( 2S)     0.95610
   138    C   10  S      Ryd( 3S)     0.00061
   139    C   10  S      Ryd( 4S)     0.00003
   140    C   10  px     Val( 2p)     1.11791
   141    C   10  px     Ryd( 3p)     0.00499
   142    C   10  py     Val( 2p)     1.12936
   143    C   10  py     Ryd( 3p)     0.00491
   144    C   10  pz     Val( 2p)     1.08110
   145    C   10  pz     Ryd( 3p)     0.00316
   146    C   10  dxy    Ryd( 3d)     0.00081
   147    C   10  dxz    Ryd( 3d)     0.00057
   148    C   10  dyz    Ryd( 3d)     0.00035
   149    C   10  dx2y2  Ryd( 3d)     0.00063
   150    C   10  dz2    Ryd( 3d)     0.00043

   151    C   11  S      Cor( 1S)     1.99911
   152    C   11  S      Val( 2S)     0.96865
   153    C   11  S      Ryd( 3S)     0.00054
   154    C   11  S      Ryd( 4S)     0.00004
   155    C   11  px     Val( 2p)     1.18863
   156    C   11  px     Ryd( 3p)     0.00495
   157    C   11  py     Val( 2p)     1.06554
   158    C   11  py     Ryd( 3p)     0.00454
   159    C   11  pz     Val( 2p)     0.92767
   160    C   11  pz     Ryd( 3p)     0.00133
   161    C   11  dxy    Ryd( 3d)     0.00069
   162    C   11  dxz    Ryd( 3d)     0.00034
   163    C   11  dyz    Ryd( 3d)     0.00089
   164    C   11  dx2y2  Ryd( 3d)     0.00087
   165    C   11  dz2    Ryd( 3d)     0.00043

   166    C   12  S      Cor( 1S)     1.99907
   167    C   12  S      Val( 2S)     0.94920
   168    C   12  S      Ryd( 3S)     0.00067
   169    C   12  S      Ryd( 4S)     0.00005
   170    C   12  px     Val( 2p)     1.06052
   171    C   12  px     Ryd( 3p)     0.00430
   172    C   12  py     Val( 2p)     1.18110
   173    C   12  py     Ryd( 3p)     0.00466
   174    C   12  pz     Val( 2p)     1.04640
   175    C   12  pz     Ryd( 3p)     0.00293
   176    C   12  dxy    Ryd( 3d)     0.00070
   177    C   12  dxz    Ryd( 3d)     0.00044
   178    C   12  dyz    Ryd( 3d)     0.00040
   179    C   12  dx2y2  Ryd( 3d)     0.00079
   180    C   12  dz2    Ryd( 3d)     0.00042

   181    H   13  S      Val( 1S)     0.76559
   182    H   13  S      Ryd( 2S)     0.00050

   183    H   14  S      Val( 1S)     0.78418
   184    H   14  S      Ryd( 2S)     0.00169

   185    H   15  S      Val( 1S)     0.78417
   186    H   15  S      Ryd( 2S)     0.00169

   187    H   16  S      Val( 1S)     0.75737
   188    H   16  S      Ryd( 2S)     0.00103

   189    H   17  S      Val( 1S)     0.76642
   190    H   17  S      Ryd( 2S)     0.00107

   191    H   18  S      Val( 1S)     0.76575
   192    H   18  S      Ryd( 2S)     0.00123

   193    H   19  S      Val( 1S)     0.77454
   194    H   19  S      Ryd( 2S)     0.00115

   195    H   20  S      Val( 1S)     0.76863
   196    H   20  S      Ryd( 2S)     0.00081

   197    H   21  S      Val( 1S)     0.76683
   198    H   21  S      Ryd( 2S)     0.00086

   199    H   22  S      Val( 1S)     0.76941
   200    H   22  S      Ryd( 2S)     0.00111

 WARNING:  1 low occupancy (<1.9990e) core orbital  found on  C    3
           1 low occupancy (<1.9990e) core orbital  found on  C    8


 Summary of Natural Population Analysis:                  
                                                          
                                       Natural Population 
                Natural  -----------------------------------------------
    Atom  No    Charge         Core      Valence    Rydberg      Total
 -----------------------------------------------------------------------
      C    1   -0.32579      1.99943     4.31217    0.01419     6.32579
      O    2   -0.45251      1.99975     6.44099    0.01178     8.45251
      C    3    0.37079      1.99880     3.60782    0.02259     5.62921
      C    4   -0.34724      1.99905     4.33062    0.01756     6.34724
      C    5   -0.21840      1.99907     4.20396    0.01537     6.21840
      C    6   -0.04603      1.99902     4.03192    0.01509     6.04603
      C    7   -0.05086      1.99904     4.03604    0.01578     6.05086
      C    8   -0.27295      1.99899     4.26092    0.01304     6.27295
      C    9   -0.22702      1.99906     4.21269    0.01526     6.22702
      C   10   -0.30008      1.99912     4.28447    0.01649     6.30008
      C   11   -0.16422      1.99911     4.15049    0.01462     6.16422
      C   12   -0.25165      1.99907     4.23722    0.01536     6.25165
      H   13    0.23391      0.00000     0.76559    0.00050     0.76609
      H   14    0.21414      0.00000     0.78418    0.00169     0.78586
      H   15    0.21414      0.00000     0.78417    0.00169     0.78586
      H   16    0.24160      0.00000     0.75737    0.00103     0.75840
      H   17    0.23251      0.00000     0.76642    0.00107     0.76749
      H   18    0.23302      0.00000     0.76575    0.00123     0.76698
      H   19    0.22430      0.00000     0.77454    0.00115     0.77570
      H   20    0.23056      0.00000     0.76863    0.00081     0.76944
      H   21    0.23231      0.00000     0.76683    0.00086     0.76769
      H   22    0.22948      0.00000     0.76941    0.00111     0.77052
 =======================================================================
   * Total *   -0.00000     23.98951    59.81221    0.19828    84.00000

                                 Natural Population      
 --------------------------------------------------------
   Core                      23.98951 ( 99.9563% of  24)
   Valence                   59.81221 ( 99.6870% of  60)
   Natural Minimal Basis     83.80172 ( 99.7640% of  84)
   Natural Rydberg Basis      0.19828 (  0.2360% of  84)
 --------------------------------------------------------

    Atom  No          Natural Electron Configuration
 ----------------------------------------------------------------------------
      C    1      [core]2S( 1.10)2p( 3.21)3p( 0.01)3d( 0.01)
      O    2      [core]2S( 1.60)2p( 4.84)3p( 0.01)3d( 0.01)
      C    3      [core]2S( 0.84)2p( 2.77)3p( 0.01)3d( 0.01)
      C    4      [core]2S( 0.95)2p( 3.38)3p( 0.01)
      C    5      [core]2S( 0.95)2p( 3.26)3p( 0.01)
      C    6      [core]2S( 0.87)2p( 3.16)3p( 0.01)
      C    7      [core]2S( 0.87)2p( 3.17)3p( 0.01)
      C    8      [core]2S( 0.95)2p( 3.31)3p( 0.01)
      C    9      [core]2S( 0.95)2p( 3.27)3p( 0.01)
      C   10      [core]2S( 0.96)2p( 3.33)3p( 0.01)
      C   11      [core]2S( 0.97)2p( 3.18)3p( 0.01)
      C   12      [core]2S( 0.95)2p( 3.29)3p( 0.01)
      H   13            1S( 0.77)
      H   14            1S( 0.78)
      H   15            1S( 0.78)
      H   16            1S( 0.76)
      H   17            1S( 0.77)
      H   18            1S( 0.77)
      H   19            1S( 0.77)
      H   20            1S( 0.77)
      H   21            1S( 0.77)
      H   22            1S( 0.77)


 NBO analysis skipped by request.
 Leave Link  607 at Tue Sep 28 14:40:52 2021, MaxMem=  805306368 cpu:       6.6
 (Enter /sw/target/amd/app/gaussian/Gaussian09RevA.02_gcc-4.9.2/g09/l9999.exe)
 1\1\GINC-HERMITE\SP\RTD-B3LYP-FC\6-31G(d)\C11H10O1\JSCHLEINITZ\28-Sep-
 2021\0\\#p TD(NStates=10, Root=1) b3lyp/6-31G* volume pop=NPA density=
 current Geom=AllCheck Guess=Read\\COc1ccc2c(c1)cccc2_conf_0\\0,1\C,0,2
 .8913757859,-1.0464654363,0.7814370239\O,0,2.4822018473,0.1304117706,0
 .1040724239\C,0,3.2638523777,0.5864791296,-0.9174780083\C,0,2.78249664
 73,1.7702579007,-1.5434960703\C,0,3.4747007178,2.33271014,-2.584217505
 9\C,0,4.683597229,1.7543385069,-3.0644222605\C,0,5.1651851237,0.563395
 2431,-2.4327608471\C,0,4.4321183059,-0.0053567252,-1.3535442432\C,0,6.
 3712195425,-0.016694752,-2.9092935313\C,0,7.0650482703,0.5511280447,-3
 .955828132\C,0,6.5873352322,1.7284495142,-4.5789125173\C,0,5.420363144
 5,2.3147000202,-4.1392400661\H,0,2.1362704638,-1.2303479219,1.54791446
 8\H,0,3.8712352368,-0.9152520388,1.2596468081\H,0,2.9366023237,-1.9071
 769593,0.1009091568\H,0,1.8599240291,2.2043753241,-1.1709052298\H,0,3.
 1015817837,3.2374954233,-3.0583617862\H,0,4.8148950857,-0.9077705696,-
 0.889297528\H,0,6.7410969243,-0.921722504,-2.4324709757\H,0,7.98614983
 41,0.0934278194,-4.3072027377\H,0,7.1433832468,2.1665974604,-5.4031617
 759\H,0,5.0461358089,3.2197799349,-4.6126537367\\Version=AM64L-G09RevA
 .02\State=1-A\HF=-500.4163505\RMSD=8.017e-09\Dipole=-0.1505132,-0.7275
 33,0.7445216\Quadrupole=-3.3787038,1.5158943,1.8628095,0.4062239,-2.62
 76885,-6.9419439\PG=C01 [X(C11H10O1)]\\@


 ... THE UNIVERSE IS NOT ONLY QUEERER THAN WE SUPPOSE,
 BUT QUEERER THAN WE CAN SUPPOSE ... 

                                   -- J. B. S. HALDANE
 Job cpu time:  0 days  0 hours 35 minutes 42.6 seconds.
 File lengths (MBytes):  RWF=    133 Int=      0 D2E=      0 Chk=     19 Scr=      1
 Normal termination of Gaussian 09 at Tue Sep 28 14:40:53 2021.
