 Entering Gaussian System, Link 0=g09
 Input=C11H15NO2_9d06_conf_0.com
 Output=C11H15NO2_9d06_conf_0.log
 Initial command:
 /sw/target/amd/app/gaussian/Gaussian09RevA.02_gcc-4.9.2/g09/l1.exe /home/jschleinitz/gaussian/Gau-3732387.inp -scrdir=/home/jschleinitz/gaussian/
 Entering Link 1 = /sw/target/amd/app/gaussian/Gaussian09RevA.02_gcc-4.9.2/g09/l1.exe PID=   3732391.
  
 Copyright (c) 1988,1990,1992,1993,1995,1998,2003,2009, Gaussian, Inc.
                  All Rights Reserved.
  
 This is part of the Gaussian(R) 09 program.  It is based on
 the Gaussian(R) 03 system (copyright 2003, Gaussian, Inc.),
 the Gaussian(R) 98 system (copyright 1998, Gaussian, Inc.),
 the Gaussian(R) 94 system (copyright 1995, Gaussian, Inc.),
 the Gaussian 92(TM) system (copyright 1992, Gaussian, Inc.),
 the Gaussian 90(TM) system (copyright 1990, Gaussian, Inc.),
 the Gaussian 88(TM) system (copyright 1988, Gaussian, Inc.),
 the Gaussian 86(TM) system (copyright 1986, Carnegie Mellon
 University), and the Gaussian 82(TM) system (copyright 1983,
 Carnegie Mellon University). Gaussian is a federally registered
 trademark of Gaussian, Inc.
  
 This software contains proprietary and confidential information,
 including trade secrets, belonging to Gaussian, Inc.
  
 This software is provided under written license and may be
 used, copied, transmitted, or stored only in accord with that
 written license.
  
 The following legend is applicable only to US Government
 contracts under FAR:
  
                    RESTRICTED RIGHTS LEGEND
  
 Use, reproduction and disclosure by the US Government is
 subject to restrictions as set forth in subparagraphs (a)
 and (c) of the Commercial Computer Software - Restricted
 Rights clause in FAR 52.227-19.
  
 Gaussian, Inc.
 340 Quinnipiac St., Bldg. 40, Wallingford CT 06492
  
  
 ---------------------------------------------------------------
 Warning -- This program may not be used in any manner that
 competes with the business of Gaussian, Inc. or will provide
 assistance to any competitor of Gaussian, Inc.  The licensee
 of this program is prohibited from giving any competitor of
 Gaussian, Inc. access to this program.  By using this program,
 the user acknowledges that Gaussian, Inc. is engaged in the
 business of creating and licensing software in the field of
 computational chemistry and represents and warrants to the
 licensee that it is not a competitor of Gaussian, Inc. and that
 it will not use this program in any manner prohibited above.
 ---------------------------------------------------------------
  

 Cite this work as:
 Gaussian 09, Revision A.02,
 M. J. Frisch, G. W. Trucks, H. B. Schlegel, G. E. Scuseria, 
 M. A. Robb, J. R. Cheeseman, G. Scalmani, V. Barone, B. Mennucci, 
 G. A. Petersson, H. Nakatsuji, M. Caricato, X. Li, H. P. Hratchian, 
 A. F. Izmaylov, J. Bloino, G. Zheng, J. L. Sonnenberg, M. Hada, 
 M. Ehara, K. Toyota, R. Fukuda, J. Hasegawa, M. Ishida, T. Nakajima, 
 Y. Honda, O. Kitao, H. Nakai, T. Vreven, J. A. Montgomery, Jr., 
 J. E. Peralta, F. Ogliaro, M. Bearpark, J. J. Heyd, E. Brothers, 
 K. N. Kudin, V. N. Staroverov, R. Kobayashi, J. Normand, 
 K. Raghavachari, A. Rendell, J. C. Burant, S. S. Iyengar, J. Tomasi, 
 M. Cossi, N. Rega, J. M. Millam, M. Klene, J. E. Knox, J. B. Cross, 
 V. Bakken, C. Adamo, J. Jaramillo, R. Gomperts, R. E. Stratmann, 
 O. Yazyev, A. J. Austin, R. Cammi, C. Pomelli, J. W. Ochterski, 
 R. L. Martin, K. Morokuma, V. G. Zakrzewski, G. A. Voth, 
 P. Salvador, J. J. Dannenberg, S. Dapprich, A. D. Daniels, 
 O. Farkas, J. B. Foresman, J. V. Ortiz, J. Cioslowski, 
 and D. J. Fox, Gaussian, Inc., Wallingford CT, 2009.
 
 ******************************************
 Gaussian 09:  AM64L-G09RevA.02 11-Jun-2009
                30-Sep-2021 
 ******************************************
 %nproc=4
 Will use up to    4 processors via shared memory.
 %mem=8gb
 %chk=C11H15NO2_9d06_conf_0.chk
 -----------------------------------
 #p opt b3lyp/6-31G* scf=(xqc,tight)
 -----------------------------------
 1/14=-1,18=20,19=15,26=3,38=1/1,3;
 2/9=110,12=2,17=6,18=5,40=1/2;
 3/5=1,6=6,7=1,11=2,16=1,25=1,30=1,71=1,74=-5/1,2,3;
 4//1;
 5/5=2,8=3,13=1,32=2,38=5/2,8;
 6/7=2,8=2,9=2,10=2,28=1/1;
 7//1,2,3,16;
 1/14=-1,18=20,19=15/3(2);
 2/9=110/2;
 99//99;
 2/9=110/2;
 3/5=1,6=6,7=1,11=2,16=1,25=1,30=1,71=1,74=-5/1,2,3;
 4/5=5,16=3/1;
 5/5=2,8=3,13=1,32=2,38=5/2,8;
 7//1,2,3,16;
 1/14=-1,18=20,19=15/3(-5);
 2/9=110/2;
 6/7=2,8=2,9=2,10=2,19=2,28=1/1;
 99/9=1/99;
 Leave Link    1 at Thu Sep 30 16:25:39 2021, MaxMem= 1073741824 cpu:       0.1
 (Enter /sw/target/amd/app/gaussian/Gaussian09RevA.02_gcc-4.9.2/g09/l101.exe)
 --------------------------------
 O=C(N(C)C)Oc1ccc(c(c1)C)C_conf_0
 --------------------------------
 Symbolic Z-matrix:
 Charge =  0 Multiplicity = 1
 O                     3.20766   0.7279    1.58268 
 C                     2.80579  -0.43286   1.48679 
 N                     1.45923  -0.76018   1.52309 
 C                     0.48636   0.29918   1.33871 
 C                     0.97684  -2.12623   1.43537 
 O                     3.62874  -1.54133   1.27567 
 C                     5.0237   -1.4148    1.1052 
 C                     5.63683  -2.3523    0.27877 
 C                     7.01775  -2.29384   0.0766 
 C                     7.79729  -1.3142    0.71589 
 C                     7.17414  -0.39959   1.58809 
 C                     5.78409  -0.45519   1.76585 
 C                     7.94051   0.66567   2.32201 
 C                     9.27789  -1.2597    0.45804 
 H                     0.92802   1.29107   1.47195 
 H                    -0.33037   0.17428   2.05306 
 H                     0.09878   0.2316    0.31736 
 H                     1.73943  -2.84675   1.74067 
 H                     0.68217  -2.3285    0.40227 
 H                     0.11131  -2.23953   2.0951 
 H                     5.04856  -3.1214   -0.2129 
 H                     7.48436  -3.02148  -0.58433 
 H                     5.31035   0.26123   2.43026 
 H                     8.84827   0.25377   2.77167 
 H                     7.34543   1.07942   3.14424 
 H                     8.20092   1.48318   1.64362 
 H                     9.59864  -2.0522   -0.22611 
 H                     9.83249  -1.38937   1.39245 
 H                     9.5463   -0.30019   0.0041 
 
 NAtoms=     29 NQM=     29 NQMF=      0 NMic=      0 NMicF=      0 NTot=     29.
                    Isotopes and Nuclear Properties:
 (Nuclear quadrupole moments (NQMom) in fm**2, nuclear magnetic moments (NMagM)
  in nuclear magnetons)

  Atom         1           2           3           4           5           6           7           8           9          10
 IAtWgt=          16          12          14          12          12          16          12          12          12          12
 AtmWgt=  15.9949146  12.0000000  14.0030740  12.0000000  12.0000000  15.9949146  12.0000000  12.0000000  12.0000000  12.0000000
 NucSpn=           0           0           2           0           0           0           0           0           0           0
 AtZEff=   0.0000000   0.0000000   0.0000000   0.0000000   0.0000000   0.0000000   0.0000000   0.0000000   0.0000000   0.0000000
 NQMom=    0.0000000   0.0000000   2.0440000   0.0000000   0.0000000   0.0000000   0.0000000   0.0000000   0.0000000   0.0000000
 NMagM=    0.0000000   0.0000000   0.4037610   0.0000000   0.0000000   0.0000000   0.0000000   0.0000000   0.0000000   0.0000000

  Atom        11          12          13          14          15          16          17          18          19          20
 IAtWgt=          12          12          12          12           1           1           1           1           1           1
 AtmWgt=  12.0000000  12.0000000  12.0000000  12.0000000   1.0078250   1.0078250   1.0078250   1.0078250   1.0078250   1.0078250
 NucSpn=           0           0           0           0           1           1           1           1           1           1
 AtZEff=   0.0000000   0.0000000   0.0000000   0.0000000   0.0000000   0.0000000   0.0000000   0.0000000   0.0000000   0.0000000
 NQMom=    0.0000000   0.0000000   0.0000000   0.0000000   0.0000000   0.0000000   0.0000000   0.0000000   0.0000000   0.0000000
 NMagM=    0.0000000   0.0000000   0.0000000   0.0000000   2.7928460   2.7928460   2.7928460   2.7928460   2.7928460   2.7928460

  Atom        21          22          23          24          25          26          27          28          29
 IAtWgt=           1           1           1           1           1           1           1           1           1
 AtmWgt=   1.0078250   1.0078250   1.0078250   1.0078250   1.0078250   1.0078250   1.0078250   1.0078250   1.0078250
 NucSpn=           1           1           1           1           1           1           1           1           1
 AtZEff=   0.0000000   0.0000000   0.0000000   0.0000000   0.0000000   0.0000000   0.0000000   0.0000000   0.0000000
 NQMom=    0.0000000   0.0000000   0.0000000   0.0000000   0.0000000   0.0000000   0.0000000   0.0000000   0.0000000
 NMagM=    2.7928460   2.7928460   2.7928460   2.7928460   2.7928460   2.7928460   2.7928460   2.7928460   2.7928460
 Leave Link  101 at Thu Sep 30 16:25:40 2021, MaxMem= 1073741824 cpu:       0.2
 (Enter /sw/target/amd/app/gaussian/Gaussian09RevA.02_gcc-4.9.2/g09/l103.exe)

 GradGradGradGradGradGradGradGradGradGradGradGradGradGradGradGradGradGrad
 Berny optimization.
 Initialization pass.
                           ----------------------------
                           !    Initial Parameters    !
                           ! (Angstroms and Degrees)  !
 --------------------------                            --------------------------
 ! Name  Definition              Value          Derivative Info.                !
 --------------------------------------------------------------------------------
 ! R1    R(1,2)                  1.2321         estimate D2E/DX2                !
 ! R2    R(2,3)                  1.3863         estimate D2E/DX2                !
 ! R3    R(2,6)                  1.3966         estimate D2E/DX2                !
 ! R4    R(3,4)                  1.4501         estimate D2E/DX2                !
 ! R5    R(3,5)                  1.4514         estimate D2E/DX2                !
 ! R6    R(4,15)                 1.0939         estimate D2E/DX2                !
 ! R7    R(4,16)                 1.0922         estimate D2E/DX2                !
 ! R8    R(4,17)                 1.0945         estimate D2E/DX2                !
 ! R9    R(5,18)                 1.0927         estimate D2E/DX2                !
 ! R10   R(5,19)                 1.0932         estimate D2E/DX2                !
 ! R11   R(5,20)                 1.0942         estimate D2E/DX2                !
 ! R12   R(6,7)                  1.411          estimate D2E/DX2                !
 ! R13   R(7,8)                  1.3921         estimate D2E/DX2                !
 ! R14   R(7,12)                 1.3912         estimate D2E/DX2                !
 ! R15   R(8,9)                  1.3969         estimate D2E/DX2                !
 ! R16   R(8,21)                 1.086          estimate D2E/DX2                !
 ! R17   R(9,10)                 1.4057         estimate D2E/DX2                !
 ! R18   R(9,22)                 1.0881         estimate D2E/DX2                !
 ! R19   R(10,11)                1.4091         estimate D2E/DX2                !
 ! R20   R(10,14)                1.5039         estimate D2E/DX2                !
 ! R21   R(11,12)                1.4025         estimate D2E/DX2                !
 ! R22   R(11,13)                1.5036         estimate D2E/DX2                !
 ! R23   R(12,23)                1.0859         estimate D2E/DX2                !
 ! R24   R(13,24)                1.0936         estimate D2E/DX2                !
 ! R25   R(13,25)                1.0961         estimate D2E/DX2                !
 ! R26   R(13,26)                1.0938         estimate D2E/DX2                !
 ! R27   R(14,27)                1.095          estimate D2E/DX2                !
 ! R28   R(14,28)                1.0943         estimate D2E/DX2                !
 ! R29   R(14,29)                1.0949         estimate D2E/DX2                !
 ! A1    A(1,2,3)              122.4961         estimate D2E/DX2                !
 ! A2    A(1,2,6)              124.5627         estimate D2E/DX2                !
 ! A3    A(3,2,6)              112.8876         estimate D2E/DX2                !
 ! A4    A(2,3,4)              118.4163         estimate D2E/DX2                !
 ! A5    A(2,3,5)              122.923          estimate D2E/DX2                !
 ! A6    A(4,3,5)              117.1893         estimate D2E/DX2                !
 ! A7    A(3,4,15)             112.09           estimate D2E/DX2                !
 ! A8    A(3,4,16)             109.5718         estimate D2E/DX2                !
 ! A9    A(3,4,17)             108.1272         estimate D2E/DX2                !
 ! A10   A(15,4,16)            109.0222         estimate D2E/DX2                !
 ! A11   A(15,4,17)            108.2162         estimate D2E/DX2                !
 ! A12   A(16,4,17)            109.783          estimate D2E/DX2                !
 ! A13   A(3,5,18)             111.8264         estimate D2E/DX2                !
 ! A14   A(3,5,19)             108.7149         estimate D2E/DX2                !
 ! A15   A(3,5,20)             108.901          estimate D2E/DX2                !
 ! A16   A(18,5,19)            109.2791         estimate D2E/DX2                !
 ! A17   A(18,5,20)            108.3803         estimate D2E/DX2                !
 ! A18   A(19,5,20)            109.7207         estimate D2E/DX2                !
 ! A19   A(2,6,7)              121.9799         estimate D2E/DX2                !
 ! A20   A(6,7,8)              116.5365         estimate D2E/DX2                !
 ! A21   A(6,7,12)             123.013          estimate D2E/DX2                !
 ! A22   A(8,7,12)             120.3784         estimate D2E/DX2                !
 ! A23   A(7,8,9)              119.5488         estimate D2E/DX2                !
 ! A24   A(7,8,21)             120.4739         estimate D2E/DX2                !
 ! A25   A(9,8,21)             119.976          estimate D2E/DX2                !
 ! A26   A(8,9,10)             120.768          estimate D2E/DX2                !
 ! A27   A(8,9,22)             118.9373         estimate D2E/DX2                !
 ! A28   A(10,9,22)            120.2946         estimate D2E/DX2                !
 ! A29   A(9,10,11)            119.2479         estimate D2E/DX2                !
 ! A30   A(9,10,14)            119.5541         estimate D2E/DX2                !
 ! A31   A(11,10,14)           121.198          estimate D2E/DX2                !
 ! A32   A(10,11,12)           119.4085         estimate D2E/DX2                !
 ! A33   A(10,11,13)           122.4516         estimate D2E/DX2                !
 ! A34   A(12,11,13)           118.1257         estimate D2E/DX2                !
 ! A35   A(7,12,11)            120.5895         estimate D2E/DX2                !
 ! A36   A(7,12,23)            120.4763         estimate D2E/DX2                !
 ! A37   A(11,12,23)           118.9339         estimate D2E/DX2                !
 ! A38   A(11,13,24)           110.9123         estimate D2E/DX2                !
 ! A39   A(11,13,25)           110.9088         estimate D2E/DX2                !
 ! A40   A(11,13,26)           110.3737         estimate D2E/DX2                !
 ! A41   A(24,13,25)           106.523          estimate D2E/DX2                !
 ! A42   A(24,13,26)           109.8115         estimate D2E/DX2                !
 ! A43   A(25,13,26)           108.2037         estimate D2E/DX2                !
 ! A44   A(10,14,27)           111.6717         estimate D2E/DX2                !
 ! A45   A(10,14,28)           110.3808         estimate D2E/DX2                !
 ! A46   A(10,14,29)           110.1328         estimate D2E/DX2                !
 ! A47   A(27,14,28)           107.4149         estimate D2E/DX2                !
 ! A48   A(27,14,29)           107.6634         estimate D2E/DX2                !
 ! A49   A(28,14,29)           109.4887         estimate D2E/DX2                !
 ! D1    D(1,2,3,4)             15.3936         estimate D2E/DX2                !
 ! D2    D(1,2,3,5)           -178.8484         estimate D2E/DX2                !
 ! D3    D(6,2,3,4)           -162.0574         estimate D2E/DX2                !
 ! D4    D(6,2,3,5)              3.7006         estimate D2E/DX2                !
 ! D5    D(1,2,6,7)             -2.227          estimate D2E/DX2                !
 ! D6    D(3,2,6,7)            175.1623         estimate D2E/DX2                !
 ! D7    D(2,3,4,15)           -16.3376         estimate D2E/DX2                !
 ! D8    D(2,3,4,16)          -137.5102         estimate D2E/DX2                !
 ! D9    D(2,3,4,17)           102.862          estimate D2E/DX2                !
 ! D10   D(5,3,4,15)           177.0867         estimate D2E/DX2                !
 ! D11   D(5,3,4,16)            55.9141         estimate D2E/DX2                !
 ! D12   D(5,3,4,17)           -63.7137         estimate D2E/DX2                !
 ! D13   D(2,3,5,18)            23.0537         estimate D2E/DX2                !
 ! D14   D(2,3,5,19)           -97.6901         estimate D2E/DX2                !
 ! D15   D(2,3,5,20)           142.8002         estimate D2E/DX2                !
 ! D16   D(4,3,5,18)          -171.025          estimate D2E/DX2                !
 ! D17   D(4,3,5,19)            68.2312         estimate D2E/DX2                !
 ! D18   D(4,3,5,20)           -51.2785         estimate D2E/DX2                !
 ! D19   D(2,6,7,8)           -148.5198         estimate D2E/DX2                !
 ! D20   D(2,6,7,12)            34.5646         estimate D2E/DX2                !
 ! D21   D(6,7,8,9)           -179.3629         estimate D2E/DX2                !
 ! D22   D(6,7,8,21)             1.0595         estimate D2E/DX2                !
 ! D23   D(12,7,8,9)            -2.3608         estimate D2E/DX2                !
 ! D24   D(12,7,8,21)          178.0616         estimate D2E/DX2                !
 ! D25   D(6,7,12,11)          178.1457         estimate D2E/DX2                !
 ! D26   D(6,7,12,23)           -1.6642         estimate D2E/DX2                !
 ! D27   D(8,7,12,11)            1.3444         estimate D2E/DX2                !
 ! D28   D(8,7,12,23)         -178.4655         estimate D2E/DX2                !
 ! D29   D(7,8,9,10)             1.1043         estimate D2E/DX2                !
 ! D30   D(7,8,9,22)          -178.9985         estimate D2E/DX2                !
 ! D31   D(21,8,9,10)         -179.3159         estimate D2E/DX2                !
 ! D32   D(21,8,9,22)            0.5812         estimate D2E/DX2                !
 ! D33   D(8,9,10,11)            1.1581         estimate D2E/DX2                !
 ! D34   D(8,9,10,14)         -178.8265         estimate D2E/DX2                !
 ! D35   D(22,9,10,11)        -178.7377         estimate D2E/DX2                !
 ! D36   D(22,9,10,14)           1.2778         estimate D2E/DX2                !
 ! D37   D(9,10,11,12)          -2.1653         estimate D2E/DX2                !
 ! D38   D(9,10,11,13)         179.2327         estimate D2E/DX2                !
 ! D39   D(14,10,11,12)        177.819          estimate D2E/DX2                !
 ! D40   D(14,10,11,13)         -0.783          estimate D2E/DX2                !
 ! D41   D(9,10,14,27)          -1.1744         estimate D2E/DX2                !
 ! D42   D(9,10,14,28)        -120.5934         estimate D2E/DX2                !
 ! D43   D(9,10,14,29)         118.3918         estimate D2E/DX2                !
 ! D44   D(11,10,14,27)        178.8414         estimate D2E/DX2                !
 ! D45   D(11,10,14,28)         59.4224         estimate D2E/DX2                !
 ! D46   D(11,10,14,29)        -61.5924         estimate D2E/DX2                !
 ! D47   D(10,11,12,7)           0.9406         estimate D2E/DX2                !
 ! D48   D(10,11,12,23)       -179.2466         estimate D2E/DX2                !
 ! D49   D(13,11,12,7)         179.603          estimate D2E/DX2                !
 ! D50   D(13,11,12,23)         -0.5842         estimate D2E/DX2                !
 ! D51   D(10,11,13,24)        -45.897          estimate D2E/DX2                !
 ! D52   D(10,11,13,25)       -164.0545         estimate D2E/DX2                !
 ! D53   D(10,11,13,26)         76.0371         estimate D2E/DX2                !
 ! D54   D(12,11,13,24)        135.4839         estimate D2E/DX2                !
 ! D55   D(12,11,13,25)         17.3264         estimate D2E/DX2                !
 ! D56   D(12,11,13,26)       -102.582          estimate D2E/DX2                !
 --------------------------------------------------------------------------------
 Trust Radius=3.00D-01 FncErr=1.00D-07 GrdErr=1.00D-06
 Number of steps in this run= 144 maximum allowed number of steps= 174.
 GradGradGradGradGradGradGradGradGradGradGradGradGradGradGradGradGradGrad

 Leave Link  103 at Thu Sep 30 16:25:41 2021, MaxMem= 1073741824 cpu:       0.0
 (Enter /sw/target/amd/app/gaussian/Gaussian09RevA.02_gcc-4.9.2/g09/l202.exe)
                          Input orientation:                          
 ---------------------------------------------------------------------
 Center     Atomic      Atomic             Coordinates (Angstroms)
 Number     Number       Type             X           Y           Z
 ---------------------------------------------------------------------
      1          8           0        3.207662    0.727902    1.582680
      2          6           0        2.805793   -0.432858    1.486792
      3          7           0        1.459229   -0.760181    1.523088
      4          6           0        0.486361    0.299176    1.338713
      5          6           0        0.976837   -2.126227    1.435368
      6          8           0        3.628739   -1.541333    1.275665
      7          6           0        5.023696   -1.414795    1.105198
      8          6           0        5.636835   -2.352299    0.278769
      9          6           0        7.017750   -2.293843    0.076604
     10          6           0        7.797295   -1.314197    0.715888
     11          6           0        7.174144   -0.399588    1.588094
     12          6           0        5.784087   -0.455189    1.765846
     13          6           0        7.940511    0.665673    2.322010
     14          6           0        9.277893   -1.259701    0.458039
     15          1           0        0.928017    1.291073    1.471946
     16          1           0       -0.330372    0.174277    2.053061
     17          1           0        0.098778    0.231602    0.317363
     18          1           0        1.739431   -2.846749    1.740673
     19          1           0        0.682174   -2.328496    0.402271
     20          1           0        0.111308   -2.239529    2.095105
     21          1           0        5.048557   -3.121403   -0.212901
     22          1           0        7.484365   -3.021485   -0.584333
     23          1           0        5.310349    0.261231    2.430255
     24          1           0        8.848269    0.253767    2.771667
     25          1           0        7.345434    1.079418    3.144243
     26          1           0        8.200916    1.483179    1.643620
     27          1           0        9.598638   -2.052204   -0.226105
     28          1           0        9.832486   -1.389371    1.392447
     29          1           0        9.546299   -0.300191    0.004105
 ---------------------------------------------------------------------
                    Distance matrix (angstroms):
                    1          2          3          4          5
     1  O    0.000000
     2  C    1.232094   0.000000
     3  N    2.296728   1.386252   0.000000
     4  C    2.765647   2.436712   1.450070   0.000000
     5  C    3.625511   2.493036   1.451371   2.476387   0.000000
     6  O    2.328302   1.396615   2.319093   3.642250   2.720329
     7  C    2.849056   2.455383   3.648092   4.855886   4.122161
     8  C    4.133848   3.627447   4.640642   5.889073   4.806705
     9  C    5.090774   4.815857   5.944880   7.139727   6.194108
    10  C    5.097669   5.127001   6.413235   7.512698   6.906207
    11  C    4.123621   4.369652   5.726650   6.728812   6.435156
    12  C    2.840989   2.991421   4.342389   5.368184   5.100121
    13  C    4.790652   5.316924   6.684187   7.527652   7.554707
    14  C    6.485606   6.605307   7.906665   8.971996   8.403188
    15  H    2.350788   2.549156   2.119539   1.093924   3.417845
    16  H    3.611848   3.244196   2.087284   1.092221   2.717105
    17  H    3.393007   3.022747   2.070805   1.094506   2.753231
    18  H    3.867660   2.651123   2.116512   3.410073   1.092663
    19  H    4.136789   3.046209   2.078379   2.796413   1.093173
    20  H    4.319216   3.300660   2.081481   2.675410   1.094180
    21  H    4.629271   3.891943   4.633822   5.909441   4.504006
    22  H    6.086381   5.734072   6.771778   7.981037   6.872307
    23  H    2.314618   2.764901   4.086240   4.946085   5.046690
    24  H    5.784025   6.215615   7.562073   8.483921   8.331237
    25  H    4.436575   5.063838   6.376494   7.135516   7.331810
    26  H    5.050421   5.727403   7.106162   7.810838   8.078274
    27  H    7.200366   7.190204   8.424902   9.539980   8.780741
    28  H    6.957537   7.092125   8.397880   9.497585   8.886356
    29  H    6.612655   6.902926   8.241336   9.177304   8.877985
                    6          7          8          9         10
     6  O    0.000000
     7  C    1.411019   0.000000
     8  C    2.384096   1.392062   0.000000
     9  C    3.672794   2.409768   1.396859   0.000000
    10  C    4.212102   2.802594   2.436456   1.405731   0.000000
    11  C    3.737793   2.426575   2.809045   2.428429   1.409103
    12  C    2.462825   1.391220   2.414975   2.784979   2.427615
    13  C    4.955511   3.783754   4.311602   3.827802   2.553434
    14  C    5.714960   4.305933   3.805681   2.514594   1.503870
    15  H    3.918539   4.922480   6.072132   7.203016   7.385528
    16  H    4.384316   5.664772   6.718575   7.999556   8.370338
    17  H    4.064759   5.252249   6.111309   7.369397   7.862282
    18  H    2.343038   3.638779   4.191825   5.561967   6.332188
    19  H    3.172489   4.491967   4.956257   6.344036   7.193894
    20  H    3.678489   5.078548   5.817494   7.195571   7.863388
    21  H    2.593903   2.156504   1.085970   2.155549   3.418216
    22  H    4.529491   3.389817   2.146188   1.088131   2.168716
    23  H    2.722155   2.155692   3.400886   3.870826   3.406748
    24  H    5.718732   4.493170   4.829019   4.135756   2.790929
    25  H    4.916680   3.971054   4.786119   4.571288   3.439546
    26  H    5.494349   4.333923   4.811260   4.256913   2.974711
    27  H    6.177054   4.807156   4.005101   2.609790   2.162601
    28  H    6.206707   4.817429   4.446459   3.236085   2.146016
    29  H    6.178578   4.786303   4.423856   3.220786   2.143329
                   11         12         13         14         15
    11  C    0.000000
    12  C    1.402479   0.000000
    13  C    1.503573   2.493154   0.000000
    14  C    2.538223   3.816317   2.995003   0.000000
    15  H    6.471934   5.168870   7.091460   8.789475   0.000000
    16  H    7.540775   6.153481   8.289832   9.844752   1.780020
    17  H    7.216229   5.906989   8.105541   9.300533   1.772901
    18  H    5.962213   4.698875   7.150416   7.809755   4.225184
    19  H    6.875503   5.603403   8.082939   8.662091   3.782317
    20  H    7.316153   5.955896   8.353927   9.363029   3.677022
    21  H    3.894866   3.400755   5.397325   4.669408   6.267974
    22  H    3.419067   3.873004   4.716994   2.721610   8.112468
    23  H    2.149337   1.085876   2.663277   4.684472   4.602582
    24  H    2.151838   3.302046   1.093564   2.797863   8.092939
    25  H    2.153694   2.587046   1.096070   4.052354   6.635104
    26  H    2.145263   3.100529   1.093773   3.176298   7.277461
    27  H    3.449729   4.590112   4.077883   1.094985   9.446721
    28  H    2.843366   4.171530   2.943954   1.094306   9.299498
    29  H    2.854124   4.157163   2.980627   1.094878   8.886027
                   16         17         18         19         20
    16  H    0.000000
    17  H    1.788884   0.000000
    18  H    3.675360   3.767466   0.000000
    19  H    3.164527   2.627101   1.782610   0.000000
    20  H    2.454243   3.044177   1.773449   1.788711   0.000000
    21  H    6.702907   6.002010   3.852557   4.480228   5.520962
    22  H    8.845273   8.120500   6.200036   6.908214   7.883705
    23  H    5.653987   5.623669   4.783985   5.677975   5.778940
    24  H    9.207072   9.087227   7.823792   8.886351   9.110913
    25  H    7.805636   7.824581   6.986563   7.970654   8.027993
    26  H    8.640819   8.304821   7.778720   8.520640   8.916510
    27  H   10.427706   9.785625   8.140432   8.942847   9.768957
    28  H   10.303645   9.926148   8.230598   9.251520   9.783547
    29  H   10.098118   9.467660   8.393320   9.101938   9.856590
                   21         22         23         24         25
    21  H    0.000000
    22  H    2.465990   0.000000
    23  H    4.300816   4.958862   0.000000
    24  H    5.893829   4.883671   3.554363   0.000000
    25  H    5.847474   5.544275   2.306682   1.754716   0.000000
    26  H    5.881004   5.076338   3.235326   1.789696   1.773906
    27  H    4.674034   2.353291   5.549563   3.855800   5.122815
    28  H    5.335077   3.476366   4.924557   2.360261   3.917798
    29  H    5.313757   3.464574   4.913724   2.907493   4.075242
                   26         27         28         29
    26  H    0.000000
    27  H    4.236559   0.000000
    28  H    3.313103   1.764580   0.000000
    29  H    2.771006   1.767847   1.787654   0.000000
 Stoichiometry    C11H15NO2
 Framework group  C1[X(C11H15NO2)]
 Deg. of freedom    81
 Full point group                 C1      NOp   1
 Largest Abelian subgroup         C1      NOp   1
 Largest concise Abelian subgroup C1      NOp   1
                         Standard orientation:                         
 ---------------------------------------------------------------------
 Center     Atomic      Atomic             Coordinates (Angstroms)
 Number     Number       Type             X           Y           Z
 ---------------------------------------------------------------------
      1          8           0        1.669379    1.490065    0.459758
      2          6           0        2.019327    0.384332    0.043890
      3          7           0        3.351853    0.022672   -0.079685
      4          6           0        4.350723    0.826589    0.597572
      5          6           0        3.774740   -1.268072   -0.591178
      6          8           0        1.142485   -0.648348   -0.295599
      7          6           0       -0.254685   -0.522643   -0.143653
      8          6           0       -0.955547   -1.688554    0.151782
      9          6           0       -2.343381   -1.638662    0.302257
     10          6           0       -3.041743   -0.430041    0.136109
     11          6           0       -2.328817    0.735066   -0.210058
     12          6           0       -0.933336    0.676323   -0.337060
     13          6           0       -3.004630    2.061363   -0.422060
     14          6           0       -4.532731   -0.402082    0.330530
     15          1           0        3.957031    1.800418    0.903077
     16          1           0        5.206551    0.980057   -0.063453
     17          1           0        4.668551    0.288794    1.496296
     18          1           0        3.006382   -1.728708   -1.216760
     19          1           0        3.993978   -1.925632    0.254149
     20          1           0        4.676138   -1.131535   -1.196216
     21          1           0       -0.430275   -2.631391    0.272115
     22          1           0       -2.879369   -2.552818    0.549373
     23          1           0       -0.390451    1.581535   -0.591998
     24          1           0       -3.896551    1.949836   -1.044894
     25          1           0       -2.342166    2.758270   -0.948207
     26          1           0       -3.276780    2.507929    0.538592
     27          1           0       -4.927255   -1.393738    0.575401
     28          1           0       -5.030295   -0.068637   -0.585303
     29          1           0       -4.792888    0.271482    1.153566
 ---------------------------------------------------------------------
 Rotational constants (GHZ):      1.7535768      0.3268002      0.2853149
 Leave Link  202 at Thu Sep 30 16:25:41 2021, MaxMem= 1073741824 cpu:       0.0
 (Enter /sw/target/amd/app/gaussian/Gaussian09RevA.02_gcc-4.9.2/g09/l301.exe)
 Standard basis: 6-31G(d) (6D, 7F)
 Ernie: Thresh=  0.10000D-02 Tol=  0.10000D-05 Strict=F.
 There are   240 symmetry adapted basis functions of A   symmetry.
 Integral buffers will be    131072 words long.
 Raffenetti 2 integral format.
 Two-electron integral symmetry is turned on.
   240 basis functions,   452 primitive gaussians,   240 cartesian basis functions
    52 alpha electrons       52 beta electrons
       nuclear repulsion energy       874.8859947236 Hartrees.
 IExCor=  402 DFT=T Ex+Corr=B3LYP ExCW=0 ScaHFX=  0.200000
 ScaDFX=  0.800000  0.720000  1.000000  0.810000 ScalE2=  1.000000  1.000000
 IRadAn=      0 IRanWt=     -1 IRanGd=            0 ICorTp=0
 NAtoms=   29 NActive=   29 NUniq=   29 SFac= 7.50D-01 NAtFMM=   80 NAOKFM=F Big=F
 Leave Link  301 at Thu Sep 30 16:25:41 2021, MaxMem= 1073741824 cpu:       0.1
 (Enter /sw/target/amd/app/gaussian/Gaussian09RevA.02_gcc-4.9.2/g09/l302.exe)
 NPDir=0 NMtPBC=     1 NCelOv=     1 NCel=       1 NClECP=     1 NCelD=      1
         NCelK=      1 NCelE2=     1 NClLst=     1 CellRange=     0.0.
 One-electron integrals computed using PRISM.
 NBasis=   240 RedAO= T  NBF=   240
 NBsUse=   240 1.00D-06 NBFU=   240
 Precomputing XC quadrature grid using
 IXCGrd= 2 IRadAn=           0 IRanWt=          -1 IRanGd=           0 AccXCQ= 1.00D-10.
 NRdTot=    1839 NPtTot=      234580 NUsed=      247843 NTot=      247875
 NSgBfM=   239   239   239   239   239 NAtAll=    29    29.
 Leave Link  302 at Thu Sep 30 16:25:45 2021, MaxMem= 1073741824 cpu:       2.1
 (Enter /sw/target/amd/app/gaussian/Gaussian09RevA.02_gcc-4.9.2/g09/l303.exe)
 DipDrv:  MaxL=1.
 Leave Link  303 at Thu Sep 30 16:25:46 2021, MaxMem= 1073741824 cpu:       0.2
 (Enter /sw/target/amd/app/gaussian/Gaussian09RevA.02_gcc-4.9.2/g09/l401.exe)
 Harris functional with IExCor=  402 diagonalized for initial guess.
 ExpMin= 1.61D-01 ExpMax= 5.48D+03 ExpMxC= 8.25D+02 IAcc=1 IRadAn=         1 AccDes= 0.00D+00
 HarFok:  IExCor=  402 AccDes= 0.00D+00 IRadAn=         1 IDoV= 1
 ScaDFX=  1.000000  1.000000  1.000000  1.000000
 FoFCou: FMM=F IPFlag=           0 FMFlag=      100000 FMFlg1=           0
         NFxFlg=           0 DoJE=T BraDBF=F KetDBF=T FulRan=T
         Omega=  0.000000  0.000000  1.000000  0.000000  0.000000 ICntrl=     500 IOpCl=  0
         NMat0=    1 NMatS0=    1 NMatT0=    0 NMatD0=    1 NMtDS0=    0 NMtDT0=    0
         I1Cent=           4 NGrid=           0.
 Petite list used in FoFCou.
 Harris En= -633.537466730180    
 Initial guess orbital symmetries:
       Occupied  (A) (A) (A) (A) (A) (A) (A) (A) (A) (A) (A) (A)
                 (A) (A) (A) (A) (A) (A) (A) (A) (A) (A) (A) (A)
                 (A) (A) (A) (A) (A) (A) (A) (A) (A) (A) (A) (A)
                 (A) (A) (A) (A) (A) (A) (A) (A) (A) (A) (A) (A)
                 (A) (A) (A) (A)
       Virtual   (A) (A) (A) (A) (A) (A) (A) (A) (A) (A) (A) (A)
                 (A) (A) (A) (A) (A) (A) (A) (A) (A) (A) (A) (A)
                 (A) (A) (A) (A) (A) (A) (A) (A) (A) (A) (A) (A)
                 (A) (A) (A) (A) (A) (A) (A) (A) (A) (A) (A) (A)
                 (A) (A) (A) (A) (A) (A) (A) (A) (A) (A) (A) (A)
                 (A) (A) (A) (A) (A) (A) (A) (A) (A) (A) (A) (A)
                 (A) (A) (A) (A) (A) (A) (A) (A) (A) (A) (A) (A)
                 (A) (A) (A) (A) (A) (A) (A) (A) (A) (A) (A) (A)
                 (A) (A) (A) (A) (A) (A) (A) (A) (A) (A) (A) (A)
                 (A) (A) (A) (A) (A) (A) (A) (A) (A) (A) (A) (A)
                 (A) (A) (A) (A) (A) (A) (A) (A) (A) (A) (A) (A)
                 (A) (A) (A) (A) (A) (A) (A) (A) (A) (A) (A) (A)
                 (A) (A) (A) (A) (A) (A) (A) (A) (A) (A) (A) (A)
                 (A) (A) (A) (A) (A) (A) (A) (A) (A) (A) (A) (A)
                 (A) (A) (A) (A) (A) (A) (A) (A) (A) (A) (A) (A)
                 (A) (A) (A) (A) (A) (A) (A) (A)
 The electronic state of the initial guess is 1-A.
 Leave Link  401 at Thu Sep 30 16:25:57 2021, MaxMem= 1073741824 cpu:       9.2
 (Enter /sw/target/amd/app/gaussian/Gaussian09RevA.02_gcc-4.9.2/g09/l502.exe)
 Closed shell SCF:
 Requested convergence on RMS density matrix=1.00D-08 within  64 cycles.
 Requested convergence on MAX density matrix=1.00D-06.
 Requested convergence on             energy=1.00D-06.
 No special actions if energy rises.
 Using DIIS extrapolation, IDIIS=  1040.
 Integral symmetry usage will be decided dynamically.
       247569 words used for storage of precomputed grid.
 Keep R1 ints in memory in canonical form, NReq=425625485.
 IEnd=      429171 IEndB=      429171 NGot=  1073741824 MDV=   655177030
 LenX=   655177030 LenY=   655118989
 Symmetry not used in FoFDir.
 MinBra= 0 MaxBra= 2 Meth= 1.
 IRaf=       0 NMat=   1 IRICut=       1 DoRegI=T DoRafI=F ISym2E= 0 JSym2E=0.
 Integral accuracy reduced to 1.0D-05 until final iterations.

 Cycle   1  Pass 0  IDiag  1:
 E= -632.998660773709    
 DIIS: error= 3.09D-02 at cycle   1 NSaved=   1.
 NSaved= 1 IEnMin= 1 EnMin= -632.998660773709     IErMin= 1 ErrMin= 3.09D-02
 ErrMax= 3.09D-02 EMaxC= 1.00D-01 BMatC= 4.34D-01 BMatP= 4.34D-01
 IDIUse=3 WtCom= 6.91D-01 WtEn= 3.09D-01
 Coeff-Com:  0.100D+01
 Coeff-En:   0.100D+01
 Coeff:      0.100D+01
 Gap=     0.287 Goal=   None    Shift=    0.000
 GapD=    0.287 DampG=1.000 DampE=0.500 DampFc=0.5000 IDamp=-1.
 Damping current iteration by 5.00D-01
 RMSDP=6.07D-03 MaxDP=2.24D-01              OVMax= 2.58D-01

 Cycle   2  Pass 0  IDiag  1:
 E= -633.140289486177     Delta-E=       -0.141628712468 Rises=F Damp=T
 DIIS: error= 1.34D-02 at cycle   2 NSaved=   2.
 NSaved= 2 IEnMin= 2 EnMin= -633.140289486177     IErMin= 2 ErrMin= 1.34D-02
 ErrMax= 1.34D-02 EMaxC= 1.00D-01 BMatC= 5.82D-02 BMatP= 4.34D-01
 IDIUse=3 WtCom= 8.66D-01 WtEn= 1.34D-01
 Coeff-Com:  0.187D+00 0.813D+00
 Coeff-En:   0.279D+00 0.721D+00
 Coeff:      0.199D+00 0.801D+00
 Gap=     0.252 Goal=   None    Shift=    0.000
 RMSDP=2.07D-03 MaxDP=7.52D-02 DE=-1.42D-01 OVMax= 1.63D-01

 Cycle   3  Pass 0  IDiag  1:
 E= -633.359019717981     Delta-E=       -0.218730231805 Rises=F Damp=F
 DIIS: error= 1.86D-02 at cycle   3 NSaved=   3.
 NSaved= 3 IEnMin= 3 EnMin= -633.359019717981     IErMin= 2 ErrMin= 1.34D-02
 ErrMax= 1.86D-02 EMaxC= 1.00D-01 BMatC= 7.49D-02 BMatP= 5.82D-02
 IDIUse=2 WtCom= 0.00D+00 WtEn= 1.00D+00
 Coeff-En:   0.000D+00 0.000D+00 0.100D+01
 Coeff:      0.000D+00 0.000D+00 0.100D+01
 Gap=     0.256 Goal=   None    Shift=    0.000
 RMSDP=3.36D-03 MaxDP=1.67D-01 DE=-2.19D-01 OVMax= 2.74D-01

 Cycle   4  Pass 0  IDiag  1:
 E= -633.052641426580     Delta-E=        0.306378291402 Rises=F Damp=F
 DIIS: error= 4.31D-02 at cycle   4 NSaved=   4.
 NSaved= 4 IEnMin= 3 EnMin= -633.359019717981     IErMin= 2 ErrMin= 1.34D-02
 ErrMax= 4.31D-02 EMaxC= 1.00D-01 BMatC= 4.61D-01 BMatP= 5.82D-02
 IDIUse=2 WtCom= 0.00D+00 WtEn= 1.00D+00
 Coeff-En:   0.000D+00 0.000D+00 0.800D+00 0.200D+00
 Coeff:      0.000D+00 0.000D+00 0.800D+00 0.200D+00
 Gap=     0.245 Goal=   None    Shift=    0.000
 RMSDP=1.81D-03 MaxDP=9.06D-02 DE= 3.06D-01 OVMax= 1.37D-01

 Cycle   5  Pass 0  IDiag  1:
 E= -633.396553860993     Delta-E=       -0.343912434413 Rises=F Damp=F
 DIIS: error= 1.10D-02 at cycle   5 NSaved=   5.
 NSaved= 5 IEnMin= 5 EnMin= -633.396553860993     IErMin= 5 ErrMin= 1.10D-02
 ErrMax= 1.10D-02 EMaxC= 1.00D-01 BMatC= 3.17D-02 BMatP= 5.82D-02
 IDIUse=3 WtCom= 8.90D-01 WtEn= 1.10D-01
 Coeff-Com: -0.659D-02 0.488D-01 0.320D+00-0.737D-01 0.711D+00
 Coeff-En:   0.000D+00 0.000D+00 0.335D+00 0.000D+00 0.665D+00
 Coeff:     -0.587D-02 0.434D-01 0.322D+00-0.655D-01 0.706D+00
 Gap=     0.227 Goal=   None    Shift=    0.000
 RMSDP=6.73D-04 MaxDP=2.88D-02 DE=-3.44D-01 OVMax= 3.81D-02

 Cycle   6  Pass 0  IDiag  1:
 E= -633.422413606654     Delta-E=       -0.025859745661 Rises=F Damp=F
 DIIS: error= 1.05D-03 at cycle   6 NSaved=   6.
 NSaved= 6 IEnMin= 6 EnMin= -633.422413606654     IErMin= 6 ErrMin= 1.05D-03
 ErrMax= 1.05D-03 EMaxC= 1.00D-01 BMatC= 4.17D-04 BMatP= 3.17D-02
 IDIUse=3 WtCom= 9.90D-01 WtEn= 1.05D-02
 Coeff-Com: -0.805D-02 0.269D-01 0.168D+00-0.635D-01 0.473D+00 0.404D+00
 Coeff-En:   0.000D+00 0.000D+00 0.000D+00 0.000D+00 0.000D+00 0.100D+01
 Coeff:     -0.797D-02 0.266D-01 0.166D+00-0.629D-01 0.468D+00 0.410D+00
 Gap=     0.225 Goal=   None    Shift=    0.000
 RMSDP=9.50D-05 MaxDP=3.23D-03 DE=-2.59D-02 OVMax= 8.53D-03

 Cycle   7  Pass 0  IDiag  1:
 E= -633.422808143803     Delta-E=       -0.000394537149 Rises=F Damp=F
 DIIS: error= 1.72D-04 at cycle   7 NSaved=   7.
 NSaved= 7 IEnMin= 7 EnMin= -633.422808143803     IErMin= 7 ErrMin= 1.72D-04
 ErrMax= 1.72D-04 EMaxC= 1.00D-01 BMatC= 1.00D-05 BMatP= 4.17D-04
 IDIUse=3 WtCom= 9.98D-01 WtEn= 1.72D-03
 Coeff-Com: -0.129D-02 0.264D-02 0.311D-01-0.133D-01 0.893D-01 0.144D+00
 Coeff-Com:  0.748D+00
 Coeff-En:   0.000D+00 0.000D+00 0.000D+00 0.000D+00 0.000D+00 0.000D+00
 Coeff-En:   0.100D+01
 Coeff:     -0.129D-02 0.264D-02 0.311D-01-0.133D-01 0.891D-01 0.144D+00
 Coeff:      0.748D+00
 Gap=     0.225 Goal=   None    Shift=    0.000
 RMSDP=1.78D-05 MaxDP=5.63D-04 DE=-3.95D-04 OVMax= 1.33D-03

 Cycle   8  Pass 0  IDiag  1:
 E= -633.422817328638     Delta-E=       -0.000009184836 Rises=F Damp=F
 DIIS: error= 4.69D-05 at cycle   8 NSaved=   8.
 NSaved= 8 IEnMin= 8 EnMin= -633.422817328638     IErMin= 8 ErrMin= 4.69D-05
 ErrMax= 4.69D-05 EMaxC= 1.00D-01 BMatC= 1.28D-06 BMatP= 1.00D-05
 IDIUse=1 WtCom= 1.00D+00 WtEn= 0.00D+00
 Coeff-Com: -0.242D-03-0.240D-03 0.104D-01-0.421D-02 0.277D-01 0.648D-01
 Coeff-Com:  0.448D+00 0.453D+00
 Coeff:     -0.242D-03-0.240D-03 0.104D-01-0.421D-02 0.277D-01 0.648D-01
 Coeff:      0.448D+00 0.453D+00
 Gap=     0.225 Goal=   None    Shift=    0.000
 RMSDP=5.40D-06 MaxDP=2.69D-04 DE=-9.18D-06 OVMax= 4.35D-04

 Initial convergence to 1.0D-05 achieved.  Increase integral accuracy.
 Cycle   9  Pass 1  IDiag  1:
 E= -633.422846860687     Delta-E=       -0.000029532049 Rises=F Damp=F
 DIIS: error= 1.37D-05 at cycle   1 NSaved=   1.
 NSaved= 1 IEnMin= 1 EnMin= -633.422846860687     IErMin= 1 ErrMin= 1.37D-05
 ErrMax= 1.37D-05 EMaxC= 1.00D-01 BMatC= 1.13D-07 BMatP= 1.13D-07
 IDIUse=1 WtCom= 1.00D+00 WtEn= 0.00D+00
 Coeff-Com:  0.100D+01
 Coeff:      0.100D+01
 Gap=     0.225 Goal=   None    Shift=    0.000
 RMSDP=5.40D-06 MaxDP=2.69D-04 DE=-2.95D-05 OVMax= 2.47D-04

 Cycle  10  Pass 1  IDiag  1:
 E= -633.422846789380     Delta-E=        0.000000071307 Rises=F Damp=F
 DIIS: error= 2.71D-05 at cycle   2 NSaved=   2.
 NSaved= 2 IEnMin= 1 EnMin= -633.422846860687     IErMin= 1 ErrMin= 1.37D-05
 ErrMax= 2.71D-05 EMaxC= 1.00D-01 BMatC= 2.00D-07 BMatP= 1.13D-07
 IDIUse=1 WtCom= 1.00D+00 WtEn= 0.00D+00
 Coeff-Com:  0.584D+00 0.416D+00
 Coeff:      0.584D+00 0.416D+00
 Gap=     0.225 Goal=   None    Shift=    0.000
 RMSDP=2.45D-06 MaxDP=8.20D-05 DE= 7.13D-08 OVMax= 2.24D-04

 Cycle  11  Pass 1  IDiag  1:
 E= -633.422846984199     Delta-E=       -0.000000194819 Rises=F Damp=F
 DIIS: error= 7.19D-06 at cycle   3 NSaved=   3.
 NSaved= 3 IEnMin= 3 EnMin= -633.422846984199     IErMin= 3 ErrMin= 7.19D-06
 ErrMax= 7.19D-06 EMaxC= 1.00D-01 BMatC= 1.50D-08 BMatP= 1.13D-07
 IDIUse=1 WtCom= 1.00D+00 WtEn= 0.00D+00
 Coeff-Com:  0.371D-01 0.213D+00 0.750D+00
 Coeff:      0.371D-01 0.213D+00 0.750D+00
 Gap=     0.225 Goal=   None    Shift=    0.000
 RMSDP=7.32D-07 MaxDP=2.14D-05 DE=-1.95D-07 OVMax= 4.93D-05

 Cycle  12  Pass 1  IDiag  1:
 E= -633.422846997215     Delta-E=       -0.000000013015 Rises=F Damp=F
 DIIS: error= 3.63D-06 at cycle   4 NSaved=   4.
 NSaved= 4 IEnMin= 4 EnMin= -633.422846997215     IErMin= 4 ErrMin= 3.63D-06
 ErrMax= 3.63D-06 EMaxC= 1.00D-01 BMatC= 4.06D-09 BMatP= 1.50D-08
 IDIUse=1 WtCom= 1.00D+00 WtEn= 0.00D+00
 Coeff-Com: -0.111D-01 0.116D+00 0.501D+00 0.394D+00
 Coeff:     -0.111D-01 0.116D+00 0.501D+00 0.394D+00
 Gap=     0.225 Goal=   None    Shift=    0.000
 RMSDP=2.44D-07 MaxDP=1.23D-05 DE=-1.30D-08 OVMax= 1.52D-05

 Cycle  13  Pass 1  IDiag  1:
 E= -633.422847000292     Delta-E=       -0.000000003078 Rises=F Damp=F
 DIIS: error= 4.76D-07 at cycle   5 NSaved=   5.
 NSaved= 5 IEnMin= 5 EnMin= -633.422847000292     IErMin= 5 ErrMin= 4.76D-07
 ErrMax= 4.76D-07 EMaxC= 1.00D-01 BMatC= 1.30D-10 BMatP= 4.06D-09
 IDIUse=1 WtCom= 1.00D+00 WtEn= 0.00D+00
 Coeff-Com: -0.882D-02 0.431D-01 0.206D+00 0.209D+00 0.551D+00
 Coeff:     -0.882D-02 0.431D-01 0.206D+00 0.209D+00 0.551D+00
 Gap=     0.225 Goal=   None    Shift=    0.000
 RMSDP=5.61D-08 MaxDP=2.16D-06 DE=-3.08D-09 OVMax= 3.21D-06

 Cycle  14  Pass 1  IDiag  1:
 E= -633.422847000381     Delta-E=       -0.000000000088 Rises=F Damp=F
 DIIS: error= 1.71D-07 at cycle   6 NSaved=   6.
 NSaved= 6 IEnMin= 6 EnMin= -633.422847000381     IErMin= 6 ErrMin= 1.71D-07
 ErrMax= 1.71D-07 EMaxC= 1.00D-01 BMatC= 1.38D-11 BMatP= 1.30D-10
 IDIUse=1 WtCom= 1.00D+00 WtEn= 0.00D+00
 Coeff-Com: -0.456D-02 0.176D-01 0.885D-01 0.971D-01 0.323D+00 0.478D+00
 Coeff:     -0.456D-02 0.176D-01 0.885D-01 0.971D-01 0.323D+00 0.478D+00
 Gap=     0.225 Goal=   None    Shift=    0.000
 RMSDP=1.57D-08 MaxDP=6.87D-07 DE=-8.82D-11 OVMax= 9.07D-07

 Cycle  15  Pass 1  IDiag  1:
 E= -633.422847000377     Delta-E=        0.000000000004 Rises=F Damp=F
 DIIS: error= 4.84D-08 at cycle   7 NSaved=   7.
 NSaved= 7 IEnMin= 6 EnMin= -633.422847000381     IErMin= 7 ErrMin= 4.84D-08
 ErrMax= 4.84D-08 EMaxC= 1.00D-01 BMatC= 9.29D-13 BMatP= 1.38D-11
 IDIUse=1 WtCom= 1.00D+00 WtEn= 0.00D+00
 Coeff-Com: -0.958D-03 0.252D-02 0.139D-01 0.183D-01 0.788D-01 0.236D+00
 Coeff-Com:  0.651D+00
 Coeff:     -0.958D-03 0.252D-02 0.139D-01 0.183D-01 0.788D-01 0.236D+00
 Coeff:      0.651D+00
 Gap=     0.225 Goal=   None    Shift=    0.000
 RMSDP=5.24D-09 MaxDP=1.77D-07 DE= 3.87D-12 OVMax= 3.90D-07

 SCF Done:  E(RB3LYP) =  -633.422847000     A.U. after   15 cycles
             Convg  =    0.5245D-08             -V/T =  2.0098
 KE= 6.272806050086D+02 PE=-3.222955359716D+03 EE= 1.087365912984D+03
 Leave Link  502 at Thu Sep 30 16:33:08 2021, MaxMem= 1073741824 cpu:     220.4
 (Enter /sw/target/amd/app/gaussian/Gaussian09RevA.02_gcc-4.9.2/g09/l508.exe)
 QCSCF skips out because SCF is already converged.
 Leave Link  508 at Thu Sep 30 16:33:10 2021, MaxMem= 1073741824 cpu:       0.0
 (Enter /sw/target/amd/app/gaussian/Gaussian09RevA.02_gcc-4.9.2/g09/l601.exe)
 Copying SCF densities to generalized density rwf, IOpCl= 0 IROHF=0.

 **********************************************************************

            Population analysis using the SCF density.

 **********************************************************************

 Orbital symmetries:
       Occupied  (A) (A) (A) (A) (A) (A) (A) (A) (A) (A) (A) (A)
                 (A) (A) (A) (A) (A) (A) (A) (A) (A) (A) (A) (A)
                 (A) (A) (A) (A) (A) (A) (A) (A) (A) (A) (A) (A)
                 (A) (A) (A) (A) (A) (A) (A) (A) (A) (A) (A) (A)
                 (A) (A) (A) (A)
       Virtual   (A) (A) (A) (A) (A) (A) (A) (A) (A) (A) (A) (A)
                 (A) (A) (A) (A) (A) (A) (A) (A) (A) (A) (A) (A)
                 (A) (A) (A) (A) (A) (A) (A) (A) (A) (A) (A) (A)
                 (A) (A) (A) (A) (A) (A) (A) (A) (A) (A) (A) (A)
                 (A) (A) (A) (A) (A) (A) (A) (A) (A) (A) (A) (A)
                 (A) (A) (A) (A) (A) (A) (A) (A) (A) (A) (A) (A)
                 (A) (A) (A) (A) (A) (A) (A) (A) (A) (A) (A) (A)
                 (A) (A) (A) (A) (A) (A) (A) (A) (A) (A) (A) (A)
                 (A) (A) (A) (A) (A) (A) (A) (A) (A) (A) (A) (A)
                 (A) (A) (A) (A) (A) (A) (A) (A) (A) (A) (A) (A)
                 (A) (A) (A) (A) (A) (A) (A) (A) (A) (A) (A) (A)
                 (A) (A) (A) (A) (A) (A) (A) (A) (A) (A) (A) (A)
                 (A) (A) (A) (A) (A) (A) (A) (A) (A) (A) (A) (A)
                 (A) (A) (A) (A) (A) (A) (A) (A) (A) (A) (A) (A)
                 (A) (A) (A) (A) (A) (A) (A) (A) (A) (A) (A) (A)
                 (A) (A) (A) (A) (A) (A) (A) (A)
 The electronic state is 1-A.
 Alpha  occ. eigenvalues --  -19.19323 -19.11370 -14.36743 -10.33441 -10.24338
 Alpha  occ. eigenvalues --  -10.22048 -10.21653 -10.18917 -10.18694 -10.18371
 Alpha  occ. eigenvalues --  -10.18254 -10.17825 -10.17720 -10.17585  -1.08950
 Alpha  occ. eigenvalues --   -1.00426  -0.93572  -0.85122  -0.77503  -0.75734
 Alpha  occ. eigenvalues --   -0.72672  -0.70872  -0.68846  -0.66493  -0.60751
 Alpha  occ. eigenvalues --   -0.58550  -0.54472  -0.52721  -0.48584  -0.48257
 Alpha  occ. eigenvalues --   -0.47111  -0.46176  -0.44307  -0.43374  -0.42724
 Alpha  occ. eigenvalues --   -0.41860  -0.40955  -0.40351  -0.40232  -0.40150
 Alpha  occ. eigenvalues --   -0.39774  -0.38307  -0.37926  -0.36966  -0.34917
 Alpha  occ. eigenvalues --   -0.34029  -0.32874  -0.30672  -0.26461  -0.24071
 Alpha  occ. eigenvalues --   -0.23501  -0.21806
 Alpha virt. eigenvalues --    0.00714   0.00940   0.04769   0.08999   0.09633
 Alpha virt. eigenvalues --    0.10566   0.12691   0.13378   0.14360   0.14691
 Alpha virt. eigenvalues --    0.15122   0.15344   0.16105   0.16435   0.17409
 Alpha virt. eigenvalues --    0.17767   0.18523   0.19122   0.20067   0.21467
 Alpha virt. eigenvalues --    0.23155   0.24249   0.24956   0.25743   0.26897
 Alpha virt. eigenvalues --    0.32111   0.35321   0.35545   0.35657   0.38270
 Alpha virt. eigenvalues --    0.40616   0.47756   0.48068   0.49228   0.50242
 Alpha virt. eigenvalues --    0.51210   0.52257   0.52466   0.54113   0.55118
 Alpha virt. eigenvalues --    0.55918   0.56481   0.57537   0.57907   0.60038
 Alpha virt. eigenvalues --    0.61528   0.62314   0.62866   0.64669   0.66140
 Alpha virt. eigenvalues --    0.67304   0.67543   0.68933   0.70319   0.71837
 Alpha virt. eigenvalues --    0.74260   0.74432   0.76270   0.77331   0.78222
 Alpha virt. eigenvalues --    0.79692   0.80461   0.82274   0.82415   0.83915
 Alpha virt. eigenvalues --    0.85101   0.86059   0.87707   0.88763   0.88809
 Alpha virt. eigenvalues --    0.89468   0.89687   0.90688   0.91540   0.92501
 Alpha virt. eigenvalues --    0.93901   0.94886   0.95541   0.97275   0.99376
 Alpha virt. eigenvalues --    0.99671   1.00834   1.02039   1.05276   1.06163
 Alpha virt. eigenvalues --    1.08578   1.12307   1.14161   1.17355   1.18687
 Alpha virt. eigenvalues --    1.20406   1.22953   1.24796   1.25645   1.28718
 Alpha virt. eigenvalues --    1.31908   1.35098   1.36864   1.38727   1.40515
 Alpha virt. eigenvalues --    1.41538   1.41688   1.42260   1.44094   1.47500
 Alpha virt. eigenvalues --    1.48637   1.49799   1.53365   1.58494   1.62594
 Alpha virt. eigenvalues --    1.67080   1.74768   1.75240   1.77770   1.79660
 Alpha virt. eigenvalues --    1.80171   1.81869   1.85072   1.86247   1.86875
 Alpha virt. eigenvalues --    1.88341   1.90899   1.92120   1.92616   1.93589
 Alpha virt. eigenvalues --    1.93895   1.95578   1.97305   1.99604   2.00930
 Alpha virt. eigenvalues --    2.03087   2.05973   2.07721   2.08582   2.09985
 Alpha virt. eigenvalues --    2.13581   2.15839   2.16212   2.18697   2.19003
 Alpha virt. eigenvalues --    2.20318   2.22260   2.25886   2.27569   2.28719
 Alpha virt. eigenvalues --    2.30540   2.31622   2.33787   2.34629   2.35301
 Alpha virt. eigenvalues --    2.38393   2.40378   2.43873   2.44779   2.49340
 Alpha virt. eigenvalues --    2.52315   2.53399   2.59236   2.63798   2.64592
 Alpha virt. eigenvalues --    2.66540   2.69157   2.70733   2.75313   2.78994
 Alpha virt. eigenvalues --    2.82093   2.85650   2.89093   2.96349   2.99463
 Alpha virt. eigenvalues --    3.06473   3.18827   3.28078   3.43833   3.99145
 Alpha virt. eigenvalues --    4.07932   4.09778   4.13182   4.16659   4.22872
 Alpha virt. eigenvalues --    4.25544   4.27338   4.29370   4.36860   4.38686
 Alpha virt. eigenvalues --    4.48615   4.53006   4.79511
          Condensed to atoms (all electrons):
              1          2          3          4          5          6
     1  O    8.108615   0.540563  -0.087016  -0.008425   0.002733  -0.069178
     2  C    0.540563   4.157926   0.332779  -0.031256  -0.028028   0.261281
     3  N   -0.087016   0.332779   6.931819   0.305405   0.288815  -0.086988
     4  C   -0.008425  -0.031256   0.305405   4.969932  -0.052902   0.002179
     5  C    0.002733  -0.028028   0.288815  -0.052902   4.971604  -0.001801
     6  O   -0.069178   0.261281  -0.086988   0.002179  -0.001801   8.343440
     7  C   -0.002676  -0.012945   0.001638  -0.000012   0.000272   0.201493
     8  C    0.000269   0.000900  -0.000253   0.000003  -0.000017  -0.048644
     9  C    0.000000  -0.000018   0.000000  -0.000000   0.000000   0.002966
    10  C    0.000005   0.000022   0.000000  -0.000000   0.000000   0.000342
    11  C    0.000185   0.000431   0.000001  -0.000000  -0.000000   0.003036
    12  C   -0.004308  -0.001653   0.000273   0.000000  -0.000003  -0.042399
    13  C   -0.000009  -0.000019  -0.000000   0.000000   0.000000  -0.000060
    14  C    0.000000   0.000000   0.000000  -0.000000  -0.000000   0.000001
    15  H    0.017156  -0.002324  -0.027731   0.371377   0.004140   0.000302
    16  H    0.000453   0.002760  -0.044604   0.376497  -0.001964  -0.000048
    17  H    0.000795  -0.000204  -0.057622   0.380993  -0.000655   0.000061
    18  H    0.000113  -0.005273  -0.025419   0.003846   0.376783   0.009687
    19  H   -0.000034  -0.001263  -0.053743   0.000674   0.374967   0.000641
    20  H   -0.000040   0.002462  -0.042521  -0.004066   0.374471   0.000292
    21  H    0.000012   0.000059  -0.000026   0.000000   0.000027  -0.000658
    22  H   -0.000000   0.000000  -0.000000   0.000000  -0.000000  -0.000057
    23  H    0.015295   0.000743  -0.000051   0.000009  -0.000008  -0.006828
    24  H   -0.000000   0.000000   0.000000  -0.000000  -0.000000   0.000000
    25  H   -0.000027  -0.000003  -0.000000   0.000000   0.000000  -0.000001
    26  H    0.000000   0.000000   0.000000  -0.000000  -0.000000   0.000000
    27  H   -0.000000  -0.000000  -0.000000   0.000000   0.000000  -0.000000
    28  H   -0.000000  -0.000000  -0.000000  -0.000000   0.000000  -0.000000
    29  H    0.000000  -0.000000   0.000000   0.000000  -0.000000  -0.000000
              7          8          9         10         11         12
     1  O   -0.002676   0.000269   0.000000   0.000005   0.000185  -0.004308
     2  C   -0.012945   0.000900  -0.000018   0.000022   0.000431  -0.001653
     3  N    0.001638  -0.000253   0.000000   0.000000   0.000001   0.000273
     4  C   -0.000012   0.000003  -0.000000  -0.000000  -0.000000   0.000000
     5  C    0.000272  -0.000017   0.000000   0.000000  -0.000000  -0.000003
     6  O    0.201493  -0.048644   0.002966   0.000342   0.003036  -0.042399
     7  C    4.542581   0.542441  -0.009634  -0.038062  -0.007094   0.484508
     8  C    0.542441   5.014341   0.493288  -0.031610  -0.041373  -0.066165
     9  C   -0.009634   0.493288   4.988685   0.529189  -0.005282  -0.059728
    10  C   -0.038062  -0.031610   0.529189   4.719845   0.542454  -0.018031
    11  C   -0.007094  -0.041373  -0.005282   0.542454   4.754496   0.477545
    12  C    0.484508  -0.066165  -0.059728  -0.018031   0.477545   5.139325
    13  C    0.006628   0.000236   0.008628  -0.071116   0.353231  -0.061448
    14  C   -0.000019   0.008407  -0.068779   0.355066  -0.072510   0.009128
    15  H   -0.000004   0.000000  -0.000000  -0.000000   0.000000   0.000000
    16  H    0.000000  -0.000000  -0.000000   0.000000   0.000000   0.000000
    17  H    0.000002  -0.000000   0.000000   0.000000  -0.000000  -0.000001
    18  H    0.000134  -0.000011  -0.000000   0.000000  -0.000000   0.000013
    19  H    0.000019  -0.000001   0.000000   0.000000  -0.000000  -0.000002
    20  H   -0.000003  -0.000001   0.000000   0.000000   0.000000   0.000001
    21  H   -0.038037   0.342653  -0.038241   0.003933   0.000612   0.006517
    22  H    0.003671  -0.043172   0.351567  -0.035865   0.004987   0.000489
    23  H   -0.034402   0.005440   0.000261   0.004987  -0.037816   0.342278
    24  H   -0.000114   0.000015  -0.000035  -0.006975  -0.027184   0.002445
    25  H    0.000277  -0.000002  -0.000143   0.003821  -0.028455  -0.003669
    26  H   -0.000251   0.000047  -0.000178  -0.002707  -0.025891  -0.001300
    27  H    0.000007   0.000177  -0.003757  -0.028292   0.003817  -0.000150
    28  H    0.000033  -0.000218   0.000953  -0.027709  -0.004301  -0.000120
    29  H    0.000049  -0.000209   0.000863  -0.026667  -0.005603  -0.000160
             13         14         15         16         17         18
     1  O   -0.000009   0.000000   0.017156   0.000453   0.000795   0.000113
     2  C   -0.000019   0.000000  -0.002324   0.002760  -0.000204  -0.005273
     3  N   -0.000000   0.000000  -0.027731  -0.044604  -0.057622  -0.025419
     4  C    0.000000  -0.000000   0.371377   0.376497   0.380993   0.003846
     5  C    0.000000  -0.000000   0.004140  -0.001964  -0.000655   0.376783
     6  O   -0.000060   0.000001   0.000302  -0.000048   0.000061   0.009687
     7  C    0.006628  -0.000019  -0.000004   0.000000   0.000002   0.000134
     8  C    0.000236   0.008407   0.000000  -0.000000  -0.000000  -0.000011
     9  C    0.008628  -0.068779  -0.000000  -0.000000   0.000000  -0.000000
    10  C   -0.071116   0.355066  -0.000000   0.000000   0.000000   0.000000
    11  C    0.353231  -0.072510   0.000000   0.000000  -0.000000  -0.000000
    12  C   -0.061448   0.009128   0.000000   0.000000  -0.000001   0.000013
    13  C    5.228142  -0.018907  -0.000000  -0.000000   0.000000   0.000000
    14  C   -0.018907   5.236539  -0.000000  -0.000000   0.000000  -0.000000
    15  H   -0.000000  -0.000000   0.481068  -0.022650  -0.026840  -0.000174
    16  H   -0.000000  -0.000000  -0.022650   0.573342  -0.042906   0.000105
    17  H    0.000000   0.000000  -0.026840  -0.042906   0.587677  -0.000154
    18  H    0.000000  -0.000000  -0.000174   0.000105  -0.000154   0.500795
    19  H    0.000000   0.000000  -0.000174  -0.001725   0.007320  -0.028422
    20  H    0.000000  -0.000000   0.000012   0.006689  -0.001979  -0.024187
    21  H    0.000011  -0.000189  -0.000000  -0.000000  -0.000000   0.000108
    22  H   -0.000173  -0.010376   0.000000  -0.000000  -0.000000  -0.000000
    23  H   -0.010673  -0.000136   0.000003   0.000000  -0.000001   0.000001
    24  H    0.361122   0.003552   0.000000   0.000000  -0.000000  -0.000000
    25  H    0.365672   0.000140   0.000000  -0.000000   0.000000  -0.000000
    26  H    0.361601   0.001395  -0.000000   0.000000  -0.000000  -0.000000
    27  H    0.000203   0.364578   0.000000  -0.000000   0.000000   0.000000
    28  H    0.001611   0.359949  -0.000000  -0.000000   0.000000  -0.000000
    29  H    0.002702   0.362025   0.000000   0.000000  -0.000000   0.000000
             19         20         21         22         23         24
     1  O   -0.000034  -0.000040   0.000012  -0.000000   0.015295  -0.000000
     2  C   -0.001263   0.002462   0.000059   0.000000   0.000743   0.000000
     3  N   -0.053743  -0.042521  -0.000026  -0.000000  -0.000051   0.000000
     4  C    0.000674  -0.004066   0.000000   0.000000   0.000009  -0.000000
     5  C    0.374967   0.374471   0.000027  -0.000000  -0.000008  -0.000000
     6  O    0.000641   0.000292  -0.000658  -0.000057  -0.006828   0.000000
     7  C    0.000019  -0.000003  -0.038037   0.003671  -0.034402  -0.000114
     8  C   -0.000001  -0.000001   0.342653  -0.043172   0.005440   0.000015
     9  C    0.000000   0.000000  -0.038241   0.351567   0.000261  -0.000035
    10  C    0.000000   0.000000   0.003933  -0.035865   0.004987  -0.006975
    11  C   -0.000000   0.000000   0.000612   0.004987  -0.037816  -0.027184
    12  C   -0.000002   0.000001   0.006517   0.000489   0.342278   0.002445
    13  C    0.000000   0.000000   0.000011  -0.000173  -0.010673   0.361122
    14  C    0.000000  -0.000000  -0.000189  -0.010376  -0.000136   0.003552
    15  H   -0.000174   0.000012  -0.000000   0.000000   0.000003   0.000000
    16  H   -0.001725   0.006689  -0.000000  -0.000000   0.000000   0.000000
    17  H    0.007320  -0.001979  -0.000000  -0.000000  -0.000001  -0.000000
    18  H   -0.028422  -0.024187   0.000108  -0.000000   0.000001  -0.000000
    19  H    0.590531  -0.042738   0.000007   0.000000  -0.000001  -0.000000
    20  H   -0.042738   0.575816   0.000000  -0.000000   0.000001  -0.000000
    21  H    0.000007   0.000000   0.598542  -0.005927  -0.000157  -0.000000
    22  H    0.000000  -0.000000  -0.005927   0.602597   0.000014  -0.000002
    23  H   -0.000001   0.000001  -0.000157   0.000014   0.552183   0.000083
    24  H   -0.000000  -0.000000  -0.000000  -0.000002   0.000083   0.569283
    25  H    0.000000  -0.000000  -0.000000   0.000003   0.006572  -0.029485
    26  H    0.000000  -0.000000  -0.000000   0.000001   0.000450  -0.030486
    27  H    0.000000  -0.000000  -0.000014   0.007294   0.000002   0.000007
    28  H    0.000000  -0.000000   0.000003   0.000126  -0.000001   0.004631
    29  H   -0.000000   0.000000   0.000003   0.000184  -0.000003  -0.001160
             25         26         27         28         29
     1  O   -0.000027   0.000000  -0.000000  -0.000000   0.000000
     2  C   -0.000003   0.000000  -0.000000  -0.000000  -0.000000
     3  N   -0.000000   0.000000  -0.000000  -0.000000   0.000000
     4  C    0.000000  -0.000000   0.000000  -0.000000   0.000000
     5  C    0.000000  -0.000000   0.000000   0.000000  -0.000000
     6  O   -0.000001   0.000000  -0.000000  -0.000000  -0.000000
     7  C    0.000277  -0.000251   0.000007   0.000033   0.000049
     8  C   -0.000002   0.000047   0.000177  -0.000218  -0.000209
     9  C   -0.000143  -0.000178  -0.003757   0.000953   0.000863
    10  C    0.003821  -0.002707  -0.028292  -0.027709  -0.026667
    11  C   -0.028455  -0.025891   0.003817  -0.004301  -0.005603
    12  C   -0.003669  -0.001300  -0.000150  -0.000120  -0.000160
    13  C    0.365672   0.361601   0.000203   0.001611   0.002702
    14  C    0.000140   0.001395   0.364578   0.359949   0.362025
    15  H    0.000000  -0.000000   0.000000  -0.000000   0.000000
    16  H   -0.000000   0.000000  -0.000000  -0.000000   0.000000
    17  H    0.000000  -0.000000   0.000000   0.000000  -0.000000
    18  H   -0.000000  -0.000000   0.000000  -0.000000   0.000000
    19  H    0.000000   0.000000   0.000000   0.000000  -0.000000
    20  H   -0.000000  -0.000000  -0.000000  -0.000000   0.000000
    21  H   -0.000000  -0.000000  -0.000014   0.000003   0.000003
    22  H    0.000003   0.000001   0.007294   0.000126   0.000184
    23  H    0.006572   0.000450   0.000002  -0.000001  -0.000003
    24  H   -0.029485  -0.030486   0.000007   0.004631  -0.001160
    25  H    0.552600  -0.027355  -0.000003   0.000035  -0.000026
    26  H   -0.027355   0.556903  -0.000009  -0.000655   0.002297
    27  H   -0.000003  -0.000009   0.560966  -0.028166  -0.028908
    28  H    0.000035  -0.000655  -0.028166   0.567171  -0.031983
    29  H   -0.000026   0.002297  -0.028908  -0.031983   0.566189
 Mulliken atomic charges:
              1
     1  O   -0.514482
     2  C    0.783060
     3  N   -0.434757
     4  C   -0.314253
     5  C   -0.308433
     6  O   -0.569060
     7  C    0.359501
     8  C   -0.176540
     9  C   -0.190607
    10  C    0.127367
    11  C    0.114711
    12  C   -0.203389
    13  C   -0.527383
    14  C   -0.529863
    15  H    0.205838
    16  H    0.154050
    17  H    0.153514
    18  H    0.192056
    19  H    0.153945
    20  H    0.155791
    21  H    0.130762
    22  H    0.124638
    23  H    0.161752
    24  H    0.154303
    25  H    0.160049
    26  H    0.166135
    27  H    0.152247
    28  H    0.158642
    29  H    0.160406
 Sum of Mulliken atomic charges =  -0.00000
 Mulliken charges with hydrogens summed into heavy atoms:
              1
     1  O   -0.514482
     2  C    0.783060
     3  N   -0.434757
     4  C    0.199149
     5  C    0.193359
     6  O   -0.569060
     7  C    0.359501
     8  C   -0.045778
     9  C   -0.065969
    10  C    0.127367
    11  C    0.114711
    12  C   -0.041637
    13  C   -0.046895
    14  C   -0.058569
 Sum of Mulliken charges with hydrogens summed into heavy atoms =  -0.00000
 Electronic spatial extent (au):  <R**2>=           3891.5121
 Charge=             -0.0000 electrons
 Dipole moment (field-independent basis, Debye):
    X=              1.0287    Y=             -1.5372    Z=             -0.4508  Tot=              1.9038
 Quadrupole moment (field-independent basis, Debye-Ang):
   XX=            -64.0719   YY=            -81.5820   ZZ=            -84.1731
   XY=             -3.6133   XZ=             -0.8777   YZ=             -1.7984
 Traceless Quadrupole moment (field-independent basis, Debye-Ang):
   XX=             12.5371   YY=             -4.9730   ZZ=             -7.5641
   XY=             -3.6133   XZ=             -0.8777   YZ=             -1.7984
 Octapole moment (field-independent basis, Debye-Ang**2):
  XXX=             66.9169  YYY=             -7.6450  ZZZ=              0.3114  XYY=              0.3993
  XXY=             -2.0704  XXZ=              2.4216  XZZ=             11.9122  YZZ=              2.7608
  YYZ=             -0.4385  XYZ=              3.7345
 Hexadecapole moment (field-independent basis, Debye-Ang**3):
 XXXX=          -3900.6698 YYYY=           -778.4056 ZZZZ=           -180.9083 XXXY=             18.4214
 XXXZ=             -0.6306 YYYX=              7.3209 YYYZ=             -5.1824 ZZZX=              2.2934
 ZZZY=              6.6324 XXYY=           -811.8396 XXZZ=           -725.7776 YYZZ=           -162.9306
 XXYZ=              6.7460 YYXZ=             -8.4061 ZZXY=             -8.6296
 N-N= 8.748859947236D+02 E-N=-3.222955366195D+03  KE= 6.272806050086D+02
 No NMR shielding tensors so no spin-rotation constants.
 Leave Link  601 at Thu Sep 30 16:33:12 2021, MaxMem= 1073741824 cpu:       1.0
 (Enter /sw/target/amd/app/gaussian/Gaussian09RevA.02_gcc-4.9.2/g09/l701.exe)
 Compute integral first derivatives.
 ... and contract with generalized density number  0.
 Leave Link  701 at Thu Sep 30 16:33:15 2021, MaxMem= 1073741824 cpu:       1.2
 (Enter /sw/target/amd/app/gaussian/Gaussian09RevA.02_gcc-4.9.2/g09/l702.exe)
 L702 exits ... SP integral derivatives will be done elsewhere.
 Leave Link  702 at Thu Sep 30 16:33:15 2021, MaxMem= 1073741824 cpu:       0.1
 (Enter /sw/target/amd/app/gaussian/Gaussian09RevA.02_gcc-4.9.2/g09/l703.exe)
 Compute integral first derivatives, UseDBF=F ICtDFT=           0.
 Integral derivatives from FoFDir, PRISM(SPDF).
 Calling FoFJK, ICntrl=      2127 FMM=F ISym2X=0 I1Cent= 0 IOpClX= 0 NMat=1 NMatS=1 NMatT=0.
 FoFCou: FMM=F IPFlag=           0 FMFlag=      100000 FMFlg1=         800
         NFxFlg=           0 DoJE=F BraDBF=F KetDBF=F FulRan=T
         Omega=  0.000000  0.000000  1.000000  0.000000  0.000000 ICntrl=    2127 IOpCl=  0
         NMat0=    1 NMatS0=    1 NMatT0=    0 NMatD0=    1 NMtDS0=    0 NMtDT0=    0
         I1Cent=           0 NGrid=           0.
 Symmetry not used in FoFCou.
 Leave Link  703 at Thu Sep 30 16:34:48 2021, MaxMem= 1073741824 cpu:      80.5
 (Enter /sw/target/amd/app/gaussian/Gaussian09RevA.02_gcc-4.9.2/g09/l716.exe)
 Dipole        = 4.04740319D-01-6.04786642D-01-1.77360999D-01
 ***** Axes restored to original set *****
 -------------------------------------------------------------------
 Center     Atomic                   Forces (Hartrees/Bohr)
 Number     Number              X              Y              Z
 -------------------------------------------------------------------
      1        8          -0.003700519   -0.023116352   -0.002651364
      2        6           0.001825846    0.020019810   -0.005278225
      3        7           0.032026343   -0.003888365    0.008548598
      4        6           0.000263430    0.001581647   -0.001422148
      5        6           0.000561719    0.001365873   -0.002157760
      6        8          -0.008056883    0.006193396    0.002851525
      7        6          -0.009196434    0.004416604    0.003610467
      8        6          -0.000651590   -0.003204343   -0.004012676
      9        6          -0.004770684    0.006818034    0.007156169
     10        6          -0.002196469   -0.006646732   -0.004426776
     11        6          -0.010222049   -0.004309314   -0.003007795
     12        6           0.003253624    0.002004139    0.005148809
     13        6          -0.000991769   -0.003028102    0.004019965
     14        6          -0.001053053   -0.001602690   -0.000557821
     15        1           0.003325407   -0.005987432    0.001374152
     16        1          -0.003136039   -0.000051540    0.000293576
     17        1          -0.006100836    0.002082810   -0.002029236
     18        1           0.000109274    0.004142087   -0.001200917
     19        1          -0.004026345   -0.006577146   -0.002425797
     20        1          -0.002098803   -0.000748230   -0.000795618
     21        1          -0.001976061    0.001306969    0.000489952
     22        1           0.000672028    0.001236871    0.000950368
     23        1          -0.000097356   -0.002713706   -0.002935171
     24        1           0.004125338    0.002653622   -0.001754789
     25        1          -0.000500939    0.001056121   -0.002551774
     26        1           0.004524298    0.002524752    0.000835844
     27        1          -0.000909883    0.000161009   -0.000014594
     28        1           0.004363898    0.002956153    0.000135020
     29        1           0.004634504    0.001354057    0.001808016
 -------------------------------------------------------------------
 Cartesian Forces:  Max     0.032026343 RMS     0.005966152
 Leave Link  716 at Thu Sep 30 16:34:48 2021, MaxMem= 1073741824 cpu:       0.1
 (Enter /sw/target/amd/app/gaussian/Gaussian09RevA.02_gcc-4.9.2/g09/l103.exe)

 GradGradGradGradGradGradGradGradGradGradGradGradGradGradGradGradGradGrad
 Berny optimization.
 Internal  Forces:  Max     0.023190737 RMS     0.004797758
 Search for a local minimum.
 Step number   1 out of a maximum of  144
 All quantities printed in internal units (Hartrees-Bohrs-Radians)
 RMS Force = .47978D-02 SwitMx=.10000D-02 MixMth= 1
 Mixed Optimization -- RFO/linear search
 Second derivative matrix not updated -- first step.
     Eigenvalues ---    0.00715   0.00719   0.01012   0.01029   0.01335
     Eigenvalues ---    0.01467   0.01511   0.01546   0.01737   0.01835
     Eigenvalues ---    0.01874   0.02000   0.02065   0.02078   0.02098
     Eigenvalues ---    0.02130   0.02162   0.02187   0.07209   0.07225
     Eigenvalues ---    0.07295   0.07313   0.07402   0.07448   0.07758
     Eigenvalues ---    0.07774   0.16000   0.16000   0.16000   0.16000
     Eigenvalues ---    0.16000   0.16000   0.16000   0.16000   0.16000
     Eigenvalues ---    0.16000   0.16000   0.16000   0.16000   0.16000
     Eigenvalues ---    0.16000   0.22366   0.23483   0.24255   0.24533
     Eigenvalues ---    0.24600   0.24963   0.24986   0.24993   0.25000
     Eigenvalues ---    0.25000   0.25000   0.31975   0.32005   0.34121
     Eigenvalues ---    0.34243   0.34255   0.34297   0.34320   0.34334
     Eigenvalues ---    0.34363   0.34380   0.34404   0.34448   0.34507
     Eigenvalues ---    0.34557   0.35030   0.35283   0.35294   0.38066
     Eigenvalues ---    0.38236   0.41485   0.41598   0.43842   0.44666
     Eigenvalues ---    0.45740   0.46068   0.46186   0.46861   0.47977
     Eigenvalues ---    0.902201000.000001000.000001000.000001000.00000
     Eigenvalues --- 1000.000001000.000001000.000001000.000001000.00000
     Eigenvalues --- 1000.000001000.000001000.000001000.000001000.00000
     Eigenvalues --- 1000.000001000.000001000.000001000.000001000.00000
     Eigenvalues --- 1000.000001000.000001000.000001000.000001000.00000
     Eigenvalues --- 1000.000001000.000001000.000001000.000001000.00000
     Eigenvalues --- 1000.000001000.000001000.000001000.000001000.00000
     Eigenvalues --- 1000.000001000.000001000.000001000.000001000.00000
     Eigenvalues --- 1000.000001000.000001000.000001000.000001000.00000
     Eigenvalues --- 1000.000001000.000001000.000001000.000001000.00000
     Eigenvalues --- 1000.000001000.000001000.000001000.00000
 RFO step:  Lambda=-1.19519179D-02 EMin= 7.14751864D-03
 Linear search not attempted -- first point.
 Maximum step size (   0.300) exceeded in Quadratic search.
    -- Step size scaled by   0.863
 Iteration  1 RMS(Cart)=  0.11089047 RMS(Int)=  0.00440839
 Iteration  2 RMS(Cart)=  0.01051129 RMS(Int)=  0.00035356
 Iteration  3 RMS(Cart)=  0.00005871 RMS(Int)=  0.00035237
 Iteration  4 RMS(Cart)=  0.00000002 RMS(Int)=  0.00035237
 Variable       Old X    -DE/DX   Delta X   Delta X   Delta X     New X
                                 (Linear)    (Quad)   (Total)
    R1        2.32832  -0.02319   0.00000  -0.02189  -0.02189   2.30643
    R2        2.61964  -0.01841   0.00000  -0.03232  -0.03232   2.58731
    R3        2.63922  -0.02126   0.00000  -0.03872  -0.03872   2.60050
    R4        2.74024   0.00228   0.00000   0.00500   0.00500   2.74523
    R5        2.74269   0.00392   0.00000   0.00861   0.00861   2.75131
    R6        2.06722  -0.00392   0.00000  -0.00951  -0.00951   2.05771
    R7        2.06400   0.00254   0.00000   0.00614   0.00614   2.07014
    R8        2.06832   0.00393   0.00000   0.00954   0.00954   2.07786
    R9        2.06483  -0.00299   0.00000  -0.00723  -0.00723   2.05760
   R10        2.06580   0.00459   0.00000   0.01113   0.01113   2.07692
   R11        2.06770   0.00126   0.00000   0.00306   0.00306   2.07076
   R12        2.66644  -0.01101   0.00000  -0.02110  -0.02110   2.64534
   R13        2.63062  -0.00281   0.00000  -0.00496  -0.00495   2.62566
   R14        2.62902   0.00192   0.00000   0.00396   0.00395   2.63298
   R15        2.63968  -0.00254   0.00000  -0.00510  -0.00509   2.63460
   R16        2.05219  -0.00008   0.00000  -0.00018  -0.00018   2.05200
   R17        2.65645  -0.00459   0.00000  -0.00919  -0.00918   2.64726
   R18        2.05627  -0.00112   0.00000  -0.00266  -0.00266   2.05361
   R19        2.66282  -0.00052   0.00000  -0.00106  -0.00107   2.66175
   R20        2.84190   0.00679   0.00000   0.01768   0.01768   2.85958
   R21        2.65030  -0.00002   0.00000   0.00044   0.00043   2.65073
   R22        2.84134   0.00619   0.00000   0.01608   0.01608   2.85742
   R23        2.05201  -0.00354   0.00000  -0.00838  -0.00838   2.04362
   R24        2.06654   0.00170   0.00000   0.00413   0.00413   2.07067
   R25        2.07127  -0.00124   0.00000  -0.00304  -0.00304   2.06823
   R26        2.06693   0.00245   0.00000   0.00593   0.00593   2.07286
   R27        2.06922  -0.00037   0.00000  -0.00091  -0.00091   2.06831
   R28        2.06794   0.00198   0.00000   0.00480   0.00480   2.07274
   R29        2.06902   0.00157   0.00000   0.00383   0.00383   2.07285
    A1        2.13796   0.01353   0.00000   0.04601   0.04393   2.18189
    A2        2.17403   0.00393   0.00000   0.01436   0.01235   2.18638
    A3        1.97026  -0.01730   0.00000  -0.05560  -0.05765   1.91261
    A4        2.06675   0.00044   0.00000   0.00214   0.00212   2.06888
    A5        2.14541   0.00134   0.00000   0.00519   0.00518   2.15059
    A6        2.04534  -0.00173   0.00000  -0.00518  -0.00520   2.04014
    A7        1.95634  -0.00999   0.00000  -0.05196  -0.05180   1.90454
    A8        1.91239   0.00181   0.00000   0.00676   0.00642   1.91880
    A9        1.88718   0.00875   0.00000   0.04793   0.04803   1.93521
   A10        1.90280   0.00230   0.00000   0.00406   0.00376   1.90656
   A11        1.88873   0.00134   0.00000   0.01096   0.01156   1.90029
   A12        1.91607  -0.00423   0.00000  -0.01755  -0.01793   1.89815
   A13        1.95174  -0.00630   0.00000  -0.03297  -0.03284   1.91890
   A14        1.89743   0.01026   0.00000   0.05371   0.05372   1.95116
   A15        1.90068   0.00087   0.00000   0.00346   0.00322   1.90390
   A16        1.90728  -0.00191   0.00000  -0.00802  -0.00765   1.89963
   A17        1.89159   0.00157   0.00000   0.00358   0.00346   1.89505
   A18        1.91499  -0.00463   0.00000  -0.02039  -0.02073   1.89425
   A19        2.12895  -0.00123   0.00000  -0.00404  -0.00404   2.12491
   A20        2.03394  -0.00821   0.00000  -0.02789  -0.02790   2.00604
   A21        2.14698   0.00729   0.00000   0.02322   0.02319   2.17017
   A22        2.10100   0.00089   0.00000   0.00396   0.00391   2.10491
   A23        2.08652  -0.00223   0.00000  -0.00896  -0.00898   2.07754
   A24        2.10267  -0.00127   0.00000  -0.00745  -0.00746   2.09520
   A25        2.09398   0.00350   0.00000   0.01647   0.01646   2.11044
   A26        2.10780   0.00469   0.00000   0.01549   0.01547   2.12327
   A27        2.07585  -0.00103   0.00000  -0.00115  -0.00115   2.07470
   A28        2.09954  -0.00366   0.00000  -0.01433  -0.01433   2.08521
   A29        2.08127  -0.00271   0.00000  -0.00995  -0.00999   2.07128
   A30        2.08661   0.00344   0.00000   0.01184   0.01185   2.09847
   A31        2.11530  -0.00073   0.00000  -0.00188  -0.00187   2.11344
   A32        2.08407   0.00124   0.00000   0.00498   0.00492   2.08900
   A33        2.13718  -0.00595   0.00000  -0.01998  -0.01996   2.11722
   A34        2.06168   0.00471   0.00000   0.01515   0.01516   2.07685
   A35        2.10468  -0.00185   0.00000  -0.00470  -0.00475   2.09993
   A36        2.10271  -0.00088   0.00000  -0.00672  -0.00672   2.09599
   A37        2.07579   0.00274   0.00000   0.01145   0.01146   2.08724
   A38        1.93578   0.00310   0.00000   0.01601   0.01595   1.95173
   A39        1.93572  -0.00109   0.00000  -0.00156  -0.00162   1.93410
   A40        1.92638   0.00406   0.00000   0.01600   0.01601   1.94239
   A41        1.85918   0.00105   0.00000   0.01379   0.01367   1.87285
   A42        1.91657  -0.00564   0.00000  -0.03560  -0.03560   1.88097
   A43        1.88851  -0.00182   0.00000  -0.01001  -0.01001   1.87851
   A44        1.94904  -0.00241   0.00000  -0.00985  -0.00982   1.93922
   A45        1.92651   0.00470   0.00000   0.02272   0.02267   1.94918
   A46        1.92218   0.00472   0.00000   0.02232   0.02227   1.94445
   A47        1.87474  -0.00061   0.00000  -0.00043  -0.00041   1.87434
   A48        1.87908  -0.00083   0.00000  -0.00241  -0.00238   1.87670
   A49        1.91094  -0.00599   0.00000  -0.03441  -0.03453   1.87640
    D1        0.26867  -0.00053   0.00000  -0.01733  -0.01700   0.25167
    D2       -3.12149  -0.00049   0.00000  -0.00782  -0.00745  -3.12895
    D3       -2.82844  -0.00444   0.00000  -0.13095  -0.13131  -2.95975
    D4        0.06459  -0.00440   0.00000  -0.12144  -0.12177  -0.05718
    D5       -0.03887   0.00015   0.00000   0.00877   0.00960  -0.02927
    D6        3.05716   0.00443   0.00000   0.12603   0.12521  -3.10082
    D7       -0.28514  -0.00091   0.00000  -0.00276  -0.00241  -0.28755
    D8       -2.40000   0.00154   0.00000   0.02179   0.02181  -2.37820
    D9        1.79528   0.00040   0.00000   0.01056   0.01016   1.80544
[...]
 XXXZ=             -7.1350 YYYX=             -5.0864 YYYZ=              5.8232 ZZZX=              0.6861
 ZZZY=             -7.6304 XXYY=           -798.1355 XXZZ=           -725.8804 YYZZ=           -164.8030
 XXYZ=             -3.0622 YYXZ=            -10.2867 ZZXY=              8.2311
 N-N= 8.786835388647D+02 E-N=-3.230513768730D+03  KE= 6.276438127287D+02
 No NMR shielding tensors so no spin-rotation constants.
 Leave Link  601 at Thu Sep 30 23:42:58 2021, MaxMem= 1073741824 cpu:       1.3
 (Enter /sw/target/amd/app/gaussian/Gaussian09RevA.02_gcc-4.9.2/g09/l604.exe)
 Evaluate density.
 Using the total density.
 Monte-Carlo method of calculating molar volume:
 based on  0.001 e/bohr**3 density envelope.
 Number of points per bohr**3 =   20 CutOff= 1.00D-04
 Using the CI density.
 There are       419 points.  Will hold       419 in memory.
 LenV=  1073581748 MDV=  1073741824.
 Box volume = 9209.563 fraction occupied=0.186
 Integrated density= 9.6438187613445439D+02 error= 8.6038187613445439D+02
 Molar volume = 1714.429 bohr**3/mol (152.994 cm**3/mol)
 Recommended a0 for SCRF calculation =  4.82 angstrom (  9.12 bohr)
 Leave Link  604 at Thu Sep 30 23:42:59 2021, MaxMem= 1073741824 cpu:       0.3
 (Enter /sw/target/amd/app/gaussian/Gaussian09RevA.02_gcc-4.9.2/g09/l607.exe)
 ******************************Gaussian NBO Version 3.1******************************
             N A T U R A L   A T O M I C   O R B I T A L   A N D
          N A T U R A L   B O N D   O R B I T A L   A N A L Y S I S
 ******************************Gaussian NBO Version 3.1******************************
       /RESON  / : Allow strongly delocalized NBO set

 Analyzing the CI density

 Job title: O=C(N(C)C)Oc1ccc(c(c1)C)C_conf_0                                

 Storage needed:    175592 in NPA (1073737329 available)


 NATURAL POPULATIONS:  Natural atomic orbital occupancies 
                                                          
   NAO  Atom  No  lang   Type(AO)    Occupancy
 --------------------------------------------
     1    O    1  S      Cor( 1S)     1.99978
     2    O    1  S      Val( 2S)     1.70426
     3    O    1  S      Ryd( 3S)     0.00044
     4    O    1  S      Ryd( 4S)     0.00012
     5    O    1  px     Val( 2p)     1.78812
     6    O    1  px     Ryd( 3p)     0.00086
     7    O    1  py     Val( 2p)     1.57816
     8    O    1  py     Ryd( 3p)     0.00063
     9    O    1  pz     Val( 2p)     1.54912
    10    O    1  pz     Ryd( 3p)     0.00079
    11    O    1  dxy    Ryd( 3d)     0.00333
    12    O    1  dxz    Ryd( 3d)     0.00204
    13    O    1  dyz    Ryd( 3d)     0.00410
    14    O    1  dx2y2  Ryd( 3d)     0.00350
    15    O    1  dz2    Ryd( 3d)     0.00331

    16    C    2  S      Cor( 1S)     1.99937
    17    C    2  S      Val( 2S)     0.69404
    18    C    2  S      Ryd( 3S)     0.00255
    19    C    2  S      Ryd( 4S)     0.00047
    20    C    2  px     Val( 2p)     0.77770
    21    C    2  px     Ryd( 3p)     0.00611
    22    C    2  py     Val( 2p)     0.75079
    23    C    2  py     Ryd( 3p)     0.01596
    24    C    2  pz     Val( 2p)     0.79520
    25    C    2  pz     Ryd( 3p)     0.00829
    26    C    2  dxy    Ryd( 3d)     0.00323
    27    C    2  dxz    Ryd( 3d)     0.00281
    28    C    2  dyz    Ryd( 3d)     0.00126
    29    C    2  dx2y2  Ryd( 3d)     0.00233
    30    C    2  dz2    Ryd( 3d)     0.00201

    31    N    3  S      Cor( 1S)     1.99932
    32    N    3  S      Val( 2S)     1.20648
    33    N    3  S      Ryd( 3S)     0.00115
    34    N    3  S      Ryd( 4S)     0.00004
    35    N    3  px     Val( 2p)     1.29887
    36    N    3  px     Ryd( 3p)     0.00089
    37    N    3  py     Val( 2p)     1.40440
    38    N    3  py     Ryd( 3p)     0.00242
    39    N    3  pz     Val( 2p)     1.56339
    40    N    3  pz     Ryd( 3p)     0.00352
    41    N    3  dxy    Ryd( 3d)     0.00059
    42    N    3  dxz    Ryd( 3d)     0.00069
    43    N    3  dyz    Ryd( 3d)     0.00054
    44    N    3  dx2y2  Ryd( 3d)     0.00068
    45    N    3  dz2    Ryd( 3d)     0.00044

    46    C    4  S      Cor( 1S)     1.99947
    47    C    4  S      Val( 2S)     1.08656
    48    C    4  S      Ryd( 3S)     0.00092
    49    C    4  S      Ryd( 4S)     0.00002
    50    C    4  px     Val( 2p)     1.05034
    51    C    4  px     Ryd( 3p)     0.00244
    52    C    4  py     Val( 2p)     1.12953
    53    C    4  py     Ryd( 3p)     0.00224
    54    C    4  pz     Val( 2p)     1.19154
    55    C    4  pz     Ryd( 3p)     0.00162
    56    C    4  dxy    Ryd( 3d)     0.00134
    57    C    4  dxz    Ryd( 3d)     0.00152
    58    C    4  dyz    Ryd( 3d)     0.00092
    59    C    4  dx2y2  Ryd( 3d)     0.00043
    60    C    4  dz2    Ryd( 3d)     0.00045

    61    C    5  S      Cor( 1S)     1.99946
    62    C    5  S      Val( 2S)     1.08531
    63    C    5  S      Ryd( 3S)     0.00099
    64    C    5  S      Ryd( 4S)     0.00002
    65    C    5  px     Val( 2p)     1.22972
    66    C    5  px     Ryd( 3p)     0.00300
    67    C    5  py     Val( 2p)     1.00712
    68    C    5  py     Ryd( 3p)     0.00167
    69    C    5  pz     Val( 2p)     1.13774
    70    C    5  pz     Ryd( 3p)     0.00118
    71    C    5  dxy    Ryd( 3d)     0.00104
    72    C    5  dxz    Ryd( 3d)     0.00116
    73    C    5  dyz    Ryd( 3d)     0.00120
    74    C    5  dx2y2  Ryd( 3d)     0.00064
    75    C    5  dz2    Ryd( 3d)     0.00061

    76    O    6  S      Cor( 1S)     1.99969
    77    O    6  S      Val( 2S)     1.59681
    78    O    6  S      Ryd( 3S)     0.00093
    79    O    6  S      Ryd( 4S)     0.00012
    80    O    6  px     Val( 2p)     1.44782
    81    O    6  px     Ryd( 3p)     0.00077
    82    O    6  py     Val( 2p)     1.74752
    83    O    6  py     Ryd( 3p)     0.00203
    84    O    6  pz     Val( 2p)     1.73242
    85    O    6  pz     Ryd( 3p)     0.00140
    86    O    6  dxy    Ryd( 3d)     0.00101
    87    O    6  dxz    Ryd( 3d)     0.00081
    88    O    6  dyz    Ryd( 3d)     0.00110
    89    O    6  dx2y2  Ryd( 3d)     0.00111
    90    O    6  dz2    Ryd( 3d)     0.00113

    91    C    7  S      Cor( 1S)     1.99872
    92    C    7  S      Val( 2S)     0.84117
    93    C    7  S      Ryd( 3S)     0.00127
    94    C    7  S      Ryd( 4S)     0.00012
    95    C    7  px     Val( 2p)     0.72851
    96    C    7  px     Ryd( 3p)     0.00671
    97    C    7  py     Val( 2p)     1.08526
    98    C    7  py     Ryd( 3p)     0.00606
    99    C    7  pz     Val( 2p)     1.00465
   100    C    7  pz     Ryd( 3p)     0.00336
   101    C    7  dxy    Ryd( 3d)     0.00129
   102    C    7  dxz    Ryd( 3d)     0.00134
   103    C    7  dyz    Ryd( 3d)     0.00095
   104    C    7  dx2y2  Ryd( 3d)     0.00173
   105    C    7  dz2    Ryd( 3d)     0.00069

   106    C    8  S      Cor( 1S)     1.99903
   107    C    8  S      Val( 2S)     0.96496
   108    C    8  S      Ryd( 3S)     0.00073
   109    C    8  S      Ryd( 4S)     0.00005
   110    C    8  px     Val( 2p)     1.09506
   111    C    8  px     Ryd( 3p)     0.00502
   112    C    8  py     Val( 2p)     1.14978
   113    C    8  py     Ryd( 3p)     0.00449
   114    C    8  pz     Val( 2p)     1.04735
   115    C    8  pz     Ryd( 3p)     0.00550
   116    C    8  dxy    Ryd( 3d)     0.00083
   117    C    8  dxz    Ryd( 3d)     0.00064
   118    C    8  dyz    Ryd( 3d)     0.00048
   119    C    8  dx2y2  Ryd( 3d)     0.00057
   120    C    8  dz2    Ryd( 3d)     0.00049

   121    C    9  S      Cor( 1S)     1.99908
   122    C    9  S      Val( 2S)     0.95329
   123    C    9  S      Ryd( 3S)     0.00057
   124    C    9  S      Ryd( 4S)     0.00005
   125    C    9  px     Val( 2p)     1.08201
   126    C    9  px     Ryd( 3p)     0.00427
   127    C    9  py     Val( 2p)     1.14118
   128    C    9  py     Ryd( 3p)     0.00471
   129    C    9  pz     Val( 2p)     1.05074
   130    C    9  pz     Ryd( 3p)     0.00504
   131    C    9  dxy    Ryd( 3d)     0.00077
   132    C    9  dxz    Ryd( 3d)     0.00066
   133    C    9  dyz    Ryd( 3d)     0.00049
   134    C    9  dx2y2  Ryd( 3d)     0.00070
   135    C    9  dz2    Ryd( 3d)     0.00041

   136    C   10  S      Cor( 1S)     1.99901
   137    C   10  S      Val( 2S)     0.88482
   138    C   10  S      Ryd( 3S)     0.00044
   139    C   10  S      Ryd( 4S)     0.00005
   140    C   10  px     Val( 2p)     1.05350
   141    C   10  px     Ryd( 3p)     0.00428
   142    C   10  py     Val( 2p)     1.07284
   143    C   10  py     Ryd( 3p)     0.00368
   144    C   10  pz     Val( 2p)     0.97070
   145    C   10  pz     Ryd( 3p)     0.00355
   146    C   10  dxy    Ryd( 3d)     0.00084
   147    C   10  dxz    Ryd( 3d)     0.00057
   148    C   10  dyz    Ryd( 3d)     0.00076
   149    C   10  dx2y2  Ryd( 3d)     0.00070
   150    C   10  dz2    Ryd( 3d)     0.00044

   151    C   11  S      Cor( 1S)     1.99902
   152    C   11  S      Val( 2S)     0.87782
   153    C   11  S      Ryd( 3S)     0.00048
   154    C   11  S      Ryd( 4S)     0.00006
   155    C   11  px     Val( 2p)     1.06741
   156    C   11  px     Ryd( 3p)     0.00389
   157    C   11  py     Val( 2p)     1.05411
   158    C   11  py     Ryd( 3p)     0.00437
   159    C   11  pz     Val( 2p)     1.02351
   160    C   11  pz     Ryd( 3p)     0.00428
   161    C   11  dxy    Ryd( 3d)     0.00070
   162    C   11  dxz    Ryd( 3d)     0.00075
   163    C   11  dyz    Ryd( 3d)     0.00053
   164    C   11  dx2y2  Ryd( 3d)     0.00078
   165    C   11  dz2    Ryd( 3d)     0.00039

   166    C   12  S      Cor( 1S)     1.99897
   167    C   12  S      Val( 2S)     0.95634
   168    C   12  S      Ryd( 3S)     0.00072
   169    C   12  S      Ryd( 4S)     0.00006
   170    C   12  px     Val( 2p)     1.09439
   171    C   12  px     Ryd( 3p)     0.00392
   172    C   12  py     Val( 2p)     1.14829
   173    C   12  py     Ryd( 3p)     0.00405
   174    C   12  pz     Val( 2p)     1.05688
   175    C   12  pz     Ryd( 3p)     0.00541
   176    C   12  dxy    Ryd( 3d)     0.00079
   177    C   12  dxz    Ryd( 3d)     0.00068
   178    C   12  dyz    Ryd( 3d)     0.00053
   179    C   12  dx2y2  Ryd( 3d)     0.00060
   180    C   12  dz2    Ryd( 3d)     0.00042

   181    C   13  S      Cor( 1S)     1.99941
   182    C   13  S      Val( 2S)     1.09667
   183    C   13  S      Ryd( 3S)     0.00030
   184    C   13  S      Ryd( 4S)     0.00001
   185    C   13  px     Val( 2p)     1.21979
   186    C   13  px     Ryd( 3p)     0.00207
   187    C   13  py     Val( 2p)     1.13604
   188    C   13  py     Ryd( 3p)     0.00146
   189    C   13  pz     Val( 2p)     1.23171
   190    C   13  pz     Ryd( 3p)     0.00042
   191    C   13  dxy    Ryd( 3d)     0.00086
   192    C   13  dxz    Ryd( 3d)     0.00116
   193    C   13  dyz    Ryd( 3d)     0.00054
   194    C   13  dx2y2  Ryd( 3d)     0.00039
   195    C   13  dz2    Ryd( 3d)     0.00049

   196    C   14  S      Cor( 1S)     1.99940
   197    C   14  S      Val( 2S)     1.09820
   198    C   14  S      Ryd( 3S)     0.00031
   199    C   14  S      Ryd( 4S)     0.00001
   200    C   14  px     Val( 2p)     1.09809
   201    C   14  px     Ryd( 3p)     0.00105
   202    C   14  py     Val( 2p)     1.25486
   203    C   14  py     Ryd( 3p)     0.00243
   204    C   14  pz     Val( 2p)     1.23766
   205    C   14  pz     Ryd( 3p)     0.00049
   206    C   14  dxy    Ryd( 3d)     0.00053
   207    C   14  dxz    Ryd( 3d)     0.00079
   208    C   14  dyz    Ryd( 3d)     0.00075
   209    C   14  dx2y2  Ryd( 3d)     0.00075
   210    C   14  dz2    Ryd( 3d)     0.00055

   211    H   15  S      Val( 1S)     0.73476
   212    H   15  S      Ryd( 2S)     0.00153

   213    H   16  S      Val( 1S)     0.77789
   214    H   16  S      Ryd( 2S)     0.00130

   215    H   17  S      Val( 1S)     0.77924
   216    H   17  S      Ryd( 2S)     0.00145

   217    H   18  S      Val( 1S)     0.74181
   218    H   18  S      Ryd( 2S)     0.00089

   219    H   19  S      Val( 1S)     0.77840
   220    H   19  S      Ryd( 2S)     0.00165

   221    H   20  S      Val( 1S)     0.77532
   222    H   20  S      Ryd( 2S)     0.00145

   223    H   21  S      Val( 1S)     0.76174
   224    H   21  S      Ryd( 2S)     0.00118

   225    H   22  S      Val( 1S)     0.77261
   226    H   22  S      Ryd( 2S)     0.00104

   227    H   23  S      Val( 1S)     0.75457
   228    H   23  S      Ryd( 2S)     0.00132

   229    H   24  S      Val( 1S)     0.76269
   230    H   24  S      Ryd( 2S)     0.00152

   231    H   25  S      Val( 1S)     0.75878
   232    H   25  S      Ryd( 2S)     0.00081

   233    H   26  S      Val( 1S)     0.75996
   234    H   26  S      Ryd( 2S)     0.00153

   235    H   27  S      Val( 1S)     0.75982
   236    H   27  S      Ryd( 2S)     0.00085

   237    H   28  S      Val( 1S)     0.75564
   238    H   28  S      Ryd( 2S)     0.00136

   239    H   29  S      Val( 1S)     0.75426
   240    H   29  S      Ryd( 2S)     0.00137

 WARNING:  1 low occupancy (<1.9990e) core orbital  found on  C    7
           1 low occupancy (<1.9990e) core orbital  found on  C   12


 Summary of Natural Population Analysis:                  
                                                          
                                       Natural Population 
                Natural  -----------------------------------------------
    Atom  No    Charge         Core      Valence    Rydberg      Total
 -----------------------------------------------------------------------
      O    1   -0.63855      1.99978     6.61966    0.01912     8.63855
      C    2    0.93786      1.99937     3.01773    0.04504     5.06214
      N    3   -0.48343      1.99932     5.47314    0.01097     7.48343
      C    4   -0.46932      1.99947     4.45796    0.01190     6.46932
      C    5   -0.47086      1.99946     4.45988    0.01151     6.47086
      O    6   -0.53466      1.99969     6.52456    0.01041     8.53466
      C    7    0.31818      1.99872     3.65960    0.02351     5.68182
      C    8   -0.27498      1.99903     4.25715    0.01879     6.27498
      C    9   -0.24396      1.99908     4.22721    0.01767     6.24396
      C   10    0.00382      1.99901     3.98186    0.01531     5.99618
      C   11   -0.03809      1.99902     4.02285    0.01622     6.03809
      C   12   -0.27205      1.99897     4.25590    0.01718     6.27205
      C   13   -0.69133      1.99941     4.68421    0.00772     6.69133
      C   14   -0.69588      1.99940     4.68881    0.00767     6.69588
      H   15    0.26371      0.00000     0.73476    0.00153     0.73629
      H   16    0.22081      0.00000     0.77789    0.00130     0.77919
      H   17    0.21932      0.00000     0.77924    0.00145     0.78068
      H   18    0.25729      0.00000     0.74181    0.00089     0.74271
      H   19    0.21995      0.00000     0.77840    0.00165     0.78005
      H   20    0.22323      0.00000     0.77532    0.00145     0.77677
      H   21    0.23709      0.00000     0.76174    0.00118     0.76291
      H   22    0.22636      0.00000     0.77261    0.00104     0.77364
      H   23    0.24410      0.00000     0.75457    0.00132     0.75590
      H   24    0.23579      0.00000     0.76269    0.00152     0.76421
      H   25    0.24042      0.00000     0.75878    0.00081     0.75958
      H   26    0.23851      0.00000     0.75996    0.00153     0.76149
      H   27    0.23933      0.00000     0.75982    0.00085     0.76067
      H   28    0.24300      0.00000     0.75564    0.00136     0.75700
      H   29    0.24437      0.00000     0.75426    0.00137     0.75563
 =======================================================================
   * Total *   -0.00000     27.98973    75.75800    0.25227   104.00000

                                 Natural Population      
 --------------------------------------------------------
   Core                      27.98973 ( 99.9633% of  28)
   Valence                   75.75800 ( 99.6816% of  76)
   Natural Minimal Basis    103.74773 ( 99.7574% of 104)
   Natural Rydberg Basis      0.25227 (  0.2426% of 104)
 --------------------------------------------------------

    Atom  No          Natural Electron Configuration
 ----------------------------------------------------------------------------
      O    1      [core]2S( 1.70)2p( 4.92)3d( 0.02)
      C    2      [core]2S( 0.69)2p( 2.32)3p( 0.03)3d( 0.01)
      N    3      [core]2S( 1.21)2p( 4.27)3p( 0.01)
      C    4      [core]2S( 1.09)2p( 3.37)3p( 0.01)
      C    5      [core]2S( 1.09)2p( 3.37)3p( 0.01)
      O    6      [core]2S( 1.60)2p( 4.93)3d( 0.01)
      C    7      [core]2S( 0.84)2p( 2.82)3p( 0.02)3d( 0.01)
      C    8      [core]2S( 0.96)2p( 3.29)3p( 0.02)
      C    9      [core]2S( 0.95)2p( 3.27)3p( 0.01)
      C   10      [core]2S( 0.88)2p( 3.10)3p( 0.01)
      C   11      [core]2S( 0.88)2p( 3.15)3p( 0.01)
      C   12      [core]2S( 0.96)2p( 3.30)3p( 0.01)
      C   13      [core]2S( 1.10)2p( 3.59)
      C   14      [core]2S( 1.10)2p( 3.59)
      H   15            1S( 0.73)
      H   16            1S( 0.78)
      H   17            1S( 0.78)
      H   18            1S( 0.74)
      H   19            1S( 0.78)
      H   20            1S( 0.78)
      H   21            1S( 0.76)
      H   22            1S( 0.77)
      H   23            1S( 0.75)
      H   24            1S( 0.76)
      H   25            1S( 0.76)
      H   26            1S( 0.76)
      H   27            1S( 0.76)
      H   28            1S( 0.76)
      H   29            1S( 0.75)


 NBO analysis skipped by request.
 Leave Link  607 at Thu Sep 30 23:43:22 2021, MaxMem= 1073741824 cpu:      16.2
 (Enter /sw/target/amd/app/gaussian/Gaussian09RevA.02_gcc-4.9.2/g09/l9999.exe)
 1\1\GINC-HERMITE\SP\RTD-B3LYP-FC\6-31G(d)\C11H15N1O2\JSCHLEINITZ\30-Se
 p-2021\0\\#p TD(NStates=10, Root=1) b3lyp/6-31G* volume pop=NPA densit
 y=current Geom=AllCheck Guess=Read\\O=C(N(C)C)Oc1ccc(c(c1)C)C_conf_0\\
 0,1\O,0,3.1961424603,0.7205595904,0.9801276913\C,0,2.8010032085,-0.413
 6268001,1.1723613358\N,0,1.499973067,-0.7689851335,1.3931064264\C,0,0.
 4802138791,0.2661067262,1.3421780026\C,0,1.0290014878,-2.1341288343,1.
 5673212102\O,0,3.6186571502,-1.5219336686,1.2009505287\C,0,4.994114697
 7,-1.3713738617,1.0269558009\C,0,5.6080448598,-2.2477359225,0.14037799
 9\C,0,6.9946608426,-2.2002928939,-0.0018578036\C,0,7.7763174249,-1.292
 4546932,0.7188990013\C,0,7.1365605862,-0.409125067,1.6160853973\C,0,5.
 7479401825,-0.4615856523,1.7666216186\C,0,7.9365109898,0.5906703913,2.
 4181834653\C,0,9.2753783471,-1.2624607931,0.5353723705\H,0,0.966293982
 8,1.2343407166,1.2330607746\H,0,-0.1151813094,0.2561105705,2.264202359
 2\H,0,-0.1975980228,0.1032921396,0.4927715244\H,0,1.8718161799,-2.8137
 997935,1.6648076613\H,0,0.4140237644,-2.4464037313,0.7113225343\H,0,0.
 4106432007,-2.2001644906,2.4717877023\H,0,5.0046356306,-2.9532009114,-
 0.4220457204\H,0,7.4793829523,-2.88566428,-0.6932307918\H,0,5.24988239
 1,0.2190167297,2.4467400545\H,0,8.6772942968,0.0969235861,3.0608243622
 \H,0,7.286182203,1.1931595919,3.058959508\H,0,8.4924497721,1.278295275
 2,1.7676762182\H,0,9.5984990568,-2.0175648686,-0.1878301453\H,0,9.8062
 492989,-1.4546927843,1.4770020409\H,0,9.6223870125,-0.2856225053,0.173
 4395747\\Version=AM64L-G09RevA.02\State=1-A\HF=-633.429529\RMSD=7.789e
 -09\Dipole=-0.5949754,-0.628418,0.2519654\Quadrupole=10.5558857,-6.223
 8317,-4.3320539,2.3584657,-1.2935505,2.3315909\PG=C01 [X(C11H15N1O2)]\
 \@


 In the beginning the Universe was created.
 This has made a lot of people very angry
 and been widely regarded as a bad move.
                               -D.Adams
 Job cpu time:  0 days  3 hours  3 minutes 19.2 seconds.
 File lengths (MBytes):  RWF=    197 Int=      0 D2E=      0 Chk=     27 Scr=      1
 Normal termination of Gaussian 09 at Thu Sep 30 23:43:27 2021.
