 Entering Gaussian System, Link 0=g09
 Input=C12H8N2_94d3_conf_0.com
 Output=C12H8N2_94d3_conf_0.log
 Initial command:
 /sw/target/amd/app/gaussian/Gaussian09RevA.02_gcc-4.9.2/g09/l1.exe /home/jschleinitz/gaussian/Gau-2054780.inp -scrdir=/home/jschleinitz/gaussian/
 Entering Link 1 = /sw/target/amd/app/gaussian/Gaussian09RevA.02_gcc-4.9.2/g09/l1.exe PID=   2054782.
  
 Copyright (c) 1988,1990,1992,1993,1995,1998,2003,2009, Gaussian, Inc.
                  All Rights Reserved.
  
 This is part of the Gaussian(R) 09 program.  It is based on
 the Gaussian(R) 03 system (copyright 2003, Gaussian, Inc.),
 the Gaussian(R) 98 system (copyright 1998, Gaussian, Inc.),
 the Gaussian(R) 94 system (copyright 1995, Gaussian, Inc.),
 the Gaussian 92(TM) system (copyright 1992, Gaussian, Inc.),
 the Gaussian 90(TM) system (copyright 1990, Gaussian, Inc.),
 the Gaussian 88(TM) system (copyright 1988, Gaussian, Inc.),
 the Gaussian 86(TM) system (copyright 1986, Carnegie Mellon
 University), and the Gaussian 82(TM) system (copyright 1983,
 Carnegie Mellon University). Gaussian is a federally registered
 trademark of Gaussian, Inc.
  
 This software contains proprietary and confidential information,
 including trade secrets, belonging to Gaussian, Inc.
  
 This software is provided under written license and may be
 used, copied, transmitted, or stored only in accord with that
 written license.
  
 The following legend is applicable only to US Government
 contracts under FAR:
  
                    RESTRICTED RIGHTS LEGEND
  
 Use, reproduction and disclosure by the US Government is
 subject to restrictions as set forth in subparagraphs (a)
 and (c) of the Commercial Computer Software - Restricted
 Rights clause in FAR 52.227-19.
  
 Gaussian, Inc.
 340 Quinnipiac St., Bldg. 40, Wallingford CT 06492
  
  
 ---------------------------------------------------------------
 Warning -- This program may not be used in any manner that
 competes with the business of Gaussian, Inc. or will provide
 assistance to any competitor of Gaussian, Inc.  The licensee
 of this program is prohibited from giving any competitor of
 Gaussian, Inc. access to this program.  By using this program,
 the user acknowledges that Gaussian, Inc. is engaged in the
 business of creating and licensing software in the field of
 computational chemistry and represents and warrants to the
 licensee that it is not a competitor of Gaussian, Inc. and that
 it will not use this program in any manner prohibited above.
 ---------------------------------------------------------------
  

 Cite this work as:
 Gaussian 09, Revision A.02,
 M. J. Frisch, G. W. Trucks, H. B. Schlegel, G. E. Scuseria, 
 M. A. Robb, J. R. Cheeseman, G. Scalmani, V. Barone, B. Mennucci, 
 G. A. Petersson, H. Nakatsuji, M. Caricato, X. Li, H. P. Hratchian, 
 A. F. Izmaylov, J. Bloino, G. Zheng, J. L. Sonnenberg, M. Hada, 
 M. Ehara, K. Toyota, R. Fukuda, J. Hasegawa, M. Ishida, T. Nakajima, 
 Y. Honda, O. Kitao, H. Nakai, T. Vreven, J. A. Montgomery, Jr., 
 J. E. Peralta, F. Ogliaro, M. Bearpark, J. J. Heyd, E. Brothers, 
 K. N. Kudin, V. N. Staroverov, R. Kobayashi, J. Normand, 
 K. Raghavachari, A. Rendell, J. C. Burant, S. S. Iyengar, J. Tomasi, 
 M. Cossi, N. Rega, J. M. Millam, M. Klene, J. E. Knox, J. B. Cross, 
 V. Bakken, C. Adamo, J. Jaramillo, R. Gomperts, R. E. Stratmann, 
 O. Yazyev, A. J. Austin, R. Cammi, C. Pomelli, J. W. Ochterski, 
 R. L. Martin, K. Morokuma, V. G. Zakrzewski, G. A. Voth, 
 P. Salvador, J. J. Dannenberg, S. Dapprich, A. D. Daniels, 
 O. Farkas, J. B. Foresman, J. V. Ortiz, J. Cioslowski, 
 and D. J. Fox, Gaussian, Inc., Wallingford CT, 2009.
 
 ******************************************
 Gaussian 09:  AM64L-G09RevA.02 11-Jun-2009
                 1-Oct-2021 
 ******************************************
 %nproc=3
 Will use up to    3 processors via shared memory.
 %mem=6gb
 %chk=C12H8N2_94d3_conf_0.chk
 -----------------------------------
 #p opt b3lyp/6-31G* scf=(xqc,tight)
 -----------------------------------
 1/14=-1,18=20,19=15,26=3,38=1/1,3;
 2/9=110,12=2,17=6,18=5,40=1/2;
 3/5=1,6=6,7=1,11=2,16=1,25=1,30=1,71=1,74=-5/1,2,3;
 4//1;
 5/5=2,8=3,13=1,32=2,38=5/2,8;
 6/7=2,8=2,9=2,10=2,28=1/1;
 7//1,2,3,16;
 1/14=-1,18=20,19=15/3(2);
 2/9=110/2;
 99//99;
 2/9=110/2;
 3/5=1,6=6,7=1,11=2,16=1,25=1,30=1,71=1,74=-5/1,2,3;
 4/5=5,16=3/1;
 5/5=2,8=3,13=1,32=2,38=5/2,8;
 7//1,2,3,16;
 1/14=-1,18=20,19=15/3(-5);
 2/9=110/2;
 6/7=2,8=2,9=2,10=2,19=2,28=1/1;
 99/9=1/99;
 Leave Link    1 at Fri Oct  1 18:35:32 2021, MaxMem=  805306368 cpu:       0.1
 (Enter /sw/target/amd/app/gaussian/Gaussian09RevA.02_gcc-4.9.2/g09/l101.exe)
 -----------------------------
 c1ccc2c(n1)c1ncccc1cc2_conf_0
 -----------------------------
 Symbolic Z-matrix:
 Charge =  0 Multiplicity = 1
 C                    -2.7589    1.47526   0.00064 
 C                    -3.49283   0.31002  -0.01413 
 C                    -2.79679  -0.88982  -0.01556 
 C                    -1.39463  -0.89048  -0.00343 
 C                    -0.70618   0.34802   0.00137 
 N                    -1.41041   1.51005   0.0061 
 C                     0.70153   0.34897  -0.00205 
 N                     1.40445   1.51166  -0.01263 
 C                     2.75284   1.47852  -0.02517 
 C                     3.48832   0.31401  -0.02241 
 C                     2.79374  -0.88632  -0.00642 
 C                     1.39139  -0.88862   0.00097 
 C                     0.69288  -2.09957   0.00747 
 C                    -0.69434  -2.10038   0.00129 
 H                    -3.24334   2.44732   0.00734 
 H                    -4.57598   0.33451  -0.02325 
 H                    -3.35399  -1.82337  -0.02707 
 H                     3.23592   2.4511   -0.03927 
 H                     4.57146   0.33991  -0.0341 
 H                     3.35231  -1.81943  -0.00377 
 H                     1.22354  -3.0494    0.01257 
 H                    -1.22379  -3.0507    0.00069 
 
 NAtoms=     22 NQM=     22 NQMF=      0 NMic=      0 NMicF=      0 NTot=     22.
                    Isotopes and Nuclear Properties:
 (Nuclear quadrupole moments (NQMom) in fm**2, nuclear magnetic moments (NMagM)
  in nuclear magnetons)

  Atom         1           2           3           4           5           6           7           8           9          10
 IAtWgt=          12          12          12          12          12          14          12          14          12          12
 AtmWgt=  12.0000000  12.0000000  12.0000000  12.0000000  12.0000000  14.0030740  12.0000000  14.0030740  12.0000000  12.0000000
 NucSpn=           0           0           0           0           0           2           0           2           0           0
 AtZEff=   0.0000000   0.0000000   0.0000000   0.0000000   0.0000000   0.0000000   0.0000000   0.0000000   0.0000000   0.0000000
 NQMom=    0.0000000   0.0000000   0.0000000   0.0000000   0.0000000   2.0440000   0.0000000   2.0440000   0.0000000   0.0000000
 NMagM=    0.0000000   0.0000000   0.0000000   0.0000000   0.0000000   0.4037610   0.0000000   0.4037610   0.0000000   0.0000000

  Atom        11          12          13          14          15          16          17          18          19          20
 IAtWgt=          12          12          12          12           1           1           1           1           1           1
 AtmWgt=  12.0000000  12.0000000  12.0000000  12.0000000   1.0078250   1.0078250   1.0078250   1.0078250   1.0078250   1.0078250
 NucSpn=           0           0           0           0           1           1           1           1           1           1
 AtZEff=   0.0000000   0.0000000   0.0000000   0.0000000   0.0000000   0.0000000   0.0000000   0.0000000   0.0000000   0.0000000
 NQMom=    0.0000000   0.0000000   0.0000000   0.0000000   0.0000000   0.0000000   0.0000000   0.0000000   0.0000000   0.0000000
 NMagM=    0.0000000   0.0000000   0.0000000   0.0000000   2.7928460   2.7928460   2.7928460   2.7928460   2.7928460   2.7928460

  Atom        21          22
 IAtWgt=           1           1
 AtmWgt=   1.0078250   1.0078250
 NucSpn=           1           1
 AtZEff=   0.0000000   0.0000000
 NQMom=    0.0000000   0.0000000
 NMagM=    2.7928460   2.7928460
 Leave Link  101 at Fri Oct  1 18:35:32 2021, MaxMem=  805306368 cpu:       0.2
 (Enter /sw/target/amd/app/gaussian/Gaussian09RevA.02_gcc-4.9.2/g09/l103.exe)

 GradGradGradGradGradGradGradGradGradGradGradGradGradGradGradGradGradGrad
 Berny optimization.
 Initialization pass.
                           ----------------------------
                           !    Initial Parameters    !
                           ! (Angstroms and Degrees)  !
 --------------------------                            --------------------------
 ! Name  Definition              Value          Derivative Info.                !
 --------------------------------------------------------------------------------
 ! R1    R(1,2)                  1.3772         estimate D2E/DX2                !
 ! R2    R(1,6)                  1.3489         estimate D2E/DX2                !
 ! R3    R(1,15)                 1.0861         estimate D2E/DX2                !
 ! R4    R(2,3)                  1.3871         estimate D2E/DX2                !
 ! R5    R(2,16)                 1.0835         estimate D2E/DX2                !
 ! R6    R(3,4)                  1.4022         estimate D2E/DX2                !
 ! R7    R(3,17)                 1.0873         estimate D2E/DX2                !
 ! R8    R(4,5)                  1.417          estimate D2E/DX2                !
 ! R9    R(4,14)                 1.398          estimate D2E/DX2                !
 ! R10   R(5,6)                  1.3588         estimate D2E/DX2                !
 ! R11   R(5,7)                  1.4077         estimate D2E/DX2                !
 ! R12   R(7,8)                  1.3587         estimate D2E/DX2                !
 ! R13   R(7,12)                 1.4169         estimate D2E/DX2                !
 ! R14   R(8,9)                  1.3489         estimate D2E/DX2                !
 ! R15   R(9,10)                 1.3773         estimate D2E/DX2                !
 ! R16   R(9,18)                 1.086          estimate D2E/DX2                !
 ! R17   R(10,11)                1.3869         estimate D2E/DX2                !
 ! R18   R(10,19)                1.0835         estimate D2E/DX2                !
 ! R19   R(11,12)                1.4024         estimate D2E/DX2                !
 ! R20   R(11,20)                1.0875         estimate D2E/DX2                !
 ! R21   R(12,13)                1.398          estimate D2E/DX2                !
 ! R22   R(13,14)                1.3872         estimate D2E/DX2                !
 ! R23   R(13,21)                1.088          estimate D2E/DX2                !
 ! R24   R(14,22)                1.0879         estimate D2E/DX2                !
 ! A1    A(2,1,6)              123.6834         estimate D2E/DX2                !
 ! A2    A(2,1,15)             121.3067         estimate D2E/DX2                !
 ! A3    A(6,1,15)             115.0098         estimate D2E/DX2                !
 ! A4    A(1,2,3)              117.6755         estimate D2E/DX2                !
 ! A5    A(1,2,16)             120.9124         estimate D2E/DX2                !
 ! A6    A(3,2,16)             121.412          estimate D2E/DX2                !
 ! A7    A(2,3,4)              120.1432         estimate D2E/DX2                !
 ! A8    A(2,3,17)             119.0487         estimate D2E/DX2                !
 ! A9    A(4,3,17)             120.8081         estimate D2E/DX2                !
 ! A10   A(3,4,5)              119.0425         estimate D2E/DX2                !
 ! A11   A(3,4,14)             120.0891         estimate D2E/DX2                !
 ! A12   A(5,4,14)             120.8683         estimate D2E/DX2                !
 ! A13   A(4,5,6)              119.7142         estimate D2E/DX2                !
 ! A14   A(4,5,7)              119.1061         estimate D2E/DX2                !
 ! A15   A(6,5,7)              121.1796         estimate D2E/DX2                !
 ! A16   A(1,6,5)              119.7383         estimate D2E/DX2                !
 ! A17   A(5,7,8)              121.1941         estimate D2E/DX2                !
 ! A18   A(5,7,12)             119.0974         estimate D2E/DX2                !
 ! A19   A(8,7,12)             119.7081         estimate D2E/DX2                !
 ! A20   A(7,8,9)              119.7505         estimate D2E/DX2                !
 ! A21   A(8,9,10)             123.68           estimate D2E/DX2                !
 ! A22   A(8,9,18)             115.0105         estimate D2E/DX2                !
 ! A23   A(10,9,18)            121.3095         estimate D2E/DX2                !
 ! A24   A(9,10,11)            117.6678         estimate D2E/DX2                !
 ! A25   A(9,10,19)            120.9019         estimate D2E/DX2                !
 ! A26   A(11,10,19)           121.4302         estimate D2E/DX2                !
 ! A27   A(10,11,12)           120.1519         estimate D2E/DX2                !
 ! A28   A(10,11,20)           119.038          estimate D2E/DX2                !
 ! A29   A(12,11,20)           120.8097         estimate D2E/DX2                !
 ! A30   A(7,12,11)            119.0407         estimate D2E/DX2                !
 ! A31   A(7,12,13)            120.8864         estimate D2E/DX2                !
 ! A32   A(11,12,13)           120.0726         estimate D2E/DX2                !
 ! A33   A(12,13,14)           120.0089         estimate D2E/DX2                !
 ! A34   A(12,13,21)           120.8314         estimate D2E/DX2                !
 ! A35   A(14,13,21)           119.159          estimate D2E/DX2                !
 ! A36   A(4,14,13)            120.029          estimate D2E/DX2                !
 ! A37   A(4,14,22)            120.8141         estimate D2E/DX2                !
 ! A38   A(13,14,22)           119.1569         estimate D2E/DX2                !
 ! D1    D(6,1,2,3)              0.3858         estimate D2E/DX2                !
 ! D2    D(6,1,2,16)          -179.6756         estimate D2E/DX2                !
 ! D3    D(15,1,2,3)          -179.7043         estimate D2E/DX2                !
 ! D4    D(15,1,2,16)            0.2342         estimate D2E/DX2                !
 ! D5    D(2,1,6,5)             -0.2207         estimate D2E/DX2                !
 ! D6    D(15,1,6,5)           179.8643         estimate D2E/DX2                !
 ! D7    D(1,2,3,4)             -0.0551         estimate D2E/DX2                !
 ! D8    D(1,2,3,17)           179.998          estimate D2E/DX2                !
 ! D9    D(16,2,3,4)          -179.9933         estimate D2E/DX2                !
 ! D10   D(16,2,3,17)            0.0598         estimate D2E/DX2                !
 ! D11   D(2,3,4,5)             -0.4098         estimate D2E/DX2                !
 ! D12   D(2,3,4,14)           179.7075         estimate D2E/DX2                !
 ! D13   D(17,3,4,5)           179.5362         estimate D2E/DX2                !
 ! D14   D(17,3,4,14)           -0.3466         estimate D2E/DX2                !
 ! D15   D(3,4,5,6)              0.5788         estimate D2E/DX2                !
 ! D16   D(3,4,5,7)           -179.2738         estimate D2E/DX2                !
 ! D17   D(14,4,5,6)          -179.5394         estimate D2E/DX2                !
 ! D18   D(14,4,5,7)             0.608          estimate D2E/DX2                !
 ! D19   D(3,4,14,13)          179.722          estimate D2E/DX2                !
 ! D20   D(3,4,14,22)           -0.3087         estimate D2E/DX2                !
 ! D21   D(5,4,14,13)           -0.1586         estimate D2E/DX2                !
 ! D22   D(5,4,14,22)          179.8107         estimate D2E/DX2                !
 ! D23   D(4,5,6,1)             -0.2724         estimate D2E/DX2                !
 ! D24   D(7,5,6,1)            179.577          estimate D2E/DX2                !
 ! D25   D(4,5,7,8)            179.263          estimate D2E/DX2                !
 ! D26   D(4,5,7,12)            -0.5162         estimate D2E/DX2                !
 ! D27   D(6,5,7,8)             -0.5873         estimate D2E/DX2                !
 ! D28   D(6,5,7,12)           179.6334         estimate D2E/DX2                !
 ! D29   D(5,7,8,9)           -179.5337         estimate D2E/DX2                !
 ! D30   D(12,7,8,9)             0.2442         estimate D2E/DX2                !
 ! D31   D(5,7,12,11)          179.8135         estimate D2E/DX2                !
 ! D32   D(5,7,12,13)           -0.0101         estimate D2E/DX2                !
 ! D33   D(8,7,12,11)            0.0309         estimate D2E/DX2                !
 ! D34   D(8,7,12,13)         -179.7927         estimate D2E/DX2                !
 ! D35   D(7,8,9,10)            -0.2831         estimate D2E/DX2                !
 ! D36   D(7,8,9,18)           179.6376         estimate D2E/DX2                !
 ! D37   D(8,9,10,11)            0.0308         estimate D2E/DX2                !
 ! D38   D(8,9,10,19)          179.9276         estimate D2E/DX2                !
 ! D39   D(18,9,10,11)        -179.885          estimate D2E/DX2                !
 ! D40   D(18,9,10,19)           0.0118         estimate D2E/DX2                !
 ! D41   D(9,10,11,12)           0.2511         estimate D2E/DX2                !
 ! D42   D(9,10,11,20)        -179.9904         estimate D2E/DX2                !
 ! D43   D(19,10,11,12)       -179.6451         estimate D2E/DX2                !
 ! D44   D(19,10,11,20)          0.1134         estimate D2E/DX2                !
 ! D45   D(10,11,12,7)          -0.281          estimate D2E/DX2                !
 ! D46   D(10,11,12,13)        179.544          estimate D2E/DX2                !
 ! D47   D(20,11,12,7)         179.9648         estimate D2E/DX2                !
 ! D48   D(20,11,12,13)         -0.2102         estimate D2E/DX2                !
 ! D49   D(7,12,13,14)           0.4651         estimate D2E/DX2                !
 ! D50   D(7,12,13,21)        -179.8291         estimate D2E/DX2                !
 ! D51   D(11,12,13,14)       -179.3567         estimate D2E/DX2                !
 ! D52   D(11,12,13,21)          0.3491         estimate D2E/DX2                !
 ! D53   D(12,13,14,4)          -0.3787         estimate D2E/DX2                !
 ! D54   D(12,13,14,22)        179.6515         estimate D2E/DX2                !
 ! D55   D(21,13,14,4)         179.9106         estimate D2E/DX2                !
 ! D56   D(21,13,14,22)         -0.0592         estimate D2E/DX2                !
 --------------------------------------------------------------------------------
 Trust Radius=3.00D-01 FncErr=1.00D-07 GrdErr=1.00D-06
 Number of steps in this run= 128 maximum allowed number of steps= 132.
 GradGradGradGradGradGradGradGradGradGradGradGradGradGradGradGradGradGrad

 Leave Link  103 at Fri Oct  1 18:35:32 2021, MaxMem=  805306368 cpu:       0.0
 (Enter /sw/target/amd/app/gaussian/Gaussian09RevA.02_gcc-4.9.2/g09/l202.exe)
                          Input orientation:                          
 ---------------------------------------------------------------------
 Center     Atomic      Atomic             Coordinates (Angstroms)
 Number     Number       Type             X           Y           Z
 ---------------------------------------------------------------------
      1          6           0       -2.758896    1.475260    0.000635
      2          6           0       -3.492830    0.310020   -0.014131
      3          6           0       -2.796787   -0.889825   -0.015561
      4          6           0       -1.394626   -0.890475   -0.003429
      5          6           0       -0.706176    0.348025    0.001365
      6          7           0       -1.410414    1.510052    0.006103
      7          6           0        0.701531    0.348967   -0.002046
      8          7           0        1.404453    1.511657   -0.012633
      9          6           0        2.752839    1.478525   -0.025171
     10          6           0        3.488316    0.314009   -0.022410
     11          6           0        2.793737   -0.886315   -0.006420
     12          6           0        1.391390   -0.888623    0.000975
     13          6           0        0.692881   -2.099572    0.007467
     14          6           0       -0.694339   -2.100382    0.001290
     15          1           0       -3.243338    2.447323    0.007338
     16          1           0       -4.575978    0.334513   -0.023246
     17          1           0       -3.353995   -1.823371   -0.027066
     18          1           0        3.235922    2.451097   -0.039268
     19          1           0        4.571464    0.339912   -0.034096
     20          1           0        3.352314   -1.819427   -0.003770
     21          1           0        1.223542   -3.049399    0.012570
     22          1           0       -1.223792   -3.050701    0.000690
 ---------------------------------------------------------------------
                    Distance matrix (angstroms):
                    1          2          3          4          5
     1  C    0.000000
     2  C    1.377193   0.000000
     3  C    2.365444   1.387121   0.000000
     4  C    2.730926   2.417387   1.402214   0.000000
     5  C    2.341863   2.786956   2.429653   1.416993   0.000000
     6  N    1.348943   2.403527   2.771626   2.400598   1.358779
     7  C    3.639107   4.194559   3.711202   2.435178   1.407711
     8  N    4.163530   5.042550   4.839168   3.688518   2.410184
     9  C    5.511797   6.354047   6.033865   4.776411   3.639165
    10  C    6.354266   6.981152   6.399358   5.029340   4.194697
    11  C    6.033973   6.399391   5.590533   4.188366   3.711206
    12  C    4.776277   5.029172   4.188211   2.786020   2.434970
    13  C    4.969330   4.829780   3.693481   2.412409   2.819242
    14  C    4.128876   3.693484   2.426112   1.397962   2.448435
    15  H    1.086110   2.151923   3.366970   3.815593   3.293066
    16  H    2.145615   1.083464   2.159764   3.409104   3.869905
    17  H    3.351996   2.137943   1.087254   2.170249   3.424429
    18  H    6.073854   7.061228   6.896079   5.710461   4.468187
    19  H    7.417844   8.064374   7.470190   6.091718   5.277765
    20  H    6.942757   7.168726   6.218982   4.836981   4.601001
    21  H    6.027645   5.790559   4.563727   3.393525   3.907227
    22  H    4.779213   4.055021   2.672820   2.166975   3.437916
                    6          7          8          9         10
     6  N    0.000000
     7  C    2.410082   0.000000
     8  N    2.814929   1.358698   0.000000
     9  C    4.163490   2.341859   1.348852   0.000000
    10  C    5.042706   2.787079   2.403527   1.377328   0.000000
    11  C    4.839176   2.429664   2.771357   2.365268   1.386893
    12  C    3.688329   1.416878   2.400354   2.730863   2.417429
    13  C    4.177707   2.448573   3.680722   4.128834   3.693335
    14  C    3.680763   2.819179   4.177552   4.969136   4.829539
    15  H    2.058662   4.468241   4.741079   6.074024   7.061663
    16  H    3.376915   5.277572   6.095190   7.417570   8.064320
    17  H    3.858798   4.600757   5.810804   6.942330   7.168377
    18  H    4.740892   3.292944   2.058528   1.086032   2.152007
    19  H    6.095384   3.870077   3.376893   2.145674   1.083521
    20  H    5.811119   3.424702   3.858803   3.352061   2.137848
    21  H    5.265583   3.438255   4.564712   4.779358   4.054989
    22  H    4.564573   3.906996   5.265260   6.027285   5.790144
                   11         12         13         14         15
    11  C    0.000000
    12  C    1.402368   0.000000
    13  C    2.426063   1.397983   0.000000
    14  C    3.693331   2.412183   1.387234   0.000000
    15  H    6.896348   5.710454   6.013990   5.213353   0.000000
    16  H    7.470168   6.091481   5.804015   4.582187   2.498166
    17  H    6.218771   4.836654   4.056437   2.674193   4.272266
    18  H    3.366738   3.815448   5.213236   6.013697   6.479429
    19  H    2.159795   3.409311   4.582163   5.803876   8.094074
    20  H    1.087526   2.170631   2.674171   4.056397   7.855438
    21  H    2.672977   2.167317   1.088025   2.139867   7.082867
    22  H    4.563460   3.393194   2.139703   1.087855   5.857208
                   16         17         18         19         20
    16  H    0.000000
    17  H    2.479863   0.000000
    18  H    8.093576   7.854822   0.000000
    19  H    9.147451   8.215397   2.498160   0.000000
    20  H    8.215695   6.706350   4.272258   2.479919   0.000000
    21  H    6.714654   4.739046   5.857287   4.764262   2.458610
    22  H    4.764179   2.458632   7.082403   6.714348   4.738861
                   21         22
    21  H    0.000000
    22  H    2.447364   0.000000
 Stoichiometry    C12H8N2
 Framework group  C1[X(C12H8N2)]
 Deg. of freedom    60
 Full point group                 C1      NOp   1
 Largest Abelian subgroup         C1      NOp   1
 Largest concise Abelian subgroup C1      NOp   1
                         Standard orientation:                         
 ---------------------------------------------------------------------
 Center     Atomic      Atomic             Coordinates (Angstroms)
 Number     Number       Type             X           Y           Z
 ---------------------------------------------------------------------
      1          6           0       -2.755970   -1.518334   -0.007216
      2          6           0       -3.490555   -0.353563    0.011646
      3          6           0       -2.795205    0.846678    0.015214
      4          6           0       -1.393063    0.848176    0.001076
      5          6           0       -0.703904   -0.389906   -0.007940
      6          7           0       -1.407476   -1.552327   -0.014706
      7          6           0        0.703806   -0.390038   -0.006547
      8          7           0        1.407415   -1.552343   -0.000005
      9          6           0        2.755799   -1.518458    0.010688
     10          6           0        3.490597   -0.353511    0.009917
     11          6           0        2.795302    0.846446   -0.001943
     12          6           0        1.392945    0.847957   -0.007323
     13          6           0        0.693727    2.058512   -0.009651
     14          6           0       -0.693483    2.058498   -0.001485
     15          1           0       -3.239858   -2.490658   -0.015764
     16          1           0       -4.573675   -0.378710    0.022248
     17          1           0       -3.352935    1.779867    0.029956
     18          1           0        3.239463   -2.490783    0.021552
     19          1           0        4.573776   -0.378815    0.019984
     20          1           0        3.353334    1.779887   -0.002954
     21          1           0        1.223831    3.008658   -0.013031
     22          1           0       -1.223485    3.008505    0.002357
 ---------------------------------------------------------------------
 Rotational constants (GHZ):      1.6679774      0.5764420      0.4284043
 Leave Link  202 at Fri Oct  1 18:35:33 2021, MaxMem=  805306368 cpu:       0.0
 (Enter /sw/target/amd/app/gaussian/Gaussian09RevA.02_gcc-4.9.2/g09/l301.exe)
 Standard basis: 6-31G(d) (6D, 7F)
 Ernie: Thresh=  0.10000D-02 Tol=  0.10000D-05 Strict=F.
 There are   226 symmetry adapted basis functions of A   symmetry.
 Integral buffers will be    131072 words long.
 Raffenetti 2 integral format.
 Two-electron integral symmetry is turned on.
   226 basis functions,   424 primitive gaussians,   226 cartesian basis functions
    47 alpha electrons       47 beta electrons
       nuclear repulsion energy       789.1241884128 Hartrees.
 IExCor=  402 DFT=T Ex+Corr=B3LYP ExCW=0 ScaHFX=  0.200000
 ScaDFX=  0.800000  0.720000  1.000000  0.810000 ScalE2=  1.000000  1.000000
 IRadAn=      0 IRanWt=     -1 IRanGd=            0 ICorTp=0
 NAtoms=   22 NActive=   22 NUniq=   22 SFac= 7.50D-01 NAtFMM=   80 NAOKFM=F Big=F
 Leave Link  301 at Fri Oct  1 18:35:33 2021, MaxMem=  805306368 cpu:       0.1
 (Enter /sw/target/amd/app/gaussian/Gaussian09RevA.02_gcc-4.9.2/g09/l302.exe)
 NPDir=0 NMtPBC=     1 NCelOv=     1 NCel=       1 NClECP=     1 NCelD=      1
         NCelK=      1 NCelE2=     1 NClLst=     1 CellRange=     0.0.
 One-electron integrals computed using PRISM.
 NBasis=   226 RedAO= T  NBF=   226
 NBsUse=   226 1.00D-06 NBFU=   226
 Precomputing XC quadrature grid using
 IXCGrd= 2 IRadAn=           0 IRanWt=          -1 IRanGd=           0 AccXCQ= 1.00D-10.
 NRdTot=    1386 NPtTot=      175944 NUsed=      185945 NTot=      185977
 NSgBfM=   225   225   225   225   225 NAtAll=    22    22.
 Leave Link  302 at Fri Oct  1 18:35:34 2021, MaxMem=  805306368 cpu:       1.4
 (Enter /sw/target/amd/app/gaussian/Gaussian09RevA.02_gcc-4.9.2/g09/l303.exe)
 DipDrv:  MaxL=1.
 Leave Link  303 at Fri Oct  1 18:35:34 2021, MaxMem=  805306368 cpu:       0.1
 (Enter /sw/target/amd/app/gaussian/Gaussian09RevA.02_gcc-4.9.2/g09/l401.exe)
 Harris functional with IExCor=  402 diagonalized for initial guess.
 ExpMin= 1.61D-01 ExpMax= 4.17D+03 ExpMxC= 6.27D+02 IAcc=1 IRadAn=         1 AccDes= 0.00D+00
 HarFok:  IExCor=  402 AccDes= 0.00D+00 IRadAn=         1 IDoV= 1
 ScaDFX=  1.000000  1.000000  1.000000  1.000000
 FoFCou: FMM=F IPFlag=           0 FMFlag=      100000 FMFlg1=           0
         NFxFlg=           0 DoJE=T BraDBF=F KetDBF=T FulRan=T
         Omega=  0.000000  0.000000  1.000000  0.000000  0.000000 ICntrl=     500 IOpCl=  0
         NMat0=    1 NMatS0=    1 NMatT0=    0 NMatD0=    1 NMtDS0=    0 NMtDT0=    0
         I1Cent=           4 NGrid=           0.
 Petite list used in FoFCou.
 Harris En= -571.646679013431    
 Initial guess orbital symmetries:
       Occupied  (A) (A) (A) (A) (A) (A) (A) (A) (A) (A) (A) (A)
                 (A) (A) (A) (A) (A) (A) (A) (A) (A) (A) (A) (A)
                 (A) (A) (A) (A) (A) (A) (A) (A) (A) (A) (A) (A)
                 (A) (A) (A) (A) (A) (A) (A) (A) (A) (A) (A)
       Virtual   (A) (A) (A) (A) (A) (A) (A) (A) (A) (A) (A) (A)
                 (A) (A) (A) (A) (A) (A) (A) (A) (A) (A) (A) (A)
                 (A) (A) (A) (A) (A) (A) (A) (A) (A) (A) (A) (A)
                 (A) (A) (A) (A) (A) (A) (A) (A) (A) (A) (A) (A)
                 (A) (A) (A) (A) (A) (A) (A) (A) (A) (A) (A) (A)
                 (A) (A) (A) (A) (A) (A) (A) (A) (A) (A) (A) (A)
                 (A) (A) (A) (A) (A) (A) (A) (A) (A) (A) (A) (A)
                 (A) (A) (A) (A) (A) (A) (A) (A) (A) (A) (A) (A)
                 (A) (A) (A) (A) (A) (A) (A) (A) (A) (A) (A) (A)
                 (A) (A) (A) (A) (A) (A) (A) (A) (A) (A) (A) (A)
                 (A) (A) (A) (A) (A) (A) (A) (A) (A) (A) (A) (A)
                 (A) (A) (A) (A) (A) (A) (A) (A) (A) (A) (A) (A)
                 (A) (A) (A) (A) (A) (A) (A) (A) (A) (A) (A) (A)
                 (A) (A) (A) (A) (A) (A) (A) (A) (A) (A) (A) (A)
                 (A) (A) (A) (A) (A) (A) (A) (A) (A) (A) (A)
 The electronic state of the initial guess is 1-A.
 Leave Link  401 at Fri Oct  1 18:35:39 2021, MaxMem=  805306368 cpu:       6.7
 (Enter /sw/target/amd/app/gaussian/Gaussian09RevA.02_gcc-4.9.2/g09/l502.exe)
 Closed shell SCF:
 Requested convergence on RMS density matrix=1.00D-08 within  64 cycles.
 Requested convergence on MAX density matrix=1.00D-06.
 Requested convergence on             energy=1.00D-06.
 No special actions if energy rises.
 Using DIIS extrapolation, IDIIS=  1040.
 Integral symmetry usage will be decided dynamically.
       185734 words used for storage of precomputed grid.
 Keep R1 ints in memory in canonical form, NReq=335195722.
 IEnd=      347554 IEndB=      347554 NGot=   805306368 MDV=   476014587
 LenX=   476014587 LenY=   475963070
 Symmetry not used in FoFDir.
 MinBra= 0 MaxBra= 2 Meth= 1.
 IRaf=       0 NMat=   1 IRICut=       1 DoRegI=T DoRafI=F ISym2E= 0 JSym2E=0.
 Integral accuracy reduced to 1.0D-05 until final iterations.

 Cycle   1  Pass 0  IDiag  1:
 E= -571.354074831576    
 DIIS: error= 4.02D-02 at cycle   1 NSaved=   1.
 NSaved= 1 IEnMin= 1 EnMin= -571.354074831576     IErMin= 1 ErrMin= 4.02D-02
 ErrMax= 4.02D-02 EMaxC= 1.00D-01 BMatC= 2.22D-01 BMatP= 2.22D-01
 IDIUse=3 WtCom= 5.98D-01 WtEn= 4.02D-01
 Coeff-Com:  0.100D+01
 Coeff-En:   0.100D+01
 Coeff:      0.100D+01
 Gap=     0.177 Goal=   None    Shift=    0.000
 GapD=    0.177 DampG=1.000 DampE=0.500 DampFc=0.5000 IDamp=-1.
 Damping current iteration by 5.00D-01
 RMSDP=5.91D-03 MaxDP=1.54D-01              OVMax= 1.30D-01

 Cycle   2  Pass 0  IDiag  1:
 E= -571.477686661488     Delta-E=       -0.123611829912 Rises=F Damp=T
 DIIS: error= 7.84D-03 at cycle   2 NSaved=   2.
 NSaved= 2 IEnMin= 2 EnMin= -571.477686661488     IErMin= 2 ErrMin= 7.84D-03
 ErrMax= 7.84D-03 EMaxC= 1.00D-01 BMatC= 1.40D-02 BMatP= 2.22D-01
 IDIUse=3 WtCom= 9.22D-01 WtEn= 7.84D-02
 Coeff-Com: -0.532D-01 0.105D+01
 Coeff-En:   0.000D+00 0.100D+01
 Coeff:     -0.490D-01 0.105D+01
 Gap=     0.193 Goal=   None    Shift=    0.000
 RMSDP=1.68D-03 MaxDP=3.26D-02 DE=-1.24D-01 OVMax= 7.34D-02

 Cycle   3  Pass 0  IDiag  1:
 E= -571.593196696757     Delta-E=       -0.115510035269 Rises=F Damp=F
 DIIS: error= 8.05D-03 at cycle   3 NSaved=   3.
 NSaved= 3 IEnMin= 3 EnMin= -571.593196696757     IErMin= 2 ErrMin= 7.84D-03
 ErrMax= 8.05D-03 EMaxC= 1.00D-01 BMatC= 9.07D-03 BMatP= 1.40D-02
 IDIUse=3 WtCom= 9.19D-01 WtEn= 8.05D-02
 Coeff-Com: -0.700D-01 0.486D+00 0.584D+00
 Coeff-En:   0.000D+00 0.000D+00 0.100D+01
 Coeff:     -0.643D-01 0.447D+00 0.618D+00
 Gap=     0.174 Goal=   None    Shift=    0.000
 RMSDP=6.87D-04 MaxDP=2.70D-02 DE=-1.16D-01 OVMax= 3.75D-02

 Cycle   4  Pass 0  IDiag  1:
 E= -571.596746341302     Delta-E=       -0.003549644545 Rises=F Damp=F
 DIIS: error= 4.30D-03 at cycle   4 NSaved=   4.
 NSaved= 4 IEnMin= 4 EnMin= -571.596746341302     IErMin= 4 ErrMin= 4.30D-03
 ErrMax= 4.30D-03 EMaxC= 1.00D-01 BMatC= 4.66D-03 BMatP= 9.07D-03
 IDIUse=3 WtCom= 9.57D-01 WtEn= 4.30D-02
 Coeff-Com: -0.325D-01 0.144D+00 0.425D+00 0.463D+00
 Coeff-En:   0.000D+00 0.000D+00 0.380D+00 0.620D+00
 Coeff:     -0.311D-01 0.138D+00 0.423D+00 0.470D+00
 Gap=     0.184 Goal=   None    Shift=    0.000
 RMSDP=4.18D-04 MaxDP=1.26D-02 DE=-3.55D-03 OVMax= 2.31D-02

 Cycle   5  Pass 0  IDiag  1:
 E= -571.600848969802     Delta-E=       -0.004102628501 Rises=F Damp=F
 DIIS: error= 1.64D-03 at cycle   5 NSaved=   5.
 NSaved= 5 IEnMin= 5 EnMin= -571.600848969802     IErMin= 5 ErrMin= 1.64D-03
 ErrMax= 1.64D-03 EMaxC= 1.00D-01 BMatC= 2.64D-04 BMatP= 4.66D-03
 IDIUse=3 WtCom= 9.84D-01 WtEn= 1.64D-02
 Coeff-Com: -0.121D-01 0.418D-01 0.197D+00 0.278D+00 0.495D+00
 Coeff-En:   0.000D+00 0.000D+00 0.000D+00 0.443D-02 0.996D+00
 Coeff:     -0.120D-01 0.411D-01 0.194D+00 0.274D+00 0.503D+00
 Gap=     0.170 Goal=   None    Shift=    0.000
 RMSDP=1.15D-04 MaxDP=2.78D-03 DE=-4.10D-03 OVMax= 9.37D-03

 Cycle   6  Pass 0  IDiag  1:
 E= -571.601107122991     Delta-E=       -0.000258153188 Rises=F Damp=F
 DIIS: error= 5.94D-04 at cycle   6 NSaved=   6.
 NSaved= 6 IEnMin= 6 EnMin= -571.601107122991     IErMin= 6 ErrMin= 5.94D-04
 ErrMax= 5.94D-04 EMaxC= 1.00D-01 BMatC= 3.61D-05 BMatP= 2.64D-04
 IDIUse=3 WtCom= 9.94D-01 WtEn= 5.94D-03
 Coeff-Com: -0.319D-02 0.692D-02 0.625D-01 0.102D+00 0.313D+00 0.518D+00
 Coeff-En:   0.000D+00 0.000D+00 0.000D+00 0.000D+00 0.133D+00 0.867D+00
 Coeff:     -0.317D-02 0.687D-02 0.621D-01 0.102D+00 0.312D+00 0.520D+00
 Gap=     0.170 Goal=   None    Shift=    0.000
 RMSDP=3.84D-05 MaxDP=1.03D-03 DE=-2.58D-04 OVMax= 2.73D-03

 Cycle   7  Pass 0  IDiag  1:
 E= -571.601146293006     Delta-E=       -0.000039170015 Rises=F Damp=F
 DIIS: error= 8.74D-05 at cycle   7 NSaved=   7.
 NSaved= 7 IEnMin= 7 EnMin= -571.601146293006     IErMin= 7 ErrMin= 8.74D-05
 ErrMax= 8.74D-05 EMaxC= 1.00D-01 BMatC= 1.87D-06 BMatP= 3.61D-05
 IDIUse=1 WtCom= 1.00D+00 WtEn= 0.00D+00
 Coeff-Com: -0.130D-02 0.198D-02 0.283D-01 0.481D-01 0.161D+00 0.302D+00
 Coeff-Com:  0.460D+00
 Coeff:     -0.130D-02 0.198D-02 0.283D-01 0.481D-01 0.161D+00 0.302D+00
 Coeff:      0.460D+00
 Gap=     0.170 Goal=   None    Shift=    0.000
 RMSDP=7.41D-06 MaxDP=1.86D-04 DE=-3.92D-05 OVMax= 4.77D-04

 Initial convergence to 1.0D-05 achieved.  Increase integral accuracy.
 Cycle   8  Pass 1  IDiag  1:
 E= -571.601037281931     Delta-E=        0.000109011075 Rises=F Damp=F
 DIIS: error= 4.32D-05 at cycle   1 NSaved=   1.
 NSaved= 1 IEnMin= 1 EnMin= -571.601037281931     IErMin= 1 ErrMin= 4.32D-05
 ErrMax= 4.32D-05 EMaxC= 1.00D-01 BMatC= 3.55D-07 BMatP= 3.55D-07
 IDIUse=1 WtCom= 1.00D+00 WtEn= 0.00D+00
 Coeff-Com:  0.100D+01
 Coeff:      0.100D+01
 Gap=     0.170 Goal=   None    Shift=    0.000
 RMSDP=7.41D-06 MaxDP=1.86D-04 DE= 1.09D-04 OVMax= 3.95D-04

 Cycle   9  Pass 1  IDiag  1:
 E= -571.601037076095     Delta-E=        0.000000205836 Rises=F Damp=F
 DIIS: error= 8.52D-05 at cycle   2 NSaved=   2.
 NSaved= 2 IEnMin= 1 EnMin= -571.601037281931     IErMin= 1 ErrMin= 4.32D-05
 ErrMax= 8.52D-05 EMaxC= 1.00D-01 BMatC= 5.85D-07 BMatP= 3.55D-07
 IDIUse=1 WtCom= 1.00D+00 WtEn= 0.00D+00
 Coeff-Com:  0.579D+00 0.421D+00
 Coeff:      0.579D+00 0.421D+00
 Gap=     0.170 Goal=   None    Shift=    0.000
 RMSDP=5.09D-06 MaxDP=1.28D-04 DE= 2.06D-07 OVMax= 3.32D-04

 Cycle  10  Pass 1  IDiag  1:
 E= -571.601037654598     Delta-E=       -0.000000578503 Rises=F Damp=F
 DIIS: error= 2.55D-05 at cycle   3 NSaved=   3.
 NSaved= 3 IEnMin= 3 EnMin= -571.601037654598     IErMin= 3 ErrMin= 2.55D-05
 ErrMax= 2.55D-05 EMaxC= 1.00D-01 BMatC= 7.00D-08 BMatP= 3.55D-07
 IDIUse=1 WtCom= 1.00D+00 WtEn= 0.00D+00
 Coeff-Com:  0.151D-03 0.254D+00 0.746D+00
 Coeff:      0.151D-03 0.254D+00 0.746D+00
 Gap=     0.170 Goal=   None    Shift=    0.000
 RMSDP=1.50D-06 MaxDP=3.26D-05 DE=-5.79D-07 OVMax= 9.79D-05

 Cycle  11  Pass 1  IDiag  1:
 E= -571.601037728556     Delta-E=       -0.000000073958 Rises=F Damp=F
 DIIS: error= 5.72D-06 at cycle   4 NSaved=   4.
 NSaved= 4 IEnMin= 4 EnMin= -571.601037728556     IErMin= 4 ErrMin= 5.72D-06
 ErrMax= 5.72D-06 EMaxC= 1.00D-01 BMatC= 4.54D-09 BMatP= 7.00D-08
 IDIUse=1 WtCom= 1.00D+00 WtEn= 0.00D+00
 Coeff-Com: -0.147D-01 0.138D+00 0.437D+00 0.440D+00
 Coeff:     -0.147D-01 0.138D+00 0.437D+00 0.440D+00
 Gap=     0.170 Goal=   None    Shift=    0.000
 RMSDP=3.95D-07 MaxDP=1.05D-05 DE=-7.40D-08 OVMax= 3.31D-05

 Cycle  12  Pass 1  IDiag  1:
 E= -571.601037732986     Delta-E=       -0.000000004431 Rises=F Damp=F
 DIIS: error= 1.96D-06 at cycle   5 NSaved=   5.
 NSaved= 5 IEnMin= 5 EnMin= -571.601037732986     IErMin= 5 ErrMin= 1.96D-06
 ErrMax= 1.96D-06 EMaxC= 1.00D-01 BMatC= 3.59D-10 BMatP= 4.54D-09
 IDIUse=1 WtCom= 1.00D+00 WtEn= 0.00D+00
 Coeff-Com: -0.874D-02 0.637D-01 0.205D+00 0.267D+00 0.473D+00
 Coeff:     -0.874D-02 0.637D-01 0.205D+00 0.267D+00 0.473D+00
 Gap=     0.170 Goal=   None    Shift=    0.000
 RMSDP=1.42D-07 MaxDP=3.32D-06 DE=-4.43D-09 OVMax= 1.06D-05

 Cycle  13  Pass 1  IDiag  1:
 E= -571.601037733370     Delta-E=       -0.000000000383 Rises=F Damp=F
 DIIS: error= 5.14D-07 at cycle   6 NSaved=   6.
 NSaved= 6 IEnMin= 6 EnMin= -571.601037733370     IErMin= 6 ErrMin= 5.14D-07
 ErrMax= 5.14D-07 EMaxC= 1.00D-01 BMatC= 5.68D-11 BMatP= 3.59D-10
 IDIUse=1 WtCom= 1.00D+00 WtEn= 0.00D+00
 Coeff-Com: -0.370D-02 0.239D-01 0.768D-01 0.116D+00 0.308D+00 0.478D+00
 Coeff:     -0.370D-02 0.239D-01 0.768D-01 0.116D+00 0.308D+00 0.478D+00
 Gap=     0.170 Goal=   None    Shift=    0.000
 RMSDP=3.95D-08 MaxDP=1.43D-06 DE=-3.83D-10 OVMax= 2.29D-06

 Cycle  14  Pass 1  IDiag  1:
 E= -571.601037733432     Delta-E=       -0.000000000063 Rises=F Damp=F
 DIIS: error= 1.01D-07 at cycle   7 NSaved=   7.
 NSaved= 7 IEnMin= 7 EnMin= -571.601037733432     IErMin= 7 ErrMin= 1.01D-07
 ErrMax= 1.01D-07 EMaxC= 1.00D-01 BMatC= 1.94D-12 BMatP= 5.68D-11
 IDIUse=1 WtCom= 1.00D+00 WtEn= 0.00D+00
 Coeff-Com: -0.620D-03 0.337D-02 0.995D-02 0.176D-01 0.734D-01 0.201D+00
 Coeff-Com:  0.695D+00
 Coeff:     -0.620D-03 0.337D-02 0.995D-02 0.176D-01 0.734D-01 0.201D+00
 Coeff:      0.695D+00
 Gap=     0.170 Goal=   None    Shift=    0.000
 RMSDP=9.64D-09 MaxDP=2.22D-07 DE=-6.28D-11 OVMax= 4.70D-07

 SCF Done:  E(RB3LYP) =  -571.601037733     A.U. after   14 cycles
             Convg  =    0.9642D-08             -V/T =  2.0091
 KE= 5.664408439512D+02 PE=-2.904013861898D+03 EE= 9.768477918002D+02
 Leave Link  502 at Fri Oct  1 18:46:38 2021, MaxMem=  805306368 cpu:     196.7
 (Enter /sw/target/amd/app/gaussian/Gaussian09RevA.02_gcc-4.9.2/g09/l508.exe)
 QCSCF skips out because SCF is already converged.
 Leave Link  508 at Fri Oct  1 18:46:40 2021, MaxMem=  805306368 cpu:       0.0
 (Enter /sw/target/amd/app/gaussian/Gaussian09RevA.02_gcc-4.9.2/g09/l601.exe)
 Copying SCF densities to generalized density rwf, IOpCl= 0 IROHF=0.

 **********************************************************************

            Population analysis using the SCF density.

 **********************************************************************

 Orbital symmetries:
       Occupied  (A) (A) (A) (A) (A) (A) (A) (A) (A) (A) (A) (A)
                 (A) (A) (A) (A) (A) (A) (A) (A) (A) (A) (A) (A)
                 (A) (A) (A) (A) (A) (A) (A) (A) (A) (A) (A) (A)
                 (A) (A) (A) (A) (A) (A) (A) (A) (A) (A) (A)
       Virtual   (A) (A) (A) (A) (A) (A) (A) (A) (A) (A) (A) (A)
                 (A) (A) (A) (A) (A) (A) (A) (A) (A) (A) (A) (A)
                 (A) (A) (A) (A) (A) (A) (A) (A) (A) (A) (A) (A)
                 (A) (A) (A) (A) (A) (A) (A) (A) (A) (A) (A) (A)
                 (A) (A) (A) (A) (A) (A) (A) (A) (A) (A) (A) (A)
                 (A) (A) (A) (A) (A) (A) (A) (A) (A) (A) (A) (A)
                 (A) (A) (A) (A) (A) (A) (A) (A) (A) (A) (A) (A)
                 (A) (A) (A) (A) (A) (A) (A) (A) (A) (A) (A) (A)
                 (A) (A) (A) (A) (A) (A) (A) (A) (A) (A) (A) (A)
                 (A) (A) (A) (A) (A) (A) (A) (A) (A) (A) (A) (A)
                 (A) (A) (A) (A) (A) (A) (A) (A) (A) (A) (A) (A)
                 (A) (A) (A) (A) (A) (A) (A) (A) (A) (A) (A) (A)
                 (A) (A) (A) (A) (A) (A) (A) (A) (A) (A) (A) (A)
                 (A) (A) (A) (A) (A) (A) (A) (A) (A) (A) (A) (A)
                 (A) (A) (A) (A) (A) (A) (A) (A) (A) (A) (A)
 The electronic state is 1-A.
 Alpha  occ. eigenvalues --  -14.32397 -14.32395 -10.22483 -10.22434 -10.22104
 Alpha  occ. eigenvalues --  -10.22104 -10.20864 -10.20864 -10.20427 -10.20427
 Alpha  occ. eigenvalues --  -10.20045 -10.19986 -10.19839 -10.19838  -0.94843
 Alpha  occ. eigenvalues --   -0.92264  -0.85230  -0.80790  -0.80563  -0.75615
 Alpha  occ. eigenvalues --   -0.74124  -0.66604  -0.64805  -0.62839  -0.60199
 Alpha  occ. eigenvalues --   -0.55385  -0.53682  -0.51549  -0.49326  -0.48775
 Alpha  occ. eigenvalues --   -0.46196  -0.44468  -0.42664  -0.42158  -0.41350
 Alpha  occ. eigenvalues --   -0.40462  -0.40060  -0.38375  -0.37294  -0.35298
 Alpha  occ. eigenvalues --   -0.33626  -0.30355  -0.28965  -0.25191  -0.24625
 Alpha  occ. eigenvalues --   -0.23645  -0.22507
 Alpha virt. eigenvalues --   -0.05541  -0.05356  -0.00105   0.02566   0.06869
 Alpha virt. eigenvalues --    0.09040   0.10350   0.12217   0.13650   0.14756
 Alpha virt. eigenvalues --    0.14827   0.17133   0.17813   0.18889   0.22086
 Alpha virt. eigenvalues --    0.23426   0.23836   0.25570   0.28801   0.29027
 Alpha virt. eigenvalues --    0.30753   0.33900   0.34152   0.35086   0.38996
 Alpha virt. eigenvalues --    0.41813   0.45165   0.45780   0.48062   0.49730
 Alpha virt. eigenvalues --    0.51283   0.51814   0.52410   0.54925   0.55064
 Alpha virt. eigenvalues --    0.55216   0.56945   0.57614   0.57635   0.58724
 Alpha virt. eigenvalues --    0.59408   0.59612   0.59736   0.60793   0.61552
 Alpha virt. eigenvalues --    0.62872   0.63677   0.64589   0.65691   0.67094
 Alpha virt. eigenvalues --    0.67253   0.67382   0.69742   0.70793   0.73637
 Alpha virt. eigenvalues --    0.80829   0.81335   0.82402   0.82585   0.83218
 Alpha virt. eigenvalues --    0.83969   0.84406   0.84995   0.87599   0.88045
 Alpha virt. eigenvalues --    0.88673   0.90947   0.91162   0.94098   0.94746
 Alpha virt. eigenvalues --    0.95618   0.97076   0.98620   1.00380   1.02158
 Alpha virt. eigenvalues --    1.05396   1.06749   1.11264   1.11574   1.14129
 Alpha virt. eigenvalues --    1.18574   1.20899   1.21280   1.22056   1.23827
 Alpha virt. eigenvalues --    1.24680   1.26068   1.30828   1.35435   1.36337
 Alpha virt. eigenvalues --    1.38003   1.39415   1.42173   1.44695   1.45272
 Alpha virt. eigenvalues --    1.45341   1.48705   1.49857   1.51088   1.51367
 Alpha virt. eigenvalues --    1.52200   1.54215   1.59010   1.65076   1.68897
 Alpha virt. eigenvalues --    1.71485   1.74014   1.76169   1.80723   1.82597
 Alpha virt. eigenvalues --    1.85258   1.85437   1.86542   1.88567   1.92389
 Alpha virt. eigenvalues --    1.92613   1.95453   1.95856   1.97175   2.00364
 Alpha virt. eigenvalues --    2.00633   2.03149   2.04267   2.12186   2.12299
 Alpha virt. eigenvalues --    2.16060   2.18053   2.19602   2.19866   2.23291
 Alpha virt. eigenvalues --    2.23305   2.24813   2.28244   2.30358   2.31572
 Alpha virt. eigenvalues --    2.32362   2.32574   2.36208   2.37325   2.39291
 Alpha virt. eigenvalues --    2.43159   2.43714   2.49193   2.58886   2.62240
 Alpha virt. eigenvalues --    2.64325   2.64972   2.65579   2.66960   2.68725
 Alpha virt. eigenvalues --    2.71469   2.74667   2.76383   2.81011   2.81772
 Alpha virt. eigenvalues --    2.83266   2.86811   2.88673   2.95259   3.01149
 Alpha virt. eigenvalues --    3.04665   3.14161   3.35913   3.47127   3.52987
 Alpha virt. eigenvalues --    4.04534   4.07628   4.09612   4.10134   4.13260
 Alpha virt. eigenvalues --    4.17943   4.23150   4.25600   4.31844   4.36095
 Alpha virt. eigenvalues --    4.40973   4.58530   4.59100   4.86765
          Condensed to atoms (all electrons):
              1          2          3          4          5          6
     1  C    4.799364   0.460671  -0.029602  -0.042648  -0.051908   0.469078
     2  C    0.460671   4.988522   0.499252   0.005320  -0.041715  -0.014081
     3  C   -0.029602   0.499252   5.089391   0.467044  -0.039544  -0.065613
     4  C   -0.042648   0.005320   0.467044   4.817455   0.417206  -0.067042
     5  C   -0.051908  -0.041715  -0.039544   0.417206   4.988535   0.407876
     6  N    0.469078  -0.014081  -0.065613  -0.067042   0.407876   6.887026
     7  C    0.006614  -0.001020   0.012256  -0.064523   0.272873  -0.091507
     8  N    0.000337  -0.000015  -0.000068   0.006512  -0.091517  -0.000101
     9  C    0.000007   0.000000   0.000004   0.000037   0.006612   0.000336
    10  C    0.000000  -0.000000   0.000000  -0.000063  -0.001021  -0.000015
    11  C    0.000004   0.000000  -0.000017  -0.000004   0.012252  -0.000068
    12  C    0.000037  -0.000063  -0.000009  -0.037596  -0.064489   0.006518
    13  C   -0.000026  -0.000414   0.009966   0.007808  -0.064028  -0.000689
    14  C    0.000282   0.009575  -0.097566   0.390785   0.002956   0.011501
    15  H    0.380947  -0.069035   0.003673   0.000692   0.003803  -0.054426
    16  H   -0.036387   0.349219  -0.037371   0.003721   0.000842   0.004493
    17  H    0.005240  -0.048626   0.363438  -0.046051   0.004350  -0.000247
    18  H   -0.000000   0.000000  -0.000000   0.000006  -0.000088   0.000001
    19  H   -0.000000   0.000000  -0.000000  -0.000000   0.000035  -0.000000
    20  H   -0.000000  -0.000000   0.000000   0.000022  -0.000145   0.000001
    21  H   -0.000000   0.000003  -0.000215   0.002830   0.000763   0.000006
    22  H   -0.000006   0.000199  -0.008007  -0.038731   0.003666  -0.000119
              7          8          9         10         11         12
     1  C    0.006614   0.000337   0.000007   0.000000   0.000004   0.000037
     2  C   -0.001020  -0.000015   0.000000  -0.000000   0.000000  -0.000063
     3  C    0.012256  -0.000068   0.000004   0.000000  -0.000017  -0.000009
     4  C   -0.064523   0.006512   0.000037  -0.000063  -0.000004  -0.037596
     5  C    0.272873  -0.091517   0.006612  -0.001021   0.012252  -0.064489
     6  N   -0.091507  -0.000101   0.000336  -0.000015  -0.000068   0.006518
     7  C    4.988219   0.407940  -0.051937  -0.041706  -0.039480   0.417255
     8  N    0.407940   6.886878   0.469258  -0.014094  -0.065637  -0.067061
     9  C   -0.051937   0.469258   4.799322   0.460598  -0.029624  -0.042644
    10  C   -0.041706  -0.014094   0.460598   4.988530   0.499381   0.005290
    11  C   -0.039480  -0.065637  -0.029624   0.499381   5.089264   0.466910
    12  C    0.417255  -0.067061  -0.042644   0.005290   0.466910   4.817826
    13  C    0.002895   0.011506   0.000283   0.009578  -0.097510   0.390712
    14  C   -0.064031  -0.000691  -0.000026  -0.000414   0.009958   0.007857
    15  H   -0.000088   0.000001  -0.000000   0.000000  -0.000000   0.000006
    16  H    0.000035  -0.000000  -0.000000   0.000000  -0.000000  -0.000000
    17  H   -0.000145   0.000001  -0.000000  -0.000000   0.000000   0.000022
    18  H    0.003800  -0.054433   0.380948  -0.069040   0.003674   0.000693
    19  H    0.000842   0.004493  -0.036383   0.349203  -0.037361   0.003720
    20  H    0.004342  -0.000247   0.005239  -0.048626   0.363427  -0.046045
    21  H    0.003657  -0.000119  -0.000006   0.000199  -0.007993  -0.038713
    22  H    0.000763   0.000006  -0.000000   0.000003  -0.000215   0.002834
             13         14         15         16         17         18
     1  C   -0.000026   0.000282   0.380947  -0.036387   0.005240  -0.000000
     2  C   -0.000414   0.009575  -0.069035   0.349219  -0.048626   0.000000
     3  C    0.009966  -0.097566   0.003673  -0.037371   0.363438  -0.000000
     4  C    0.007808   0.390785   0.000692   0.003721  -0.046051   0.000006
     5  C   -0.064028   0.002956   0.003803   0.000842   0.004350  -0.000088
     6  N   -0.000689   0.011501  -0.054426   0.004493  -0.000247   0.000001
     7  C    0.002895  -0.064031  -0.000088   0.000035  -0.000145   0.003800
     8  N    0.011506  -0.000691   0.000001  -0.000000   0.000001  -0.054433
     9  C    0.000283  -0.000026  -0.000000  -0.000000  -0.000000   0.380948
    10  C    0.009578  -0.000414   0.000000   0.000000  -0.000000  -0.069040
    11  C   -0.097510   0.009958  -0.000000  -0.000000   0.000000   0.003674
    12  C    0.390712   0.007857   0.000006  -0.000000   0.000022   0.000693
    13  C    5.188553   0.446059  -0.000001   0.000003   0.000352   0.000025
    14  C    0.446059   5.188580   0.000025  -0.000141  -0.009022  -0.000001
    15  H   -0.000001   0.000025   0.591661  -0.001873  -0.000197  -0.000000
    16  H    0.000003  -0.000141  -0.001873   0.583932  -0.005719  -0.000000
    17  H    0.000352  -0.009022  -0.000197  -0.005719   0.588955   0.000000
    18  H    0.000025  -0.000001  -0.000000  -0.000000   0.000000   0.591663
    19  H   -0.000141   0.000003  -0.000000   0.000000  -0.000000  -0.001869
    20  H   -0.009013   0.000353   0.000000  -0.000000   0.000000  -0.000197
    21  H    0.352475  -0.037814   0.000000  -0.000000  -0.000009  -0.000000
    22  H   -0.037838   0.352461  -0.000000  -0.000017   0.005952   0.000000
             19         20         21         22
     1  C   -0.000000  -0.000000  -0.000000  -0.000006
     2  C    0.000000  -0.000000   0.000003   0.000199
     3  C   -0.000000   0.000000  -0.000215  -0.008007
     4  C   -0.000000   0.000022   0.002830  -0.038731
     5  C    0.000035  -0.000145   0.000763   0.003666
     6  N   -0.000000   0.000001   0.000006  -0.000119
     7  C    0.000842   0.004342   0.003657   0.000763
     8  N    0.004493  -0.000247  -0.000119   0.000006
     9  C   -0.036383   0.005239  -0.000006  -0.000000
    10  C    0.349203  -0.048626   0.000199   0.000003
    11  C   -0.037361   0.363427  -0.007993  -0.000215
    12  C    0.003720  -0.046045  -0.038713   0.002834
    13  C   -0.000141  -0.009013   0.352475  -0.037838
    14  C    0.000003   0.000353  -0.037814   0.352461
    15  H   -0.000000   0.000000   0.000000  -0.000000
    16  H    0.000000  -0.000000  -0.000000  -0.000017
    17  H   -0.000000   0.000000  -0.000009   0.005952
    18  H   -0.001869  -0.000197  -0.000000   0.000000
    19  H    0.583927  -0.005721  -0.000017  -0.000000
    20  H   -0.005721   0.588984   0.005948  -0.000009
    21  H   -0.000017   0.005948   0.588585  -0.004282
    22  H   -0.000000  -0.000009  -0.004282   0.588685
 Mulliken atomic charges:
              1
     1  C    0.037998
     2  C   -0.137790
     3  C   -0.167013
     4  C    0.177221
     5  C    0.232686
     6  N   -0.492926
     7  C    0.232947
     8  N   -0.492948
     9  C    0.037975
    10  C   -0.137801
    11  C   -0.166962
    12  C    0.176939
    13  C   -0.210556
    14  C   -0.210690
    15  H    0.144813
    16  H    0.139264
    17  H    0.141705
    18  H    0.144819
    19  H    0.139271
    20  H    0.141688
    21  H    0.134704
    22  H    0.134656
 Sum of Mulliken atomic charges =  -0.00000
 Mulliken charges with hydrogens summed into heavy atoms:
              1
     1  C    0.182811
     2  C    0.001474
     3  C   -0.025308
     4  C    0.177221
     5  C    0.232686
     6  N   -0.492926
     7  C    0.232947
     8  N   -0.492948
     9  C    0.182793
    10  C    0.001469
    11  C   -0.025273
    12  C    0.176939
    13  C   -0.075852
    14  C   -0.076034
 Sum of Mulliken charges with hydrogens summed into heavy atoms =  -0.00000
 Electronic spatial extent (au):  <R**2>=           2490.9894
 Charge=             -0.0000 electrons
 Dipole moment (field-independent basis, Debye):
    X=              0.0001    Y=              3.3783    Z=              0.0364  Tot=              3.3785
 Quadrupole moment (field-independent basis, Debye-Ang):
   XX=            -58.6926   YY=            -77.4693   ZZ=            -82.1036
   XY=             -0.0009   XZ=             -0.0150   YZ=             -0.0385
 Traceless Quadrupole moment (field-independent basis, Debye-Ang):
   XX=             14.0625   YY=             -4.7141   ZZ=             -9.3484
   XY=             -0.0009   XZ=             -0.0150   YZ=             -0.0385
 Octapole moment (field-independent basis, Debye-Ang**2):
  XXX=              0.0002  YYY=             20.0422  ZZZ=             -0.0295  XYY=              0.0020
  XXY=             -7.8999  XXZ=              0.5416  XZZ=             -0.0010  YZZ=             -3.4258
  YYZ=              0.1398  XYZ=             -0.2432
 Hexadecapole moment (field-independent basis, Debye-Ang**3):
 XXXX=          -2086.4752 YYYY=           -865.9171 ZZZZ=            -82.1475 XXXY=             -0.0066
 XXXZ=              0.0426 YYYX=              0.0019 YYYZ=             -0.2251 ZZZX=              0.0828
 ZZZY=              0.0565 XXYY=           -481.5494 XXZZ=           -452.0781 YYZZ=           -174.4935
 XXYZ=              0.0144 YYXZ=              0.0446 ZZXY=             -0.0088
 N-N= 7.891241884128D+02 E-N=-2.904013861088D+03  KE= 5.664408439512D+02
 No NMR shielding tensors so no spin-rotation constants.
 Leave Link  601 at Fri Oct  1 18:46:42 2021, MaxMem=  805306368 cpu:       0.7
 (Enter /sw/target/amd/app/gaussian/Gaussian09RevA.02_gcc-4.9.2/g09/l701.exe)
 Compute integral first derivatives.
 ... and contract with generalized density number  0.
 Leave Link  701 at Fri Oct  1 18:46:45 2021, MaxMem=  805306368 cpu:       1.0
 (Enter /sw/target/amd/app/gaussian/Gaussian09RevA.02_gcc-4.9.2/g09/l702.exe)
 L702 exits ... SP integral derivatives will be done elsewhere.
 Leave Link  702 at Fri Oct  1 18:46:46 2021, MaxMem=  805306368 cpu:       0.1
 (Enter /sw/target/amd/app/gaussian/Gaussian09RevA.02_gcc-4.9.2/g09/l703.exe)
 Compute integral first derivatives, UseDBF=F ICtDFT=           0.
 Integral derivatives from FoFDir, PRISM(SPDF).
 Calling FoFJK, ICntrl=      2127 FMM=F ISym2X=0 I1Cent= 0 IOpClX= 0 NMat=1 NMatS=1 NMatT=0.
 FoFCou: FMM=F IPFlag=           0 FMFlag=      100000 FMFlg1=         800
         NFxFlg=           0 DoJE=F BraDBF=F KetDBF=F FulRan=T
         Omega=  0.000000  0.000000  1.000000  0.000000  0.000000 ICntrl=    2127 IOpCl=  0
         NMat0=    1 NMatS0=    1 NMatT0=    0 NMatD0=    1 NMtDS0=    0 NMtDT0=    0
         I1Cent=           0 NGrid=           0.
 Symmetry not used in FoFCou.
 Leave Link  703 at Fri Oct  1 18:50:36 2021, MaxMem=  805306368 cpu:     100.8
 (Enter /sw/target/amd/app/gaussian/Gaussian09RevA.02_gcc-4.9.2/g09/l716.exe)
 Dipole        = 3.83427107D-05 1.32910849D+00 1.43020938D-02
 ***** Axes restored to original set *****
 -------------------------------------------------------------------
 Center     Atomic                   Forces (Hartrees/Bohr)
 Number     Number              X              Y              Z
 -------------------------------------------------------------------
      1        6           0.038710769    0.016990226    0.000242371
      2        6          -0.006142526   -0.023248564   -0.000152758
      3        6          -0.016318064    0.008201072   -0.000026917
      4        6          -0.012883962    0.000147730   -0.000286210
      5        6          -0.044474595    0.014573688    0.000106748
      6        7          -0.010442481    0.005493770   -0.000106128
      7        6           0.044401926    0.014513897   -0.000162269
      8        7           0.010397101    0.005620667   -0.000359963
      9        6          -0.038684193    0.016819105    0.000254508
     10        6           0.006211803   -0.022985291    0.000129956
     11        6           0.016280445    0.007915795   -0.000299563
     12        6           0.013095613    0.000046783    0.000165086
     13        6          -0.038514593   -0.023134918   -0.000140253
     14        6           0.038534565   -0.023090863    0.000293715
     15        1          -0.001001303    0.001547667   -0.000027112
     16        1          -0.001902071   -0.000418576   -0.000001327
     17        1           0.003228519   -0.001971077    0.000159432
     18        1           0.001029981    0.001595644    0.000113558
     19        1           0.001863850   -0.000438420    0.000092043
     20        1          -0.003339505   -0.001831065    0.000035668
     21        1           0.001943009    0.001885381   -0.000037362
     22        1          -0.001994290    0.001767351    0.000006778
 -------------------------------------------------------------------
 Cartesian Forces:  Max     0.044474595 RMS     0.014800201
 Leave Link  716 at Fri Oct  1 18:50:37 2021, MaxMem=  805306368 cpu:       0.1
 (Enter /sw/target/amd/app/gaussian/Gaussian09RevA.02_gcc-4.9.2/g09/l103.exe)

 GradGradGradGradGradGradGradGradGradGradGradGradGradGradGradGradGradGrad
 Berny optimization.
 Internal  Forces:  Max     0.031402823 RMS     0.007704296
 Search for a local minimum.
 Step number   1 out of a maximum of  128
 All quantities printed in internal units (Hartrees-Bohrs-Radians)
 RMS Force = .77043D-02 SwitMx=.10000D-02 MixMth= 1
 Mixed Optimization -- RFO/linear search
 Second derivative matrix not updated -- first step.
     Eigenvalues ---    0.01971   0.01993   0.02006   0.02027   0.02043
     Eigenvalues ---    0.02048   0.02153   0.02157   0.02166   0.02167
     Eigenvalues ---    0.02202   0.02219   0.02222   0.02319   0.02320
     Eigenvalues ---    0.02348   0.02348   0.02383   0.02383   0.16000
     Eigenvalues ---    0.16000   0.16000   0.16000   0.16000   0.16000
     Eigenvalues ---    0.16000   0.16000   0.22079   0.22095   0.22527
     Eigenvalues ---    0.23329   0.23441   0.24522   0.24904   0.24926
     Eigenvalues ---    0.24999   0.35042   0.35062   0.35100   0.35132
     Eigenvalues ---    0.35266   0.35275   0.35572   0.35579   0.37675
     Eigenvalues ---    0.39260   0.42766   0.43578   0.43649   0.44679
     Eigenvalues ---    0.45538   0.46213   0.46260   0.47130   0.48461
     Eigenvalues ---    0.48512   0.51922   0.51939   0.54095   0.54127
     Eigenvalues --- 1000.000001000.000001000.000001000.000001000.00000
     Eigenvalues --- 1000.000001000.000001000.000001000.000001000.00000
     Eigenvalues --- 1000.000001000.000001000.000001000.000001000.00000
     Eigenvalues --- 1000.000001000.000001000.000001000.000001000.00000
     Eigenvalues --- 1000.000001000.000001000.000001000.000001000.00000
     Eigenvalues --- 1000.000001000.000001000.000001000.000001000.00000
     Eigenvalues --- 1000.000001000.000001000.000001000.000001000.00000
     Eigenvalues --- 1000.000001000.000001000.000001000.000001000.00000
     Eigenvalues --- 1000.000001000.000001000.000001000.000001000.00000
     Eigenvalues --- 1000.000001000.000001000.000001000.000001000.00000
     Eigenvalues --- 1000.000001000.000001000.000001000.000001000.00000
     Eigenvalues --- 1000.000001000.000001000.00000
 RFO step:  Lambda=-1.62252594D-02 EMin= 1.97069785D-02
 Linear search not attempted -- first point.
 Iteration  1 RMS(Cart)=  0.03331601 RMS(Int)=  0.00034938
 Iteration  2 RMS(Cart)=  0.00048847 RMS(Int)=  0.00005054
 Iteration  3 RMS(Cart)=  0.00000005 RMS(Int)=  0.00005054
 Variable       Old X    -DE/DX   Delta X   Delta X   Delta X     New X
                                 (Linear)    (Quad)   (Total)
    R1        2.60252   0.02703   0.00000   0.05230   0.05225   2.65477
    R2        2.54913  -0.02247   0.00000  -0.04075  -0.04080   2.50833
    R3        2.05245   0.00183   0.00000   0.00497   0.00497   2.05742
    R4        2.62128  -0.00465   0.00000  -0.00836  -0.00836   2.61292
    R5        2.04745   0.00189   0.00000   0.00509   0.00509   2.05254
    R6        2.64980   0.00600   0.00000   0.01431   0.01437   2.66417
    R7        2.05461   0.00004   0.00000   0.00010   0.00010   2.05471
    R8        2.67773   0.01369   0.00000   0.03217   0.03225   2.70998
    R9        2.64177   0.02837   0.00000   0.05865   0.05861   2.70037
   R10        2.56772  -0.00490   0.00000  -0.00989  -0.00989   2.55783
   R11        2.66019   0.03140   0.00000   0.07029   0.07037   2.73056
   R12        2.56757  -0.00482   0.00000  -0.00974  -0.00974   2.55783
   R13        2.67751   0.01376   0.00000   0.03231   0.03239   2.70991
   R14        2.54896  -0.02243   0.00000  -0.04067  -0.04072   2.50824
   R15        2.60277   0.02696   0.00000   0.05219   0.05214   2.65491
   R16        2.05230   0.00189   0.00000   0.00511   0.00511   2.05741
   R17        2.62085  -0.00448   0.00000  -0.00802  -0.00801   2.61283
   R18        2.04756   0.00185   0.00000   0.00498   0.00498   2.05254
   R19        2.65009   0.00590   0.00000   0.01411   0.01417   2.66426
   R20        2.05513  -0.00014   0.00000  -0.00039  -0.00039   2.05473
   R21        2.64180   0.02834   0.00000   0.05860   0.05856   2.70037
   R22        2.62149  -0.01672   0.00000  -0.03569  -0.03577   2.58572
   R23        2.05607  -0.00070   0.00000  -0.00190  -0.00190   2.05416
   R24        2.05575  -0.00057   0.00000  -0.00156  -0.00156   2.05419
    A1        2.15868   0.00338   0.00000   0.01121   0.01113   2.16981
    A2        2.11720  -0.00190   0.00000  -0.00680  -0.00677   2.11044
    A3        2.00730  -0.00148   0.00000  -0.00440  -0.00436   2.00294
    A4        2.05383   0.00233   0.00000   0.01191   0.01188   2.06571
    A5        2.11032  -0.00069   0.00000  -0.00328  -0.00326   2.10706
    A6        2.11904  -0.00164   0.00000  -0.00864  -0.00862   2.11042
    A7        2.09689  -0.00437   0.00000  -0.01260  -0.01253   2.08436
    A8        2.07779   0.00607   0.00000   0.02836   0.02832   2.10611
    A9        2.10850  -0.00170   0.00000  -0.01575  -0.01579   2.09271
   A10        2.07768  -0.00765   0.00000  -0.02476  -0.02465   2.05303
   A11        2.09595   0.00818   0.00000   0.02865   0.02857   2.12452
   A12        2.10955  -0.00053   0.00000  -0.00389  -0.00392   2.10563
   A13        2.08941   0.01281   0.00000   0.04467   0.04465   2.13405
   A14        2.07879  -0.00331   0.00000  -0.00656  -0.00644   2.07235
   A15        2.11498  -0.00950   0.00000  -0.03810  -0.03820   2.07678
   A16        2.08983  -0.00649   0.00000  -0.03039  -0.03045   2.05938
   A17        2.11524  -0.00955   0.00000  -0.03831  -0.03842   2.07682
   A18        2.07864  -0.00328   0.00000  -0.00646  -0.00633   2.07231
   A19        2.08930   0.01284   0.00000   0.04477   0.04475   2.13405
   A20        2.09004  -0.00653   0.00000  -0.03053  -0.03060   2.05945
   A21        2.15862   0.00338   0.00000   0.01123   0.01115   2.16977
   A22        2.00731  -0.00147   0.00000  -0.00438  -0.00434   2.00297
   A23        2.11725  -0.00191   0.00000  -0.00685  -0.00681   2.11044
   A24        2.05369   0.00236   0.00000   0.01202   0.01200   2.06569
   A25        2.11014  -0.00069   0.00000  -0.00320  -0.00319   2.10695
   A26        2.11936  -0.00168   0.00000  -0.00882  -0.00881   2.11055
   A27        2.09705  -0.00440   0.00000  -0.01272  -0.01264   2.08440
   A28        2.07760   0.00611   0.00000   0.02856   0.02852   2.10612
   A29        2.10853  -0.00171   0.00000  -0.01583  -0.01587   2.09266
   A30        2.07765  -0.00765   0.00000  -0.02475  -0.02464   2.05301
   A31        2.10987  -0.00059   0.00000  -0.00412  -0.00415   2.10572
   A32        2.09566   0.00824   0.00000   0.02887   0.02879   2.12445
   A33        2.09455   0.00389   0.00000   0.01068   0.01058   2.10513
   A34        2.10891  -0.00464   0.00000  -0.02059  -0.02054   2.08836
   A35        2.07972   0.00074   0.00000   0.00993   0.00998   2.08969
   A36        2.09490   0.00383   0.00000   0.01040   0.01030   2.10520
   A37        2.10860  -0.00459   0.00000  -0.02038  -0.02033   2.08828
   A38        2.07968   0.00076   0.00000   0.00998   0.01003   2.08971
    D1        0.00673  -0.00008   0.00000  -0.00248  -0.00249   0.00424
    D2       -3.13593  -0.00004   0.00000  -0.00194  -0.00198  -3.13791
    D3       -3.13643  -0.00004   0.00000  -0.00083  -0.00082  -3.13725
    D4        0.00409   0.00000   0.00000  -0.00029  -0.00031   0.00378
    D5       -0.00385   0.00007   0.00000   0.00203   0.00204  -0.00181
    D6        3.13922   0.00003   0.00000   0.00048   0.00047   3.13969
    D7       -0.00096   0.00005   0.00000   0.00000  -0.00005  -0.00101
    D8        3.14156   0.00004   0.00000  -0.00043  -0.00050   3.14105
    D9       -3.14148   0.00000   0.00000  -0.00054  -0.00056   3.14115
   D10        0.00104  -0.00001   0.00000  -0.00097  -0.00102   0.00003
   D11       -0.00715   0.00017   0.00000   0.00320   0.00313  -0.00402
   D12        3.13649   0.00009   0.00000   0.00129   0.00122   3.13771
   D13        3.13350   0.00018   0.00000   0.00367   0.00360   3.13710
   D14       -0.00605   0.00010   0.00000   0.00175   0.00170  -0.00435
   D15        0.01010  -0.00011   0.00000  -0.00346  -0.00345   0.00665
   D16       -3.12892  -0.00021   0.00000  -0.00556  -0.00555  -3.13447
   D17       -3.13355  -0.00002   0.00000  -0.00149  -0.00153  -3.13508
   D18        0.01061  -0.00011   0.00000  -0.00359  -0.00363   0.00699
   D19        3.13674   0.00007   0.00000   0.00254   0.00259   3.13933
   D20       -0.00539   0.00008   0.00000   0.00227   0.00229  -0.00309
   D21       -0.00277  -0.00001   0.00000   0.00061   0.00065  -0.00212
   D22        3.13829  -0.00000   0.00000   0.00034   0.00035   3.13864
   D23       -0.00475   0.00003   0.00000   0.00100   0.00099  -0.00376
   D24        3.13421   0.00014   0.00000   0.00320   0.00315   3.13736
   D25        3.12873   0.00024   0.00000   0.00520   0.00509   3.13382
   D26       -0.00901   0.00012   0.00000   0.00282   0.00281  -0.00620
   D27       -0.01025   0.00011   0.00000   0.00294   0.00294  -0.00731
   D28        3.13519  -0.00001   0.00000   0.00055   0.00065   3.13585
   D29       -3.13345  -0.00020   0.00000  -0.00478  -0.00473  -3.13819
   D30        0.00426  -0.00011   0.00000  -0.00250  -0.00248   0.00178
   D31        3.13834   0.00008   0.00000   0.00176   0.00175   3.14009
   D32       -0.00018   0.00005   0.00000   0.00095   0.00095   0.00077
   D33        0.00054   0.00001   0.00000  -0.00040  -0.00042   0.00011
   D34       -3.13797  -0.00003   0.00000  -0.00121  -0.00123  -3.13920
   D35       -0.00494   0.00012   0.00000   0.00288   0.00287  -0.00207
   D36        3.13527   0.00018   0.00000   0.00427   0.00425   3.13951
   D37        0.00054   0.00001   0.00000  -0.00012  -0.00015   0.00039
   D38        3.14033   0.00005   0.00000   0.00096   0.00095   3.14128
   D39       -3.13959  -0.00006   0.00000  -0.00159  -0.00161  -3.14120
   D40        0.00021  -0.00002   0.00000  -0.00051  -0.00051  -0.00031
   D41        0.00438  -0.00010   0.00000  -0.00276  -0.00279   0.00160
   D42       -3.14143   0.00001   0.00000   0.00050   0.00054  -3.14089
   D43       -3.13540  -0.00014   0.00000  -0.00385  -0.00389  -3.13929
   D44        0.00198  -0.00003   0.00000  -0.00059  -0.00057   0.00141
   D45       -0.00490   0.00011   0.00000   0.00309   0.00310  -0.00181
   D46        3.13363   0.00013   0.00000   0.00383   0.00385   3.13748
   D47        3.14098  -0.00001   0.00000  -0.00034  -0.00031   3.14067
   D48       -0.00367   0.00000   0.00000   0.00041   0.00044  -0.00323
   D49        0.00812  -0.00013   0.00000  -0.00387  -0.00390   0.00422
   D50       -3.13861  -0.00001   0.00000  -0.00046  -0.00049  -3.13910
   D51       -3.13036  -0.00013   0.00000  -0.00459  -0.00464  -3.13501
   D52        0.00609  -0.00002   0.00000  -0.00118  -0.00123   0.00487
   D53       -0.00661   0.00011   0.00000   0.00306   0.00307  -0.00354
   D54        3.13551   0.00010   0.00000   0.00333   0.00338   3.13889
   D55        3.14003   0.00001   0.00000  -0.00021  -0.00026   3.13977
   D56       -0.00103   0.00001   0.00000   0.00006   0.00005  -0.00099
         Item               Value     Threshold  Converged?
 Maximum Force            0.031403     0.000450     NO 
 RMS     Force            0.007704     0.000300     NO 
 Maximum Displacement     0.115285     0.001800     NO 
 RMS     Displacement     0.033255     0.001200     NO 
 Predicted change in Energy=-8.446215D-03
 GradGradGradGradGradGradGradGradGradGradGradGradGradGradGradGradGradGrad

 Leave Link  103 at Fri Oct  1 18:50:45 2021, MaxMem=  805306368 cpu:       2.9
 (Enter /sw/target/amd/app/gaussian/Gaussian09RevA.02_gcc-4.9.2/g09/l202.exe)
                          Input orientation:                          
 ---------------------------------------------------------------------
 Center     Atomic      Atomic             Coordinates (Angstroms)
 Number     Number       Type             X           Y           Z
 ---------------------------------------------------------------------
      1          6           0       -2.708618    1.499589   -0.003508
      2          6           0       -3.479682    0.325283   -0.010752
      3          6           0       -2.823020   -0.891534   -0.010864
      4          6           0       -1.413462   -0.917906   -0.005023
      5          6           0       -0.724745    0.339948   -0.004289
      6          7           0       -1.381483    1.523489   -0.001350
      7          6           0        0.720200    0.340835   -0.007375
      8          7           0        1.375526    1.525130   -0.015896
      9          6           0        2.702623    1.502861   -0.022581
     10          6           0        3.475158    0.329419   -0.019003
     11          6           0        2.819971   -0.888096   -0.008266
     12          6           0        1.410394   -0.916158   -0.003255
     13          6           0        0.683397   -2.146363    0.002821
     14          6           0       -0.684903   -2.147194   -0.000147
     15          1           0       -3.182332    2.479857    0.000918
     16          1           0       -4.564739    0.373884   -0.015598
     17          1           0       -3.382607   -1.823775   -0.015844
     18          1           0        3.175122    2.483684   -0.031334
     19          1           0        4.560146    0.379409   -0.025203
     20          1           0        3.380667   -1.819690   -0.004511
     21          1           0        1.223037   -3.089955    0.008240
     22          1           0       -1.223430   -3.091447    0.002004
 ---------------------------------------------------------------------
                    Distance matrix (angstroms):
                    1          2          3          4          5
     1  C    0.000000
     2  C    1.404844   0.000000
     3  C    2.393869   1.382697   0.000000
     4  C    2.742575   2.411394   1.409817   0.000000
     5  C    2.297938   2.754983   2.432971   1.434060   0.000000
     6  N    1.327352   2.416242   2.812553   2.441607   1.353544
     7  C    3.619326   4.199913   3.751421   2.477286   1.444949
     8  N    4.084242   5.001270   4.844386   3.707694   2.411624
     9  C    5.411276   6.293467   6.022126   4.775205   3.619331
    10  C    6.293539   6.954847   6.415438   5.045257   4.199943
    11  C    6.022155   6.415444   5.642993   4.233539   3.751416
    12  C    4.775154   5.045203   4.233492   2.823856   2.477221
    13  C    4.979836   4.841534   3.724210   2.430223   2.857387
    14  C    4.170666   3.731494   2.479585   1.428975   2.487465
    15  H    1.088738   2.175027   3.390504   3.830631   3.258675
    16  H    2.170839   1.086155   2.152880   3.405787   3.840160
    17  H    3.391041   2.151255   1.087306   2.167544   3.427252
    18  H    5.965536   6.996109   6.882604   5.711971   4.450315
    19  H    7.354604   8.040023   7.491771   6.112889   5.285080
    20  H    6.935200   7.187860   6.272738   4.878204   4.638798
    21  H    6.043340   5.812037   4.604779   3.416005   3.944394
    22  H    4.825290   4.094494   2.720013   2.181844   3.467449
                    6          7          8          9         10
     6  N    0.000000
     7  C    2.411593   0.000000
     8  N    2.757048   1.353543   0.000000
     9  C    4.084214   2.297942   1.327302   0.000000
    10  C    5.001308   2.755006   2.416235   1.404916   0.000000
    11  C    4.844379   2.432963   2.812497   2.393877   1.382652
    12  C    3.707622   1.434021   2.441570   2.742605   2.411424
    13  C    4.210886   2.487491   3.736208   4.170702   3.731475
    14  C    3.736193   2.857386   4.210888   4.979834   4.841496
    15  H    2.039044   4.450308   4.656807   5.965549   6.996210
    16  H    3.384510   5.285049   6.050794   7.354535   8.040021
    17  H    3.899856   4.638818   5.818504   6.935170   7.187851
    18  H    4.656773   3.258684   2.039023   1.088736   2.175094
    19  H    6.050822   3.840180   3.384460   2.170839   1.086156
    20  H    5.818499   3.427237   3.899813   3.391079   2.151234
    21  H    5.297875   3.467478   4.617666   4.825358   4.094498
    22  H    4.617643   3.944407   5.297894   6.043358   5.812014
                   11         12         13         14         15
    11  C    0.000000
    12  C    1.409865   0.000000
    13  C    2.479578   1.428973   0.000000
    14  C    3.724183   2.430171   1.368304   0.000000
    15  H    6.882647   5.711923   6.028745   5.258018   0.000000
    16  H    7.491768   6.112820   5.821934   4.627007   2.519215
    17  H    6.272761   4.878195   4.078824   2.717067   4.308321
    18  H    3.390511   3.830664   5.258060   6.028748   6.357537
    19  H    2.152919   3.405864   4.627038   5.821931   8.022376
    20  H    1.087318   2.167567   2.716989   4.078742   7.845959
    21  H    2.720047   2.181886   1.087017   2.128169   7.101417
    22  H    4.604776   3.415983   2.128186   1.087028   5.905652
                   16         17         18         19         20
    16  H    0.000000
    17  H    2.495424   0.000000
    18  H    8.022279   7.845907   0.000000
    19  H    9.124891   8.242659   2.519187   0.000000
    20  H    8.242655   6.763284   4.308364   2.495523   0.000000
    21  H    6.745153   4.776583   5.905731   4.813927   2.503817
    22  H    4.813852   2.503868   7.101441   6.745171   4.776517
                   21         22
    21  H    0.000000
    22  H    2.446476   0.000000
 Stoichiometry    C12H8N2
 Framework group  C1[X(C12H8N2)]
 Deg. of freedom    60
 Full point group                 C1      NOp   1
 Largest Abelian subgroup         C1      NOp   1
 Largest concise Abelian subgroup C1      NOp   1
                         Standard orientation:                         
 ---------------------------------------------------------------------
 Center     Atomic      Atomic             Coordinates (Angstroms)
 Number     Number       Type             X           Y           Z
 ---------------------------------------------------------------------
      1          6           0       -2.705649   -1.545716   -0.005242
      2          6           0       -3.477410   -0.371904    0.006469
      3          6           0       -2.821481    0.845306    0.009191
      4          6           0       -1.411948    0.872549    0.001471
      5          6           0       -0.722476   -0.384880   -0.003858
      6          7           0       -1.378505   -1.568805   -0.009310
      7          6           0        0.722473   -0.384900   -0.002779
      8          7           0        1.378522   -1.568817    0.001406
      9          6           0        2.705614   -1.545763    0.006314
     10          6           0        3.477437   -0.371847    0.005060
     11          6           0        2.821502    0.845296   -0.001245
     12          6           0        1.411903    0.872518   -0.004220
     13          6           0        0.684158    2.102294   -0.005727
     14          6           0       -0.684138    2.102287   -0.000859
     15          1           0       -3.178778   -2.526254   -0.011848
     16          1           0       -4.562429   -0.421177    0.012680
     17          1           0       -3.381622    1.777188    0.017645
     18          1           0        3.178716   -2.526321    0.011573
     19          1           0        4.562462   -0.421197    0.009610
     20          1           0        3.381631    1.777237   -0.003082
     21          1           0        1.223221    3.046225   -0.009165
     22          1           0       -1.223236    3.046216    0.000470
 ---------------------------------------------------------------------
 Rotational constants (GHZ):      1.6153638      0.5807678      0.4271877
 Leave Link  202 at Fri Oct  1 18:50:45 2021, MaxMem=  805306368 cpu:       0.0
 (Enter /sw/target/amd/app/gaussian/Gaussian09RevA.02_gcc-4.9.2/g09/l301.exe)
 Standard basis: 6-31G(d) (6D, 7F)
 Ernie: Thresh=  0.10000D-02 Tol=  0.10000D-05 Strict=F.
 There are   226 symmetry adapted basis functions of A   symmetry.
 Integral buffers will be    131072 words long.
 Raffenetti 2 integral format.
 Two-electron integral symmetry is turned on.
   226 basis functions,   424 primitive gaussians,   226 cartesian basis functions
    47 alpha electrons       47 beta electrons
       nuclear repulsion energy       785.8770571576 Hartrees.
 IExCor=  402 DFT=T Ex+Corr=B3LYP ExCW=0 ScaHFX=  0.200000
 ScaDFX=  0.800000  0.720000  1.000000  0.810000 ScalE2=  1.000000  1.000000
 IRadAn=      0 IRanWt=     -1 IRanGd=            0 ICorTp=0
 NAtoms=   22 NActive=   22 NUniq=   22 SFac= 7.50D-01 NAtFMM=   80 NAOKFM=F Big=F
 Leave Link  301 at Fri Oct  1 18:50:46 2021, MaxMem=  805306368 cpu:       0.1
 (Enter /sw/target/amd/app/gaussian/Gaussian09RevA.02_gcc-4.9.2/g09/l302.exe)
 NPDir=0 NMtPBC=     1 NCelOv=     1 NCel=       1 NClECP=     1 NCelD=      1
         NCelK=      1 NCelE2=     1 NClLst=     1 CellRange=     0.0.
 One-electron integrals computed using PRISM.
 NBasis=   226 RedAO= T  NBF=   226
 NBsUse=   226 1.00D-06 NBFU=   226
 Precomputing XC quadrature grid using
 IXCGrd= 2 IRadAn=           0 IRanWt=          -1 IRanGd=           0 AccXCQ= 1.00D-10.
 NRdTot=    1384 NPtTot=      175944 NUsed=      185931 NTot=      185963
 NSgBfM=   225   225   225   225   225 NAtAll=    22    22.
 Leave Link  302 at Fri Oct  1 18:50:52 2021, MaxMem=  805306368 cpu:       1.6
[...]
 Mulliken charges with hydrogens summed into heavy atoms:
              1
     1  C    0.219114
     2  C   -0.043595
     3  C   -0.041022
     4  C    0.176033
     5  C    0.227698
     6  N   -0.482766
     7  C    0.227679
     8  N   -0.482765
     9  C    0.219116
    10  C   -0.043601
    11  C   -0.041001
    12  C    0.176026
    13  C   -0.055457
    14  C   -0.055460
 Sum of Mulliken charges with hydrogens summed into heavy atoms =  -0.00000
 Electronic spatial extent (au):  <R**2>=           2502.2063
 Charge=             -0.0000 electrons
 Dipole moment (field-independent basis, Debye):
    X=             -0.0002    Y=              1.2774    Z=              0.0001  Tot=              1.2774
 Quadrupole moment (field-independent basis, Debye-Ang):
   XX=            -64.1162   YY=            -71.9544   ZZ=            -83.7691
   XY=             -0.0003   XZ=             -0.0005   YZ=             -0.0002
 Traceless Quadrupole moment (field-independent basis, Debye-Ang):
   XX=              9.1637   YY=              1.3255   ZZ=            -10.4892
   XY=             -0.0003   XZ=             -0.0005   YZ=             -0.0002
 Octapole moment (field-independent basis, Debye-Ang**2):
  XXX=             -0.0023  YYY=              6.6033  ZZZ=              0.0002  XYY=             -0.0001
  XXY=            -13.2033  XXZ=              0.0012  XZZ=             -0.0004  YZZ=             -3.4046
  YYZ=              0.0009  XYZ=             -0.0056
 Hexadecapole moment (field-independent basis, Debye-Ang**3):
 XXXX=          -2164.6869 YYYY=           -848.3064 ZZZZ=            -84.7105 XXXY=             -0.0014
 XXXZ=             -0.0151 YYYX=             -0.0019 YYYZ=             -0.0014 ZZZX=              0.0022
 ZZZY=             -0.0003 XXYY=           -470.5887 XXZZ=           -462.0694 YYZZ=           -179.6912
 XXYZ=             -0.0034 YYXZ=              0.0039 ZZXY=              0.0001
 N-N= 7.857348698064D+02 E-N=-2.896598111343D+03  KE= 5.660879028689D+02
 No NMR shielding tensors so no spin-rotation constants.
 Leave Link  601 at Sat Oct  2 02:59:07 2021, MaxMem=  805306368 cpu:       0.9
 (Enter /sw/target/amd/app/gaussian/Gaussian09RevA.02_gcc-4.9.2/g09/l604.exe)
 Evaluate density.
 Using the total density.
 Monte-Carlo method of calculating molar volume:
 based on  0.001 e/bohr**3 density envelope.
 Number of points per bohr**3 =   20 CutOff= 1.00D-04
 Using the CI density.
 There are       378 points.  Will hold       378 in memory.
 LenV=   805168126 MDV=   805306368.
 Box volume = 6796.295 fraction occupied=0.238
 Integrated density= 9.3580703760473440D+01 error=-4.1929623952655959D-01
 Molar volume = 1618.165 bohr**3/mol (144.403 cm**3/mol)
 Recommended a0 for SCRF calculation =  4.74 angstrom (  8.96 bohr)
 Leave Link  604 at Sat Oct  2 02:59:08 2021, MaxMem=  805306368 cpu:       0.2
 (Enter /sw/target/amd/app/gaussian/Gaussian09RevA.02_gcc-4.9.2/g09/l607.exe)
 ******************************Gaussian NBO Version 3.1******************************
             N A T U R A L   A T O M I C   O R B I T A L   A N D
          N A T U R A L   B O N D   O R B I T A L   A N A L Y S I S
 ******************************Gaussian NBO Version 3.1******************************
       /RESON  / : Allow strongly delocalized NBO set

 Analyzing the CI density

 Job title: c1ccc2c(n1)c1ncccc1cc2_conf_0                                   

 Storage needed:    154928 in NPA ( 805303772 available)


 NATURAL POPULATIONS:  Natural atomic orbital occupancies 
                                                          
   NAO  Atom  No  lang   Type(AO)    Occupancy
 --------------------------------------------
     1    C    1  S      Cor( 1S)     1.99919
     2    C    1  S      Val( 2S)     0.93743
     3    C    1  S      Ryd( 3S)     0.00136
     4    C    1  S      Ryd( 4S)     0.00008
     5    C    1  px     Val( 2p)     0.92709
     6    C    1  px     Ryd( 3p)     0.00763
     7    C    1  py     Val( 2p)     1.15651
     8    C    1  py     Ryd( 3p)     0.00584
     9    C    1  pz     Val( 2p)     0.92791
    10    C    1  pz     Ryd( 3p)     0.00100
    11    C    1  dxy    Ryd( 3d)     0.00133
    12    C    1  dxz    Ryd( 3d)     0.00179
    13    C    1  dyz    Ryd( 3d)     0.00045
    14    C    1  dx2y2  Ryd( 3d)     0.00128
    15    C    1  dz2    Ryd( 3d)     0.00050

    16    C    2  S      Cor( 1S)     1.99907
    17    C    2  S      Val( 2S)     0.96537
    18    C    2  S      Ryd( 3S)     0.00060
    19    C    2  S      Ryd( 4S)     0.00003
    20    C    2  px     Val( 2p)     1.19775
    21    C    2  px     Ryd( 3p)     0.00425
    22    C    2  py     Val( 2p)     1.04727
    23    C    2  py     Ryd( 3p)     0.00475
    24    C    2  pz     Val( 2p)     1.11447
    25    C    2  pz     Ryd( 3p)     0.00275
    26    C    2  dxy    Ryd( 3d)     0.00065
    27    C    2  dxz    Ryd( 3d)     0.00038
    28    C    2  dyz    Ryd( 3d)     0.00048
    29    C    2  dx2y2  Ryd( 3d)     0.00072
    30    C    2  dz2    Ryd( 3d)     0.00046

    31    C    3  S      Cor( 1S)     1.99905
    32    C    3  S      Val( 2S)     0.94719
    33    C    3  S      Ryd( 3S)     0.00063
    34    C    3  S      Ryd( 4S)     0.00005
    35    C    3  px     Val( 2p)     1.07996
    36    C    3  px     Ryd( 3p)     0.00424
    37    C    3  py     Val( 2p)     1.16672
    38    C    3  py     Ryd( 3p)     0.00462
    39    C    3  pz     Val( 2p)     1.00106
    40    C    3  pz     Ryd( 3p)     0.00229
    41    C    3  dxy    Ryd( 3d)     0.00077
    42    C    3  dxz    Ryd( 3d)     0.00052
    43    C    3  dyz    Ryd( 3d)     0.00050
    44    C    3  dx2y2  Ryd( 3d)     0.00068
    45    C    3  dz2    Ryd( 3d)     0.00043

    46    C    4  S      Cor( 1S)     1.99899
    47    C    4  S      Val( 2S)     0.87679
    48    C    4  S      Ryd( 3S)     0.00059
    49    C    4  S      Ryd( 4S)     0.00006
    50    C    4  px     Val( 2p)     1.09751
    51    C    4  px     Ryd( 3p)     0.00455
    52    C    4  py     Val( 2p)     1.07610
    53    C    4  py     Ryd( 3p)     0.00511
    54    C    4  pz     Val( 2p)     1.01740
    55    C    4  pz     Ryd( 3p)     0.00039
    56    C    4  dxy    Ryd( 3d)     0.00074
    57    C    4  dxz    Ryd( 3d)     0.00085
    58    C    4  dyz    Ryd( 3d)     0.00055
    59    C    4  dx2y2  Ryd( 3d)     0.00061
    60    C    4  dz2    Ryd( 3d)     0.00036

    61    C    5  S      Cor( 1S)     1.99900
    62    C    5  S      Val( 2S)     0.83039
    63    C    5  S      Ryd( 3S)     0.00155
    64    C    5  S      Ryd( 4S)     0.00011
    65    C    5  px     Val( 2p)     1.03130
    66    C    5  px     Ryd( 3p)     0.00508
    67    C    5  py     Val( 2p)     0.94419
    68    C    5  py     Ryd( 3p)     0.00921
    69    C    5  pz     Val( 2p)     1.04115
    70    C    5  pz     Ryd( 3p)     0.00153
    71    C    5  dxy    Ryd( 3d)     0.00096
    72    C    5  dxz    Ryd( 3d)     0.00109
    73    C    5  dyz    Ryd( 3d)     0.00102
    74    C    5  dx2y2  Ryd( 3d)     0.00134
    75    C    5  dz2    Ryd( 3d)     0.00039

    76    N    6  S      Cor( 1S)     1.99911
    77    N    6  S      Val( 2S)     1.30772
    78    N    6  S      Ryd( 3S)     0.00054
    79    N    6  S      Ryd( 4S)     0.00001
    80    N    6  px     Val( 2p)     1.28821
    81    N    6  px     Ryd( 3p)     0.00351
    82    N    6  py     Val( 2p)     1.30981
    83    N    6  py     Ryd( 3p)     0.00535
    84    N    6  pz     Val( 2p)     1.37575
    85    N    6  pz     Ryd( 3p)     0.00235
    86    N    6  dxy    Ryd( 3d)     0.00083
    87    N    6  dxz    Ryd( 3d)     0.00118
    88    N    6  dyz    Ryd( 3d)     0.00130
    89    N    6  dx2y2  Ryd( 3d)     0.00098
    90    N    6  dz2    Ryd( 3d)     0.00043

    91    C    7  S      Cor( 1S)     1.99900
    92    C    7  S      Val( 2S)     0.83039
    93    C    7  S      Ryd( 3S)     0.00155
    94    C    7  S      Ryd( 4S)     0.00011
    95    C    7  px     Val( 2p)     1.03129
    96    C    7  px     Ryd( 3p)     0.00508
    97    C    7  py     Val( 2p)     0.94419
    98    C    7  py     Ryd( 3p)     0.00921
    99    C    7  pz     Val( 2p)     1.04118
   100    C    7  pz     Ryd( 3p)     0.00153
   101    C    7  dxy    Ryd( 3d)     0.00096
   102    C    7  dxz    Ryd( 3d)     0.00109
   103    C    7  dyz    Ryd( 3d)     0.00102
   104    C    7  dx2y2  Ryd( 3d)     0.00134
   105    C    7  dz2    Ryd( 3d)     0.00039

   106    N    8  S      Cor( 1S)     1.99911
   107    N    8  S      Val( 2S)     1.30773
   108    N    8  S      Ryd( 3S)     0.00054
   109    N    8  S      Ryd( 4S)     0.00001
   110    N    8  px     Val( 2p)     1.28823
   111    N    8  px     Ryd( 3p)     0.00351
   112    N    8  py     Val( 2p)     1.30985
   113    N    8  py     Ryd( 3p)     0.00535
   114    N    8  pz     Val( 2p)     1.37569
   115    N    8  pz     Ryd( 3p)     0.00235
   116    N    8  dxy    Ryd( 3d)     0.00083
   117    N    8  dxz    Ryd( 3d)     0.00118
   118    N    8  dyz    Ryd( 3d)     0.00130
   119    N    8  dx2y2  Ryd( 3d)     0.00098
   120    N    8  dz2    Ryd( 3d)     0.00043

   121    C    9  S      Cor( 1S)     1.99919
   122    C    9  S      Val( 2S)     0.93743
   123    C    9  S      Ryd( 3S)     0.00136
   124    C    9  S      Ryd( 4S)     0.00008
   125    C    9  px     Val( 2p)     0.92709
   126    C    9  px     Ryd( 3p)     0.00763
   127    C    9  py     Val( 2p)     1.15651
   128    C    9  py     Ryd( 3p)     0.00584
   129    C    9  pz     Val( 2p)     0.92790
   130    C    9  pz     Ryd( 3p)     0.00100
   131    C    9  dxy    Ryd( 3d)     0.00133
   132    C    9  dxz    Ryd( 3d)     0.00179
   133    C    9  dyz    Ryd( 3d)     0.00045
   134    C    9  dx2y2  Ryd( 3d)     0.00128
   135    C    9  dz2    Ryd( 3d)     0.00050

   136    C   10  S      Cor( 1S)     1.99907
   137    C   10  S      Val( 2S)     0.96537
   138    C   10  S      Ryd( 3S)     0.00060
   139    C   10  S      Ryd( 4S)     0.00003
   140    C   10  px     Val( 2p)     1.19775
   141    C   10  px     Ryd( 3p)     0.00425
   142    C   10  py     Val( 2p)     1.04727
   143    C   10  py     Ryd( 3p)     0.00475
   144    C   10  pz     Val( 2p)     1.11447
   145    C   10  pz     Ryd( 3p)     0.00275
   146    C   10  dxy    Ryd( 3d)     0.00065
   147    C   10  dxz    Ryd( 3d)     0.00038
   148    C   10  dyz    Ryd( 3d)     0.00048
   149    C   10  dx2y2  Ryd( 3d)     0.00072
   150    C   10  dz2    Ryd( 3d)     0.00046

   151    C   11  S      Cor( 1S)     1.99905
   152    C   11  S      Val( 2S)     0.94719
   153    C   11  S      Ryd( 3S)     0.00063
   154    C   11  S      Ryd( 4S)     0.00005
   155    C   11  px     Val( 2p)     1.07997
   156    C   11  px     Ryd( 3p)     0.00424
   157    C   11  py     Val( 2p)     1.16672
   158    C   11  py     Ryd( 3p)     0.00462
   159    C   11  pz     Val( 2p)     1.00102
   160    C   11  pz     Ryd( 3p)     0.00228
   161    C   11  dxy    Ryd( 3d)     0.00077
   162    C   11  dxz    Ryd( 3d)     0.00052
   163    C   11  dyz    Ryd( 3d)     0.00050
   164    C   11  dx2y2  Ryd( 3d)     0.00068
   165    C   11  dz2    Ryd( 3d)     0.00043

   166    C   12  S      Cor( 1S)     1.99899
   167    C   12  S      Val( 2S)     0.87678
   168    C   12  S      Ryd( 3S)     0.00059
   169    C   12  S      Ryd( 4S)     0.00006
   170    C   12  px     Val( 2p)     1.09750
   171    C   12  px     Ryd( 3p)     0.00455
   172    C   12  py     Val( 2p)     1.07610
   173    C   12  py     Ryd( 3p)     0.00511
   174    C   12  pz     Val( 2p)     1.01742
   175    C   12  pz     Ryd( 3p)     0.00039
   176    C   12  dxy    Ryd( 3d)     0.00074
   177    C   12  dxz    Ryd( 3d)     0.00085
   178    C   12  dyz    Ryd( 3d)     0.00055
   179    C   12  dx2y2  Ryd( 3d)     0.00061
   180    C   12  dz2    Ryd( 3d)     0.00036

   181    C   13  S      Cor( 1S)     1.99904
   182    C   13  S      Val( 2S)     0.94743
   183    C   13  S      Ryd( 3S)     0.00065
   184    C   13  S      Ryd( 4S)     0.00004
   185    C   13  px     Val( 2p)     1.10512
   186    C   13  px     Ryd( 3p)     0.00421
   187    C   13  py     Val( 2p)     1.13941
   188    C   13  py     Ryd( 3p)     0.00472
   189    C   13  pz     Val( 2p)     1.00110
   190    C   13  pz     Ryd( 3p)     0.00082
   191    C   13  dxy    Ryd( 3d)     0.00084
   192    C   13  dxz    Ryd( 3d)     0.00070
   193    C   13  dyz    Ryd( 3d)     0.00028
   194    C   13  dx2y2  Ryd( 3d)     0.00064
   195    C   13  dz2    Ryd( 3d)     0.00043

   196    C   14  S      Cor( 1S)     1.99904
   197    C   14  S      Val( 2S)     0.94743
   198    C   14  S      Ryd( 3S)     0.00065
   199    C   14  S      Ryd( 4S)     0.00004
   200    C   14  px     Val( 2p)     1.10512
   201    C   14  px     Ryd( 3p)     0.00421
   202    C   14  py     Val( 2p)     1.13941
   203    C   14  py     Ryd( 3p)     0.00472
   204    C   14  pz     Val( 2p)     1.00111
   205    C   14  pz     Ryd( 3p)     0.00082
   206    C   14  dxy    Ryd( 3d)     0.00084
   207    C   14  dxz    Ryd( 3d)     0.00070
   208    C   14  dyz    Ryd( 3d)     0.00028
   209    C   14  dx2y2  Ryd( 3d)     0.00064
   210    C   14  dz2    Ryd( 3d)     0.00043

   211    H   15  S      Val( 1S)     0.75812
   212    H   15  S      Ryd( 2S)     0.00083

   213    H   16  S      Val( 1S)     0.75259
   214    H   16  S      Ryd( 2S)     0.00069

   215    H   17  S      Val( 1S)     0.76056
   216    H   17  S      Ryd( 2S)     0.00098

   217    H   18  S      Val( 1S)     0.75813
   218    H   18  S      Ryd( 2S)     0.00083

   219    H   19  S      Val( 1S)     0.75259
   220    H   19  S      Ryd( 2S)     0.00069

   221    H   20  S      Val( 1S)     0.76056
   222    H   20  S      Ryd( 2S)     0.00098

   223    H   21  S      Val( 1S)     0.75671
   224    H   21  S      Ryd( 2S)     0.00099

   225    H   22  S      Val( 1S)     0.75671
   226    H   22  S      Ryd( 2S)     0.00099

 WARNING:  1 low occupancy (<1.9990e) core orbital  found on  C    4
           1 low occupancy (<1.9990e) core orbital  found on  C    5
           1 low occupancy (<1.9990e) core orbital  found on  C    7
           1 low occupancy (<1.9990e) core orbital  found on  C   12


 Summary of Natural Population Analysis:                  
                                                          
                                       Natural Population 
                Natural  -----------------------------------------------
    Atom  No    Charge         Core      Valence    Rydberg      Total
 -----------------------------------------------------------------------
      C    1    0.03060      1.99919     3.94895    0.02126     5.96940
      C    2   -0.33900      1.99907     4.32487    0.01507     6.33900
      C    3   -0.20870      1.99905     4.19493    0.01472     6.20870
      C    4   -0.08059      1.99899     4.06779    0.01380     6.08059
      C    5    0.13170      1.99900     3.84703    0.02228     5.86830
      N    6   -0.29710      1.99911     5.28149    0.01650     7.29710
      C    7    0.13168      1.99900     3.84705    0.02228     5.86832
      N    8   -0.29712      1.99911     5.28151    0.01650     7.29712
      C    9    0.03062      1.99919     3.94893    0.02126     5.96938
      C   10   -0.33901      1.99907     4.32487    0.01507     6.33901
      C   11   -0.20867      1.99905     4.19490    0.01472     6.20867
      C   12   -0.08060      1.99899     4.06781    0.01380     6.08060
      C   13   -0.20544      1.99904     4.19306    0.01333     6.20544
      C   14   -0.20545      1.99904     4.19307    0.01333     6.20545
      H   15    0.24105      0.00000     0.75812    0.00083     0.75895
      H   16    0.24672      0.00000     0.75259    0.00069     0.75328
      H   17    0.23846      0.00000     0.76056    0.00098     0.76154
      H   18    0.24104      0.00000     0.75813    0.00083     0.75896
      H   19    0.24672      0.00000     0.75259    0.00069     0.75328
      H   20    0.23846      0.00000     0.76056    0.00098     0.76154
      H   21    0.24230      0.00000     0.75671    0.00099     0.75770
      H   22    0.24230      0.00000     0.75671    0.00099     0.75770
 =======================================================================
   * Total *    0.00000     27.98690    65.77225    0.24086    94.00000

                                 Natural Population      
 --------------------------------------------------------
   Core                      27.98690 ( 99.9532% of  28)
   Valence                   65.77225 ( 99.6549% of  66)
   Natural Minimal Basis     93.75914 ( 99.7438% of  94)
   Natural Rydberg Basis      0.24086 (  0.2562% of  94)
 --------------------------------------------------------

    Atom  No          Natural Electron Configuration
 ----------------------------------------------------------------------------
      C    1      [core]2S( 0.94)2p( 3.01)3p( 0.01)3d( 0.01)
      C    2      [core]2S( 0.97)2p( 3.36)3p( 0.01)
      C    3      [core]2S( 0.95)2p( 3.25)3p( 0.01)
      C    4      [core]2S( 0.88)2p( 3.19)3p( 0.01)
      C    5      [core]2S( 0.83)2p( 3.02)3p( 0.02)
      N    6      [core]2S( 1.31)2p( 3.97)3p( 0.01)
      C    7      [core]2S( 0.83)2p( 3.02)3p( 0.02)
      N    8      [core]2S( 1.31)2p( 3.97)3p( 0.01)
      C    9      [core]2S( 0.94)2p( 3.01)3p( 0.01)3d( 0.01)
      C   10      [core]2S( 0.97)2p( 3.36)3p( 0.01)
      C   11      [core]2S( 0.95)2p( 3.25)3p( 0.01)
      C   12      [core]2S( 0.88)2p( 3.19)3p( 0.01)
      C   13      [core]2S( 0.95)2p( 3.25)3p( 0.01)
      C   14      [core]2S( 0.95)2p( 3.25)3p( 0.01)
      H   15            1S( 0.76)
      H   16            1S( 0.75)
      H   17            1S( 0.76)
      H   18            1S( 0.76)
      H   19            1S( 0.75)
      H   20            1S( 0.76)
      H   21            1S( 0.76)
      H   22            1S( 0.76)


 NBO analysis skipped by request.
 Leave Link  607 at Sat Oct  2 02:59:42 2021, MaxMem=  805306368 cpu:      10.8
 (Enter /sw/target/amd/app/gaussian/Gaussian09RevA.02_gcc-4.9.2/g09/l9999.exe)
 1\1\GINC-HERMITE\SP\RTD-B3LYP-FC\6-31G(d)\C12H8N2\JSCHLEINITZ\02-Oct-2
 021\0\\#p TD(NStates=10, Root=1) b3lyp/6-31G* volume pop=NPA density=c
 urrent Geom=AllCheck Guess=Read\\c1ccc2c(n1)c1ncccc1cc2_conf_0\\0,1\C,
 0,-2.7066575499,1.5012970768,-0.0104550692\C,0,-3.4845591632,0.3250046
 25,-0.0060177906\C,0,-2.8307287225,-0.8889530731,-0.0031563067\C,0,-1.
 4186288664,-0.9175159953,-0.0047606224\C,0,-0.7317641202,0.331498453,-
 0.0094232942\N,0,-1.3839108754,1.5166883695,-0.0121220425\C,0,0.727214
 8603,0.3323786075,-0.0113209222\N,0,1.3779203065,1.5183566881,-0.01606
 06711\C,0,2.7006832961,1.5045620836,-0.0176731649\C,0,3.4800162901,0.3
 292114978,-0.0147364887\C,0,2.8276635802,-0.8855337588,-0.0100058384\C
 ,0,1.4155986368,-0.9158020808,-0.0081588799\C,0,0.6796105182,-2.147097
 7897,-0.003372586\C,0,-0.6811439094,-2.1479211044,-0.0017961398\H,0,-3
 .1971764064,2.4744207355,-0.0126189429\H,0,-4.5688649911,0.3851914698,
 -0.0049456021\H,0,-3.3838200497,-1.8255556141,0.0003405296\H,0,3.19002
 10222,2.4782754338,-0.021449145\H,0,4.5642481123,0.390710964,-0.016180
 1506\H,0,3.3818914191,-1.8214681653,-0.0076294134\H,0,1.2343195254,-3.
 0824932461,-0.0010382408\H,0,-1.2347135556,-3.0839867426,0.0017650698\
 \Version=AM64L-G09RevA.02\State=1-A\HF=-571.610381\RMSD=2.357e-09\Dipo
 le=0.0003802,-0.5025629,0.0016118\Quadrupole=6.8129965,0.985384,-7.798
 3804,0.0032672,-0.018069,-0.0274413\PG=C01 [X(C12H8N2)]\\@


 THE FIRST AND LAST THING REQUIRED OF GENIUS IS THE LOVE OF TRUTH.

                          -- GOETHE
 Job cpu time:  0 days  1 hours 52 minutes 44.6 seconds.
 File lengths (MBytes):  RWF=    145 Int=      0 D2E=      0 Chk=     23 Scr=      1
 Normal termination of Gaussian 09 at Sat Oct  2 02:59:48 2021.
