 Entering Gaussian System, Link 0=g09
 Input=C12H12O_8814_conf_0.com
 Output=C12H12O_8814_conf_0.log
 Initial command:
 /sw/target/amd/app/gaussian/Gaussian09RevA.02_gcc-4.9.2/g09/l1.exe /home/jschleinitz/gaussian/Gau-3298054.inp -scrdir=/home/jschleinitz/gaussian/
 Entering Link 1 = /sw/target/amd/app/gaussian/Gaussian09RevA.02_gcc-4.9.2/g09/l1.exe PID=   3298056.
  
 Copyright (c) 1988,1990,1992,1993,1995,1998,2003,2009, Gaussian, Inc.
                  All Rights Reserved.
  
 This is part of the Gaussian(R) 09 program.  It is based on
 the Gaussian(R) 03 system (copyright 2003, Gaussian, Inc.),
 the Gaussian(R) 98 system (copyright 1998, Gaussian, Inc.),
 the Gaussian(R) 94 system (copyright 1995, Gaussian, Inc.),
 the Gaussian 92(TM) system (copyright 1992, Gaussian, Inc.),
 the Gaussian 90(TM) system (copyright 1990, Gaussian, Inc.),
 the Gaussian 88(TM) system (copyright 1988, Gaussian, Inc.),
 the Gaussian 86(TM) system (copyright 1986, Carnegie Mellon
 University), and the Gaussian 82(TM) system (copyright 1983,
 Carnegie Mellon University). Gaussian is a federally registered
 trademark of Gaussian, Inc.
  
 This software contains proprietary and confidential information,
 including trade secrets, belonging to Gaussian, Inc.
  
 This software is provided under written license and may be
 used, copied, transmitted, or stored only in accord with that
 written license.
  
 The following legend is applicable only to US Government
 contracts under FAR:
  
                    RESTRICTED RIGHTS LEGEND
  
 Use, reproduction and disclosure by the US Government is
 subject to restrictions as set forth in subparagraphs (a)
 and (c) of the Commercial Computer Software - Restricted
 Rights clause in FAR 52.227-19.
  
 Gaussian, Inc.
 340 Quinnipiac St., Bldg. 40, Wallingford CT 06492
  
  
 ---------------------------------------------------------------
 Warning -- This program may not be used in any manner that
 competes with the business of Gaussian, Inc. or will provide
 assistance to any competitor of Gaussian, Inc.  The licensee
 of this program is prohibited from giving any competitor of
 Gaussian, Inc. access to this program.  By using this program,
 the user acknowledges that Gaussian, Inc. is engaged in the
 business of creating and licensing software in the field of
 computational chemistry and represents and warrants to the
 licensee that it is not a competitor of Gaussian, Inc. and that
 it will not use this program in any manner prohibited above.
 ---------------------------------------------------------------
  

 Cite this work as:
 Gaussian 09, Revision A.02,
 M. J. Frisch, G. W. Trucks, H. B. Schlegel, G. E. Scuseria, 
 M. A. Robb, J. R. Cheeseman, G. Scalmani, V. Barone, B. Mennucci, 
 G. A. Petersson, H. Nakatsuji, M. Caricato, X. Li, H. P. Hratchian, 
 A. F. Izmaylov, J. Bloino, G. Zheng, J. L. Sonnenberg, M. Hada, 
 M. Ehara, K. Toyota, R. Fukuda, J. Hasegawa, M. Ishida, T. Nakajima, 
 Y. Honda, O. Kitao, H. Nakai, T. Vreven, J. A. Montgomery, Jr., 
 J. E. Peralta, F. Ogliaro, M. Bearpark, J. J. Heyd, E. Brothers, 
 K. N. Kudin, V. N. Staroverov, R. Kobayashi, J. Normand, 
 K. Raghavachari, A. Rendell, J. C. Burant, S. S. Iyengar, J. Tomasi, 
 M. Cossi, N. Rega, J. M. Millam, M. Klene, J. E. Knox, J. B. Cross, 
 V. Bakken, C. Adamo, J. Jaramillo, R. Gomperts, R. E. Stratmann, 
 O. Yazyev, A. J. Austin, R. Cammi, C. Pomelli, J. W. Ochterski, 
 R. L. Martin, K. Morokuma, V. G. Zakrzewski, G. A. Voth, 
 P. Salvador, J. J. Dannenberg, S. Dapprich, A. D. Daniels, 
 O. Farkas, J. B. Foresman, J. V. Ortiz, J. Cioslowski, 
 and D. J. Fox, Gaussian, Inc., Wallingford CT, 2009.
 
 ******************************************
 Gaussian 09:  AM64L-G09RevA.02 11-Jun-2009
                28-Sep-2021 
 ******************************************
 %nproc=4
 Will use up to    4 processors via shared memory.
 %mem=8gb
 %chk=C12H12O_8814_conf_0.chk
 -----------------------------------
 #p opt b3lyp/6-31G* scf=(xqc,tight)
 -----------------------------------
 1/14=-1,18=20,19=15,26=3,38=1/1,3;
 2/9=110,12=2,17=6,18=5,40=1/2;
 3/5=1,6=6,7=1,11=2,16=1,25=1,30=1,71=1,74=-5/1,2,3;
 4//1;
 5/5=2,8=3,13=1,32=2,38=5/2,8;
 6/7=2,8=2,9=2,10=2,28=1/1;
 7//1,2,3,16;
 1/14=-1,18=20,19=15/3(2);
 2/9=110/2;
 99//99;
 2/9=110/2;
 3/5=1,6=6,7=1,11=2,16=1,25=1,30=1,71=1,74=-5/1,2,3;
 4/5=5,16=3/1;
 5/5=2,8=3,13=1,32=2,38=5/2,8;
 7//1,2,3,16;
 1/14=-1,18=20,19=15/3(-5);
 2/9=110/2;
 6/7=2,8=2,9=2,10=2,19=2,28=1/1;
 99/9=1/99;
 Leave Link    1 at Tue Sep 28 15:18:09 2021, MaxMem= 1073741824 cpu:       0.1
 (Enter /sw/target/amd/app/gaussian/Gaussian09RevA.02_gcc-4.9.2/g09/l101.exe)
 --------------------------
 COc1ccc2c(c1C)cccc2_conf_0
 --------------------------
 Symbolic Z-matrix:
 Charge =  0 Multiplicity = 1
 C                     1.25402   0.09663  -0.22488 
 O                     2.52282   0.01006  -0.87743 
 C                     3.12636  -1.18971  -0.60161 
 C                     4.08622  -1.19251   0.40591 
 C                     4.7359   -2.37657   0.73828 
 C                     4.43363  -3.56991   0.06835 
 C                     3.47301  -3.57403  -0.97692 
 C                     2.83525  -2.35093  -1.33772 
 C                     1.84383  -2.29514  -2.47152 
 C                     3.20311  -4.81188  -1.60627 
 C                     3.85667  -5.98826  -1.22926 
 C                     4.79961  -5.96159  -0.2117 
 C                     5.08557  -4.75988   0.4331 
 H                     1.12682   1.12391   0.12945 
 H                     1.15668  -0.57566   0.63625 
 H                     0.46019  -0.1157   -0.9475 
 H                     4.3242   -0.27365   0.93408 
 H                     5.47881  -2.36054   1.53217 
 H                     2.21826  -2.83814  -3.34528 
 H                     1.66548  -1.27139  -2.81466 
 H                     0.88804  -2.7242   -2.15512 
 H                     2.46816  -4.88013  -2.40407 
 H                     3.6255   -6.92252  -1.73432 
 H                     5.31218  -6.87324   0.08315 
 H                     5.82629  -4.75936   1.2298 
 
 NAtoms=     25 NQM=     25 NQMF=      0 NMic=      0 NMicF=      0 NTot=     25.
                    Isotopes and Nuclear Properties:
 (Nuclear quadrupole moments (NQMom) in fm**2, nuclear magnetic moments (NMagM)
  in nuclear magnetons)

  Atom         1           2           3           4           5           6           7           8           9          10
 IAtWgt=          12          16          12          12          12          12          12          12          12          12
 AtmWgt=  12.0000000  15.9949146  12.0000000  12.0000000  12.0000000  12.0000000  12.0000000  12.0000000  12.0000000  12.0000000
 NucSpn=           0           0           0           0           0           0           0           0           0           0
 AtZEff=   0.0000000   0.0000000   0.0000000   0.0000000   0.0000000   0.0000000   0.0000000   0.0000000   0.0000000   0.0000000
 NQMom=    0.0000000   0.0000000   0.0000000   0.0000000   0.0000000   0.0000000   0.0000000   0.0000000   0.0000000   0.0000000
 NMagM=    0.0000000   0.0000000   0.0000000   0.0000000   0.0000000   0.0000000   0.0000000   0.0000000   0.0000000   0.0000000

  Atom        11          12          13          14          15          16          17          18          19          20
 IAtWgt=          12          12          12           1           1           1           1           1           1           1
 AtmWgt=  12.0000000  12.0000000  12.0000000   1.0078250   1.0078250   1.0078250   1.0078250   1.0078250   1.0078250   1.0078250
 NucSpn=           0           0           0           1           1           1           1           1           1           1
 AtZEff=   0.0000000   0.0000000   0.0000000   0.0000000   0.0000000   0.0000000   0.0000000   0.0000000   0.0000000   0.0000000
 NQMom=    0.0000000   0.0000000   0.0000000   0.0000000   0.0000000   0.0000000   0.0000000   0.0000000   0.0000000   0.0000000
 NMagM=    0.0000000   0.0000000   0.0000000   2.7928460   2.7928460   2.7928460   2.7928460   2.7928460   2.7928460   2.7928460

  Atom        21          22          23          24          25
 IAtWgt=           1           1           1           1           1
 AtmWgt=   1.0078250   1.0078250   1.0078250   1.0078250   1.0078250
 NucSpn=           1           1           1           1           1
 AtZEff=   0.0000000   0.0000000   0.0000000   0.0000000   0.0000000
 NQMom=    0.0000000   0.0000000   0.0000000   0.0000000   0.0000000
 NMagM=    2.7928460   2.7928460   2.7928460   2.7928460   2.7928460
 Leave Link  101 at Tue Sep 28 15:18:10 2021, MaxMem= 1073741824 cpu:       0.2
 (Enter /sw/target/amd/app/gaussian/Gaussian09RevA.02_gcc-4.9.2/g09/l103.exe)

 GradGradGradGradGradGradGradGradGradGradGradGradGradGradGradGradGradGrad
 Berny optimization.
 Initialization pass.
                           ----------------------------
                           !    Initial Parameters    !
                           ! (Angstroms and Degrees)  !
 --------------------------                            --------------------------
 ! Name  Definition              Value          Derivative Info.                !
 --------------------------------------------------------------------------------
 ! R1    R(1,2)                  1.4294         estimate D2E/DX2                !
 ! R2    R(1,14)                 1.0941         estimate D2E/DX2                !
 ! R3    R(1,15)                 1.0968         estimate D2E/DX2                !
 ! R4    R(1,16)                 1.0943         estimate D2E/DX2                !
 ! R5    R(2,3)                  1.3711         estimate D2E/DX2                !
 ! R6    R(3,4)                  1.3915         estimate D2E/DX2                !
 ! R7    R(3,8)                  1.4054         estimate D2E/DX2                !
 ! R8    R(4,5)                  1.3909         estimate D2E/DX2                !
 ! R9    R(4,17)                 1.0862         estimate D2E/DX2                !
 ! R10   R(5,6)                  1.4015         estimate D2E/DX2                !
 ! R11   R(5,18)                 1.0874         estimate D2E/DX2                !
 ! R12   R(6,7)                  1.4196         estimate D2E/DX2                !
 ! R13   R(6,13)                 1.405          estimate D2E/DX2                !
 ! R14   R(7,8)                  1.4258         estimate D2E/DX2                !
 ! R15   R(7,10)                 1.4146         estimate D2E/DX2                !
 ! R16   R(8,9)                  1.5072         estimate D2E/DX2                !
 ! R17   R(9,19)                 1.0948         estimate D2E/DX2                !
 ! R18   R(9,20)                 1.0944         estimate D2E/DX2                !
 ! R19   R(9,21)                 1.0944         estimate D2E/DX2                !
 ! R20   R(10,11)                1.3976         estimate D2E/DX2                !
 ! R21   R(10,22)                1.0869         estimate D2E/DX2                !
 ! R22   R(11,12)                1.3875         estimate D2E/DX2                !
 ! R23   R(11,23)                1.0869         estimate D2E/DX2                !
 ! R24   R(12,13)                1.3934         estimate D2E/DX2                !
 ! R25   R(12,24)                1.0866         estimate D2E/DX2                !
 ! R26   R(13,25)                1.0878         estimate D2E/DX2                !
 ! A1    A(2,1,14)             107.9334         estimate D2E/DX2                !
 ! A2    A(2,1,15)             113.5833         estimate D2E/DX2                !
 ! A3    A(2,1,16)             109.3119         estimate D2E/DX2                !
 ! A4    A(14,1,15)            108.1151         estimate D2E/DX2                !
 ! A5    A(14,1,16)            108.1623         estimate D2E/DX2                !
 ! A6    A(15,1,16)            109.5825         estimate D2E/DX2                !
 ! A7    A(1,2,3)              110.6037         estimate D2E/DX2                !
 ! A8    A(2,3,4)              116.8115         estimate D2E/DX2                !
 ! A9    A(2,3,8)              121.7684         estimate D2E/DX2                !
 ! A10   A(4,3,8)              121.3632         estimate D2E/DX2                !
 ! A11   A(3,4,5)              119.7964         estimate D2E/DX2                !
 ! A12   A(3,4,17)             120.0975         estimate D2E/DX2                !
 ! A13   A(5,4,17)             120.1055         estimate D2E/DX2                !
 ! A14   A(4,5,6)              120.6562         estimate D2E/DX2                !
 ! A15   A(4,5,18)             118.7533         estimate D2E/DX2                !
 ! A16   A(6,5,18)             120.5895         estimate D2E/DX2                !
 ! A17   A(5,6,7)              120.0242         estimate D2E/DX2                !
 ! A18   A(5,6,13)             119.7999         estimate D2E/DX2                !
 ! A19   A(7,6,13)             120.1757         estimate D2E/DX2                !
 ! A20   A(6,7,8)              119.1105         estimate D2E/DX2                !
 ! A21   A(6,7,10)             117.336          estimate D2E/DX2                !
 ! A22   A(8,7,10)             123.5535         estimate D2E/DX2                !
 ! A23   A(3,8,7)              118.9213         estimate D2E/DX2                !
 ! A24   A(3,8,9)              119.9811         estimate D2E/DX2                !
 ! A25   A(7,8,9)              121.0881         estimate D2E/DX2                !
 ! A26   A(8,9,19)             110.9207         estimate D2E/DX2                !
 ! A27   A(8,9,20)             112.1917         estimate D2E/DX2                !
 ! A28   A(8,9,21)             110.0282         estimate D2E/DX2                !
 ! A29   A(19,9,20)            105.6333         estimate D2E/DX2                !
 ! A30   A(19,9,21)            109.5724         estimate D2E/DX2                !
 ! A31   A(20,9,21)            108.365          estimate D2E/DX2                !
 ! A32   A(7,10,11)            121.8244         estimate D2E/DX2                !
 ! A33   A(7,10,22)            120.6983         estimate D2E/DX2                !
 ! A34   A(11,10,22)           117.4764         estimate D2E/DX2                !
 ! A35   A(10,11,12)           119.9636         estimate D2E/DX2                !
 ! A36   A(10,11,23)           119.9149         estimate D2E/DX2                !
 ! A37   A(12,11,23)           120.1214         estimate D2E/DX2                !
 ! A38   A(11,12,13)           119.6962         estimate D2E/DX2                !
 ! A39   A(11,12,24)           120.2267         estimate D2E/DX2                !
 ! A40   A(13,12,24)           120.077          estimate D2E/DX2                !
 ! A41   A(6,13,12)            121.001          estimate D2E/DX2                !
 ! A42   A(6,13,25)            120.3751         estimate D2E/DX2                !
 ! A43   A(12,13,25)           118.6239         estimate D2E/DX2                !
 ! D1    D(14,1,2,3)           141.7428         estimate D2E/DX2                !
 ! D2    D(15,1,2,3)            21.8838         estimate D2E/DX2                !
 ! D3    D(16,1,2,3)          -100.8331         estimate D2E/DX2                !
 ! D4    D(1,2,3,4)            -98.476          estimate D2E/DX2                !
 ! D5    D(1,2,3,8)             84.2318         estimate D2E/DX2                !
 ! D6    D(2,3,4,5)            179.8913         estimate D2E/DX2                !
 ! D7    D(2,3,4,17)             0.1577         estimate D2E/DX2                !
 ! D8    D(8,3,4,5)             -2.8048         estimate D2E/DX2                !
 ! D9    D(8,3,4,17)           177.4616         estimate D2E/DX2                !
 ! D10   D(2,3,8,7)           -178.415          estimate D2E/DX2                !
 ! D11   D(2,3,8,9)              0.4771         estimate D2E/DX2                !
 ! D12   D(4,3,8,7)              4.4154         estimate D2E/DX2                !
 ! D13   D(4,3,8,9)           -176.6925         estimate D2E/DX2                !
 ! D14   D(3,4,5,6)             -0.0154         estimate D2E/DX2                !
 ! D15   D(3,4,5,18)          -179.6465         estimate D2E/DX2                !
 ! D16   D(17,4,5,6)           179.7182         estimate D2E/DX2                !
 ! D17   D(17,4,5,18)            0.087          estimate D2E/DX2                !
 ! D18   D(4,5,6,7)              1.1147         estimate D2E/DX2                !
 ! D19   D(4,5,6,13)          -178.9917         estimate D2E/DX2                !
 ! D20   D(18,5,6,7)          -179.2609         estimate D2E/DX2                !
 ! D21   D(18,5,6,13)            0.6327         estimate D2E/DX2                !
 ! D22   D(5,6,7,8)              0.5361         estimate D2E/DX2                !
 ! D23   D(5,6,7,10)          -179.4505         estimate D2E/DX2                !
 ! D24   D(13,6,7,8)          -179.3571         estimate D2E/DX2                !
 ! D25   D(13,6,7,10)            0.6563         estimate D2E/DX2                !
 ! D26   D(5,6,13,12)          179.6852         estimate D2E/DX2                !
 ! D27   D(5,6,13,25)           -0.2393         estimate D2E/DX2                !
 ! D28   D(7,6,13,12)           -0.4214         estimate D2E/DX2                !
 ! D29   D(7,6,13,25)          179.6542         estimate D2E/DX2                !
 ! D30   D(6,7,8,3)             -3.23           estimate D2E/DX2                !
 ! D31   D(6,7,8,9)            177.8906         estimate D2E/DX2                !
 ! D32   D(10,7,8,3)           176.7557         estimate D2E/DX2                !
 ! D33   D(10,7,8,9)            -2.1237         estimate D2E/DX2                !
 ! D34   D(6,7,10,11)           -0.4524         estimate D2E/DX2                !
 ! D35   D(6,7,10,22)          179.201          estimate D2E/DX2                !
 ! D36   D(8,7,10,11)          179.5617         estimate D2E/DX2                !
 ! D37   D(8,7,10,22)           -0.7849         estimate D2E/DX2                !
 ! D38   D(3,8,9,19)           135.6531         estimate D2E/DX2                !
 ! D39   D(3,8,9,20)            17.7798         estimate D2E/DX2                !
 ! D40   D(3,8,9,21)          -102.9425         estimate D2E/DX2                !
 ! D41   D(7,8,9,19)           -45.4792         estimate D2E/DX2                !
 ! D42   D(7,8,9,20)          -163.3525         estimate D2E/DX2                !
 ! D43   D(7,8,9,21)            75.9252         estimate D2E/DX2                !
 ! D44   D(7,10,11,12)          -0.0041         estimate D2E/DX2                !
 ! D45   D(7,10,11,23)        -179.9741         estimate D2E/DX2                !
 ! D46   D(22,10,11,12)       -179.6681         estimate D2E/DX2                !
 ! D47   D(22,10,11,23)          0.3619         estimate D2E/DX2                !
 ! D48   D(10,11,12,13)          0.2637         estimate D2E/DX2                !
 ! D49   D(10,11,12,24)       -179.843          estimate D2E/DX2                !
 ! D50   D(23,11,12,13)       -179.7663         estimate D2E/DX2                !
 ! D51   D(23,11,12,24)          0.127          estimate D2E/DX2                !
 ! D52   D(11,12,13,6)          -0.0515         estimate D2E/DX2                !
 ! D53   D(11,12,13,25)        179.8743         estimate D2E/DX2                !
 ! D54   D(24,12,13,6)        -179.9449         estimate D2E/DX2                !
 ! D55   D(24,12,13,25)         -0.0192         estimate D2E/DX2                !
 --------------------------------------------------------------------------------
 Trust Radius=3.00D-01 FncErr=1.00D-07 GrdErr=1.00D-06
 Number of steps in this run= 134 maximum allowed number of steps= 150.
 GradGradGradGradGradGradGradGradGradGradGradGradGradGradGradGradGradGrad

 Leave Link  103 at Tue Sep 28 15:18:10 2021, MaxMem= 1073741824 cpu:       0.0
 (Enter /sw/target/amd/app/gaussian/Gaussian09RevA.02_gcc-4.9.2/g09/l202.exe)
                          Input orientation:                          
 ---------------------------------------------------------------------
 Center     Atomic      Atomic             Coordinates (Angstroms)
 Number     Number       Type             X           Y           Z
 ---------------------------------------------------------------------
      1          6           0        1.254019    0.096625   -0.224879
      2          8           0        2.522820    0.010055   -0.877433
      3          6           0        3.126364   -1.189711   -0.601607
      4          6           0        4.086218   -1.192507    0.405907
      5          6           0        4.735900   -2.376569    0.738281
      6          6           0        4.433629   -3.569905    0.068352
      7          6           0        3.473007   -3.574034   -0.976920
      8          6           0        2.835245   -2.350930   -1.337721
      9          6           0        1.843833   -2.295143   -2.471521
     10          6           0        3.203109   -4.811883   -1.606266
     11          6           0        3.856665   -5.988265   -1.229256
     12          6           0        4.799611   -5.961589   -0.211702
     13          6           0        5.085572   -4.759883    0.433104
     14          1           0        1.126821    1.123905    0.129453
     15          1           0        1.156682   -0.575656    0.636250
     16          1           0        0.460188   -0.115696   -0.947502
     17          1           0        4.324197   -0.273655    0.934078
     18          1           0        5.478811   -2.360540    1.532165
     19          1           0        2.218263   -2.838136   -3.345283
     20          1           0        1.665483   -1.271392   -2.814655
     21          1           0        0.888041   -2.724199   -2.155115
     22          1           0        2.468164   -4.880130   -2.404070
     23          1           0        3.625495   -6.922521   -1.734315
     24          1           0        5.312182   -6.873243    0.083155
     25          1           0        5.826287   -4.759355    1.229798
 ---------------------------------------------------------------------
                    Distance matrix (angstroms):
                    1          2          3          4          5
     1  C    0.000000
     2  O    1.429398   0.000000
     3  C    2.302664   1.371052   0.000000
     4  C    3.175075   2.353153   1.391550   0.000000
     5  C    4.378112   3.633763   2.407185   1.390886   0.000000
     6  C    4.862032   4.166752   2.796983   2.426244   1.401507
     7  C    4.354678   3.709239   2.438446   2.821331   2.443509
     8  C    3.119170   2.425640   1.405363   2.438671   2.814770
     9  C    3.334042   2.883761   2.522587   3.810996   4.321286
    10  C    5.458996   4.923929   3.759702   4.234218   3.711751
    11  C    6.693910   6.154898   4.894222   5.072056   4.205782
    12  C    7.019498   6.425536   5.071745   4.861534   3.709298
    13  C    6.220886   5.571133   4.201816   3.704811   2.428084
    14  H    1.094091   2.050194   3.144112   3.768317   5.064528
    15  H    1.096804   2.121469   2.406034   3.002623   4.008054
    16  H    1.094272   2.067649   2.895107   4.017378   5.122023
    17  H    3.302466   2.570413   2.152276   1.086226   2.151763
    18  H    5.193625   4.490409   3.384942   2.138242   1.087394
    19  H    4.390844   3.780904   3.327117   4.502085   4.819443
    20  H    2.957654   2.475876   2.653003   4.029665   4.824131
    21  H    3.437557   3.432364   3.127000   4.374157   4.826863
    22  H    5.566966   5.123233   4.159482   4.910462   4.613547
    23  H    7.561132   7.071828   5.864919   6.133994   5.292675
    24  H    8.071099   7.488863   6.127744   5.820475   4.580542
    25  H    6.826585   6.172568   4.835906   4.053276   2.666121
                    6          7          8          9         10
     6  C    0.000000
     7  C    1.419650   0.000000
     8  C    2.453115   1.425799   0.000000
     9  C    3.844870   2.554135   1.507154   0.000000
    10  C    2.420957   1.414634   2.502744   2.988358   0.000000
    11  C    2.804485   2.457514   3.779586   4.385644   1.397550
    12  C    2.435677   2.836521   4.261867   5.223623   2.411524
    13  C    1.405034   2.448422   3.742038   5.002067   2.775860
    14  H    5.742000   5.366497   4.140748   4.355349   6.523593
    15  H    4.475089   4.118004   3.140977   3.617603   5.211752
    16  H    5.362066   4.586725   3.284728   2.997848   5.478299
    17  H    3.409798   3.907549   3.419520   4.672978   5.320310
    18  H    2.167422   3.433850   3.901894   5.408036   4.586681
    19  H    4.134760   2.779401   2.156001   1.094760   2.808875
    20  H    4.610589   3.456382   2.171424   1.094356   4.044697
    21  H    4.269686   2.965200   2.144543   1.094413   3.165312
    22  H    3.419447   2.179989   2.769242   2.660169   1.086874
    23  H    3.891365   3.436461   4.656310   5.013025   2.156293
    24  H    3.418204   3.923150   5.348404   6.286082   3.398755
    25  H    2.168696   3.436934   4.619415   5.969259   3.863557
                   11         12         13         14         15
    11  C    0.000000
    12  C    1.387542   0.000000
    13  C    2.404698   1.393429   0.000000
    14  H    7.738288   7.988116   7.098090   0.000000
    15  H    6.329799   6.557303   5.743275   1.773765   0.000000
    16  H    6.789883   7.317544   6.698412   1.772242   1.790234
    17  H    6.128243   5.821634   4.577872   3.581034   3.195788
    18  H    4.839131   4.058317   2.668225   5.748806   4.761226
    19  H    4.133430   5.122367   5.117693   5.381711   4.700891
    20  H    5.437248   6.212573   5.866389   3.833456   3.556919
    21  H    4.508223   5.436720   5.334994   4.481537   3.532722
    22  H    2.129809   3.378117   3.861974   6.653298   5.430656
    23  H    1.086903   2.149486   3.392128   8.629135   7.210916
    24  H    2.150381   1.086639   2.154091   9.026282   7.565296
    25  H    3.381800   2.139474   1.087833   7.609763   6.297686
                   16         17         18         19         20
    16  H    0.000000
    17  H    4.300681   0.000000
    18  H    6.031140   2.458848   0.000000
    19  H    4.031360   5.415205   5.886321   0.000000
    20  H    2.504921   4.702897   5.884094   1.744081   0.000000
    21  H    2.906144   5.230243   5.899445   1.788567   1.774840
    22  H    5.371535   5.983954   5.559342   2.262315   3.719659
    23  H    7.547921   7.198328   5.909006   4.610609   6.078161
    24  H    8.382634   6.727165   4.742561   6.132586   7.285359
    25  H    7.422885   4.739750   2.442638   6.135168   6.770213
                   21         22         23         24         25
    21  H    0.000000
    22  H    2.684549   0.000000
    23  H    5.029576   2.441178   0.000000
    24  H    6.465094   4.271678   2.480028   0.000000
    25  H    6.323430   4.949401   4.278871   2.459190   0.000000
 Stoichiometry    C12H12O
 Framework group  C1[X(C12H12O)]
 Deg. of freedom    69
 Full point group                 C1      NOp   1
 Largest Abelian subgroup         C1      NOp   1
 Largest concise Abelian subgroup C1      NOp   1
                         Standard orientation:                         
 ---------------------------------------------------------------------
 Center     Atomic      Atomic             Coordinates (Angstroms)
 Number     Number       Type             X           Y           Z
 ---------------------------------------------------------------------
      1          6           0        3.531181    0.075192    0.879801
      2          8           0        2.944089   -0.172888   -0.399635
      3          6           0        1.592605   -0.370406   -0.280211
      4          6           0        1.150471   -1.689689   -0.259723
      5          6           0       -0.208198   -1.961491   -0.138449
      6          6           0       -1.139184   -0.918894   -0.036079
      7          6           0       -0.701628    0.430950   -0.079356
      8          6           0        0.688487    0.704734   -0.239122
      9          6           0        1.196541    2.120223   -0.338040
     10          6           0       -1.688053    1.437764    0.040974
     11          6           0       -3.043012    1.128220    0.187308
     12          6           0       -3.451689   -0.197428    0.217560
     13          6           0       -2.505350   -1.214226    0.107069
     14          1           0        4.503310   -0.426050    0.907282
     15          1           0        2.930824   -0.298827    1.718050
     16          1           0        3.698134    1.150055    0.999082
     17          1           0        1.864670   -2.504743   -0.333853
     18          1           0       -0.534417   -2.998605   -0.118408
     19          1           0        0.578876    2.710296   -1.022734
     20          1           0        2.212422    2.167466   -0.742228
     21          1           0        1.196916    2.588310    0.651219
     22          1           0       -1.412393    2.489019    0.027959
     23          1           0       -3.774884    1.926797    0.276735
     24          1           0       -4.504388   -0.442944    0.328605
     25          1           0       -2.844809   -2.247362    0.134977
 ---------------------------------------------------------------------
 Rotational constants (GHZ):      1.7529029      0.5838226      0.4571084
 Leave Link  202 at Tue Sep 28 15:18:10 2021, MaxMem= 1073741824 cpu:       0.0
 (Enter /sw/target/amd/app/gaussian/Gaussian09RevA.02_gcc-4.9.2/g09/l301.exe)
 Standard basis: 6-31G(d) (6D, 7F)
 Ernie: Thresh=  0.10000D-02 Tol=  0.10000D-05 Strict=F.
 There are   219 symmetry adapted basis functions of A   symmetry.
 Integral buffers will be    131072 words long.
 Raffenetti 2 integral format.
 Two-electron integral symmetry is turned on.
   219 basis functions,   412 primitive gaussians,   219 cartesian basis functions
    46 alpha electrons       46 beta electrons
       nuclear repulsion energy       747.5753071306 Hartrees.
 IExCor=  402 DFT=T Ex+Corr=B3LYP ExCW=0 ScaHFX=  0.200000
 ScaDFX=  0.800000  0.720000  1.000000  0.810000 ScalE2=  1.000000  1.000000
 IRadAn=      0 IRanWt=     -1 IRanGd=            0 ICorTp=0
 NAtoms=   25 NActive=   25 NUniq=   25 SFac= 7.50D-01 NAtFMM=   80 NAOKFM=F Big=F
 Leave Link  301 at Tue Sep 28 15:18:10 2021, MaxMem= 1073741824 cpu:       0.1
 (Enter /sw/target/amd/app/gaussian/Gaussian09RevA.02_gcc-4.9.2/g09/l302.exe)
 NPDir=0 NMtPBC=     1 NCelOv=     1 NCel=       1 NClECP=     1 NCelD=      1
         NCelK=      1 NCelE2=     1 NClLst=     1 CellRange=     0.0.
 One-electron integrals computed using PRISM.
 NBasis=   219 RedAO= T  NBF=   219
 NBsUse=   219 1.00D-06 NBFU=   219
 Precomputing XC quadrature grid using
 IXCGrd= 2 IRadAn=           0 IRanWt=          -1 IRanGd=           0 AccXCQ= 1.00D-10.
 NRdTot=    1575 NPtTot=      199986 NUsed=      211349 NTot=      211381
 NSgBfM=   218   218   218   218   218 NAtAll=    25    25.
 Leave Link  302 at Tue Sep 28 15:18:11 2021, MaxMem= 1073741824 cpu:       1.8
 (Enter /sw/target/amd/app/gaussian/Gaussian09RevA.02_gcc-4.9.2/g09/l303.exe)
 DipDrv:  MaxL=1.
 Leave Link  303 at Tue Sep 28 15:18:11 2021, MaxMem= 1073741824 cpu:       0.2
 (Enter /sw/target/amd/app/gaussian/Gaussian09RevA.02_gcc-4.9.2/g09/l401.exe)
 Harris functional with IExCor=  402 diagonalized for initial guess.
 ExpMin= 1.61D-01 ExpMax= 5.48D+03 ExpMxC= 8.25D+02 IAcc=1 IRadAn=         1 AccDes= 0.00D+00
 HarFok:  IExCor=  402 AccDes= 0.00D+00 IRadAn=         1 IDoV= 1
 ScaDFX=  1.000000  1.000000  1.000000  1.000000
 FoFCou: FMM=F IPFlag=           0 FMFlag=      100000 FMFlg1=           0
         NFxFlg=           0 DoJE=T BraDBF=F KetDBF=T FulRan=T
         Omega=  0.000000  0.000000  1.000000  0.000000  0.000000 ICntrl=     500 IOpCl=  0
         NMat0=    1 NMatS0=    1 NMatT0=    0 NMatD0=    1 NMtDS0=    0 NMtDT0=    0
         I1Cent=           4 NGrid=           0.
 Petite list used in FoFCou.
 Harris En= -539.791364499851    
 Initial guess orbital symmetries:
       Occupied  (A) (A) (A) (A) (A) (A) (A) (A) (A) (A) (A) (A)
                 (A) (A) (A) (A) (A) (A) (A) (A) (A) (A) (A) (A)
                 (A) (A) (A) (A) (A) (A) (A) (A) (A) (A) (A) (A)
                 (A) (A) (A) (A) (A) (A) (A) (A) (A) (A)
       Virtual   (A) (A) (A) (A) (A) (A) (A) (A) (A) (A) (A) (A)
                 (A) (A) (A) (A) (A) (A) (A) (A) (A) (A) (A) (A)
                 (A) (A) (A) (A) (A) (A) (A) (A) (A) (A) (A) (A)
                 (A) (A) (A) (A) (A) (A) (A) (A) (A) (A) (A) (A)
                 (A) (A) (A) (A) (A) (A) (A) (A) (A) (A) (A) (A)
                 (A) (A) (A) (A) (A) (A) (A) (A) (A) (A) (A) (A)
                 (A) (A) (A) (A) (A) (A) (A) (A) (A) (A) (A) (A)
                 (A) (A) (A) (A) (A) (A) (A) (A) (A) (A) (A) (A)
                 (A) (A) (A) (A) (A) (A) (A) (A) (A) (A) (A) (A)
                 (A) (A) (A) (A) (A) (A) (A) (A) (A) (A) (A) (A)
                 (A) (A) (A) (A) (A) (A) (A) (A) (A) (A) (A) (A)
                 (A) (A) (A) (A) (A) (A) (A) (A) (A) (A) (A) (A)
                 (A) (A) (A) (A) (A) (A) (A) (A) (A) (A) (A) (A)
                 (A) (A) (A) (A) (A) (A) (A) (A) (A) (A) (A) (A)
                 (A) (A) (A) (A) (A)
 The electronic state of the initial guess is 1-A.
 Leave Link  401 at Tue Sep 28 15:18:15 2021, MaxMem= 1073741824 cpu:       7.9
 (Enter /sw/target/amd/app/gaussian/Gaussian09RevA.02_gcc-4.9.2/g09/l502.exe)
 Closed shell SCF:
 Requested convergence on RMS density matrix=1.00D-08 within  64 cycles.
 Requested convergence on MAX density matrix=1.00D-06.
 Requested convergence on             energy=1.00D-06.
 No special actions if energy rises.
 Using DIIS extrapolation, IDIIS=  1040.
 Integral symmetry usage will be decided dynamically.
       211111 words used for storage of precomputed grid.
 Keep R1 ints in memory in canonical form, NReq=295863504.
 IEnd=      363505 IEndB=      363505 NGot=  1073741824 MDV=   783254601
 LenX=   783254601 LenY=   783206199
 Symmetry not used in FoFDir.
 MinBra= 0 MaxBra= 2 Meth= 1.
 IRaf=       0 NMat=   1 IRICut=       1 DoRegI=T DoRafI=F ISym2E= 0 JSym2E=0.
 Integral accuracy reduced to 1.0D-05 until final iterations.

 Cycle   1  Pass 0  IDiag  1:
 E= -539.416462535257    
 DIIS: error= 3.12D-02 at cycle   1 NSaved=   1.
 NSaved= 1 IEnMin= 1 EnMin= -539.416462535257     IErMin= 1 ErrMin= 3.12D-02
 ErrMax= 3.12D-02 EMaxC= 1.00D-01 BMatC= 2.75D-01 BMatP= 2.75D-01
 IDIUse=3 WtCom= 6.88D-01 WtEn= 3.12D-01
 Coeff-Com:  0.100D+01
 Coeff-En:   0.100D+01
 Coeff:      0.100D+01
 Gap=     0.176 Goal=   None    Shift=    0.000
 GapD=    0.176 DampG=1.000 DampE=0.500 DampFc=0.5000 IDamp=-1.
 Damping current iteration by 5.00D-01
 RMSDP=5.84D-03 MaxDP=1.32D-01              OVMax= 1.57D-01

 Cycle   2  Pass 0  IDiag  1:
 E= -539.562729543498     Delta-E=       -0.146267008241 Rises=F Damp=T
 DIIS: error= 5.85D-03 at cycle   2 NSaved=   2.
 NSaved= 2 IEnMin= 2 EnMin= -539.562729543498     IErMin= 2 ErrMin= 5.85D-03
 ErrMax= 5.85D-03 EMaxC= 1.00D-01 BMatC= 1.41D-02 BMatP= 2.75D-01
 IDIUse=3 WtCom= 9.41D-01 WtEn= 5.85D-02
 Coeff-Com: -0.640D-02 0.101D+01
 Coeff-En:   0.000D+00 0.100D+01
 Coeff:     -0.602D-02 0.101D+01
 Gap=     0.171 Goal=   None    Shift=    0.000
 RMSDP=1.87D-03 MaxDP=3.75D-02 DE=-1.46D-01 OVMax= 1.21D-01

 Cycle   3  Pass 0  IDiag  1:
 E= -539.709108416491     Delta-E=       -0.146378872993 Rises=F Damp=F
 DIIS: error= 5.63D-03 at cycle   3 NSaved=   3.
 NSaved= 3 IEnMin= 3 EnMin= -539.709108416491     IErMin= 3 ErrMin= 5.63D-03
 ErrMax= 5.63D-03 EMaxC= 1.00D-01 BMatC= 8.92D-03 BMatP= 1.41D-02
 IDIUse=3 WtCom= 9.44D-01 WtEn= 5.63D-02
 Coeff-Com: -0.404D-01 0.448D+00 0.592D+00
 Coeff-En:   0.000D+00 0.000D+00 0.100D+01
 Coeff:     -0.381D-01 0.423D+00 0.615D+00
 Gap=     0.166 Goal=   None    Shift=    0.000
 RMSDP=8.59D-04 MaxDP=3.34D-02 DE=-1.46D-01 OVMax= 6.69D-02

 Cycle   4  Pass 0  IDiag  1:
 E= -539.713748759635     Delta-E=       -0.004640343144 Rises=F Damp=F
 DIIS: error= 4.31D-03 at cycle   4 NSaved=   4.
 NSaved= 4 IEnMin= 4 EnMin= -539.713748759635     IErMin= 4 ErrMin= 4.31D-03
 ErrMax= 4.31D-03 EMaxC= 1.00D-01 BMatC= 4.44D-03 BMatP= 8.92D-03
 IDIUse=3 WtCom= 9.57D-01 WtEn= 4.31D-02
 Coeff-Com: -0.215D-01 0.113D+00 0.419D+00 0.490D+00
 Coeff-En:   0.000D+00 0.000D+00 0.373D+00 0.627D+00
 Coeff:     -0.205D-01 0.108D+00 0.417D+00 0.496D+00
 Gap=     0.164 Goal=   None    Shift=    0.000
 RMSDP=4.14D-04 MaxDP=1.32D-02 DE=-4.64D-03 OVMax= 3.37D-02

 Cycle   5  Pass 0  IDiag  1:
 E= -539.718818797118     Delta-E=       -0.005070037484 Rises=F Damp=F
 DIIS: error= 4.73D-04 at cycle   5 NSaved=   5.
 NSaved= 5 IEnMin= 5 EnMin= -539.718818797118     IErMin= 5 ErrMin= 4.73D-04
 ErrMax= 4.73D-04 EMaxC= 1.00D-01 BMatC= 9.45D-05 BMatP= 4.44D-03
 IDIUse=3 WtCom= 9.95D-01 WtEn= 4.73D-03
 Coeff-Com: -0.570D-02 0.200D-01 0.143D+00 0.219D+00 0.624D+00
 Coeff-En:   0.000D+00 0.000D+00 0.000D+00 0.000D+00 0.100D+01
 Coeff:     -0.567D-02 0.199D-01 0.142D+00 0.218D+00 0.625D+00
 Gap=     0.163 Goal=   None    Shift=    0.000
 RMSDP=6.69D-05 MaxDP=2.32D-03 DE=-5.07D-03 OVMax= 5.41D-03

 Cycle   6  Pass 0  IDiag  1:
 E= -539.718899519085     Delta-E=       -0.000080721966 Rises=F Damp=F
 DIIS: error= 1.97D-04 at cycle   6 NSaved=   6.
 NSaved= 6 IEnMin= 6 EnMin= -539.718899519085     IErMin= 6 ErrMin= 1.97D-04
 ErrMax= 1.97D-04 EMaxC= 1.00D-01 BMatC= 1.98D-05 BMatP= 9.45D-05
 IDIUse=3 WtCom= 9.98D-01 WtEn= 1.97D-03
 Coeff-Com: -0.152D-02 0.235D-02 0.492D-01 0.866D-01 0.374D+00 0.489D+00
 Coeff-En:   0.000D+00 0.000D+00 0.000D+00 0.000D+00 0.138D+00 0.862D+00
 Coeff:     -0.152D-02 0.234D-02 0.491D-01 0.864D-01 0.374D+00 0.490D+00
 Gap=     0.163 Goal=   None    Shift=    0.000
 RMSDP=2.47D-05 MaxDP=8.75D-04 DE=-8.07D-05 OVMax= 2.50D-03

 Cycle   7  Pass 0  IDiag  1:
 E= -539.718917466821     Delta-E=       -0.000017947736 Rises=F Damp=F
 DIIS: error= 6.58D-05 at cycle   7 NSaved=   7.
 NSaved= 7 IEnMin= 7 EnMin= -539.718917466821     IErMin= 7 ErrMin= 6.58D-05
 ErrMax= 6.58D-05 EMaxC= 1.00D-01 BMatC= 1.26D-06 BMatP= 1.98D-05
 IDIUse=1 WtCom= 1.00D+00 WtEn= 0.00D+00
 Coeff-Com: -0.596D-03 0.416D-03 0.226D-01 0.405D-01 0.193D+00 0.295D+00
 Coeff-Com:  0.449D+00
 Coeff:     -0.596D-03 0.416D-03 0.226D-01 0.405D-01 0.193D+00 0.295D+00
 Coeff:      0.449D+00
 Gap=     0.163 Goal=   None    Shift=    0.000
 RMSDP=7.87D-06 MaxDP=2.28D-04 DE=-1.79D-05 OVMax= 7.58D-04

 Initial convergence to 1.0D-05 achieved.  Increase integral accuracy.
 Cycle   8  Pass 1  IDiag  1:
 E= -539.718928161588     Delta-E=       -0.000010694767 Rises=F Damp=F
 DIIS: error= 2.13D-05 at cycle   1 NSaved=   1.
 NSaved= 1 IEnMin= 1 EnMin= -539.718928161588     IErMin= 1 ErrMin= 2.13D-05
 ErrMax= 2.13D-05 EMaxC= 1.00D-01 BMatC= 1.77D-07 BMatP= 1.77D-07
 IDIUse=1 WtCom= 1.00D+00 WtEn= 0.00D+00
 Coeff-Com:  0.100D+01
 Coeff:      0.100D+01
 Gap=     0.163 Goal=   None    Shift=    0.000
 RMSDP=7.87D-06 MaxDP=2.28D-04 DE=-1.07D-05 OVMax= 5.63D-04

 Cycle   9  Pass 1  IDiag  1:
 E= -539.718927800870     Delta-E=        0.000000360719 Rises=F Damp=F
 DIIS: error= 4.70D-05 at cycle   2 NSaved=   2.
 NSaved= 2 IEnMin= 1 EnMin= -539.718928161588     IErMin= 1 ErrMin= 2.13D-05
 ErrMax= 4.70D-05 EMaxC= 1.00D-01 BMatC= 5.03D-07 BMatP= 1.77D-07
 IDIUse=1 WtCom= 1.00D+00 WtEn= 0.00D+00
 Coeff-Com:  0.640D+00 0.360D+00
 Coeff:      0.640D+00 0.360D+00
 Gap=     0.163 Goal=   None    Shift=    0.000
 RMSDP=4.43D-06 MaxDP=1.36D-04 DE= 3.61D-07 OVMax= 4.53D-04

 Cycle  10  Pass 1  IDiag  1:
 E= -539.718928357714     Delta-E=       -0.000000556844 Rises=F Damp=F
 DIIS: error= 7.75D-06 at cycle   3 NSaved=   3.
 NSaved= 3 IEnMin= 3 EnMin= -539.718928357714     IErMin= 3 ErrMin= 7.75D-06
 ErrMax= 7.75D-06 EMaxC= 1.00D-01 BMatC= 1.43D-08 BMatP= 1.77D-07
 IDIUse=1 WtCom= 1.00D+00 WtEn= 0.00D+00
 Coeff-Com:  0.114D+00 0.157D+00 0.729D+00
 Coeff:      0.114D+00 0.157D+00 0.729D+00
 Gap=     0.163 Goal=   None    Shift=    0.000
 RMSDP=8.94D-07 MaxDP=3.27D-05 DE=-5.57D-07 OVMax= 9.95D-05

 Cycle  11  Pass 1  IDiag  1:
 E= -539.718928370199     Delta-E=       -0.000000012485 Rises=F Damp=F
 DIIS: error= 2.71D-06 at cycle   4 NSaved=   4.
 NSaved= 4 IEnMin= 4 EnMin= -539.718928370199     IErMin= 4 ErrMin= 2.71D-06
 ErrMax= 2.71D-06 EMaxC= 1.00D-01 BMatC= 4.67D-09 BMatP= 1.43D-08
 IDIUse=1 WtCom= 1.00D+00 WtEn= 0.00D+00
 Coeff-Com: -0.108D-01 0.512D-01 0.454D+00 0.505D+00
 Coeff:     -0.108D-01 0.512D-01 0.454D+00 0.505D+00
 Gap=     0.163 Goal=   None    Shift=    0.000
 RMSDP=3.15D-07 MaxDP=1.11D-05 DE=-1.25D-08 OVMax= 2.45D-05

 Cycle  12  Pass 1  IDiag  1:
 E= -539.718928374407     Delta-E=       -0.000000004207 Rises=F Damp=F
 DIIS: error= 3.20D-07 at cycle   5 NSaved=   5.
 NSaved= 5 IEnMin= 5 EnMin= -539.718928374407     IErMin= 5 ErrMin= 3.20D-07
 ErrMax= 3.20D-07 EMaxC= 1.00D-01 BMatC= 7.42D-11 BMatP= 4.67D-09
 IDIUse=1 WtCom= 1.00D+00 WtEn= 0.00D+00
 Coeff-Com: -0.946D-02 0.162D-01 0.177D+00 0.220D+00 0.596D+00
 Coeff:     -0.946D-02 0.162D-01 0.177D+00 0.220D+00 0.596D+00
 Gap=     0.163 Goal=   None    Shift=    0.000
 RMSDP=6.39D-08 MaxDP=1.52D-06 DE=-4.21D-09 OVMax= 4.65D-06

 Cycle  13  Pass 1  IDiag  1:
 E= -539.718928374475     Delta-E=       -0.000000000069 Rises=F Damp=F
 DIIS: error= 2.34D-07 at cycle   6 NSaved=   6.
 NSaved= 6 IEnMin= 6 EnMin= -539.718928374475     IErMin= 6 ErrMin= 2.34D-07
 ErrMax= 2.34D-07 EMaxC= 1.00D-01 BMatC= 1.48D-11 BMatP= 7.42D-11
 IDIUse=1 WtCom= 1.00D+00 WtEn= 0.00D+00
 Coeff-Com: -0.453D-02 0.575D-02 0.716D-01 0.896D-01 0.351D+00 0.487D+00
 Coeff:     -0.453D-02 0.575D-02 0.716D-01 0.896D-01 0.351D+00 0.487D+00
 Gap=     0.163 Goal=   None    Shift=    0.000
 RMSDP=2.54D-08 MaxDP=9.50D-07 DE=-6.87D-11 OVMax= 2.19D-06

 Cycle  14  Pass 1  IDiag  1:
 E= -539.718928374488     Delta-E=       -0.000000000012 Rises=F Damp=F
 DIIS: error= 6.17D-08 at cycle   7 NSaved=   7.
 NSaved= 7 IEnMin= 7 EnMin= -539.718928374488     IErMin= 7 ErrMin= 6.17D-08
 ErrMax= 6.17D-08 EMaxC= 1.00D-01 BMatC= 1.07D-12 BMatP= 1.48D-11
 IDIUse=1 WtCom= 1.00D+00 WtEn= 0.00D+00
 Coeff-Com: -0.841D-03 0.361D-03 0.947D-02 0.944D-02 0.804D-01 0.234D+00
 Coeff-Com:  0.667D+00
 Coeff:     -0.841D-03 0.361D-03 0.947D-02 0.944D-02 0.804D-01 0.234D+00
 Coeff:      0.667D+00
 Gap=     0.163 Goal=   None    Shift=    0.000
 RMSDP=7.19D-09 MaxDP=2.10D-07 DE=-1.23D-11 OVMax= 8.54D-07

 SCF Done:  E(RB3LYP) =  -539.718928374     A.U. after   14 cycles
             Convg  =    0.7189D-08             -V/T =  2.0093
 KE= 5.347244355389D+02 PE=-2.747676688070D+03 EE= 9.256580170260D+02
 Leave Link  502 at Tue Sep 28 15:48:04 2021, MaxMem= 1073741824 cpu:     215.2
 (Enter /sw/target/amd/app/gaussian/Gaussian09RevA.02_gcc-4.9.2/g09/l508.exe)
 QCSCF skips out because SCF is already converged.
 Leave Link  508 at Tue Sep 28 15:48:06 2021, MaxMem= 1073741824 cpu:       0.0
 (Enter /sw/target/amd/app/gaussian/Gaussian09RevA.02_gcc-4.9.2/g09/l601.exe)
 Copying SCF densities to generalized density rwf, IOpCl= 0 IROHF=0.

 **********************************************************************

            Population analysis using the SCF density.

 **********************************************************************

 Orbital symmetries:
       Occupied  (A) (A) (A) (A) (A) (A) (A) (A) (A) (A) (A) (A)
                 (A) (A) (A) (A) (A) (A) (A) (A) (A) (A) (A) (A)
                 (A) (A) (A) (A) (A) (A) (A) (A) (A) (A) (A) (A)
                 (A) (A) (A) (A) (A) (A) (A) (A) (A) (A)
       Virtual   (A) (A) (A) (A) (A) (A) (A) (A) (A) (A) (A) (A)
                 (A) (A) (A) (A) (A) (A) (A) (A) (A) (A) (A) (A)
                 (A) (A) (A) (A) (A) (A) (A) (A) (A) (A) (A) (A)
                 (A) (A) (A) (A) (A) (A) (A) (A) (A) (A) (A) (A)
                 (A) (A) (A) (A) (A) (A) (A) (A) (A) (A) (A) (A)
                 (A) (A) (A) (A) (A) (A) (A) (A) (A) (A) (A) (A)
                 (A) (A) (A) (A) (A) (A) (A) (A) (A) (A) (A) (A)
                 (A) (A) (A) (A) (A) (A) (A) (A) (A) (A) (A) (A)
                 (A) (A) (A) (A) (A) (A) (A) (A) (A) (A) (A) (A)
                 (A) (A) (A) (A) (A) (A) (A) (A) (A) (A) (A) (A)
                 (A) (A) (A) (A) (A) (A) (A) (A) (A) (A) (A) (A)
                 (A) (A) (A) (A) (A) (A) (A) (A) (A) (A) (A) (A)
                 (A) (A) (A) (A) (A) (A) (A) (A) (A) (A) (A) (A)
                 (A) (A) (A) (A) (A) (A) (A) (A) (A) (A) (A) (A)
                 (A) (A) (A) (A) (A)
 The electronic state is 1-A.
 Alpha  occ. eigenvalues --  -19.15951 -10.23426 -10.23247 -10.19384 -10.19320
 Alpha  occ. eigenvalues --  -10.18917 -10.18717 -10.18659 -10.18640 -10.18635
 Alpha  occ. eigenvalues --  -10.18467 -10.18341 -10.17961  -1.05062  -0.87093
 Alpha  occ. eigenvalues --   -0.81505  -0.78210  -0.74287  -0.72664  -0.69898
 Alpha  occ. eigenvalues --   -0.66799  -0.62045  -0.59841  -0.57649  -0.51863
 Alpha  occ. eigenvalues --   -0.51108  -0.49857  -0.46154  -0.45939  -0.44499
 Alpha  occ. eigenvalues --   -0.43281  -0.42844  -0.41935  -0.40691  -0.40349
 Alpha  occ. eigenvalues --   -0.37806  -0.37640  -0.37180  -0.35576  -0.33411
 Alpha  occ. eigenvalues --   -0.32934  -0.31186  -0.27157  -0.26722  -0.23789
 Alpha  occ. eigenvalues --   -0.20166
 Alpha virt. eigenvalues --   -0.03865   0.00122   0.03779   0.09348   0.09875
 Alpha virt. eigenvalues --    0.10261   0.11745   0.13673   0.14531   0.15087
 Alpha virt. eigenvalues --    0.15398   0.16523   0.17295   0.17889   0.18199
 Alpha virt. eigenvalues --    0.19702   0.21544   0.22064   0.22991   0.26460
 Alpha virt. eigenvalues --    0.27188   0.29518   0.31721   0.33697   0.35071
 Alpha virt. eigenvalues --    0.36733   0.38963   0.47784   0.48460   0.49980
 Alpha virt. eigenvalues --    0.51356   0.52384   0.52917   0.53275   0.53994
 Alpha virt. eigenvalues --    0.55044   0.55565   0.56426   0.56934   0.58654
 Alpha virt. eigenvalues --    0.59678   0.60970   0.61081   0.61881   0.62164
 Alpha virt. eigenvalues --    0.62857   0.64691   0.66058   0.66662   0.68616
 Alpha virt. eigenvalues --    0.71855   0.72448   0.73880   0.74019   0.78313
 Alpha virt. eigenvalues --    0.80430   0.82421   0.83027   0.83799   0.84614
 Alpha virt. eigenvalues --    0.84717   0.86066   0.86779   0.87875   0.90001
 Alpha virt. eigenvalues --    0.90429   0.91168   0.92554   0.93878   0.95046
 Alpha virt. eigenvalues --    0.95985   0.98112   0.98702   1.00327   1.03926
 Alpha virt. eigenvalues --    1.05121   1.06366   1.07267   1.11182   1.13901
 Alpha virt. eigenvalues --    1.15359   1.16538   1.20708   1.23019   1.24925
 Alpha virt. eigenvalues --    1.26178   1.29288   1.31700   1.35183   1.38583
 Alpha virt. eigenvalues --    1.40208   1.41951   1.45115   1.45651   1.47063
 Alpha virt. eigenvalues --    1.47648   1.49817   1.50886   1.51608   1.53065
 Alpha virt. eigenvalues --    1.54871   1.56508   1.68934   1.76141   1.77340
 Alpha virt. eigenvalues --    1.78947   1.79623   1.82858   1.85956   1.88182
 Alpha virt. eigenvalues --    1.89702   1.91698   1.92361   1.93169   1.94201
 Alpha virt. eigenvalues --    1.96436   1.99857   2.01139   2.03015   2.05321
 Alpha virt. eigenvalues --    2.06986   2.08163   2.12875   2.15008   2.16081
 Alpha virt. eigenvalues --    2.17720   2.20477   2.20815   2.22412   2.23606
 Alpha virt. eigenvalues --    2.27188   2.29021   2.30268   2.30955   2.32322
 Alpha virt. eigenvalues --    2.34910   2.36367   2.39564   2.40387   2.44815
 Alpha virt. eigenvalues --    2.49100   2.55739   2.62026   2.63457   2.64282
 Alpha virt. eigenvalues --    2.65022   2.67485   2.68482   2.75255   2.78526
 Alpha virt. eigenvalues --    2.80590   2.83161   2.87075   2.89620   2.92481
 Alpha virt. eigenvalues --    3.02948   3.10989   3.14404   3.39796   3.49329
 Alpha virt. eigenvalues --    4.05045   4.09066   4.11321   4.11891   4.14470
 Alpha virt. eigenvalues --    4.19206   4.25529   4.29313   4.30996   4.42571
 Alpha virt. eigenvalues --    4.44254   4.60499   4.85580
          Condensed to atoms (all electrons):
              1          2          3          4          5          6
     1  C    4.913560   0.252061  -0.042038  -0.008018  -0.000084   0.000031
     2  O    0.252061   8.266535   0.216754  -0.061926   0.005702   0.000130
     3  C   -0.042038   0.216754   4.733861   0.451061   0.005210  -0.053920
     4  C   -0.008018  -0.061926   0.451061   5.109452   0.431013   0.004873
     5  C   -0.000084   0.005702   0.005210   0.431013   5.198574   0.432311
     6  C    0.000031   0.000130  -0.053920   0.004873   0.432311   4.719628
     7  C   -0.000230   0.004720   0.041888  -0.058629  -0.018240   0.455965
     8  C   -0.007036  -0.050682   0.463226  -0.039406  -0.071036  -0.019026
     9  C   -0.000825  -0.013720  -0.066367   0.011105  -0.000796   0.009317
    10  C    0.000011  -0.000057   0.010847  -0.001643   0.017606  -0.049850
    11  C    0.000000   0.000000  -0.000260   0.000067  -0.000608  -0.037776
    12  C   -0.000000  -0.000000   0.000069  -0.000398   0.008821  -0.003032
    13  C   -0.000000  -0.000000  -0.000766   0.009121  -0.097305   0.451346
    14  H    0.376880  -0.034594   0.004014   0.000147  -0.000022  -0.000001
    15  H    0.355819  -0.031683   0.001027   0.005939  -0.000622  -0.000004
    16  H    0.371233  -0.043888   0.000335  -0.000045   0.000051  -0.000006
    17  H    0.000479  -0.001038  -0.032873   0.344829  -0.035786   0.002536
    18  H   -0.000002  -0.000082   0.003130  -0.037371   0.350508  -0.040157
    19  H    0.000043   0.000267   0.002068  -0.000212   0.000050  -0.000174
    20  H   -0.002762   0.014107  -0.005098   0.000541  -0.000048  -0.000044
    21  H    0.000729   0.000216  -0.002066  -0.000311   0.000065  -0.000258
    22  H   -0.000000   0.000000  -0.000033   0.000005  -0.000186   0.005060
    23  H    0.000000  -0.000000   0.000002  -0.000001   0.000008   0.000960
    24  H   -0.000000   0.000000  -0.000001   0.000004  -0.000217   0.002531
    25  H   -0.000000  -0.000000  -0.000003   0.000330  -0.008785  -0.042453
              7          8          9         10         11         12
     1  C   -0.000230  -0.007036  -0.000825   0.000011   0.000000  -0.000000
     2  O    0.004720  -0.050682  -0.013720  -0.000057   0.000000  -0.000000
     3  C    0.041888   0.463226  -0.066367   0.010847  -0.000260   0.000069
     4  C   -0.058629  -0.039406   0.011105  -0.001643   0.000067  -0.000398
     5  C   -0.018240  -0.071036  -0.000796   0.017606  -0.000608   0.008821
     6  C    0.455965  -0.019026   0.009317  -0.049850  -0.037776  -0.003032
     7  C    4.836354   0.366853  -0.072056   0.442610  -0.002729  -0.039854
     8  C    0.366853   5.095822   0.342513  -0.104551   0.007623  -0.000746
     9  C   -0.072056   0.342513   5.263740  -0.021223   0.000186  -0.000001
    10  C    0.442610  -0.104551  -0.021223   5.178765   0.515616  -0.019279
    11  C   -0.002729   0.007623   0.000186   0.515616   4.881736   0.509459
    12  C   -0.039854  -0.000746  -0.000001  -0.019279   0.509459   4.901776
    13  C   -0.026176   0.015688  -0.000148  -0.075012  -0.021410   0.506251
    14  H    0.000021   0.000039  -0.000028  -0.000000  -0.000000   0.000000
    15  H   -0.000320   0.002196   0.000541  -0.000006   0.000000   0.000000
    16  H   -0.000217   0.001419   0.002123   0.000005   0.000000  -0.000000
    17  H    0.000980   0.005327  -0.000176   0.000018  -0.000000   0.000003
    18  H    0.004011   0.000836   0.000013  -0.000222   0.000014   0.000266
    19  H   -0.004649  -0.025060   0.357382   0.003758   0.000104  -0.000000
    20  H    0.002645  -0.030592   0.367320   0.000172  -0.000001  -0.000000
    21  H   -0.000849  -0.023583   0.356255   0.001975   0.000024   0.000001
    22  H   -0.033335  -0.015024   0.007299   0.351347  -0.047170   0.004834
    23  H    0.002760  -0.000167  -0.000005  -0.037193   0.357906  -0.042621
    24  H    0.001152   0.000017   0.000000   0.004383  -0.042260   0.355560
    25  H    0.004164  -0.000153   0.000002   0.000467   0.004876  -0.046138
             13         14         15         16         17         18
     1  C   -0.000000   0.376880   0.355819   0.371233   0.000479  -0.000002
     2  O   -0.000000  -0.034594  -0.031683  -0.043888  -0.001038  -0.000082
     3  C   -0.000766   0.004014   0.001027   0.000335  -0.032873   0.003130
     4  C    0.009121   0.000147   0.005939  -0.000045   0.344829  -0.037371
     5  C   -0.097305  -0.000022  -0.000622   0.000051  -0.035786   0.350508
     6  C    0.451346  -0.000001  -0.000004  -0.000006   0.002536  -0.040157
     7  C   -0.026176   0.000021  -0.000320  -0.000217   0.000980   0.004011
     8  C    0.015688   0.000039   0.002196   0.001419   0.005327   0.000836
     9  C   -0.000148  -0.000028   0.000541   0.002123  -0.000176   0.000013
    10  C   -0.075012  -0.000000  -0.000006   0.000005   0.000018  -0.000222
    11  C   -0.021410  -0.000000   0.000000   0.000000  -0.000000   0.000014
    12  C    0.506251   0.000000   0.000000  -0.000000   0.000003   0.000266
    13  C    5.127291  -0.000000   0.000000   0.000000  -0.000211  -0.008309
    14  H   -0.000000   0.567338  -0.029880  -0.041247  -0.000192  -0.000000
    15  H    0.000000  -0.029880   0.583745  -0.040063   0.000591   0.000013
    16  H    0.000000  -0.041247  -0.040063   0.603864   0.000039  -0.000000
    17  H   -0.000211  -0.000192   0.000591   0.000039   0.587509  -0.005285
    18  H   -0.008309  -0.000000   0.000013  -0.000000  -0.005285   0.596638
    19  H   -0.000017   0.000001   0.000007  -0.000022   0.000003   0.000000
    20  H    0.000003   0.000203   0.000433  -0.001635  -0.000009   0.000000
    21  H   -0.000005  -0.000028  -0.000075   0.000543   0.000002   0.000000
    22  H    0.000630   0.000000  -0.000000  -0.000001   0.000000   0.000002
    23  H    0.004507  -0.000000   0.000000   0.000000   0.000000  -0.000000
    24  H   -0.036274   0.000000  -0.000000  -0.000000  -0.000000  -0.000014
    25  H    0.356344  -0.000000   0.000000  -0.000000  -0.000012   0.006336
             19         20         21         22         23         24
     1  C    0.000043  -0.002762   0.000729  -0.000000   0.000000  -0.000000
     2  O    0.000267   0.014107   0.000216   0.000000  -0.000000   0.000000
     3  C    0.002068  -0.005098  -0.002066  -0.000033   0.000002  -0.000001
     4  C   -0.000212   0.000541  -0.000311   0.000005  -0.000001   0.000004
     5  C    0.000050  -0.000048   0.000065  -0.000186   0.000008  -0.000217
     6  C   -0.000174  -0.000044  -0.000258   0.005060   0.000960   0.002531
     7  C   -0.004649   0.002645  -0.000849  -0.033335   0.002760   0.001152
     8  C   -0.025060  -0.030592  -0.023583  -0.015024  -0.000167   0.000017
     9  C    0.357382   0.367320   0.356255   0.007299  -0.000005   0.000000
    10  C    0.003758   0.000172   0.001975   0.351347  -0.037193   0.004383
    11  C    0.000104  -0.000001   0.000024  -0.047170   0.357906  -0.042260
    12  C   -0.000000  -0.000000   0.000001   0.004834  -0.042621   0.355560
    13  C   -0.000017   0.000003  -0.000005   0.000630   0.004507  -0.036274
    14  H    0.000001   0.000203  -0.000028   0.000000  -0.000000   0.000000
    15  H    0.000007   0.000433  -0.000075  -0.000000   0.000000  -0.000000
    16  H   -0.000022  -0.001635   0.000543  -0.000001   0.000000  -0.000000
    17  H    0.000003  -0.000009   0.000002   0.000000   0.000000  -0.000000
    18  H    0.000000   0.000000   0.000000   0.000002  -0.000000  -0.000014
    19  H    0.561869  -0.026986  -0.032367   0.002973   0.000000   0.000000
    20  H   -0.026986   0.536545  -0.029803  -0.000075  -0.000000  -0.000000
    21  H   -0.032367  -0.029803   0.569477   0.000841  -0.000001   0.000000
    22  H    0.002973  -0.000075   0.000841   0.601493  -0.005488  -0.000210
    23  H    0.000000  -0.000000  -0.000001  -0.005488   0.596656  -0.005209
    24  H    0.000000  -0.000000   0.000000  -0.000210  -0.005209   0.599221
    25  H    0.000000  -0.000000  -0.000000   0.000018  -0.000206  -0.005328
             25
     1  C   -0.000000
     2  O   -0.000000
     3  C   -0.000003
     4  C    0.000330
     5  C   -0.008785
     6  C   -0.042453
     7  C    0.004164
     8  C   -0.000153
     9  C    0.000002
    10  C    0.000467
    11  C    0.004876
    12  C   -0.046138
    13  C    0.356344
    14  H   -0.000000
    15  H    0.000000
    16  H   -0.000000
    17  H   -0.000012
    18  H    0.006336
    19  H    0.000000
    20  H   -0.000000
    21  H   -0.000000
    22  H    0.000018
    23  H   -0.000206
    24  H   -0.005328
    25  H    0.602002
 Mulliken atomic charges:
              1
     1  C   -0.209848
     2  O   -0.522826
     3  C    0.269931
     4  C   -0.160527
     5  C   -0.216185
     6  C    0.162012
     7  C    0.093161
     8  C    0.085502
     9  C   -0.542451
    10  C   -0.218545
    11  C   -0.125398
    12  C   -0.134971
    13  C   -0.205549
    14  H    0.157349
    15  H    0.152340
    16  H    0.147511
    17  H    0.133265
    18  H    0.129675
    19  H    0.160962
    20  H    0.175082
    21  H    0.159217
    22  H    0.127020
    23  H    0.128091
    24  H    0.126643
    25  H    0.128539
 Sum of Mulliken atomic charges =  -0.00000
 Mulliken charges with hydrogens summed into heavy atoms:
              1
     1  C    0.247352
     2  O   -0.522826
     3  C    0.269931
     4  C   -0.027262
     5  C   -0.086510
     6  C    0.162012
     7  C    0.093161
     8  C    0.085502
     9  C   -0.047190
    10  C   -0.091525
    11  C    0.002693
    12  C   -0.008327
    13  C   -0.077010
 Sum of Mulliken charges with hydrogens summed into heavy atoms =  -0.00000
 Electronic spatial extent (au):  <R**2>=           2455.0366
 Charge=             -0.0000 electrons
 Dipole moment (field-independent basis, Debye):
    X=             -0.0041    Y=              0.2361    Z=              1.3627  Tot=              1.3830
 Quadrupole moment (field-independent basis, Debye-Ang):
   XX=            -69.7084   YY=            -68.9858   ZZ=            -79.0119
   XY=              0.6058   XZ=              4.0633   YZ=             -0.1954
 Traceless Quadrupole moment (field-independent basis, Debye-Ang):
   XX=              2.8603   YY=              3.5829   ZZ=             -6.4432
   XY=              0.6058   XZ=              4.0633   YZ=             -0.1954
 Octapole moment (field-independent basis, Debye-Ang**2):
  XXX=              4.9442  YYY=             -5.4388  ZZZ=              0.3263  XYY=              0.9319
  XXY=              0.9182  XXZ=             19.5720  XZZ=             12.5987  YZZ=              2.3023
  YYZ=             -1.2077  XYZ=             -0.4665
 Hexadecapole moment (field-independent basis, Debye-Ang**3):
 XXXX=          -2134.2918 YYYY=           -793.4030 ZZZZ=           -153.1523 XXXY=             -4.8845
 XXXZ=             39.1265 YYYX=             -6.2198 YYYZ=              1.6812 ZZZX=              4.3450
 ZZZY=             -1.9256 XXYY=           -492.3983 XXZZ=           -427.3805 YYZZ=           -172.3868
 XXYZ=             -0.9935 YYXZ=             -3.9958 ZZXY=              1.6068
 N-N= 7.475753071306D+02 E-N=-2.747676693072D+03  KE= 5.347244355389D+02
 No NMR shielding tensors so no spin-rotation constants.
 Leave Link  601 at Tue Sep 28 15:48:09 2021, MaxMem= 1073741824 cpu:       1.2
 (Enter /sw/target/amd/app/gaussian/Gaussian09RevA.02_gcc-4.9.2/g09/l701.exe)
 Compute integral first derivatives.
 ... and contract with generalized density number  0.
 Leave Link  701 at Tue Sep 28 15:48:10 2021, MaxMem= 1073741824 cpu:       1.3
 (Enter /sw/target/amd/app/gaussian/Gaussian09RevA.02_gcc-4.9.2/g09/l702.exe)
 L702 exits ... SP integral derivatives will be done elsewhere.
 Leave Link  702 at Tue Sep 28 15:48:10 2021, MaxMem= 1073741824 cpu:       0.1
 (Enter /sw/target/amd/app/gaussian/Gaussian09RevA.02_gcc-4.9.2/g09/l703.exe)
 Compute integral first derivatives, UseDBF=F ICtDFT=           0.
 Integral derivatives from FoFDir, PRISM(SPDF).
 Calling FoFJK, ICntrl=      2127 FMM=F ISym2X=0 I1Cent= 0 IOpClX= 0 NMat=1 NMatS=1 NMatT=0.
 FoFCou: FMM=F IPFlag=           0 FMFlag=      100000 FMFlg1=         800
         NFxFlg=           0 DoJE=F BraDBF=F KetDBF=F FulRan=T
         Omega=  0.000000  0.000000  1.000000  0.000000  0.000000 ICntrl=    2127 IOpCl=  0
         NMat0=    1 NMatS0=    1 NMatT0=    0 NMatD0=    1 NMtDS0=    0 NMtDT0=    0
         I1Cent=           0 NGrid=           0.
 Symmetry not used in FoFCou.
 Leave Link  703 at Tue Sep 28 15:49:04 2021, MaxMem= 1073741824 cpu:      87.2
 (Enter /sw/target/amd/app/gaussian/Gaussian09RevA.02_gcc-4.9.2/g09/l716.exe)
 Dipole        =-1.59976893D-03 9.28940264D-02 5.36127463D-01
 ***** Axes restored to original set *****
 -------------------------------------------------------------------
 Center     Atomic                   Forces (Hartrees/Bohr)
 Number     Number              X              Y              Z
 -------------------------------------------------------------------
      1        6          -0.007474926    0.011340444   -0.003391331
      2        8          -0.007518360    0.000025632    0.005301442
      3        6           0.001626713   -0.018407948   -0.020765293
      4        6           0.019256178   -0.016149052    0.017713769
      5        6          -0.004317598    0.027876201    0.003327946
      6        6           0.008329869   -0.002530471    0.008573251
      7        6          -0.004194526    0.000861419   -0.005803678
      8        6          -0.002504587    0.016530894    0.003636230
      9        6           0.002443868    0.002561323   -0.001814978
     10        6           0.001325312   -0.018129978   -0.004384904
     11        6          -0.017362109    0.013757326   -0.014812440
     12        6           0.014772458    0.009867820    0.018571551
     13        6           0.002684476   -0.025773537   -0.004374868
     14        1           0.000396937    0.001433940   -0.000576695
     15        1           0.003423134   -0.000813919   -0.002139308
     16        1          -0.003418472   -0.002242541    0.000907974
     17        1          -0.001778355    0.000849072   -0.001600982
     18        1           0.000381545   -0.002727161   -0.000691839
     19        1          -0.002365809   -0.003728204    0.000727968
     20        1           0.000385384    0.000590706    0.004683976
     21        1          -0.003032854   -0.002182956   -0.004083902
     22        1           0.000155669    0.002847390    0.000879468
     23        1          -0.000851974    0.000721272   -0.000533118
     24        1           0.000434112    0.000183905    0.000498999
     25        1          -0.000796086    0.003238423    0.000150763
 -------------------------------------------------------------------
 Cartesian Forces:  Max     0.027876201 RMS     0.008849110
 Leave Link  716 at Tue Sep 28 15:49:05 2021, MaxMem= 1073741824 cpu:       0.1
 (Enter /sw/target/amd/app/gaussian/Gaussian09RevA.02_gcc-4.9.2/g09/l103.exe)

 GradGradGradGradGradGradGradGradGradGradGradGradGradGradGradGradGradGrad
 Berny optimization.
 Internal  Forces:  Max     0.023786542 RMS     0.005234449
 Search for a local minimum.
 Step number   1 out of a maximum of  134
 All quantities printed in internal units (Hartrees-Bohrs-Radians)
 RMS Force = .52344D-02 SwitMx=.10000D-02 MixMth= 1
 Mixed Optimization -- RFO/linear search
 Second derivative matrix not updated -- first step.
     Eigenvalues ---    0.00671   0.01303   0.01405   0.01845   0.01865
     Eigenvalues ---    0.01950   0.02007   0.02025   0.02057   0.02075
     Eigenvalues ---    0.02095   0.02099   0.02135   0.02166   0.02179
     Eigenvalues ---    0.02186   0.02205   0.02219   0.07131   0.07211
     Eigenvalues ---    0.09864   0.10489   0.16000   0.16000   0.16000
     Eigenvalues ---    0.16000   0.16000   0.16000   0.16000   0.16000
     Eigenvalues ---    0.16000   0.16000   0.16000   0.16000   0.22000
     Eigenvalues ---    0.22388   0.22706   0.24336   0.24628   0.24965
     Eigenvalues ---    0.24988   0.24995   0.25000   0.31638   0.34038
     Eigenvalues ---    0.34268   0.34308   0.34314   0.34324   0.34344
     Eigenvalues ---    0.35064   0.35116   0.35173   0.35176   0.35204
     Eigenvalues ---    0.35252   0.38008   0.39923   0.40765   0.41076
     Eigenvalues ---    0.42839   0.43581   0.45079   0.45492   0.45593
     Eigenvalues ---    0.45809   0.46841   0.47149   0.507751000.00000
     Eigenvalues --- 1000.000001000.000001000.000001000.000001000.00000
     Eigenvalues --- 1000.000001000.000001000.000001000.000001000.00000
     Eigenvalues --- 1000.000001000.000001000.000001000.000001000.00000
     Eigenvalues --- 1000.000001000.000001000.000001000.000001000.00000
     Eigenvalues --- 1000.000001000.000001000.000001000.000001000.00000
     Eigenvalues --- 1000.000001000.000001000.000001000.000001000.00000
     Eigenvalues --- 1000.000001000.000001000.000001000.000001000.00000
     Eigenvalues --- 1000.000001000.000001000.000001000.000001000.00000
     Eigenvalues --- 1000.000001000.000001000.000001000.000001000.00000
     Eigenvalues --- 1000.000001000.000001000.000001000.000001000.00000
     Eigenvalues --- 1000.000001000.000001000.000001000.00000
 RFO step:  Lambda=-1.01388528D-02 EMin= 6.71310077D-03
 Linear search not attempted -- first point.
 Iteration  1 RMS(Cart)=  0.06475969 RMS(Int)=  0.00225963
 Iteration  2 RMS(Cart)=  0.00310025 RMS(Int)=  0.00007835
 Iteration  3 RMS(Cart)=  0.00000853 RMS(Int)=  0.00007808
 Iteration  4 RMS(Cart)=  0.00000000 RMS(Int)=  0.00007808
 Variable       Old X    -DE/DX   Delta X   Delta X   Delta X     New X
                                 (Linear)    (Quad)   (Total)
    R1        2.70117   0.00447   0.00000   0.01062   0.01062   2.71179
    R2        2.06753   0.00112   0.00000   0.00315   0.00315   2.07069
    R3        2.07266  -0.00149   0.00000  -0.00425  -0.00425   2.06841
    R4        2.06787   0.00231   0.00000   0.00655   0.00655   2.07442
    R5        2.59091   0.01494   0.00000   0.02884   0.02884   2.61976
    R6        2.62965   0.02039   0.00000   0.04128   0.04129   2.67094
    R7        2.65575  -0.01299   0.00000  -0.02946  -0.02949   2.62626
    R8        2.62839  -0.01186   0.00000  -0.02476  -0.02472   2.60367
    R9        2.05267  -0.00045   0.00000  -0.00124  -0.00124   2.05143
   R10        2.64847   0.01327   0.00000   0.02963   0.02966   2.67812
   R11        2.05488  -0.00028   0.00000  -0.00079  -0.00079   2.05409
   R12        2.68275   0.01577   0.00000   0.03867   0.03863   2.72138
   R13        2.65513   0.01072   0.00000   0.02436   0.02437   2.67950
   R14        2.69437   0.00375   0.00000   0.00895   0.00891   2.70328
   R15        2.67327   0.00351   0.00000   0.00803   0.00799   2.68126
   R16        2.84811   0.00195   0.00000   0.00598   0.00598   2.85409
   R17        2.06880   0.00046   0.00000   0.00130   0.00130   2.07010
   R18        2.06803  -0.00098   0.00000  -0.00277  -0.00277   2.06526
   R19        2.06814   0.00232   0.00000   0.00657   0.00657   2.07471
   R20        2.64099  -0.01300   0.00000  -0.02857  -0.02858   2.61240
   R21        2.05389  -0.00093   0.00000  -0.00257  -0.00257   2.05133
   R22        2.62207   0.02123   0.00000   0.04251   0.04253   2.66461
   R23        2.05395  -0.00019   0.00000  -0.00052  -0.00052   2.05343
   R24        2.63320  -0.01134   0.00000  -0.02387  -0.02383   2.60937
   R25        2.05345   0.00019   0.00000   0.00051   0.00051   2.05396
   R26        2.05571  -0.00043   0.00000  -0.00119  -0.00119   2.05451
    A1        1.88379  -0.00030   0.00000   0.00000  -0.00022   1.88357
    A2        1.98240  -0.00705   0.00000  -0.04452  -0.04455   1.93786
    A3        1.90785   0.00538   0.00000   0.03273   0.03269   1.94054
    A4        1.88697   0.00247   0.00000   0.01194   0.01173   1.89870
    A5        1.88779   0.00054   0.00000   0.00995   0.00971   1.89749
    A6        1.91257  -0.00077   0.00000  -0.00796  -0.00783   1.90474
    A7        1.93040   0.02379   0.00000   0.09144   0.09144   2.02184
    A8        2.03875   0.00412   0.00000   0.01752   0.01754   2.05629
    A9        2.12526  -0.00623   0.00000  -0.02229  -0.02225   2.10301
   A10        2.11819   0.00211   0.00000   0.00485   0.00478   2.12297
   A11        2.09084   0.00305   0.00000   0.01134   0.01132   2.10216
   A12        2.09610  -0.00409   0.00000  -0.02071  -0.02073   2.07537
   A13        2.09624   0.00104   0.00000   0.00942   0.00940   2.10564
   A14        2.10585  -0.00183   0.00000  -0.00535  -0.00535   2.10050
   A15        2.07264   0.00382   0.00000   0.01973   0.01971   2.09235
   A16        2.10468  -0.00198   0.00000  -0.01434  -0.01435   2.09033
   A17        2.09482  -0.00439   0.00000  -0.01430  -0.01432   2.08050
   A18        2.09090   0.00775   0.00000   0.02524   0.02527   2.11617
   A19        2.09746  -0.00335   0.00000  -0.01093  -0.01095   2.08652
   A20        2.07887   0.00233   0.00000   0.01069   0.01063   2.08950
   A21        2.04790   0.00209   0.00000   0.00932   0.00929   2.05719
   A22        2.15642  -0.00442   0.00000  -0.02001  -0.01993   2.13649
   A23        2.07557  -0.00121   0.00000  -0.00552  -0.00570   2.06987
   A24        2.09406   0.00044   0.00000   0.00229   0.00229   2.09635
   A25        2.11339   0.00078   0.00000   0.00357   0.00357   2.11696
   A26        1.93593   0.00102   0.00000   0.00687   0.00692   1.94285
   A27        1.95812  -0.00591   0.00000  -0.03209  -0.03190   1.92622
   A28        1.92035   0.00627   0.00000   0.03331   0.03343   1.95379
   A29        1.84365   0.00386   0.00000   0.02938   0.02949   1.87314
   A30        1.91240  -0.00491   0.00000  -0.03389  -0.03392   1.87848
   A31        1.89133  -0.00063   0.00000  -0.00524  -0.00498   1.88634
   A32        2.12624  -0.00231   0.00000  -0.01103  -0.01108   2.11515
   A33        2.10658  -0.00176   0.00000  -0.01161  -0.01159   2.09500
   A34        2.05035   0.00407   0.00000   0.02262   0.02264   2.07299
   A35        2.09376   0.00379   0.00000   0.01300   0.01300   2.10676
   A36        2.09291  -0.00314   0.00000  -0.01385  -0.01385   2.07906
   A37        2.09651  -0.00064   0.00000   0.00085   0.00085   2.09736
   A38        2.08909   0.00090   0.00000   0.00212   0.00217   2.09126
   A39        2.09835   0.00023   0.00000   0.00291   0.00289   2.10124
   A40        2.09574  -0.00112   0.00000  -0.00503  -0.00506   2.09068
   A41        2.11187  -0.00111   0.00000  -0.00245  -0.00241   2.10946
   A42        2.10094  -0.00284   0.00000  -0.01876  -0.01878   2.08216
   A43        2.07038   0.00396   0.00000   0.02121   0.02119   2.09156
    D1        2.47388  -0.00016   0.00000   0.04971   0.04968   2.52356
    D2        0.38194   0.00134   0.00000   0.06247   0.06220   0.44414
    D3       -1.75987   0.00325   0.00000   0.07946   0.07976  -1.68011
    D4       -1.71873   0.00058   0.00000   0.01821   0.01820  -1.70053
    D5        1.47012   0.00048   0.00000   0.01619   0.01619   1.48632
    D6        3.13970   0.00058   0.00000   0.01679   0.01684  -3.12665
    D7        0.00275   0.00020   0.00000   0.00574   0.00587   0.00862
    D8       -0.04895   0.00044   0.00000   0.01801   0.01809  -0.03086
    D9        3.09729   0.00006   0.00000   0.00696   0.00712   3.10441
   D10       -3.11393  -0.00075   0.00000  -0.02722  -0.02709  -3.14102
   D11        0.00833  -0.00025   0.00000  -0.00732  -0.00727   0.00105
   D12        0.07706  -0.00089   0.00000  -0.02962  -0.02948   0.04758
   D13       -3.08387  -0.00040   0.00000  -0.00973  -0.00966  -3.09353
   D14       -0.00027  -0.00014   0.00000  -0.00129  -0.00121  -0.00148
   D15       -3.13542  -0.00034   0.00000  -0.00834  -0.00837   3.13939
   D16        3.13667   0.00022   0.00000   0.00968   0.00987  -3.13664
   D17        0.00152   0.00003   0.00000   0.00263   0.00271   0.00423
   D18        0.01946  -0.00021   0.00000  -0.00462  -0.00455   0.01490
   D19       -3.12399  -0.00020   0.00000  -0.00492  -0.00487  -3.12887
   D20       -3.12869   0.00001   0.00000   0.00269   0.00272  -3.12597
   D21        0.01104   0.00002   0.00000   0.00238   0.00241   0.01345
   D22        0.00936  -0.00019   0.00000  -0.00681  -0.00683   0.00252
   D23       -3.13200  -0.00008   0.00000  -0.00346  -0.00344  -3.13544
   D24       -3.13037  -0.00021   0.00000  -0.00654  -0.00656  -3.13693
   D25        0.01146  -0.00010   0.00000  -0.00319  -0.00316   0.00829
   D26        3.13610   0.00005   0.00000   0.00134   0.00132   3.13741
   D27       -0.00418   0.00007   0.00000   0.00219   0.00217  -0.00201
   D28       -0.00735   0.00006   0.00000   0.00103   0.00099  -0.00636
   D29        3.13556   0.00008   0.00000   0.00188   0.00185   3.13740
   D30       -0.05637   0.00063   0.00000   0.02322   0.02324  -0.03313
   D31        3.10478   0.00013   0.00000   0.00312   0.00320   3.10797
   D32        3.08497   0.00051   0.00000   0.01966   0.01969   3.10466
   D33       -0.03707   0.00002   0.00000  -0.00045  -0.00036  -0.03742
   D34       -0.00790   0.00012   0.00000   0.00389   0.00386  -0.00403
   D35        3.12765   0.00001   0.00000   0.00006   0.00009   3.12774
   D36        3.13394   0.00023   0.00000   0.00740   0.00735   3.14130
   D37       -0.01370   0.00012   0.00000   0.00357   0.00358  -0.01012
   D38        2.36759   0.00052   0.00000  -0.01236  -0.01243   2.35517
   D39        0.31032  -0.00119   0.00000  -0.03312  -0.03320   0.27712
   D40       -1.79668  -0.00078   0.00000  -0.02812  -0.02802  -1.82471
   D41       -0.79376   0.00100   0.00000   0.00787   0.00783  -0.78593
   D42       -2.85104  -0.00070   0.00000  -0.01290  -0.01294  -2.86398
   D43        1.32514  -0.00030   0.00000  -0.00789  -0.00776   1.31738
   D44       -0.00007  -0.00006   0.00000  -0.00229  -0.00229  -0.00236
   D45       -3.14114  -0.00012   0.00000  -0.00399  -0.00398   3.13806
   D46       -3.13580   0.00006   0.00000   0.00153   0.00155  -3.13425
   D47        0.00632   0.00001   0.00000  -0.00017  -0.00015   0.00617
   D48        0.00460   0.00001   0.00000  -0.00009  -0.00007   0.00453
   D49       -3.13885   0.00000   0.00000  -0.00024  -0.00024  -3.13909
   D50       -3.13751   0.00006   0.00000   0.00160   0.00163  -3.13588
   D51        0.00222   0.00006   0.00000   0.00146   0.00147   0.00368
   D52       -0.00090   0.00004   0.00000   0.00082   0.00081  -0.00008
   D53        3.13940   0.00001   0.00000  -0.00004  -0.00007   3.13932
   D54       -3.14063   0.00004   0.00000   0.00095   0.00097  -3.13966
   D55       -0.00033   0.00001   0.00000   0.00009   0.00008  -0.00025
         Item               Value     Threshold  Converged?
 Maximum Force            0.023787     0.000450     NO 
 RMS     Force            0.005234     0.000300     NO 
 Maximum Displacement     0.350647     0.001800     NO 
 RMS     Displacement     0.065200     0.001200     NO 
 Predicted change in Energy=-5.332088D-03
 GradGradGradGradGradGradGradGradGradGradGradGradGradGradGradGradGradGrad

 Leave Link  103 at Tue Sep 28 15:49:13 2021, MaxMem= 1073741824 cpu:       4.7
 (Enter /sw/target/amd/app/gaussian/Gaussian09RevA.02_gcc-4.9.2/g09/l202.exe)
                          Input orientation:                          
 ---------------------------------------------------------------------
 Center     Atomic      Atomic             Coordinates (Angstroms)
 Number     Number       Type             X           Y           Z
 ---------------------------------------------------------------------
      1          6           0        1.214200    0.187355   -0.272422
      2          8           0        2.496448   -0.024775   -0.880799
      3          6           0        3.117019   -1.227139   -0.579001
      4          6           0        4.088514   -1.228508    0.447591
      5          6           0        4.751421   -2.389738    0.779914
      6          6           0        4.465454   -3.598095    0.096865
      7          6           0        3.487679   -3.593144   -0.960395
      8          6           0        2.824113   -2.374160   -1.306992
      9          6           0        1.824553   -2.319222   -2.437889
     10          6           0        3.217892   -4.820039   -1.620027
     11          6           0        3.874582   -5.983456   -1.264616
     12          6           0        4.836778   -5.981088   -0.233881
     13          6           0        5.125125   -4.807214    0.433600
     14          1           0        1.126448    1.253193   -0.033722
     15          1           0        1.117859   -0.390102    0.652409
     16          1           0        0.400464   -0.088838   -0.955485
     17          1           0        4.307065   -0.299284    0.964543
     18          1           0        5.498343   -2.379931    1.569554
     19          1           0        2.194020   -2.850011   -3.322066
     20          1           0        1.641132   -1.283137   -2.733345
     21          1           0        0.862978   -2.768964   -2.157762
     22          1           0        2.477984   -4.859152   -2.413343
     23          1           0        3.639413   -6.905074   -1.790041
     24          1           0        5.351692   -6.898333    0.039798
     25          1           0        5.865432   -4.805501    1.229809
 ---------------------------------------------------------------------
                    Distance matrix (angstroms):
                    1          2          3          4          5
     1  C    0.000000
     2  O    1.435019   0.000000
     3  C    2.390712   1.386315   0.000000
     4  C    3.284017   2.397554   1.413399   0.000000
     5  C    4.501194   3.665504   2.422717   1.377803   0.000000
     6  C    5.003664   4.195405   2.810072   2.424878   1.417200
     7  C    4.464772   3.704340   2.425042   2.816901   2.464529
     8  C    3.197423   2.410107   1.389757   2.447405   2.840763
     9  C    3.368190   2.853149   2.513678   3.826379   4.350377
    10  C    5.559210   4.905252   3.742037   4.234634   3.744034
    11  C    6.792716   6.128005   4.864825   5.058355   4.226553
    12  C    7.153618   6.432209   5.067219   4.859148   3.732674
    13  C    6.382752   5.613315   4.227859   3.725842   2.470582
    14  H    1.095760   2.056123   3.226725   3.894142   5.203209
    15  H    1.094555   2.093967   2.492718   3.093488   4.149406
    16  H    1.097736   2.098293   2.969368   4.107212   5.218868
    17  H    3.366410   2.599803   2.158623   1.085569   2.145119
    18  H    5.323318   4.534574   3.408214   2.138269   1.086978
    19  H    4.414291   3.746092   3.318139   4.519811   4.855758
    20  H    2.898406   2.397283   2.612006   4.013853   4.820939
    21  H    3.523873   3.439394   3.154427   4.423229   4.888122
    22  H    5.625648   5.071511   4.118822   4.894929   4.632862
    23  H    7.647704   7.033605   5.829104   6.118177   5.313143
    24  H    8.211169   7.499715   6.126918   5.823129   4.608202
    25  H    6.987079   6.217722   4.861095   4.069912   2.698025
                    6          7          8          9         10
     6  C    0.000000
     7  C    1.440093   0.000000
     8  C    2.482505   1.430514   0.000000
     9  C    3.877480   2.563563   1.510320   0.000000
    10  C    2.448934   1.418863   2.497074   2.977311   0.000000
    11  C    2.809397   2.440458   3.759295   4.359564   1.382424
    12  C    2.434324   2.837282   4.267589   5.228807   2.426979
    13  C    1.417930   2.469498   3.774132   5.032826   2.802693
    14  H    5.890756   5.470021   4.202497   4.362284   6.616242
    15  H    4.669715   4.298449   3.269105   3.710912   5.403559
    16  H    5.472337   4.670235   3.349676   3.033178   5.546512
    17  H    3.414689   3.902088   3.415279   4.671141   5.320106
    18  H    2.172462   3.451854   3.927602   5.436913   4.618226
    19  H    4.172306   2.793437   2.164249   1.095450   2.797546
    20  H    4.620164   3.448075   2.150409   1.092891   4.029309
[...]
    24  H    0.125044
    25  H    0.115790
 Sum of Mulliken atomic charges =  -0.00000
 Mulliken charges with hydrogens summed into heavy atoms:
              1
     1  C    0.297838
     2  O   -0.472160
     3  C    0.325436
     4  C   -0.094730
     5  C   -0.091595
     6  C    0.160411
     7  C    0.077693
     8  C    0.072837
     9  C   -0.026146
    10  C   -0.106894
    11  C   -0.044285
    12  C    0.010622
    13  C   -0.109027
 Sum of Mulliken charges with hydrogens summed into heavy atoms =  -0.00000
 Electronic spatial extent (au):  <R**2>=           2551.9921
 Charge=             -0.0000 electrons
 Dipole moment (field-independent basis, Debye):
    X=             -3.4591    Y=             -0.5347    Z=              0.0001  Tot=              3.5002
 Quadrupole moment (field-independent basis, Debye-Ang):
   XX=            -62.6384   YY=            -70.9593   ZZ=            -79.9289
   XY=              2.3534   XZ=             -0.0009   YZ=              0.0012
 Traceless Quadrupole moment (field-independent basis, Debye-Ang):
   XX=              8.5372   YY=              0.2162   ZZ=             -8.7534
   XY=              2.3534   XZ=             -0.0009   YZ=              0.0012
 Octapole moment (field-independent basis, Debye-Ang**2):
  XXX=            -66.9796  YYY=             -0.0740  ZZZ=              0.0056  XYY=             -4.0519
  XXY=            -15.9751  XXZ=              0.0188  XZZ=            -13.7428  YZZ=              3.0353
  YYZ=             -0.0014  XYZ=              0.0023
 Hexadecapole moment (field-independent basis, Debye-Ang**3):
 XXXX=          -2111.4123 YYYY=           -839.0910 ZZZZ=            -94.6401 XXXY=             26.1127
 XXXZ=             -0.0573 YYYX=             -2.6961 YYYZ=              0.0236 ZZZX=             -0.0218
 ZZZY=             -0.0008 XXYY=           -534.7308 XXZZ=           -449.7463 YYZZ=           -169.4962
 XXYZ=             -0.0006 YYXZ=              0.0023 ZZXY=             -0.4584
 N-N= 7.419829438552D+02 E-N=-2.736172432065D+03  KE= 5.346765559559D+02
 No NMR shielding tensors so no spin-rotation constants.
 Leave Link  601 at Tue Sep 28 21:53:59 2021, MaxMem= 1073741824 cpu:       1.2
 (Enter /sw/target/amd/app/gaussian/Gaussian09RevA.02_gcc-4.9.2/g09/l604.exe)
 Evaluate density.
 Using the total density.
 Monte-Carlo method of calculating molar volume:
 based on  0.001 e/bohr**3 density envelope.
 Number of points per bohr**3 =   20 CutOff= 1.00D-04
 Using the CI density.
 There are       390 points.  Will hold       390 in memory.
 LenV=  1073606674 MDV=  1073741824.
 Box volume = 7421.371 fraction occupied=0.169
 Integrated density= 9.6522796681660964D+01 error= 4.5227966816609637D+00
 Molar volume = 1255.924 bohr**3/mol (112.077 cm**3/mol)
 Recommended a0 for SCRF calculation =  4.40 angstrom (  8.31 bohr)
 Leave Link  604 at Tue Sep 28 21:54:00 2021, MaxMem= 1073741824 cpu:       0.3
 (Enter /sw/target/amd/app/gaussian/Gaussian09RevA.02_gcc-4.9.2/g09/l607.exe)
 ******************************Gaussian NBO Version 3.1******************************
             N A T U R A L   A T O M I C   O R B I T A L   A N D
          N A T U R A L   B O N D   O R B I T A L   A N A L Y S I S
 ******************************Gaussian NBO Version 3.1******************************
       /RESON  / : Allow strongly delocalized NBO set

 Analyzing the CI density

 Job title: COc1ccc2c(c1C)cccc2_conf_0                                      

 Storage needed:    146002 in NPA (1073738449 available)


 NATURAL POPULATIONS:  Natural atomic orbital occupancies 
                                                          
   NAO  Atom  No  lang   Type(AO)    Occupancy
 --------------------------------------------
     1    C    1  S      Cor( 1S)     1.99942
     2    C    1  S      Val( 2S)     1.10222
     3    C    1  S      Ryd( 3S)     0.00153
     4    C    1  S      Ryd( 4S)     0.00003
     5    C    1  px     Val( 2p)     0.92643
     6    C    1  px     Ryd( 3p)     0.00244
     7    C    1  py     Val( 2p)     1.04461
     8    C    1  py     Ryd( 3p)     0.00337
     9    C    1  pz     Val( 2p)     1.23425
    10    C    1  pz     Ryd( 3p)     0.00027
    11    C    1  dxy    Ryd( 3d)     0.00198
    12    C    1  dxz    Ryd( 3d)     0.00071
    13    C    1  dyz    Ryd( 3d)     0.00156
    14    C    1  dx2y2  Ryd( 3d)     0.00108
    15    C    1  dz2    Ryd( 3d)     0.00112

    16    O    2  S      Cor( 1S)     1.99974
    17    O    2  S      Val( 2S)     1.59420
    18    O    2  S      Ryd( 3S)     0.00085
    19    O    2  S      Ryd( 4S)     0.00008
    20    O    2  px     Val( 2p)     1.38695
    21    O    2  px     Ryd( 3p)     0.00078
    22    O    2  py     Val( 2p)     1.72649
    23    O    2  py     Ryd( 3p)     0.00229
    24    O    2  pz     Val( 2p)     1.74233
    25    O    2  pz     Ryd( 3p)     0.00214
    26    O    2  dxy    Ryd( 3d)     0.00126
    27    O    2  dxz    Ryd( 3d)     0.00043
    28    O    2  dyz    Ryd( 3d)     0.00149
    29    O    2  dx2y2  Ryd( 3d)     0.00129
    30    O    2  dz2    Ryd( 3d)     0.00074

    31    C    3  S      Cor( 1S)     1.99871
    32    C    3  S      Val( 2S)     0.83673
    33    C    3  S      Ryd( 3S)     0.00166
    34    C    3  S      Ryd( 4S)     0.00013
    35    C    3  px     Val( 2p)     0.77716
    36    C    3  px     Ryd( 3p)     0.00569
    37    C    3  py     Val( 2p)     1.05227
    38    C    3  py     Ryd( 3p)     0.00624
    39    C    3  pz     Val( 2p)     0.94096
    40    C    3  pz     Ryd( 3p)     0.00092
    41    C    3  dxy    Ryd( 3d)     0.00164
    42    C    3  dxz    Ryd( 3d)     0.00167
    43    C    3  dyz    Ryd( 3d)     0.00132
    44    C    3  dx2y2  Ryd( 3d)     0.00148
    45    C    3  dz2    Ryd( 3d)     0.00047

    46    C    4  S      Cor( 1S)     1.99905
    47    C    4  S      Val( 2S)     0.94706
    48    C    4  S      Ryd( 3S)     0.00073
    49    C    4  S      Ryd( 4S)     0.00005
    50    C    4  px     Val( 2p)     1.15570
    51    C    4  px     Ryd( 3p)     0.00395
    52    C    4  py     Val( 2p)     1.10512
    53    C    4  py     Ryd( 3p)     0.00431
    54    C    4  pz     Val( 2p)     1.16074
    55    C    4  pz     Ryd( 3p)     0.00328
    56    C    4  dxy    Ryd( 3d)     0.00068
    57    C    4  dxz    Ryd( 3d)     0.00056
    58    C    4  dyz    Ryd( 3d)     0.00037
    59    C    4  dx2y2  Ryd( 3d)     0.00063
    60    C    4  dz2    Ryd( 3d)     0.00046

    61    C    5  S      Cor( 1S)     1.99906
    62    C    5  S      Val( 2S)     0.94367
    63    C    5  S      Ryd( 3S)     0.00074
    64    C    5  S      Ryd( 4S)     0.00005
    65    C    5  px     Val( 2p)     1.05638
    66    C    5  px     Ryd( 3p)     0.00427
    67    C    5  py     Val( 2p)     1.18313
    68    C    5  py     Ryd( 3p)     0.00491
    69    C    5  pz     Val( 2p)     0.99764
    70    C    5  pz     Ryd( 3p)     0.00303
    71    C    5  dxy    Ryd( 3d)     0.00067
    72    C    5  dxz    Ryd( 3d)     0.00076
    73    C    5  dyz    Ryd( 3d)     0.00030
    74    C    5  dx2y2  Ryd( 3d)     0.00082
    75    C    5  dz2    Ryd( 3d)     0.00043

    76    C    6  S      Cor( 1S)     1.99903
    77    C    6  S      Val( 2S)     0.86903
    78    C    6  S      Ryd( 3S)     0.00048
    79    C    6  S      Ryd( 4S)     0.00006
    80    C    6  px     Val( 2p)     1.09772
    81    C    6  px     Ryd( 3p)     0.00493
    82    C    6  py     Val( 2p)     1.07663
    83    C    6  py     Ryd( 3p)     0.00549
    84    C    6  pz     Val( 2p)     0.99188
    85    C    6  pz     Ryd( 3p)     0.00096
    86    C    6  dxy    Ryd( 3d)     0.00070
    87    C    6  dxz    Ryd( 3d)     0.00097
    88    C    6  dyz    Ryd( 3d)     0.00052
    89    C    6  dx2y2  Ryd( 3d)     0.00072
    90    C    6  dz2    Ryd( 3d)     0.00034

    91    C    7  S      Cor( 1S)     1.99900
    92    C    7  S      Val( 2S)     0.86260
    93    C    7  S      Ryd( 3S)     0.00046
    94    C    7  S      Ryd( 4S)     0.00006
    95    C    7  px     Val( 2p)     1.08366
    96    C    7  px     Ryd( 3p)     0.00461
    97    C    7  py     Val( 2p)     1.08579
    98    C    7  py     Ryd( 3p)     0.00528
    99    C    7  pz     Val( 2p)     1.01051
   100    C    7  pz     Ryd( 3p)     0.00098
   101    C    7  dxy    Ryd( 3d)     0.00064
   102    C    7  dxz    Ryd( 3d)     0.00085
   103    C    7  dyz    Ryd( 3d)     0.00060
   104    C    7  dx2y2  Ryd( 3d)     0.00075
   105    C    7  dz2    Ryd( 3d)     0.00034

   106    C    8  S      Cor( 1S)     1.99896
   107    C    8  S      Val( 2S)     0.88052
   108    C    8  S      Ryd( 3S)     0.00062
   109    C    8  S      Ryd( 4S)     0.00006
   110    C    8  px     Val( 2p)     1.07081
   111    C    8  px     Ryd( 3p)     0.00428
   112    C    8  py     Val( 2p)     1.06294
   113    C    8  py     Ryd( 3p)     0.00425
   114    C    8  pz     Val( 2p)     0.98070
   115    C    8  pz     Ryd( 3p)     0.00336
   116    C    8  dxy    Ryd( 3d)     0.00094
   117    C    8  dxz    Ryd( 3d)     0.00058
   118    C    8  dyz    Ryd( 3d)     0.00067
   119    C    8  dx2y2  Ryd( 3d)     0.00054
   120    C    8  dz2    Ryd( 3d)     0.00035

   121    C    9  S      Cor( 1S)     1.99940
   122    C    9  S      Val( 2S)     1.09626
   123    C    9  S      Ryd( 3S)     0.00032
   124    C    9  S      Ryd( 4S)     0.00001
   125    C    9  px     Val( 2p)     1.26365
   126    C    9  px     Ryd( 3p)     0.00264
   127    C    9  py     Val( 2p)     1.09172
   128    C    9  py     Ryd( 3p)     0.00143
   129    C    9  pz     Val( 2p)     1.24642
   130    C    9  pz     Ryd( 3p)     0.00043
   131    C    9  dxy    Ryd( 3d)     0.00039
   132    C    9  dxz    Ryd( 3d)     0.00049
   133    C    9  dyz    Ryd( 3d)     0.00085
   134    C    9  dx2y2  Ryd( 3d)     0.00088
   135    C    9  dz2    Ryd( 3d)     0.00065

   136    C   10  S      Cor( 1S)     1.99908
   137    C   10  S      Val( 2S)     0.94149
   138    C   10  S      Ryd( 3S)     0.00067
   139    C   10  S      Ryd( 4S)     0.00005
   140    C   10  px     Val( 2p)     1.06356
   141    C   10  px     Ryd( 3p)     0.00409
   142    C   10  py     Val( 2p)     1.17840
   143    C   10  py     Ryd( 3p)     0.00435
   144    C   10  pz     Val( 2p)     1.04997
   145    C   10  pz     Ryd( 3p)     0.00385
   146    C   10  dxy    Ryd( 3d)     0.00066
   147    C   10  dxz    Ryd( 3d)     0.00069
   148    C   10  dyz    Ryd( 3d)     0.00026
   149    C   10  dx2y2  Ryd( 3d)     0.00082
   150    C   10  dz2    Ryd( 3d)     0.00043

   151    C   11  S      Cor( 1S)     1.99912
   152    C   11  S      Val( 2S)     0.95424
   153    C   11  S      Ryd( 3S)     0.00067
   154    C   11  S      Ryd( 4S)     0.00003
   155    C   11  px     Val( 2p)     1.13843
   156    C   11  px     Ryd( 3p)     0.00501
   157    C   11  py     Val( 2p)     1.10839
   158    C   11  py     Ryd( 3p)     0.00496
   159    C   11  pz     Val( 2p)     1.07413
   160    C   11  pz     Ryd( 3p)     0.00315
   161    C   11  dxy    Ryd( 3d)     0.00083
   162    C   11  dxz    Ryd( 3d)     0.00054
   163    C   11  dyz    Ryd( 3d)     0.00040
   164    C   11  dx2y2  Ryd( 3d)     0.00062
   165    C   11  dz2    Ryd( 3d)     0.00043

   166    C   12  S      Cor( 1S)     1.99910
   167    C   12  S      Val( 2S)     0.96556
   168    C   12  S      Ryd( 3S)     0.00056
   169    C   12  S      Ryd( 4S)     0.00003
   170    C   12  px     Val( 2p)     1.17974
   171    C   12  px     Ryd( 3p)     0.00495
   172    C   12  py     Val( 2p)     1.07616
   173    C   12  py     Ryd( 3p)     0.00462
   174    C   12  pz     Val( 2p)     0.94306
   175    C   12  pz     Ryd( 3p)     0.00119
   176    C   12  dxy    Ryd( 3d)     0.00077
   177    C   12  dxz    Ryd( 3d)     0.00041
   178    C   12  dyz    Ryd( 3d)     0.00083
   179    C   12  dx2y2  Ryd( 3d)     0.00077
   180    C   12  dz2    Ryd( 3d)     0.00043

   181    C   13  S      Cor( 1S)     1.99906
   182    C   13  S      Val( 2S)     0.94535
   183    C   13  S      Ryd( 3S)     0.00069
   184    C   13  S      Ryd( 4S)     0.00005
   185    C   13  px     Val( 2p)     1.05081
   186    C   13  px     Ryd( 3p)     0.00427
   187    C   13  py     Val( 2p)     1.18762
   188    C   13  py     Ryd( 3p)     0.00464
   189    C   13  pz     Val( 2p)     1.06398
   190    C   13  pz     Ryd( 3p)     0.00325
   191    C   13  dxy    Ryd( 3d)     0.00064
   192    C   13  dxz    Ryd( 3d)     0.00046
   193    C   13  dyz    Ryd( 3d)     0.00034
   194    C   13  dx2y2  Ryd( 3d)     0.00084
   195    C   13  dz2    Ryd( 3d)     0.00042

   196    H   14  S      Val( 1S)     0.76721
   197    H   14  S      Ryd( 2S)     0.00054

   198    H   15  S      Val( 1S)     0.78085
   199    H   15  S      Ryd( 2S)     0.00191

   200    H   16  S      Val( 1S)     0.78086
   201    H   16  S      Ryd( 2S)     0.00191

   202    H   17  S      Val( 1S)     0.76734
   203    H   17  S      Ryd( 2S)     0.00090

   204    H   18  S      Val( 1S)     0.76699
   205    H   18  S      Ryd( 2S)     0.00114

   206    H   19  S      Val( 1S)     0.75172
   207    H   19  S      Ryd( 2S)     0.00211

   208    H   20  S      Val( 1S)     0.74468
   209    H   20  S      Ryd( 2S)     0.00108

   210    H   21  S      Val( 1S)     0.75173
   211    H   21  S      Ryd( 2S)     0.00211

   212    H   22  S      Val( 1S)     0.77285
   213    H   22  S      Ryd( 2S)     0.00106

   214    H   23  S      Val( 1S)     0.77054
   215    H   23  S      Ryd( 2S)     0.00082

   216    H   24  S      Val( 1S)     0.76826
   217    H   24  S      Ryd( 2S)     0.00086

   218    H   25  S      Val( 1S)     0.77308
   219    H   25  S      Ryd( 2S)     0.00114

 WARNING:  1 low occupancy (<1.9990e) core orbital  found on  C    3
           1 low occupancy (<1.9990e) core orbital  found on  C    8


 Summary of Natural Population Analysis:                  
                                                          
                                       Natural Population 
                Natural  -----------------------------------------------
    Atom  No    Charge         Core      Valence    Rydberg      Total
 -----------------------------------------------------------------------
      C    1   -0.32102      1.99942     4.30751    0.01409     6.32102
      O    2   -0.46106      1.99974     6.44998    0.01134     8.46106
      C    3    0.37294      1.99871     3.60711    0.02123     5.62706
      C    4   -0.38271      1.99905     4.36863    0.01503     6.38271
      C    5   -0.19586      1.99906     4.18082    0.01598     6.19586
      C    6   -0.04944      1.99903     4.03525    0.01516     6.04944
      C    7   -0.05613      1.99900     4.04256    0.01457     6.05613
      C    8   -0.00959      1.99896     3.99498    0.01565     6.00959
      C    9   -0.70553      1.99940     4.69804    0.00810     6.70553
      C   10   -0.24834      1.99908     4.23341    0.01585     6.24834
      C   11   -0.29096      1.99912     4.27520    0.01665     6.29096
      C   12   -0.17819      1.99910     4.16452    0.01456     6.17819
      C   13   -0.26242      1.99906     4.24776    0.01559     6.26242
      H   14    0.23225      0.00000     0.76721    0.00054     0.76775
      H   15    0.21724      0.00000     0.78085    0.00191     0.78276
      H   16    0.21723      0.00000     0.78086    0.00191     0.78277
      H   17    0.23176      0.00000     0.76734    0.00090     0.76824
      H   18    0.23187      0.00000     0.76699    0.00114     0.76813
      H   19    0.24617      0.00000     0.75172    0.00211     0.75383
      H   20    0.25424      0.00000     0.74468    0.00108     0.74576
      H   21    0.24616      0.00000     0.75173    0.00211     0.75384
      H   22    0.22609      0.00000     0.77285    0.00106     0.77391
      H   23    0.22864      0.00000     0.77054    0.00082     0.77136
      H   24    0.23087      0.00000     0.76826    0.00086     0.76913
      H   25    0.22577      0.00000     0.77308    0.00114     0.77423
 =======================================================================
   * Total *   -0.00000     25.98872    65.80188    0.20940    92.00000

                                 Natural Population      
 --------------------------------------------------------
   Core                      25.98872 ( 99.9566% of  26)
   Valence                   65.80188 ( 99.6998% of  66)
   Natural Minimal Basis     91.79060 ( 99.7724% of  92)
   Natural Rydberg Basis      0.20940 (  0.2276% of  92)
 --------------------------------------------------------

    Atom  No          Natural Electron Configuration
 ----------------------------------------------------------------------------
      C    1      [core]2S( 1.10)2p( 3.21)3p( 0.01)3d( 0.01)
      O    2      [core]2S( 1.59)2p( 4.86)3p( 0.01)3d( 0.01)
      C    3      [core]2S( 0.84)2p( 2.77)3p( 0.01)3d( 0.01)
      C    4      [core]2S( 0.95)2p( 3.42)3p( 0.01)
      C    5      [core]2S( 0.94)2p( 3.24)3p( 0.01)
      C    6      [core]2S( 0.87)2p( 3.17)3p( 0.01)
      C    7      [core]2S( 0.86)2p( 3.18)3p( 0.01)
      C    8      [core]2S( 0.88)2p( 3.11)3p( 0.01)
      C    9      [core]2S( 1.10)2p( 3.60)
      C   10      [core]2S( 0.94)2p( 3.29)3p( 0.01)
      C   11      [core]2S( 0.95)2p( 3.32)3p( 0.01)
      C   12      [core]2S( 0.97)2p( 3.20)3p( 0.01)
      C   13      [core]2S( 0.95)2p( 3.30)3p( 0.01)
      H   14            1S( 0.77)
      H   15            1S( 0.78)
      H   16            1S( 0.78)
      H   17            1S( 0.77)
      H   18            1S( 0.77)
      H   19            1S( 0.75)
      H   20            1S( 0.74)
      H   21            1S( 0.75)
      H   22            1S( 0.77)
      H   23            1S( 0.77)
      H   24            1S( 0.77)
      H   25            1S( 0.77)


 NBO analysis skipped by request.
 Leave Link  607 at Tue Sep 28 21:54:19 2021, MaxMem= 1073741824 cpu:      14.0
 (Enter /sw/target/amd/app/gaussian/Gaussian09RevA.02_gcc-4.9.2/g09/l9999.exe)
 1\1\GINC-HERMITE\SP\RTD-B3LYP-FC\6-31G(d)\C12H12O1\JSCHLEINITZ\28-Sep-
 2021\0\\#p TD(NStates=10, Root=1) b3lyp/6-31G* volume pop=NPA density=
 current Geom=AllCheck Guess=Read\\COc1ccc2c(c1C)cccc2_conf_0\\0,1\C,0,
 1.7893585394,0.7385438033,-0.0700707357\O,0,1.8044180571,-0.4225424405
 ,-0.8811233298\C,0,2.6053140449,-1.4780380074,-0.5242005705\C,0,3.4235
 145409,-1.446581895,0.63495012\C,0,4.2118136307,-2.5261657837,0.955341
 7993\C,0,4.2256973029,-3.6854927395,0.1429065783\C,0,3.3972999621,-3.7
 149080395,-1.0284946896\C,0,2.5790382015,-2.5918569035,-1.3588389149\C
 ,0,1.7019743529,-2.6086008132,-2.5883356662\C,0,3.4274118692,-4.892425
 6094,-1.8314074163\C,0,4.222488362,-5.96560121,-1.497224219\C,0,5.0372
 999124,-5.9292113998,-0.3395040615\C,0,5.0344940547,-4.8098971447,0.45
 94339397\H,0,1.0898019276,1.4262764063,-0.5496408144\H,0,2.7784223905,
 1.2130215789,-0.016263989\H,0,1.4385992612,0.5217248712,0.9478252461\H
 ,0,3.4309947894,-0.5713062666,1.2738725964\H,0,4.8366471114,-2.4964960
 368,1.8448028609\H,0,2.295423491,-2.7461962746,-3.5012289591\H,0,1.148
 7517933,-1.6743790948,-2.6840082793\H,0,0.9756567101,-3.4304650457,-2.
 5499745401\H,0,2.8114241922,-4.9426565493,-2.7231051097\H,0,4.22624073
 8,-6.8511999646,-2.1275513574\H,0,5.6596984178,-6.7835913156,-0.087977
 5837\H,0,5.6548219775,-4.7663118677,1.3521151768\\Version=AM64L-G09Rev
 A.02\State=1-A\HF=-539.7296703\RMSD=5.443e-10\Dipole=-0.4899263,1.2666
 586,0.2277301\Quadrupole=-3.1567355,4.8143123,-1.6575768,-3.7332089,1.
 9782601,2.9323809\PG=C01 [X(C12H12O1)]\\@


 You can't act like a skunk without someone's getting wind of it.
 -- Lorene Workman
 Job cpu time:  0 days  2 hours 27 minutes 37.1 seconds.
 File lengths (MBytes):  RWF=    158 Int=      0 D2E=      0 Chk=     22 Scr=      1
 Normal termination of Gaussian 09 at Tue Sep 28 21:54:23 2021.
