 Entering Gaussian System, Link 0=g09
 Input=C12H17NO2_ee7b_conf_0.com
 Output=C12H17NO2_ee7b_conf_0.log
 Initial command:
 /sw/target/amd/app/gaussian/Gaussian09RevA.02_gcc-4.9.2/g09/l1.exe /home/jschleinitz/gaussian/Gau-1313275.inp -scrdir=/home/jschleinitz/gaussian/
 Entering Link 1 = /sw/target/amd/app/gaussian/Gaussian09RevA.02_gcc-4.9.2/g09/l1.exe PID=   1313277.
  
 Copyright (c) 1988,1990,1992,1993,1995,1998,2003,2009, Gaussian, Inc.
                  All Rights Reserved.
  
 This is part of the Gaussian(R) 09 program.  It is based on
 the Gaussian(R) 03 system (copyright 2003, Gaussian, Inc.),
 the Gaussian(R) 98 system (copyright 1998, Gaussian, Inc.),
 the Gaussian(R) 94 system (copyright 1995, Gaussian, Inc.),
 the Gaussian 92(TM) system (copyright 1992, Gaussian, Inc.),
 the Gaussian 90(TM) system (copyright 1990, Gaussian, Inc.),
 the Gaussian 88(TM) system (copyright 1988, Gaussian, Inc.),
 the Gaussian 86(TM) system (copyright 1986, Carnegie Mellon
 University), and the Gaussian 82(TM) system (copyright 1983,
 Carnegie Mellon University). Gaussian is a federally registered
 trademark of Gaussian, Inc.
  
 This software contains proprietary and confidential information,
 including trade secrets, belonging to Gaussian, Inc.
  
 This software is provided under written license and may be
 used, copied, transmitted, or stored only in accord with that
 written license.
  
 The following legend is applicable only to US Government
 contracts under FAR:
  
                    RESTRICTED RIGHTS LEGEND
  
 Use, reproduction and disclosure by the US Government is
 subject to restrictions as set forth in subparagraphs (a)
 and (c) of the Commercial Computer Software - Restricted
 Rights clause in FAR 52.227-19.
  
 Gaussian, Inc.
 340 Quinnipiac St., Bldg. 40, Wallingford CT 06492
  
  
 ---------------------------------------------------------------
 Warning -- This program may not be used in any manner that
 competes with the business of Gaussian, Inc. or will provide
 assistance to any competitor of Gaussian, Inc.  The licensee
 of this program is prohibited from giving any competitor of
 Gaussian, Inc. access to this program.  By using this program,
 the user acknowledges that Gaussian, Inc. is engaged in the
 business of creating and licensing software in the field of
 computational chemistry and represents and warrants to the
 licensee that it is not a competitor of Gaussian, Inc. and that
 it will not use this program in any manner prohibited above.
 ---------------------------------------------------------------
  

 Cite this work as:
 Gaussian 09, Revision A.02,
 M. J. Frisch, G. W. Trucks, H. B. Schlegel, G. E. Scuseria, 
 M. A. Robb, J. R. Cheeseman, G. Scalmani, V. Barone, B. Mennucci, 
 G. A. Petersson, H. Nakatsuji, M. Caricato, X. Li, H. P. Hratchian, 
 A. F. Izmaylov, J. Bloino, G. Zheng, J. L. Sonnenberg, M. Hada, 
 M. Ehara, K. Toyota, R. Fukuda, J. Hasegawa, M. Ishida, T. Nakajima, 
 Y. Honda, O. Kitao, H. Nakai, T. Vreven, J. A. Montgomery, Jr., 
 J. E. Peralta, F. Ogliaro, M. Bearpark, J. J. Heyd, E. Brothers, 
 K. N. Kudin, V. N. Staroverov, R. Kobayashi, J. Normand, 
 K. Raghavachari, A. Rendell, J. C. Burant, S. S. Iyengar, J. Tomasi, 
 M. Cossi, N. Rega, J. M. Millam, M. Klene, J. E. Knox, J. B. Cross, 
 V. Bakken, C. Adamo, J. Jaramillo, R. Gomperts, R. E. Stratmann, 
 O. Yazyev, A. J. Austin, R. Cammi, C. Pomelli, J. W. Ochterski, 
 R. L. Martin, K. Morokuma, V. G. Zakrzewski, G. A. Voth, 
 P. Salvador, J. J. Dannenberg, S. Dapprich, A. D. Daniels, 
 O. Farkas, J. B. Foresman, J. V. Ortiz, J. Cioslowski, 
 and D. J. Fox, Gaussian, Inc., Wallingford CT, 2009.
 
 ******************************************
 Gaussian 09:  AM64L-G09RevA.02 11-Jun-2009
                30-Sep-2021 
 ******************************************
 %nproc=5
 Will use up to    5 processors via shared memory.
 %mem=10gb
 %chk=C12H17NO2_ee7b_conf_0.chk
 -----------------------------------
 #p opt b3lyp/6-31G* scf=(xqc,tight)
 -----------------------------------
 1/14=-1,18=20,19=15,26=3,38=1/1,3;
 2/9=110,12=2,17=6,18=5,40=1/2;
 3/5=1,6=6,7=1,11=2,16=1,25=1,30=1,71=1,74=-5/1,2,3;
 4//1;
 5/5=2,8=3,13=1,32=2,38=5/2,8;
 6/7=2,8=2,9=2,10=2,28=1/1;
 7//1,2,3,16;
 1/14=-1,18=20,19=15/3(2);
 2/9=110/2;
 99//99;
 2/9=110/2;
 3/5=1,6=6,7=1,11=2,16=1,25=1,30=1,71=1,74=-5/1,2,3;
 4/5=5,16=3/1;
 5/5=2,8=3,13=1,32=2,38=5/2,8;
 7//1,2,3,16;
 1/14=-1,18=20,19=15/3(-5);
 2/9=110/2;
 6/7=2,8=2,9=2,10=2,19=2,28=1/1;
 99/9=1/99;
 Leave Link    1 at Thu Sep 30 01:47:27 2021, MaxMem= 1342177280 cpu:       0.1
 (Enter /sw/target/amd/app/gaussian/Gaussian09RevA.02_gcc-4.9.2/g09/l101.exe)
 -----------------------------
 CCN(C(=O)Oc1ccccc1C)CC_conf_0
 -----------------------------
 Symbolic Z-matrix:
 Charge =  0 Multiplicity = 1
 C                    -1.37087   1.90701  -1.34759 
 C                    -0.42372   0.74989  -1.62838 
 N                     0.51689   0.52109  -0.53467 
 C                     1.63156   1.32789  -0.3288 
 O                     2.48711   1.09313   0.51964 
 O                     1.65104   2.42787  -1.19042 
 C                     2.58862   3.48918  -1.14011 
 C                     3.22519   3.87094   0.04127 
 C                     4.10902   4.94962   0.03025 
 C                     4.33909   5.65309  -1.15088 
 C                     3.67565   5.28893  -2.32401 
 C                     2.78868   4.2035   -2.33251 
 C                     2.03608   3.85695  -3.58425 
 C                     0.31685  -0.64417   0.31884 
 C                     0.9919   -1.88751  -0.23904 
 H                    -1.89664   1.7639   -0.3988 
 H                    -2.11381   1.98947  -2.14652 
 H                    -0.83829   2.86159  -1.29031 
 H                     0.14433   0.94907  -2.54383 
 H                    -1.00091  -0.16615  -1.79906 
 H                     3.0433    3.35265   0.97746 
 H                     4.61403   5.24379   0.94666 
 H                     5.02877   6.4934   -1.15581 
 H                     3.85292   5.86243  -3.23091 
 H                     2.43493   4.39281  -4.45211 
 H                     0.98078   4.12855  -3.4736 
 H                     2.1136    2.7866   -3.79858 
 H                    -0.75963  -0.81144   0.4372 
 H                     0.72017  -0.43507   1.31572 
 H                     0.63004  -2.11821  -1.24598 
 H                     0.78926  -2.75039   0.40376 
 H                     2.07697  -1.75369  -0.29659 
 
 NAtoms=     32 NQM=     32 NQMF=      0 NMic=      0 NMicF=      0 NTot=     32.
                    Isotopes and Nuclear Properties:
 (Nuclear quadrupole moments (NQMom) in fm**2, nuclear magnetic moments (NMagM)
  in nuclear magnetons)

  Atom         1           2           3           4           5           6           7           8           9          10
 IAtWgt=          12          12          14          12          16          16          12          12          12          12
 AtmWgt=  12.0000000  12.0000000  14.0030740  12.0000000  15.9949146  15.9949146  12.0000000  12.0000000  12.0000000  12.0000000
 NucSpn=           0           0           2           0           0           0           0           0           0           0
 AtZEff=   0.0000000   0.0000000   0.0000000   0.0000000   0.0000000   0.0000000   0.0000000   0.0000000   0.0000000   0.0000000
 NQMom=    0.0000000   0.0000000   2.0440000   0.0000000   0.0000000   0.0000000   0.0000000   0.0000000   0.0000000   0.0000000
 NMagM=    0.0000000   0.0000000   0.4037610   0.0000000   0.0000000   0.0000000   0.0000000   0.0000000   0.0000000   0.0000000

  Atom        11          12          13          14          15          16          17          18          19          20
 IAtWgt=          12          12          12          12          12           1           1           1           1           1
 AtmWgt=  12.0000000  12.0000000  12.0000000  12.0000000  12.0000000   1.0078250   1.0078250   1.0078250   1.0078250   1.0078250
 NucSpn=           0           0           0           0           0           1           1           1           1           1
 AtZEff=   0.0000000   0.0000000   0.0000000   0.0000000   0.0000000   0.0000000   0.0000000   0.0000000   0.0000000   0.0000000
 NQMom=    0.0000000   0.0000000   0.0000000   0.0000000   0.0000000   0.0000000   0.0000000   0.0000000   0.0000000   0.0000000
 NMagM=    0.0000000   0.0000000   0.0000000   0.0000000   0.0000000   2.7928460   2.7928460   2.7928460   2.7928460   2.7928460

  Atom        21          22          23          24          25          26          27          28          29          30
 IAtWgt=           1           1           1           1           1           1           1           1           1           1
 AtmWgt=   1.0078250   1.0078250   1.0078250   1.0078250   1.0078250   1.0078250   1.0078250   1.0078250   1.0078250   1.0078250
 NucSpn=           1           1           1           1           1           1           1           1           1           1
 AtZEff=   0.0000000   0.0000000   0.0000000   0.0000000   0.0000000   0.0000000   0.0000000   0.0000000   0.0000000   0.0000000
 NQMom=    0.0000000   0.0000000   0.0000000   0.0000000   0.0000000   0.0000000   0.0000000   0.0000000   0.0000000   0.0000000
 NMagM=    2.7928460   2.7928460   2.7928460   2.7928460   2.7928460   2.7928460   2.7928460   2.7928460   2.7928460   2.7928460

  Atom        31          32
 IAtWgt=           1           1
 AtmWgt=   1.0078250   1.0078250
 NucSpn=           1           1
 AtZEff=   0.0000000   0.0000000
 NQMom=    0.0000000   0.0000000
 NMagM=    2.7928460   2.7928460
 Leave Link  101 at Thu Sep 30 01:47:27 2021, MaxMem= 1342177280 cpu:       0.2
 (Enter /sw/target/amd/app/gaussian/Gaussian09RevA.02_gcc-4.9.2/g09/l103.exe)

 GradGradGradGradGradGradGradGradGradGradGradGradGradGradGradGradGradGrad
 Berny optimization.
 Initialization pass.
                           ----------------------------
                           !    Initial Parameters    !
                           ! (Angstroms and Degrees)  !
 --------------------------                            --------------------------
 ! Name  Definition              Value          Derivative Info.                !
 --------------------------------------------------------------------------------
 ! R1    R(1,2)                  1.5215         estimate D2E/DX2                !
 ! R2    R(1,16)                 1.0941         estimate D2E/DX2                !
 ! R3    R(1,17)                 1.0941         estimate D2E/DX2                !
 ! R4    R(1,18)                 1.0946         estimate D2E/DX2                !
 ! R5    R(2,3)                  1.4606         estimate D2E/DX2                !
 ! R6    R(2,19)                 1.0956         estimate D2E/DX2                !
 ! R7    R(2,20)                 1.0961         estimate D2E/DX2                !
 ! R8    R(3,4)                  1.3913         estimate D2E/DX2                !
 ! R9    R(3,14)                 1.4582         estimate D2E/DX2                !
 ! R10   R(4,5)                  1.2276         estimate D2E/DX2                !
 ! R11   R(4,6)                  1.3974         estimate D2E/DX2                !
 ! R12   R(6,7)                  1.417          estimate D2E/DX2                !
 ! R13   R(7,8)                  1.3952         estimate D2E/DX2                !
 ! R14   R(7,12)                 1.4043         estimate D2E/DX2                !
 ! R15   R(8,9)                  1.3946         estimate D2E/DX2                !
 ! R16   R(8,21)                 1.0854         estimate D2E/DX2                !
 ! R17   R(9,10)                 1.3939         estimate D2E/DX2                !
 ! R18   R(9,22)                 1.0869         estimate D2E/DX2                !
 ! R19   R(10,11)                1.3961         estimate D2E/DX2                !
 ! R20   R(10,23)                1.0871         estimate D2E/DX2                !
 ! R21   R(11,12)                1.4018         estimate D2E/DX2                !
 ! R22   R(11,24)                1.0876         estimate D2E/DX2                !
 ! R23   R(12,13)                1.5011         estimate D2E/DX2                !
 ! R24   R(13,25)                1.0952         estimate D2E/DX2                !
 ! R25   R(13,26)                1.0953         estimate D2E/DX2                !
 ! R26   R(13,27)                1.0944         estimate D2E/DX2                !
 ! R27   R(14,15)                1.5208         estimate D2E/DX2                !
 ! R28   R(14,28)                1.0958         estimate D2E/DX2                !
 ! R29   R(14,29)                1.0955         estimate D2E/DX2                !
 ! R30   R(15,30)                1.0946         estimate D2E/DX2                !
 ! R31   R(15,31)                1.0949         estimate D2E/DX2                !
 ! R32   R(15,32)                1.0948         estimate D2E/DX2                !
 ! A1    A(2,1,16)             111.0816         estimate D2E/DX2                !
 ! A2    A(2,1,17)             110.1991         estimate D2E/DX2                !
 ! A3    A(2,1,18)             111.7164         estimate D2E/DX2                !
 ! A4    A(16,1,17)            108.4673         estimate D2E/DX2                !
 ! A5    A(16,1,18)            107.6078         estimate D2E/DX2                !
 ! A6    A(17,1,18)            107.631          estimate D2E/DX2                !
 ! A7    A(1,2,3)              112.4482         estimate D2E/DX2                !
 ! A8    A(1,2,19)             109.7968         estimate D2E/DX2                !
 ! A9    A(1,2,20)             109.6649         estimate D2E/DX2                !
 ! A10   A(3,2,19)             108.6793         estimate D2E/DX2                !
 ! A11   A(3,2,20)             108.9547         estimate D2E/DX2                !
 ! A12   A(19,2,20)            107.1478         estimate D2E/DX2                !
 ! A13   A(2,3,4)              122.405          estimate D2E/DX2                !
 ! A14   A(2,3,14)             118.3682         estimate D2E/DX2                !
 ! A15   A(4,3,14)             119.1229         estimate D2E/DX2                !
 ! A16   A(3,4,5)              123.3484         estimate D2E/DX2                !
 ! A17   A(3,4,6)              112.1105         estimate D2E/DX2                !
 ! A18   A(5,4,6)              124.5399         estimate D2E/DX2                !
 ! A19   A(4,6,7)              125.2323         estimate D2E/DX2                !
 ! A20   A(6,7,8)              122.4713         estimate D2E/DX2                !
 ! A21   A(6,7,12)             116.4283         estimate D2E/DX2                !
 ! A22   A(8,7,12)             120.9837         estimate D2E/DX2                !
 ! A23   A(7,8,9)              119.6105         estimate D2E/DX2                !
 ! A24   A(7,8,21)             121.548          estimate D2E/DX2                !
 ! A25   A(9,8,21)             118.8394         estimate D2E/DX2                !
 ! A26   A(8,9,10)             120.1111         estimate D2E/DX2                !
 ! A27   A(8,9,22)             119.8112         estimate D2E/DX2                !
 ! A28   A(10,9,22)            120.0769         estimate D2E/DX2                !
 ! A29   A(9,10,11)            120.1306         estimate D2E/DX2                !
 ! A30   A(9,10,23)            119.9124         estimate D2E/DX2                !
 ! A31   A(11,10,23)           119.9539         estimate D2E/DX2                !
 ! A32   A(10,11,12)           120.5154         estimate D2E/DX2                !
 ! A33   A(10,11,24)           119.0589         estimate D2E/DX2                !
 ! A34   A(12,11,24)           120.4251         estimate D2E/DX2                !
 ! A35   A(7,12,11)            118.6113         estimate D2E/DX2                !
 ! A36   A(7,12,13)            121.2782         estimate D2E/DX2                !
 ! A37   A(11,12,13)           120.0693         estimate D2E/DX2                !
 ! A38   A(12,13,25)           111.4233         estimate D2E/DX2                !
 ! A39   A(12,13,26)           109.9725         estimate D2E/DX2                !
 ! A40   A(12,13,27)           110.7073         estimate D2E/DX2                !
 ! A41   A(25,13,26)           108.0363         estimate D2E/DX2                !
 ! A42   A(25,13,27)           107.3113         estimate D2E/DX2                !
 ! A43   A(26,13,27)           109.3026         estimate D2E/DX2                !
 ! A44   A(3,14,15)            112.1917         estimate D2E/DX2                !
 ! A45   A(3,14,28)            108.6607         estimate D2E/DX2                !
 ! A46   A(3,14,29)            109.2441         estimate D2E/DX2                !
 ! A47   A(15,14,28)           110.5409         estimate D2E/DX2                !
 ! A48   A(15,14,29)           109.0529         estimate D2E/DX2                !
 ! A49   A(28,14,29)           107.0083         estimate D2E/DX2                !
 ! A50   A(14,15,30)           111.2871         estimate D2E/DX2                !
 ! A51   A(14,15,31)           110.2909         estimate D2E/DX2                !
 ! A52   A(14,15,32)           111.056          estimate D2E/DX2                !
 ! A53   A(30,15,31)           108.2276         estimate D2E/DX2                !
 ! A54   A(30,15,32)           107.7622         estimate D2E/DX2                !
 ! A55   A(31,15,32)           108.0964         estimate D2E/DX2                !
 ! D1    D(16,1,2,3)           -54.749          estimate D2E/DX2                !
 ! D2    D(16,1,2,19)         -175.8811         estimate D2E/DX2                !
 ! D3    D(16,1,2,20)           66.6413         estimate D2E/DX2                !
 ! D4    D(17,1,2,3)          -174.9849         estimate D2E/DX2                !
 ! D5    D(17,1,2,19)           63.883          estimate D2E/DX2                !
 ! D6    D(17,1,2,20)          -53.5946         estimate D2E/DX2                !
 ! D7    D(18,1,2,3)            65.4166         estimate D2E/DX2                !
 ! D8    D(18,1,2,19)          -55.7156         estimate D2E/DX2                !
 ! D9    D(18,1,2,20)         -173.1931         estimate D2E/DX2                !
 ! D10   D(1,2,3,4)            -77.0991         estimate D2E/DX2                !
 ! D11   D(1,2,3,14)           106.6417         estimate D2E/DX2                !
 ! D12   D(19,2,3,4)            44.6707         estimate D2E/DX2                !
 ! D13   D(19,2,3,14)         -131.5884         estimate D2E/DX2                !
 ! D14   D(20,2,3,4)           161.1059         estimate D2E/DX2                !
 ! D15   D(20,2,3,14)          -15.1532         estimate D2E/DX2                !
 ! D16   D(2,3,4,5)           -174.2675         estimate D2E/DX2                !
 ! D17   D(2,3,4,6)              6.1069         estimate D2E/DX2                !
 ! D18   D(14,3,4,5)             1.9644         estimate D2E/DX2                !
 ! D19   D(14,3,4,6)          -177.6611         estimate D2E/DX2                !
 ! D20   D(2,3,14,15)           87.1695         estimate D2E/DX2                !
 ! D21   D(2,3,14,28)          -35.3601         estimate D2E/DX2                !
 ! D22   D(2,3,14,29)         -151.7777         estimate D2E/DX2                !
 ! D23   D(4,3,14,15)          -89.2153         estimate D2E/DX2                !
 ! D24   D(4,3,14,28)          148.2551         estimate D2E/DX2                !
 ! D25   D(4,3,14,29)           31.8376         estimate D2E/DX2                !
 ! D26   D(3,4,6,7)            173.9319         estimate D2E/DX2                !
 ! D27   D(5,4,6,7)             -5.6885         estimate D2E/DX2                !
 ! D28   D(4,6,7,8)            -27.7133         estimate D2E/DX2                !
 ! D29   D(4,6,7,12)           156.1831         estimate D2E/DX2                !
 ! D30   D(6,7,8,9)           -178.1424         estimate D2E/DX2                !
 ! D31   D(6,7,8,21)             1.3185         estimate D2E/DX2                !
 ! D32   D(12,7,8,9)            -2.2126         estimate D2E/DX2                !
 ! D33   D(12,7,8,21)          177.2483         estimate D2E/DX2                !
 ! D34   D(6,7,12,11)          178.0676         estimate D2E/DX2                !
 ! D35   D(6,7,12,13)            0.4012         estimate D2E/DX2                !
 ! D36   D(8,7,12,11)            1.9018         estimate D2E/DX2                !
 ! D37   D(8,7,12,13)         -175.7646         estimate D2E/DX2                !
 ! D38   D(7,8,9,10)             0.9212         estimate D2E/DX2                !
 ! D39   D(7,8,9,22)          -179.4109         estimate D2E/DX2                !
 ! D40   D(21,8,9,10)         -178.5544         estimate D2E/DX2                !
 ! D41   D(21,8,9,22)            1.1136         estimate D2E/DX2                !
 ! D42   D(8,9,10,11)            0.6391         estimate D2E/DX2                !
 ! D43   D(8,9,10,23)         -179.9965         estimate D2E/DX2                !
 ! D44   D(22,9,10,11)        -179.028          estimate D2E/DX2                !
 ! D45   D(22,9,10,23)           0.3364         estimate D2E/DX2                !
 ! D46   D(9,10,11,12)          -0.9386         estimate D2E/DX2                !
 ! D47   D(9,10,11,24)         178.7693         estimate D2E/DX2                !
 ! D48   D(23,10,11,12)        179.6972         estimate D2E/DX2                !
 ! D49   D(23,10,11,24)         -0.5949         estimate D2E/DX2                !
 ! D50   D(10,11,12,7)          -0.3192         estimate D2E/DX2                !
 ! D51   D(10,11,12,13)        177.3762         estimate D2E/DX2                !
 ! D52   D(24,11,12,7)         179.9769         estimate D2E/DX2                !
 ! D53   D(24,11,12,13)         -2.3277         estimate D2E/DX2                !
 ! D54   D(7,12,13,25)        -170.1961         estimate D2E/DX2                !
 ! D55   D(7,12,13,26)          70.0366         estimate D2E/DX2                !
 ! D56   D(7,12,13,27)         -50.8526         estimate D2E/DX2                !
 ! D57   D(11,12,13,25)         12.1712         estimate D2E/DX2                !
 ! D58   D(11,12,13,26)       -107.5961         estimate D2E/DX2                !
 ! D59   D(11,12,13,27)        131.5147         estimate D2E/DX2                !
 ! D60   D(3,14,15,30)         -57.6381         estimate D2E/DX2                !
 ! D61   D(3,14,15,31)        -177.768          estimate D2E/DX2                !
 ! D62   D(3,14,15,32)          62.4169         estimate D2E/DX2                !
 ! D63   D(28,14,15,30)         63.8198         estimate D2E/DX2                !
 ! D64   D(28,14,15,31)        -56.3102         estimate D2E/DX2                !
 ! D65   D(28,14,15,32)       -176.1253         estimate D2E/DX2                !
 ! D66   D(29,14,15,30)       -178.8009         estimate D2E/DX2                !
 ! D67   D(29,14,15,31)         61.0692         estimate D2E/DX2                !
 ! D68   D(29,14,15,32)        -58.746          estimate D2E/DX2                !
 --------------------------------------------------------------------------------
 Trust Radius=3.00D-01 FncErr=1.00D-07 GrdErr=1.00D-06
 Number of steps in this run= 165 maximum allowed number of steps= 192.
 GradGradGradGradGradGradGradGradGradGradGradGradGradGradGradGradGradGrad

 Leave Link  103 at Thu Sep 30 01:47:28 2021, MaxMem= 1342177280 cpu:       0.0
 (Enter /sw/target/amd/app/gaussian/Gaussian09RevA.02_gcc-4.9.2/g09/l202.exe)
                          Input orientation:                          
 ---------------------------------------------------------------------
 Center     Atomic      Atomic             Coordinates (Angstroms)
 Number     Number       Type             X           Y           Z
 ---------------------------------------------------------------------
      1          6           0       -1.370866    1.907014   -1.347594
      2          6           0       -0.423715    0.749887   -1.628375
      3          7           0        0.516891    0.521087   -0.534667
      4          6           0        1.631563    1.327887   -0.328803
      5          8           0        2.487110    1.093125    0.519639
      6          8           0        1.651045    2.427870   -1.190424
      7          6           0        2.588624    3.489185   -1.140108
      8          6           0        3.225191    3.870938    0.041271
      9          6           0        4.109020    4.949620    0.030246
     10          6           0        4.339092    5.653089   -1.150880
     11          6           0        3.675650    5.288931   -2.324014
     12          6           0        2.788680    4.203496   -2.332509
     13          6           0        2.036085    3.856954   -3.584251
     14          6           0        0.316852   -0.644166    0.318845
     15          6           0        0.991900   -1.887508   -0.239045
     16          1           0       -1.896641    1.763895   -0.398800
     17          1           0       -2.113807    1.989469   -2.146516
     18          1           0       -0.838288    2.861585   -1.290310
     19          1           0        0.144326    0.949073   -2.543833
     20          1           0       -1.000910   -0.166145   -1.799065
     21          1           0        3.043299    3.352654    0.977461
     22          1           0        4.614034    5.243794    0.946659
     23          1           0        5.028765    6.493400   -1.155811
     24          1           0        3.852924    5.862427   -3.230907
     25          1           0        2.434934    4.392806   -4.452113
     26          1           0        0.980783    4.128546   -3.473603
     27          1           0        2.113600    2.786596   -3.798577
     28          1           0       -0.759632   -0.811435    0.437203
     29          1           0        0.720168   -0.435067    1.315720
     30          1           0        0.630040   -2.118211   -1.245977
     31          1           0        0.789260   -2.750387    0.403763
     32          1           0        2.076968   -1.753688   -0.296589
 ---------------------------------------------------------------------
                    Distance matrix (angstroms):
                    1          2          3          4          5
     1  C    0.000000
     2  C    1.521471   0.000000
     3  N    2.478965   1.460577   0.000000
     4  C    3.223027   2.499428   1.391330   0.000000
     5  O    4.362677   3.633824   2.306632   1.227570   0.000000
     6  O    3.070495   2.704082   2.313470   1.397403   2.324837
     7  C    4.268943   4.100774   3.669910   2.499078   2.916533
     8  C    5.187455   5.083620   4.346043   3.023857   2.913734
     9  C    6.417558   6.398006   5.730133   4.402688   4.212203
    10  C    6.831940   6.852279   6.428560   5.168549   5.197474
    11  C    6.152892   6.155618   5.992650   4.883547   5.206129
    12  C    4.852392   4.768931   4.685445   3.690919   4.230851
    13  C    4.517987   4.419268   4.768219   4.142192   4.968308
    14  C    3.483379   2.506689   1.458189   2.457012   2.787207
    15  C    4.605425   3.300009   2.472723   3.279633   3.419858
    16  H    1.094136   2.170157   2.718118   3.555732   4.528878
    17  H    1.094092   2.159039   3.416837   4.215397   5.392611
    18  H    1.094590   2.178401   2.808102   3.062171   4.178713
    19  H    2.155097   1.095631   2.087755   2.694760   3.859306
    20  H    2.153759   1.096085   2.091581   3.365073   4.373606
    21  H    5.194287   5.058159   4.084977   2.792670   2.371586
    22  H    7.226115   7.225297   6.425330   5.084906   4.683397
    23  H    7.875722   7.933524   7.510749   6.237584   6.199203
    24  H    6.817634   6.855349   6.850454   5.823976   6.219186
    25  H    5.504663   5.423673   5.832279   5.200079   5.967322
    26  H    3.871094   4.097904   4.676141   4.261100   5.237250
    27  H    4.349998   3.911000   4.281952   3.794670   4.653422
    28  H    3.308939   2.610973   2.085584   3.298678   3.765034
    29  H    4.117160   3.373467   2.092722   2.577422   2.468036
    30  H    4.496263   3.079385   2.735811   3.704031   4.108381
    31  H    5.424461   4.225259   3.414291   4.228291   4.203416
    32  H    5.137402   3.780867   2.768596   3.113764   2.989780
                    6          7          8          9         10
     6  O    0.000000
     7  C    1.417030   0.000000
     8  C    2.465249   1.395210   0.000000
     9  C    3.727050   2.411266   1.394572   0.000000
    10  C    4.198714   2.783296   2.416208   1.393865   0.000000
    11  C    3.683710   2.412954   2.794314   2.417743   1.396069
    12  C    2.398211   1.404309   2.436384   2.807599   2.429268
    13  C    2.814417   2.532664   3.815570   4.307617   3.801478
    14  C    3.673605   4.937012   5.377886   6.764191   7.615375
    15  C    4.467895   5.680693   6.182707   7.518995   8.300346
    16  H    3.695079   4.862485   5.555759   6.811820   7.387545
    17  H    3.909018   5.037347   6.068875   7.226643   7.486876
    18  H    2.528807   3.487143   4.393605   5.529884   5.883639
    19  H    2.507739   3.794364   4.971095   6.192662   6.454777
    20  H    3.759285   5.165309   6.127382   7.458473   7.924598
    21  H    2.737394   2.170132   1.085429   2.140860   3.391301
    22  H    4.612576   3.396401   2.152521   1.086918   2.154713
    23  H    5.285710   3.870381   3.400469   2.153118   1.087105
    24  H    4.561581   3.406196   3.881652   3.396162   2.146321
    25  H    3.887682   3.436499   4.592096   4.817068   4.014009
    26  H    2.924800   2.905019   4.178285   4.768332   4.358614
    27  H    2.673032   2.790472   4.141963   4.829105   4.492204
    28  H    4.353577   5.673981   6.161185   7.553751   8.385051
    29  H    3.917104   4.992191   5.142085   6.490888   7.499758
    30  H    4.659656   5.940551   6.652949   7.980369   8.611575
    31  H    5.486206   6.674841   7.064496   8.393476   9.254006
    32  H    4.297183   5.334888   5.750563   7.012160   7.791493
                   11         12         13         14         15
    11  C    0.000000
    12  C    1.401770   0.000000
    13  C    2.515339   1.501116   0.000000
    14  C    7.312173   6.053052   6.200806   0.000000
    15  C    7.940459   6.686654   6.729009   1.520799   0.000000
    16  H    6.868970   5.625221   5.476707   3.348630   4.658534
    17  H    6.666016   5.382461   4.772440   4.349959   5.321167
    18  H    5.228402   4.005222   3.809848   4.026664   5.196983
    19  H    5.599369   4.198635   3.621739   3.280716   3.751882
    20  H    7.204418   5.808556   5.347481   2.539791   3.060726
    21  H    3.879276   3.427049   4.698725   4.882813   5.757380
    22  H    3.402926   3.894494   5.394283   7.316284   8.085865
    23  H    2.155543   3.412662   4.669508   8.678801   9.347532
    24  H    1.087556   2.166053   2.729043   8.212204   8.786250
    25  H    2.621301   2.157243   1.095173   7.253923   7.699002
    26  H    3.151247   2.139207   1.095293   6.132067   6.830476
    27  H    3.297881   2.147718   1.094354   5.652574   5.981281
    28  H    8.031844   6.738795   6.766238   1.095812   2.164049
    29  H    7.399101   6.253366   6.645509   1.095512   2.144928
    30  H    8.081068   6.767884   6.568644   2.172455   1.094568
    31  H    8.966753   7.735719   7.817658   2.160219   1.094909
    32  H    7.500981   6.335577   6.503052   2.169748   1.094802
                   16         17         18         19         20
    16  H    0.000000
    17  H    1.775543   0.000000
    18  H    1.766302   1.766528   0.000000
    19  H    3.070936   2.517827   2.488886   0.000000
    20  H    2.547181   2.450701   3.074480   1.763507   0.000000
    21  H    5.368544   6.181687   4.522240   5.155653   6.037108
    22  H    7.503922   8.088400   6.356632   7.113821   8.266441
    23  H    8.420364   8.501955   6.901485   7.518239   9.006681
    24  H    7.607646   7.195664   5.897324   6.194095   7.871058
    25  H    6.488687   5.637628   4.801627   4.554966   6.295056
    26  H    4.829654   3.989148   3.111427   3.416604   5.017525
    27  H    5.355971   4.608220   3.874360   2.971348   4.734649
    28  H    2.936668   4.044065   4.059750   3.578143   2.339981
    29  H    3.823965   5.088897   4.481975   4.140481   3.568797
    30  H    4.708776   5.021226   5.191948   3.365795   2.603165
    31  H    5.313842   6.115387   6.083834   4.773915   3.838680
    32  H    5.307862   5.915746   5.548598   4.011250   3.775057
                   21         22         23         24         25
    21  H    0.000000
    22  H    2.458570   0.000000
    23  H    4.284532   2.480705   0.000000
    24  H    4.966368   4.291160   2.467135   0.000000
    25  H    5.561682   5.883825   4.691062   2.379459   0.000000
    26  H    4.966685   5.829495   5.229805   3.363694   1.772532
    27  H    4.898500   5.899767   5.405812   3.578859   1.763598
    28  H    5.665139   8.111821   9.455361   8.903434   7.822710
    29  H    4.456253   6.895496   8.525030   8.375225   7.714705
    30  H    6.379488   8.653264   9.670407   8.832752   7.478656
    31  H    6.531228   8.878658  10.288502   9.837552   8.792780
    32  H    5.350862   7.546331   8.801467   8.352810   7.428048
                   26         27         28         29         30
    26  H    0.000000
    27  H    1.785977   0.000000
    28  H    6.536579   6.256446   0.000000
    29  H    6.620582   6.202966   1.761605   0.000000
    30  H    6.641334   5.724845   2.544002   3.066494   0.000000
    31  H    7.898758   7.076137   2.481878   2.489407   1.773877
    32  H    6.774637   5.734059   3.077757   2.485800   1.768563
                   31         32
    31  H    0.000000
    32  H    1.772595   0.000000
 Stoichiometry    C12H17NO2
 Framework group  C1[X(C12H17NO2)]
 Deg. of freedom    90
 Full point group                 C1      NOp   1
 Largest Abelian subgroup         C1      NOp   1
 Largest concise Abelian subgroup C1      NOp   1
                         Standard orientation:                         
 ---------------------------------------------------------------------
 Center     Atomic      Atomic             Coordinates (Angstroms)
 Number     Number       Type             X           Y           Z
 ---------------------------------------------------------------------
      1          6           0       -1.957698    2.078600    1.448600
      2          6           0       -2.367318    1.456536    0.121904
      3          7           0       -2.250633    0.000644    0.128920
      4          6           0       -1.026745   -0.649864    0.007519
      5          8           0       -0.917100   -1.868560   -0.090891
      6          8           0        0.047437    0.243843    0.019949
      7          6           0        1.416022   -0.123138    0.036426
      8          6           0        1.863086   -1.323399    0.589705
      9          6           0        3.228364   -1.607097    0.608692
     10          6           0        4.140929   -0.687227    0.094956
     11          6           0        3.692793    0.527027   -0.428275
     12          6           0        2.323665    0.825982   -0.461006
     13          6           0        1.856702    2.158209   -0.971364
     14          6           0       -3.473188   -0.792137    0.185237
     15          6           0       -4.049935   -1.057443   -1.196721
     16          1           0       -2.521093    1.641879    2.278656
     17          1           0       -2.142793    3.156814    1.433425
     18          1           0       -0.893410    1.927795    1.655180
     19          1           0       -1.740842    1.854890   -0.683857
     20          1           0       -3.403387    1.729560   -0.109230
     21          1           0        1.172633   -2.043909    1.016668
     22          1           0        3.579475   -2.545405    1.030227
     23          1           0        5.204475   -0.911722    0.111341
     24          1           0        4.421493    1.240490   -0.806091
     25          1           0        2.664667    2.699026   -1.475460
     26          1           0        1.503868    2.775304   -0.138076
     27          1           0        1.046913    2.032528   -1.696661
     28          1           0       -4.202837   -0.267315    0.812117
     29          1           0       -3.260637   -1.749338    0.673842
     30          1           0       -4.256701   -0.122603   -1.727195
     31          1           0       -4.986001   -1.619658   -1.115976
     32          1           0       -3.354153   -1.641392   -1.807852
 ---------------------------------------------------------------------
 Rotational constants (GHZ):      1.1375935      0.3381608      0.2890823
 Leave Link  202 at Thu Sep 30 01:47:28 2021, MaxMem= 1342177280 cpu:       0.1
 (Enter /sw/target/amd/app/gaussian/Gaussian09RevA.02_gcc-4.9.2/g09/l301.exe)
 Standard basis: 6-31G(d) (6D, 7F)
 Ernie: Thresh=  0.10000D-02 Tol=  0.10000D-05 Strict=F.
 There are   259 symmetry adapted basis functions of A   symmetry.
 Integral buffers will be    131072 words long.
 Raffenetti 2 integral format.
 Two-electron integral symmetry is turned on.
   259 basis functions,   488 primitive gaussians,   259 cartesian basis functions
    56 alpha electrons       56 beta electrons
       nuclear repulsion energy      1004.3659733023 Hartrees.
 IExCor=  402 DFT=T Ex+Corr=B3LYP ExCW=0 ScaHFX=  0.200000
 ScaDFX=  0.800000  0.720000  1.000000  0.810000 ScalE2=  1.000000  1.000000
 IRadAn=      0 IRanWt=     -1 IRanGd=            0 ICorTp=0
 NAtoms=   32 NActive=   32 NUniq=   32 SFac= 7.50D-01 NAtFMM=   80 NAOKFM=F Big=F
 Leave Link  301 at Thu Sep 30 01:47:28 2021, MaxMem= 1342177280 cpu:       0.1
 (Enter /sw/target/amd/app/gaussian/Gaussian09RevA.02_gcc-4.9.2/g09/l302.exe)
 NPDir=0 NMtPBC=     1 NCelOv=     1 NCel=       1 NClECP=     1 NCelD=      1
         NCelK=      1 NCelE2=     1 NClLst=     1 CellRange=     0.0.
 One-electron integrals computed using PRISM.
 NBasis=   259 RedAO= T  NBF=   259
 NBsUse=   259 1.00D-06 NBFU=   259
 Precomputing XC quadrature grid using
 IXCGrd= 2 IRadAn=           0 IRanWt=          -1 IRanGd=           0 AccXCQ= 1.00D-10.
 NRdTot=    2030 NPtTot=      258378 NUsed=      273017 NTot=      273049
 NSgBfM=   258   258   258   258   258 NAtAll=    32    32.
 Leave Link  302 at Thu Sep 30 01:47:33 2021, MaxMem= 1342177280 cpu:       2.9
 (Enter /sw/target/amd/app/gaussian/Gaussian09RevA.02_gcc-4.9.2/g09/l303.exe)
 DipDrv:  MaxL=1.
 Leave Link  303 at Thu Sep 30 01:47:33 2021, MaxMem= 1342177280 cpu:       0.2
 (Enter /sw/target/amd/app/gaussian/Gaussian09RevA.02_gcc-4.9.2/g09/l401.exe)
 Harris functional with IExCor=  402 diagonalized for initial guess.
 ExpMin= 1.61D-01 ExpMax= 5.48D+03 ExpMxC= 8.25D+02 IAcc=1 IRadAn=         1 AccDes= 0.00D+00
 HarFok:  IExCor=  402 AccDes= 0.00D+00 IRadAn=         1 IDoV= 1
 ScaDFX=  1.000000  1.000000  1.000000  1.000000
 FoFCou: FMM=F IPFlag=           0 FMFlag=      100000 FMFlg1=           0
         NFxFlg=           0 DoJE=T BraDBF=F KetDBF=T FulRan=T
         Omega=  0.000000  0.000000  1.000000  0.000000  0.000000 ICntrl=     500 IOpCl=  0
         NMat0=    1 NMatS0=    1 NMatT0=    0 NMatD0=    1 NMtDS0=    0 NMtDT0=    0
         I1Cent=           4 NGrid=           0.
 Petite list used in FoFCou.
 Harris En= -672.872785915347    
 Initial guess orbital symmetries:
       Occupied  (A) (A) (A) (A) (A) (A) (A) (A) (A) (A) (A) (A)
                 (A) (A) (A) (A) (A) (A) (A) (A) (A) (A) (A) (A)
                 (A) (A) (A) (A) (A) (A) (A) (A) (A) (A) (A) (A)
                 (A) (A) (A) (A) (A) (A) (A) (A) (A) (A) (A) (A)
                 (A) (A) (A) (A) (A) (A) (A) (A)
       Virtual   (A) (A) (A) (A) (A) (A) (A) (A) (A) (A) (A) (A)
                 (A) (A) (A) (A) (A) (A) (A) (A) (A) (A) (A) (A)
                 (A) (A) (A) (A) (A) (A) (A) (A) (A) (A) (A) (A)
                 (A) (A) (A) (A) (A) (A) (A) (A) (A) (A) (A) (A)
                 (A) (A) (A) (A) (A) (A) (A) (A) (A) (A) (A) (A)
                 (A) (A) (A) (A) (A) (A) (A) (A) (A) (A) (A) (A)
                 (A) (A) (A) (A) (A) (A) (A) (A) (A) (A) (A) (A)
                 (A) (A) (A) (A) (A) (A) (A) (A) (A) (A) (A) (A)
                 (A) (A) (A) (A) (A) (A) (A) (A) (A) (A) (A) (A)
                 (A) (A) (A) (A) (A) (A) (A) (A) (A) (A) (A) (A)
                 (A) (A) (A) (A) (A) (A) (A) (A) (A) (A) (A) (A)
                 (A) (A) (A) (A) (A) (A) (A) (A) (A) (A) (A) (A)
                 (A) (A) (A) (A) (A) (A) (A) (A) (A) (A) (A) (A)
                 (A) (A) (A) (A) (A) (A) (A) (A) (A) (A) (A) (A)
                 (A) (A) (A) (A) (A) (A) (A) (A) (A) (A) (A) (A)
                 (A) (A) (A) (A) (A) (A) (A) (A) (A) (A) (A) (A)
                 (A) (A) (A) (A) (A) (A) (A) (A) (A) (A) (A)
 The electronic state of the initial guess is 1-A.
 Leave Link  401 at Thu Sep 30 01:47:47 2021, MaxMem= 1342177280 cpu:      12.2
 (Enter /sw/target/amd/app/gaussian/Gaussian09RevA.02_gcc-4.9.2/g09/l502.exe)
 Closed shell SCF:
 Requested convergence on RMS density matrix=1.00D-08 within  64 cycles.
 Requested convergence on MAX density matrix=1.00D-06.
 Requested convergence on             energy=1.00D-06.
 No special actions if energy rises.
 Using DIIS extrapolation, IDIIS=  1040.
 Integral symmetry usage will be decided dynamically.
       272716 words used for storage of precomputed grid.
 Keep R1 ints in memory in canonical form, NReq=576122191.
 IEnd=      483022 IEndB=      483022 NGot=  1342177280 MDV=   774914510
 LenX=   774914510 LenY=   774846988
 Symmetry not used in FoFDir.
 MinBra= 0 MaxBra= 2 Meth= 1.
 IRaf=       0 NMat=   1 IRICut=       1 DoRegI=T DoRafI=F ISym2E= 0 JSym2E=0.
 Integral accuracy reduced to 1.0D-05 until final iterations.

 Cycle   1  Pass 0  IDiag  1:
 E= -672.251609817860    
 DIIS: error= 3.64D-02 at cycle   1 NSaved=   1.
 NSaved= 1 IEnMin= 1 EnMin= -672.251609817860     IErMin= 1 ErrMin= 3.64D-02
 ErrMax= 3.64D-02 EMaxC= 1.00D-01 BMatC= 4.88D-01 BMatP= 4.88D-01
 IDIUse=3 WtCom= 6.36D-01 WtEn= 3.64D-01
 Coeff-Com:  0.100D+01
 Coeff-En:   0.100D+01
 Coeff:      0.100D+01
 Gap=     0.288 Goal=   None    Shift=    0.000
 GapD=    0.288 DampG=1.000 DampE=0.500 DampFc=0.5000 IDamp=-1.
 Damping current iteration by 5.00D-01
 RMSDP=5.94D-03 MaxDP=2.30D-01              OVMax= 2.30D-01

 Cycle   2  Pass 0  IDiag  1:
 E= -672.418041300874     Delta-E=       -0.166431483014 Rises=F Damp=T
 DIIS: error= 1.20D-02 at cycle   2 NSaved=   2.
 NSaved= 2 IEnMin= 2 EnMin= -672.418041300874     IErMin= 2 ErrMin= 1.20D-02
 ErrMax= 1.20D-02 EMaxC= 1.00D-01 BMatC= 6.16D-02 BMatP= 4.88D-01
 IDIUse=3 WtCom= 8.80D-01 WtEn= 1.20D-01
 Coeff-Com:  0.183D+00 0.817D+00
 Coeff-En:   0.274D+00 0.726D+00
 Coeff:      0.194D+00 0.806D+00
 Gap=     0.245 Goal=   None    Shift=    0.000
 RMSDP=1.81D-03 MaxDP=7.74D-02 DE=-1.66D-01 OVMax= 1.87D-01

 Cycle   3  Pass 0  IDiag  1:
 E= -672.672629516857     Delta-E=       -0.254588215983 Rises=F Damp=F
 DIIS: error= 1.59D-02 at cycle   3 NSaved=   3.
 NSaved= 3 IEnMin= 3 EnMin= -672.672629516857     IErMin= 2 ErrMin= 1.20D-02
 ErrMax= 1.59D-02 EMaxC= 1.00D-01 BMatC= 7.74D-02 BMatP= 6.16D-02
 IDIUse=2 WtCom= 0.00D+00 WtEn= 1.00D+00
 Coeff-En:   0.000D+00 0.000D+00 0.100D+01
 Coeff:      0.000D+00 0.000D+00 0.100D+01
 Gap=     0.259 Goal=   None    Shift=    0.000
 RMSDP=3.21D-03 MaxDP=1.76D-01 DE=-2.55D-01 OVMax= 2.93D-01

 Cycle   4  Pass 0  IDiag  1:
 E= -672.352752856304     Delta-E=        0.319876660552 Rises=F Damp=F
 DIIS: error= 4.33D-02 at cycle   4 NSaved=   4.
 NSaved= 4 IEnMin= 3 EnMin= -672.672629516857     IErMin= 2 ErrMin= 1.20D-02
 ErrMax= 4.33D-02 EMaxC= 1.00D-01 BMatC= 4.81D-01 BMatP= 6.16D-02
 IDIUse=2 WtCom= 0.00D+00 WtEn= 1.00D+00
 Coeff-En:   0.000D+00 0.000D+00 0.801D+00 0.199D+00
 Coeff:      0.000D+00 0.000D+00 0.801D+00 0.199D+00
 Gap=     0.243 Goal=   None    Shift=    0.000
 RMSDP=1.72D-03 MaxDP=9.58D-02 DE= 3.20D-01 OVMax= 1.38D-01

 Cycle   5  Pass 0  IDiag  1:
 E= -672.710590937331     Delta-E=       -0.357838081027 Rises=F Damp=F
 DIIS: error= 1.03D-02 at cycle   5 NSaved=   5.
 NSaved= 5 IEnMin= 5 EnMin= -672.710590937331     IErMin= 5 ErrMin= 1.03D-02
 ErrMax= 1.03D-02 EMaxC= 1.00D-01 BMatC= 3.35D-02 BMatP= 6.16D-02
 IDIUse=3 WtCom= 8.97D-01 WtEn= 1.03D-01
 Coeff-Com: -0.505D-02 0.433D-01 0.328D+00-0.679D-01 0.702D+00
 Coeff-En:   0.000D+00 0.000D+00 0.341D+00 0.000D+00 0.659D+00
 Coeff:     -0.453D-02 0.388D-01 0.329D+00-0.609D-01 0.698D+00
 Gap=     0.230 Goal=   None    Shift=    0.000
 RMSDP=6.54D-04 MaxDP=3.00D-02 DE=-3.58D-01 OVMax= 3.91D-02

 Cycle   6  Pass 0  IDiag  1:
 E= -672.737965289115     Delta-E=       -0.027374351784 Rises=F Damp=F
 DIIS: error= 1.06D-03 at cycle   6 NSaved=   6.
 NSaved= 6 IEnMin= 6 EnMin= -672.737965289115     IErMin= 6 ErrMin= 1.06D-03
 ErrMax= 1.06D-03 EMaxC= 1.00D-01 BMatC= 4.59D-04 BMatP= 3.35D-02
 IDIUse=3 WtCom= 9.89D-01 WtEn= 1.06D-02
 Coeff-Com: -0.717D-02 0.242D-01 0.167D+00-0.628D-01 0.468D+00 0.410D+00
 Coeff-En:   0.000D+00 0.000D+00 0.000D+00 0.000D+00 0.000D+00 0.100D+01
 Coeff:     -0.710D-02 0.239D-01 0.166D+00-0.621D-01 0.463D+00 0.417D+00
 Gap=     0.228 Goal=   None    Shift=    0.000
 RMSDP=8.94D-05 MaxDP=3.59D-03 DE=-2.74D-02 OVMax= 8.67D-03

 Cycle   7  Pass 0  IDiag  1:
 E= -672.738397512887     Delta-E=       -0.000432223771 Rises=F Damp=F
 DIIS: error= 1.49D-04 at cycle   7 NSaved=   7.
 NSaved= 7 IEnMin= 7 EnMin= -672.738397512887     IErMin= 7 ErrMin= 1.49D-04
 ErrMax= 1.49D-04 EMaxC= 1.00D-01 BMatC= 1.11D-05 BMatP= 4.59D-04
 IDIUse=3 WtCom= 9.99D-01 WtEn= 1.49D-03
 Coeff-Com: -0.139D-02 0.335D-02 0.364D-01-0.155D-01 0.103D+00 0.149D+00
 Coeff-Com:  0.725D+00
 Coeff-En:   0.000D+00 0.000D+00 0.000D+00 0.000D+00 0.000D+00 0.000D+00
 Coeff-En:   0.100D+01
 Coeff:     -0.139D-02 0.335D-02 0.363D-01-0.155D-01 0.103D+00 0.149D+00
 Coeff:      0.725D+00
 Gap=     0.228 Goal=   None    Shift=    0.000
 RMSDP=1.47D-05 MaxDP=6.07D-04 DE=-4.32D-04 OVMax= 1.06D-03

 Cycle   8  Pass 0  IDiag  1:
 E= -672.738406933960     Delta-E=       -0.000009421074 Rises=F Damp=F
 DIIS: error= 4.40D-05 at cycle   8 NSaved=   8.
 NSaved= 8 IEnMin= 8 EnMin= -672.738406933960     IErMin= 8 ErrMin= 4.40D-05
 ErrMax= 4.40D-05 EMaxC= 1.00D-01 BMatC= 1.51D-06 BMatP= 1.11D-05
 IDIUse=1 WtCom= 1.00D+00 WtEn= 0.00D+00
 Coeff-Com: -0.185D-03-0.307D-03 0.102D-01-0.406D-02 0.262D-01 0.576D-01
 Coeff-Com:  0.411D+00 0.500D+00
 Coeff:     -0.185D-03-0.307D-03 0.102D-01-0.406D-02 0.262D-01 0.576D-01
 Coeff:      0.411D+00 0.500D+00
 Gap=     0.228 Goal=   None    Shift=    0.000
 RMSDP=5.23D-06 MaxDP=3.13D-04 DE=-9.42D-06 OVMax= 4.58D-04

 Initial convergence to 1.0D-05 achieved.  Increase integral accuracy.
 Cycle   9  Pass 1  IDiag  1:
 E= -672.738479832161     Delta-E=       -0.000072898201 Rises=F Damp=F
 DIIS: error= 2.11D-05 at cycle   1 NSaved=   1.
 NSaved= 1 IEnMin= 1 EnMin= -672.738479832161     IErMin= 1 ErrMin= 2.11D-05
 ErrMax= 2.11D-05 EMaxC= 1.00D-01 BMatC= 1.72D-07 BMatP= 1.72D-07
 IDIUse=1 WtCom= 1.00D+00 WtEn= 0.00D+00
 Coeff-Com:  0.100D+01
 Coeff:      0.100D+01
 Gap=     0.228 Goal=   None    Shift=    0.000
 RMSDP=5.23D-06 MaxDP=3.13D-04 DE=-7.29D-05 OVMax= 3.18D-04

 Cycle  10  Pass 1  IDiag  1:
 E= -672.738479716448     Delta-E=        0.000000115713 Rises=F Damp=F
 DIIS: error= 4.09D-05 at cycle   2 NSaved=   2.
 NSaved= 2 IEnMin= 1 EnMin= -672.738479832161     IErMin= 1 ErrMin= 2.11D-05
 ErrMax= 4.09D-05 EMaxC= 1.00D-01 BMatC= 3.02D-07 BMatP= 1.72D-07
 IDIUse=1 WtCom= 1.00D+00 WtEn= 0.00D+00
 Coeff-Com:  0.584D+00 0.416D+00
 Coeff:      0.584D+00 0.416D+00
 Gap=     0.228 Goal=   None    Shift=    0.000
 RMSDP=2.91D-06 MaxDP=1.21D-04 DE= 1.16D-07 OVMax= 2.75D-04

 Cycle  11  Pass 1  IDiag  1:
 E= -672.738480029962     Delta-E=       -0.000000313514 Rises=F Damp=F
 DIIS: error= 1.08D-05 at cycle   3 NSaved=   3.
 NSaved= 3 IEnMin= 3 EnMin= -672.738480029962     IErMin= 3 ErrMin= 1.08D-05
 ErrMax= 1.08D-05 EMaxC= 1.00D-01 BMatC= 2.27D-08 BMatP= 1.72D-07
 IDIUse=1 WtCom= 1.00D+00 WtEn= 0.00D+00
 Coeff-Com:  0.413D-01 0.213D+00 0.746D+00
 Coeff:      0.413D-01 0.213D+00 0.746D+00
 Gap=     0.228 Goal=   None    Shift=    0.000
 RMSDP=7.55D-07 MaxDP=2.59D-05 DE=-3.14D-07 OVMax= 5.93D-05

 Cycle  12  Pass 1  IDiag  1:
 E= -672.738480049616     Delta-E=       -0.000000019654 Rises=F Damp=F
 DIIS: error= 3.93D-06 at cycle   4 NSaved=   4.
 NSaved= 4 IEnMin= 4 EnMin= -672.738480049616     IErMin= 4 ErrMin= 3.93D-06
 ErrMax= 3.93D-06 EMaxC= 1.00D-01 BMatC= 5.98D-09 BMatP= 2.27D-08
 IDIUse=1 WtCom= 1.00D+00 WtEn= 0.00D+00
 Coeff-Com: -0.112D-01 0.113D+00 0.487D+00 0.411D+00
 Coeff:     -0.112D-01 0.113D+00 0.487D+00 0.411D+00
 Gap=     0.228 Goal=   None    Shift=    0.000
 RMSDP=2.92D-07 MaxDP=1.36D-05 DE=-1.97D-08 OVMax= 1.70D-05

 Cycle  13  Pass 1  IDiag  1:
 E= -672.738480054242     Delta-E=       -0.000000004627 Rises=F Damp=F
 DIIS: error= 8.35D-07 at cycle   5 NSaved=   5.
 NSaved= 5 IEnMin= 5 EnMin= -672.738480054242     IErMin= 5 ErrMin= 8.35D-07
 ErrMax= 8.35D-07 EMaxC= 1.00D-01 BMatC= 2.86D-10 BMatP= 5.98D-09
 IDIUse=1 WtCom= 1.00D+00 WtEn= 0.00D+00
 Coeff-Com: -0.959D-02 0.505D-01 0.228D+00 0.242D+00 0.489D+00
 Coeff:     -0.959D-02 0.505D-01 0.228D+00 0.242D+00 0.489D+00
 Gap=     0.228 Goal=   None    Shift=    0.000
 RMSDP=7.07D-08 MaxDP=3.19D-06 DE=-4.63D-09 OVMax= 3.75D-06

 Cycle  14  Pass 1  IDiag  1:
 E= -672.738480054454     Delta-E=       -0.000000000212 Rises=F Damp=F
 DIIS: error= 2.03D-07 at cycle   6 NSaved=   6.
 NSaved= 6 IEnMin= 6 EnMin= -672.738480054454     IErMin= 6 ErrMin= 2.03D-07
 ErrMax= 2.03D-07 EMaxC= 1.00D-01 BMatC= 2.04D-11 BMatP= 2.86D-10
 IDIUse=1 WtCom= 1.00D+00 WtEn= 0.00D+00
 Coeff-Com: -0.448D-02 0.191D-01 0.877D-01 0.103D+00 0.277D+00 0.517D+00
 Coeff:     -0.448D-02 0.191D-01 0.877D-01 0.103D+00 0.277D+00 0.517D+00
 Gap=     0.228 Goal=   None    Shift=    0.000
 RMSDP=1.77D-08 MaxDP=7.44D-07 DE=-2.12D-10 OVMax= 1.01D-06

 Cycle  15  Pass 1  IDiag  1:
 E= -672.738480054457     Delta-E=       -0.000000000004 Rises=F Damp=F
 DIIS: error= 5.10D-08 at cycle   7 NSaved=   7.
 NSaved= 7 IEnMin= 7 EnMin= -672.738480054457     IErMin= 7 ErrMin= 5.10D-08
 ErrMax= 5.10D-08 EMaxC= 1.00D-01 BMatC= 1.58D-12 BMatP= 2.04D-11
 IDIUse=1 WtCom= 1.00D+00 WtEn= 0.00D+00
 Coeff-Com: -0.111D-02 0.387D-02 0.177D-01 0.239D-01 0.811D-01 0.256D+00
 Coeff-Com:  0.619D+00
 Coeff:     -0.111D-02 0.387D-02 0.177D-01 0.239D-01 0.811D-01 0.256D+00
 Coeff:      0.619D+00
 Gap=     0.228 Goal=   None    Shift=    0.000
 RMSDP=6.42D-09 MaxDP=2.79D-07 DE=-3.64D-12 OVMax= 4.09D-07

 SCF Done:  E(RB3LYP) =  -672.738480054     A.U. after   15 cycles
             Convg  =    0.6421D-08             -V/T =  2.0099
 KE= 6.661632346776D+02 PE=-3.572415316368D+03 EE= 1.229147628334D+03
 Leave Link  502 at Thu Sep 30 01:58:24 2021, MaxMem= 1342177280 cpu:     320.2
 (Enter /sw/target/amd/app/gaussian/Gaussian09RevA.02_gcc-4.9.2/g09/l508.exe)
 QCSCF skips out because SCF is already converged.
 Leave Link  508 at Thu Sep 30 01:58:26 2021, MaxMem= 1342177280 cpu:       0.0
 (Enter /sw/target/amd/app/gaussian/Gaussian09RevA.02_gcc-4.9.2/g09/l601.exe)
 Copying SCF densities to generalized density rwf, IOpCl= 0 IROHF=0.

 **********************************************************************

            Population analysis using the SCF density.

 **********************************************************************

 Orbital symmetries:
       Occupied  (A) (A) (A) (A) (A) (A) (A) (A) (A) (A) (A) (A)
                 (A) (A) (A) (A) (A) (A) (A) (A) (A) (A) (A) (A)
                 (A) (A) (A) (A) (A) (A) (A) (A) (A) (A) (A) (A)
                 (A) (A) (A) (A) (A) (A) (A) (A) (A) (A) (A) (A)
                 (A) (A) (A) (A) (A) (A) (A) (A)
       Virtual   (A) (A) (A) (A) (A) (A) (A) (A) (A) (A) (A) (A)
                 (A) (A) (A) (A) (A) (A) (A) (A) (A) (A) (A) (A)
                 (A) (A) (A) (A) (A) (A) (A) (A) (A) (A) (A) (A)
                 (A) (A) (A) (A) (A) (A) (A) (A) (A) (A) (A) (A)
                 (A) (A) (A) (A) (A) (A) (A) (A) (A) (A) (A) (A)
                 (A) (A) (A) (A) (A) (A) (A) (A) (A) (A) (A) (A)
                 (A) (A) (A) (A) (A) (A) (A) (A) (A) (A) (A) (A)
                 (A) (A) (A) (A) (A) (A) (A) (A) (A) (A) (A) (A)
                 (A) (A) (A) (A) (A) (A) (A) (A) (A) (A) (A) (A)
                 (A) (A) (A) (A) (A) (A) (A) (A) (A) (A) (A) (A)
                 (A) (A) (A) (A) (A) (A) (A) (A) (A) (A) (A) (A)
                 (A) (A) (A) (A) (A) (A) (A) (A) (A) (A) (A) (A)
                 (A) (A) (A) (A) (A) (A) (A) (A) (A) (A) (A) (A)
                 (A) (A) (A) (A) (A) (A) (A) (A) (A) (A) (A) (A)
                 (A) (A) (A) (A) (A) (A) (A) (A) (A) (A) (A) (A)
                 (A) (A) (A) (A) (A) (A) (A) (A) (A) (A) (A) (A)
                 (A) (A) (A) (A) (A) (A) (A) (A) (A) (A) (A)
 The electronic state is 1-A.
 Alpha  occ. eigenvalues --  -19.19528 -19.11777 -14.36487 -10.33697 -10.24948
 Alpha  occ. eigenvalues --  -10.22603 -10.22237 -10.19683 -10.18607 -10.18399
 Alpha  occ. eigenvalues --  -10.18260 -10.18210 -10.18181 -10.17822 -10.17728
 Alpha  occ. eigenvalues --   -1.09056  -1.00769  -0.93675  -0.85110  -0.77551
 Alpha  occ. eigenvalues --   -0.77028  -0.75270  -0.73060  -0.68588  -0.65622
 Alpha  occ. eigenvalues --   -0.64095  -0.61432  -0.58351  -0.55243  -0.52372
 Alpha  occ. eigenvalues --   -0.49374  -0.48664  -0.47379  -0.45935  -0.45306
 Alpha  occ. eigenvalues --   -0.44069  -0.43112  -0.42814  -0.42107  -0.40873
 Alpha  occ. eigenvalues --   -0.40219  -0.39727  -0.38966  -0.38195  -0.37532
 Alpha  occ. eigenvalues --   -0.36935  -0.35638  -0.35390  -0.34895  -0.34506
 Alpha  occ. eigenvalues --   -0.33519  -0.31565  -0.26873  -0.24090  -0.23920
 Alpha  occ. eigenvalues --   -0.22509
 Alpha virt. eigenvalues --    0.00273   0.00586   0.04918   0.07761   0.09349
 Alpha virt. eigenvalues --    0.10133   0.11976   0.13000   0.13505   0.14073
 Alpha virt. eigenvalues --    0.14593   0.15369   0.15897   0.16673   0.16766
 Alpha virt. eigenvalues --    0.17325   0.17442   0.18233   0.18639   0.19465
 Alpha virt. eigenvalues --    0.20568   0.21233   0.21348   0.22862   0.23962
 Alpha virt. eigenvalues --    0.25329   0.26433   0.26955   0.31524   0.33035
 Alpha virt. eigenvalues --    0.34515   0.36071   0.37455   0.39422   0.47581
 Alpha virt. eigenvalues --    0.48494   0.48923   0.50403   0.50944   0.51780
 Alpha virt. eigenvalues --    0.52809   0.53396   0.55432   0.55611   0.55752
 Alpha virt. eigenvalues --    0.57170   0.57859   0.58795   0.59937   0.60174
 Alpha virt. eigenvalues --    0.60583   0.61730   0.62166   0.63053   0.64099
 Alpha virt. eigenvalues --    0.65102   0.66066   0.66707   0.68005   0.69716
 Alpha virt. eigenvalues --    0.71045   0.72117   0.73968   0.75920   0.78155
 Alpha virt. eigenvalues --    0.79329   0.80765   0.82717   0.83373   0.83817
 Alpha virt. eigenvalues --    0.84810   0.85780   0.86532   0.87723   0.88431
 Alpha virt. eigenvalues --    0.88898   0.89731   0.90081   0.90625   0.92288
 Alpha virt. eigenvalues --    0.92926   0.93422   0.94061   0.95786   0.97292
 Alpha virt. eigenvalues --    0.97607   0.98722   1.01097   1.01261   1.02540
 Alpha virt. eigenvalues --    1.03961   1.06842   1.07846   1.09705   1.10950
 Alpha virt. eigenvalues --    1.12256   1.13730   1.17088   1.19285   1.21018
 Alpha virt. eigenvalues --    1.21677   1.26191   1.26640   1.28202   1.31520
 Alpha virt. eigenvalues --    1.33948   1.37269   1.39470   1.40808   1.43127
 Alpha virt. eigenvalues --    1.45246   1.45425   1.47505   1.48397   1.50810
 Alpha virt. eigenvalues --    1.52183   1.55142   1.60533   1.63793   1.68162
 Alpha virt. eigenvalues --    1.72555   1.74472   1.75631   1.78255   1.78625
 Alpha virt. eigenvalues --    1.80967   1.81671   1.82350   1.83810   1.84602
 Alpha virt. eigenvalues --    1.86817   1.87973   1.90021   1.90273   1.92442
 Alpha virt. eigenvalues --    1.93017   1.95173   1.97201   1.98644   2.00331
 Alpha virt. eigenvalues --    2.00765   2.01815   2.04760   2.05825   2.08568
 Alpha virt. eigenvalues --    2.09742   2.11764   2.13660   2.16379   2.16996
 Alpha virt. eigenvalues --    2.19006   2.19749   2.23323   2.25171   2.25960
 Alpha virt. eigenvalues --    2.29924   2.30325   2.30928   2.31665   2.32496
 Alpha virt. eigenvalues --    2.33170   2.34323   2.35831   2.37010   2.43517
 Alpha virt. eigenvalues --    2.45853   2.46394   2.52734   2.53485   2.58669
 Alpha virt. eigenvalues --    2.60858   2.62894   2.64486   2.65706   2.69091
 Alpha virt. eigenvalues --    2.69992   2.71365   2.73828   2.76073   2.78836
 Alpha virt. eigenvalues --    2.79911   2.84743   2.93833   2.98155   3.04375
 Alpha virt. eigenvalues --    3.19089   3.29136   3.43621   4.01264   4.09678
 Alpha virt. eigenvalues --    4.10761   4.12413   4.16149   4.19180   4.24385
 Alpha virt. eigenvalues --    4.27581   4.35059   4.39930   4.43486   4.45085
 Alpha virt. eigenvalues --    4.48832   4.58189   4.77197
          Condensed to atoms (all electrons):
              1          2          3          4          5          6
     1  C    5.121666   0.375162  -0.062818  -0.001259  -0.000107  -0.006192
     2  C    0.375162   4.881989   0.276117  -0.025911   0.002602   0.003722
     3  N   -0.062818   0.276117   6.990536   0.326808  -0.088229  -0.088171
     4  C   -0.001259  -0.025911   0.326808   4.157643   0.535954   0.252978
     5  O   -0.000107   0.002602  -0.088229   0.535954   8.104949  -0.067021
     6  O   -0.006192   0.003722  -0.088171   0.252978  -0.067021   8.354901
     7  C    0.000306  -0.000050   0.001795  -0.009095  -0.003343   0.226651
     8  C   -0.000019   0.000031   0.000158  -0.002101  -0.000882  -0.057597
     9  C   -0.000000  -0.000000   0.000001   0.000232   0.000281   0.003460
    10  C    0.000000   0.000000   0.000000   0.000008   0.000002  -0.000017
    11  C   -0.000001  -0.000001   0.000002  -0.000004  -0.000009   0.003256
    12  C    0.000019  -0.000035  -0.000176   0.001162  -0.000195  -0.064358
    13  C   -0.000098  -0.000182  -0.000044   0.000067   0.000028  -0.003104
    14  C   -0.000549  -0.040065   0.298321  -0.026448   0.002289   0.002539
    15  C   -0.000055  -0.003293  -0.063270  -0.003123  -0.002729  -0.000104
    16  H    0.374134  -0.035332  -0.001026   0.000352  -0.000009   0.000042
    17  H    0.354886  -0.028488   0.004997  -0.000030   0.000000   0.000133
    18  H    0.379818  -0.030232  -0.003628   0.001370  -0.000008   0.007865
    19  H   -0.046270   0.377145  -0.037745  -0.005646   0.000054   0.004811
    20  H   -0.043068   0.378069  -0.036714   0.002565  -0.000079   0.000295
    21  H    0.000003  -0.000002  -0.000081   0.001429   0.013967  -0.006712
    22  H   -0.000000   0.000000  -0.000000  -0.000011  -0.000003  -0.000046
    23  H    0.000000  -0.000000   0.000000   0.000000   0.000000   0.000002
    24  H   -0.000000  -0.000000  -0.000000   0.000001  -0.000000  -0.000044
    25  H    0.000000   0.000004  -0.000000   0.000005   0.000000   0.000329
    26  H    0.000141  -0.000037   0.000004  -0.000026   0.000001   0.001279
    27  H   -0.000014  -0.000172  -0.000020   0.000098  -0.000010   0.004163
    28  H    0.001189  -0.001847  -0.044132   0.004340   0.000551  -0.000039
    29  H   -0.000031   0.004969  -0.035210  -0.003428   0.011594   0.000181
    30  H    0.000027   0.002677  -0.003353   0.000100   0.000009  -0.000002
    31  H    0.000006  -0.000030   0.005005  -0.000005  -0.000024   0.000000
    32  H   -0.000009  -0.000076  -0.005272   0.003131   0.003869  -0.000010
              7          8          9         10         11         12
     1  C    0.000306  -0.000019  -0.000000   0.000000  -0.000001   0.000019
     2  C   -0.000050   0.000031  -0.000000   0.000000  -0.000001  -0.000035
     3  N    0.001795   0.000158   0.000001   0.000000   0.000002  -0.000176
     4  C   -0.009095  -0.002101   0.000232   0.000008  -0.000004   0.001162
     5  O   -0.003343  -0.000882   0.000281   0.000002  -0.000009  -0.000195
     6  O    0.226651  -0.057597   0.003460  -0.000017   0.003256  -0.064358
     7  C    4.630565   0.479332  -0.009784  -0.048884  -0.002124   0.518230
     8  C    0.479332   5.048646   0.500089  -0.025191  -0.054195  -0.061580
     9  C   -0.009784   0.500089   4.883815   0.544354  -0.028003  -0.033612
    10  C   -0.048884  -0.025191   0.544354   4.878122   0.518894  -0.024692
    11  C   -0.002124  -0.054195  -0.028003   0.518894   4.943548   0.551871
    12  C    0.518230  -0.061580  -0.033612  -0.024692   0.551871   4.773685
    13  C   -0.062898   0.010082  -0.000186   0.008164  -0.065767   0.336817
    14  C   -0.000011  -0.000006  -0.000000   0.000000  -0.000000   0.000002
    15  C    0.000003   0.000000  -0.000000   0.000000   0.000000  -0.000000
    16  H   -0.000011   0.000000  -0.000000  -0.000000   0.000000  -0.000000
    17  H   -0.000011  -0.000000  -0.000000  -0.000000   0.000000  -0.000000
    18  H    0.000549   0.000042  -0.000001   0.000000  -0.000005  -0.000332
    19  H    0.000138   0.000006  -0.000000   0.000000   0.000000  -0.000205
    20  H    0.000010   0.000001  -0.000000   0.000000  -0.000000  -0.000002
    21  H   -0.030053   0.347000  -0.039754   0.004472   0.000554   0.004219
    22  H    0.003268  -0.038977   0.359084  -0.041744   0.004572   0.000820
    23  H    0.000872   0.004682  -0.042611   0.355432  -0.040010   0.004040
    24  H    0.005380   0.000124   0.005092  -0.045902   0.357646  -0.042086
    25  H    0.003586  -0.000147   0.000010   0.000192  -0.003130  -0.029441
    26  H   -0.004042  -0.000156   0.000056  -0.000213  -0.000375  -0.026974
    27  H   -0.004152   0.000058   0.000006  -0.000186   0.001974  -0.027550
    28  H   -0.000001   0.000000   0.000000  -0.000000   0.000000   0.000000
    29  H   -0.000002  -0.000004   0.000000  -0.000000  -0.000000   0.000000
    30  H    0.000000  -0.000000  -0.000000  -0.000000   0.000000   0.000000
    31  H   -0.000000   0.000000   0.000000  -0.000000  -0.000000   0.000000
    32  H    0.000000  -0.000000  -0.000000  -0.000000   0.000000   0.000000
             13         14         15         16         17         18
     1  C   -0.000098  -0.000549  -0.000055   0.374134   0.354886   0.379818
     2  C   -0.000182  -0.040065  -0.003293  -0.035332  -0.028488  -0.030232
     3  N   -0.000044   0.298321  -0.063270  -0.001026   0.004997  -0.003628
     4  C    0.000067  -0.026448  -0.003123   0.000352  -0.000030   0.001370
     5  O    0.000028   0.002289  -0.002729  -0.000009   0.000000  -0.000008
     6  O   -0.003104   0.002539  -0.000104   0.000042   0.000133   0.007865
     7  C   -0.062898  -0.000011   0.000003  -0.000011  -0.000011   0.000549
     8  C    0.010082  -0.000006   0.000000   0.000000  -0.000000   0.000042
     9  C   -0.000186  -0.000000  -0.000000  -0.000000  -0.000000  -0.000001
    10  C    0.008164   0.000000   0.000000  -0.000000  -0.000000   0.000000
    11  C   -0.065767  -0.000000   0.000000   0.000000   0.000000  -0.000005
    12  C    0.336817   0.000002  -0.000000  -0.000000  -0.000000  -0.000332
    13  C    5.215766  -0.000000   0.000000   0.000002  -0.000002   0.000222
    14  C   -0.000000   4.868317   0.375652   0.001246  -0.000047  -0.000103
    15  C    0.000000   0.375652   5.118015   0.000040   0.000010  -0.000010
    16  H    0.000002   0.001246   0.000040   0.567060  -0.026973  -0.029976
    17  H   -0.000002  -0.000047   0.000010  -0.026973   0.583559  -0.027937
    18  H    0.000222  -0.000103  -0.000010  -0.029976  -0.027937   0.529218
    19  H    0.000517   0.004277   0.000381   0.005052   0.000803  -0.005818
    20  H    0.000002  -0.002715   0.000603  -0.003538  -0.001783   0.004674
    21  H   -0.000138  -0.000002  -0.000001  -0.000000  -0.000000   0.000003
    22  H    0.000008   0.000000   0.000000   0.000000   0.000000   0.000000
    23  H   -0.000192  -0.000000   0.000000   0.000000  -0.000000   0.000000
    24  H   -0.011396   0.000000  -0.000000   0.000000   0.000000  -0.000000
    25  H    0.362559   0.000000   0.000000  -0.000000   0.000000  -0.000000
    26  H    0.364672  -0.000000  -0.000000  -0.000002   0.000024   0.000879
    27  H    0.362577   0.000000   0.000000   0.000001  -0.000001  -0.000046
    28  H   -0.000000   0.376959  -0.049748   0.000956  -0.000162  -0.000022
    29  H   -0.000000   0.375657  -0.043124  -0.000212  -0.000000   0.000014
    30  H   -0.000000  -0.035562   0.375960  -0.000005   0.000001   0.000001
    31  H    0.000000  -0.027923   0.359063  -0.000000  -0.000000   0.000000
    32  H   -0.000000  -0.028847   0.378837   0.000001   0.000000   0.000000
             19         20         21         22         23         24
     1  C   -0.046270  -0.043068   0.000003  -0.000000   0.000000  -0.000000
     2  C    0.377145   0.378069  -0.000002   0.000000  -0.000000  -0.000000
     3  N   -0.037745  -0.036714  -0.000081  -0.000000   0.000000  -0.000000
     4  C   -0.005646   0.002565   0.001429  -0.000011   0.000000   0.000001
     5  O    0.000054  -0.000079   0.013967  -0.000003   0.000000  -0.000000
     6  O    0.004811   0.000295  -0.006712  -0.000046   0.000002  -0.000044
     7  C    0.000138   0.000010  -0.030053   0.003268   0.000872   0.005380
     8  C    0.000006   0.000001   0.347000  -0.038977   0.004682   0.000124
     9  C   -0.000000  -0.000000  -0.039754   0.359084  -0.042611   0.005092
    10  C    0.000000   0.000000   0.004472  -0.041744   0.355432  -0.045902
    11  C    0.000000  -0.000000   0.000554   0.004572  -0.040010   0.357646
    12  C   -0.000205  -0.000002   0.004219   0.000820   0.004040  -0.042086
    13  C    0.000517   0.000002  -0.000138   0.000008  -0.000192  -0.011396
    14  C    0.004277  -0.002715  -0.000002   0.000000  -0.000000   0.000000
    15  C    0.000381   0.000603  -0.000001   0.000000   0.000000  -0.000000
    16  H    0.005052  -0.003538  -0.000000   0.000000   0.000000   0.000000
    17  H    0.000803  -0.001783  -0.000000   0.000000  -0.000000   0.000000
    18  H   -0.005818   0.004674   0.000003   0.000000   0.000000  -0.000000
    19  H    0.570017  -0.032838  -0.000003   0.000000   0.000000  -0.000000
    20  H   -0.032838   0.582102   0.000000   0.000000   0.000000  -0.000000
    21  H   -0.000003   0.000000   0.542505  -0.005590  -0.000168   0.000012
    22  H    0.000000   0.000000  -0.005590   0.591934  -0.005435  -0.000202
    23  H    0.000000   0.000000  -0.000168  -0.005435   0.603917  -0.005500
    24  H   -0.000000  -0.000000   0.000012  -0.000202  -0.005500   0.603856
    25  H   -0.000007   0.000000   0.000002   0.000000  -0.000013   0.006356
    26  H   -0.000012   0.000002   0.000000  -0.000000   0.000003   0.000294
    27  H    0.001635  -0.000001   0.000000  -0.000000   0.000003   0.000109
    28  H    0.000019  -0.000347   0.000000  -0.000000  -0.000000  -0.000000
    29  H   -0.000276   0.000184   0.000020  -0.000000  -0.000000   0.000000
    30  H   -0.000404   0.002333  -0.000000  -0.000000   0.000000   0.000000
    31  H   -0.000009  -0.000176   0.000000  -0.000000  -0.000000   0.000000
    32  H    0.000045  -0.000056  -0.000000  -0.000000  -0.000000   0.000000
             25         26         27         28         29         30
     1  C    0.000000   0.000141  -0.000014   0.001189  -0.000031   0.000027
     2  C    0.000004  -0.000037  -0.000172  -0.001847   0.004969   0.002677
     3  N   -0.000000   0.000004  -0.000020  -0.044132  -0.035210  -0.003353
     4  C    0.000005  -0.000026   0.000098   0.004340  -0.003428   0.000100
     5  O    0.000000   0.000001  -0.000010   0.000551   0.011594   0.000009
     6  O    0.000329   0.001279   0.004163  -0.000039   0.000181  -0.000002
     7  C    0.003586  -0.004042  -0.004152  -0.000001  -0.000002   0.000000
     8  C   -0.000147  -0.000156   0.000058   0.000000  -0.000004  -0.000000
     9  C    0.000010   0.000056   0.000006   0.000000   0.000000  -0.000000
    10  C    0.000192  -0.000213  -0.000186  -0.000000  -0.000000  -0.000000
    11  C   -0.003130  -0.000375   0.001974   0.000000  -0.000000   0.000000
    12  C   -0.029441  -0.026974  -0.027550   0.000000   0.000000   0.000000
    13  C    0.362559   0.364672   0.362577  -0.000000  -0.000000  -0.000000
    14  C    0.000000  -0.000000   0.000000   0.376959   0.375657  -0.035562
    15  C    0.000000  -0.000000   0.000000  -0.049748  -0.043124   0.375960
    16  H   -0.000000  -0.000002   0.000001   0.000956  -0.000212  -0.000005
    17  H    0.000000   0.000024  -0.000001  -0.000162  -0.000000   0.000001
    18  H   -0.000000   0.000879  -0.000046  -0.000022   0.000014   0.000001
    19  H   -0.000007  -0.000012   0.001635   0.000019  -0.000276  -0.000404
    20  H    0.000000   0.000002  -0.000001  -0.000347   0.000184   0.002333
    21  H    0.000002   0.000000   0.000000   0.000000   0.000020  -0.000000
    22  H    0.000000  -0.000000  -0.000000  -0.000000  -0.000000  -0.000000
    23  H   -0.000013   0.000003   0.000003  -0.000000  -0.000000   0.000000
    24  H    0.006356   0.000294   0.000109  -0.000000   0.000000   0.000000
    25  H    0.565405  -0.029107  -0.028619  -0.000000  -0.000000  -0.000000
    26  H   -0.029107   0.557940  -0.030144   0.000000  -0.000000   0.000000
    27  H   -0.028619  -0.030144   0.556570  -0.000000  -0.000000  -0.000000
    28  H   -0.000000   0.000000  -0.000000   0.597070  -0.030354  -0.004469
    29  H   -0.000000  -0.000000  -0.000000  -0.030354   0.541078   0.004761
    30  H   -0.000000   0.000000  -0.000000  -0.004469   0.004761   0.574347
    31  H   -0.000000   0.000000  -0.000000  -0.000274  -0.000188  -0.028695
    32  H   -0.000000   0.000000  -0.000000   0.004846  -0.004904  -0.031049
             31         32
     1  C    0.000006  -0.000009
     2  C   -0.000030  -0.000076
     3  N    0.005005  -0.005272
     4  C   -0.000005   0.003131
     5  O   -0.000024   0.003869
     6  O    0.000000  -0.000010
     7  C   -0.000000   0.000000
     8  C    0.000000  -0.000000
     9  C    0.000000  -0.000000
    10  C   -0.000000  -0.000000
    11  C   -0.000000   0.000000
    12  C    0.000000   0.000000
    13  C    0.000000  -0.000000
    14  C   -0.027923  -0.028847
    15  C    0.359063   0.378837
    16  H   -0.000000   0.000001
    17  H   -0.000000   0.000000
    18  H    0.000000   0.000000
    19  H   -0.000009   0.000045
    20  H   -0.000176  -0.000056
    21  H    0.000000  -0.000000
    22  H   -0.000000  -0.000000
    23  H   -0.000000  -0.000000
    24  H    0.000000   0.000000
    25  H   -0.000000  -0.000000
    26  H    0.000000   0.000000
    27  H   -0.000000  -0.000000
    28  H   -0.000274   0.004846
    29  H   -0.000188  -0.004904
    30  H   -0.028695  -0.031049
    31  H    0.575283  -0.026743
    32  H   -0.026743   0.531777
 Mulliken atomic charges:
              1
     1  C   -0.446869
     2  C   -0.136734
     3  N   -0.433853
     4  C    0.788849
     5  O   -0.513502
     6  O   -0.573193
     7  C    0.303779
     8  C   -0.149395
     9  C   -0.142526
    10  C   -0.122812
    11  C   -0.188695
    12  C    0.120372
    13  C   -0.517478
    14  C   -0.142980
    15  C   -0.443106
    16  H    0.148202
    17  H    0.141023
    18  H    0.173465
    19  H    0.164334
    20  H    0.150478
    21  H    0.168317
    22  H    0.132323
    23  H    0.124977
    24  H    0.126259
    25  H    0.152015
    26  H    0.165794
    27  H    0.163720
    28  H    0.145465
    29  H    0.179277
    30  H    0.143325
    31  H    0.144710
    32  H    0.174459
 Sum of Mulliken atomic charges =  -0.00000
 Mulliken charges with hydrogens summed into heavy atoms:
              1
     1  C    0.015821
     2  C    0.178078
     3  N   -0.433853
     4  C    0.788849
     5  O   -0.513502
     6  O   -0.573193
     7  C    0.303779
     8  C    0.018922
     9  C   -0.010203
    10  C    0.002166
    11  C   -0.062436
    12  C    0.120372
    13  C   -0.035948
    14  C    0.181761
    15  C    0.019388
 Sum of Mulliken charges with hydrogens summed into heavy atoms =  -0.00000
 Electronic spatial extent (au):  <R**2>=           3963.1058
 Charge=              0.0000 electrons
 Dipole moment (field-independent basis, Debye):
    X=             -1.2554    Y=              2.4395    Z=              0.2834  Tot=              2.7582
 Quadrupole moment (field-independent basis, Debye-Ang):
   XX=            -76.0270   YY=            -90.1153   ZZ=            -90.3229
   XY=             -2.0725   XZ=             -1.0390   YZ=             -3.3245
 Traceless Quadrupole moment (field-independent basis, Debye-Ang):
   XX=              9.4614   YY=             -4.6269   ZZ=             -4.8345
   XY=             -2.0725   XZ=             -1.0390   YZ=             -3.3245
 Octapole moment (field-independent basis, Debye-Ang**2):
  XXX=            -18.3945  YYY=              6.3517  ZZZ=             -1.2154  XYY=              3.1557
  XXY=             -3.4170  XXZ=             -0.0559  XZZ=             -9.8109  YZZ=             -1.7863
  YYZ=              4.2713  XYZ=             -7.2918
 Hexadecapole moment (field-independent basis, Debye-Ang**3):
 XXXX=          -3652.0161 YYYY=          -1067.9107 ZZZZ=           -388.8020 XXXY=              8.8217
 XXXZ=            -28.4558 YYYX=            -14.4993 YYYZ=            -15.2393 ZZZX=             -4.3478
 ZZZY=             -2.9008 XXYY=           -787.9088 XXZZ=           -743.6935 YYZZ=           -237.3114
 XXYZ=            -30.6978 YYXZ=              6.7054 ZZXY=              6.7951
 N-N= 1.004365973302D+03 E-N=-3.572415331871D+03  KE= 6.661632346776D+02
 No NMR shielding tensors so no spin-rotation constants.
 Leave Link  601 at Thu Sep 30 01:58:28 2021, MaxMem= 1342177280 cpu:       1.8
 (Enter /sw/target/amd/app/gaussian/Gaussian09RevA.02_gcc-4.9.2/g09/l701.exe)
 Compute integral first derivatives.
 ... and contract with generalized density number  0.
 Leave Link  701 at Thu Sep 30 01:58:31 2021, MaxMem= 1342177280 cpu:       1.6
 (Enter /sw/target/amd/app/gaussian/Gaussian09RevA.02_gcc-4.9.2/g09/l702.exe)
 L702 exits ... SP integral derivatives will be done elsewhere.
 Leave Link  702 at Thu Sep 30 01:58:31 2021, MaxMem= 1342177280 cpu:       0.0
 (Enter /sw/target/amd/app/gaussian/Gaussian09RevA.02_gcc-4.9.2/g09/l703.exe)
 Compute integral first derivatives, UseDBF=F ICtDFT=           0.
 Integral derivatives from FoFDir, PRISM(SPDF).
 Calling FoFJK, ICntrl=      2127 FMM=F ISym2X=0 I1Cent= 0 IOpClX= 0 NMat=1 NMatS=1 NMatT=0.
 FoFCou: FMM=F IPFlag=           0 FMFlag=      100000 FMFlg1=         800
         NFxFlg=           0 DoJE=F BraDBF=F KetDBF=F FulRan=T
         Omega=  0.000000  0.000000  1.000000  0.000000  0.000000 ICntrl=    2127 IOpCl=  0
         NMat0=    1 NMatS0=    1 NMatT0=    0 NMatD0=    1 NMtDS0=    0 NMtDT0=    0
         I1Cent=           0 NGrid=           0.
 Symmetry not used in FoFCou.
 Leave Link  703 at Thu Sep 30 02:00:06 2021, MaxMem= 1342177280 cpu:      98.5
 (Enter /sw/target/amd/app/gaussian/Gaussian09RevA.02_gcc-4.9.2/g09/l716.exe)
 Dipole        =-4.93911325D-01 9.59783896D-01 1.11498009D-01
 ***** Axes restored to original set *****
 -------------------------------------------------------------------
 Center     Atomic                   Forces (Hartrees/Bohr)
 Number     Number              X              Y              Z
 -------------------------------------------------------------------
      1        6          -0.005116591    0.005569463   -0.000486868
      2        6           0.002397151    0.006619462   -0.004700098
      3        7           0.014062270    0.019597880   -0.002558116
      4        6           0.005106449   -0.006867345    0.010441353
      5        8          -0.011690116    0.005501263   -0.012283270
      6        8          -0.002784540   -0.003305060   -0.000938616
      7        6          -0.002403913   -0.010486897    0.009572581
      8        6           0.000595915   -0.000499450    0.007591831
      9        6          -0.000367985    0.001542830   -0.003832314
     10        6           0.002022572    0.002455768   -0.000220060
     11        6           0.001320552   -0.002288161    0.009793827
     12        6          -0.000100953    0.001470760   -0.004686049
     13        6           0.001662164   -0.002670089   -0.002621510
     14        6           0.006890469   -0.000770229    0.006780815
     15        6           0.002130462   -0.005867006   -0.001661530
     16        1          -0.001614841   -0.001174081    0.000536355
     17        1          -0.002160137    0.000050173   -0.000758926
     18        1           0.001042694   -0.002073131   -0.000029059
     19        1          -0.001496897   -0.000804016   -0.000711364
     20        1           0.003158364   -0.000957720    0.002222426
     21        1          -0.000668880   -0.002529856   -0.004805614
     22        1          -0.000785390   -0.000774859    0.000081560
     23        1          -0.000042418   -0.000051682   -0.000412986
     24        1          -0.002127530   -0.002335096   -0.001019749
     25        1          -0.000129048    0.001204152    0.001452938
     26        1          -0.002142112   -0.003182566   -0.002361398
     27        1          -0.004150639   -0.000976793   -0.000483916
     28        1          -0.000608442    0.002038073   -0.001740545
     29        1          -0.000335013    0.002762281   -0.002263110
     30        1          -0.001035996   -0.001145143   -0.000944051
     31        1          -0.000148360   -0.001466569    0.000031081
     32        1          -0.000479258    0.001413645    0.001014381
 -------------------------------------------------------------------
 Cartesian Forces:  Max     0.019597880 RMS     0.004515650
 Leave Link  716 at Thu Sep 30 02:00:07 2021, MaxMem= 1342177280 cpu:       0.1
 (Enter /sw/target/amd/app/gaussian/Gaussian09RevA.02_gcc-4.9.2/g09/l103.exe)

 GradGradGradGradGradGradGradGradGradGradGradGradGradGradGradGradGradGrad
 Berny optimization.
 Internal  Forces:  Max     0.026382587 RMS     0.004672007
 Search for a local minimum.
 Step number   1 out of a maximum of  165
 All quantities printed in internal units (Hartrees-Bohrs-Radians)
 RMS Force = .46720D-02 SwitMx=.10000D-02 MixMth= 1
 Mixed Optimization -- RFO/linear search
 Second derivative matrix not updated -- first step.
     Eigenvalues ---    0.00482   0.00491   0.00751   0.00890   0.00922
     Eigenvalues ---    0.01145   0.01467   0.01527   0.01726   0.01779
     Eigenvalues ---    0.01806   0.01997   0.02060   0.02102   0.02130
     Eigenvalues ---    0.02154   0.02156   0.02161   0.02166   0.04255
     Eigenvalues ---    0.04285   0.05505   0.05518   0.05542   0.05587
     Eigenvalues ---    0.05659   0.05671   0.07255   0.07318   0.09442
     Eigenvalues ---    0.09466   0.12845   0.12862   0.15999   0.15999
     Eigenvalues ---    0.16000   0.16000   0.16000   0.16000   0.16000
     Eigenvalues ---    0.16000   0.16000   0.16000   0.16000   0.16000
     Eigenvalues ---    0.16000   0.21945   0.21957   0.21999   0.22485
     Eigenvalues ---    0.24461   0.24939   0.24947   0.24965   0.24981
     Eigenvalues ---    0.25000   0.25000   0.25000   0.30225   0.30290
     Eigenvalues ---    0.32261   0.34119   0.34149   0.34170   0.34183
     Eigenvalues ---    0.34208   0.34222   0.34251   0.34264   0.34288
     Eigenvalues ---    0.34290   0.34314   0.34339   0.34344   0.35097
     Eigenvalues ---    0.35149   0.35171   0.35346   0.36892   0.37192
     Eigenvalues ---    0.41787   0.41941   0.42911   0.45383   0.45975
     Eigenvalues ---    0.46054   0.46347   0.46555   0.47088   0.92107
     Eigenvalues --- 1000.000001000.000001000.000001000.000001000.00000
     Eigenvalues --- 1000.000001000.000001000.000001000.000001000.00000
     Eigenvalues --- 1000.000001000.000001000.000001000.000001000.00000
[...]
 (Enter /sw/target/amd/app/gaussian/Gaussian09RevA.02_gcc-4.9.2/g09/l607.exe)
 ******************************Gaussian NBO Version 3.1******************************
             N A T U R A L   A T O M I C   O R B I T A L   A N D
          N A T U R A L   B O N D   O R B I T A L   A N A L Y S I S
 ******************************Gaussian NBO Version 3.1******************************
       /RESON  / : Allow strongly delocalized NBO set

 Analyzing the CI density

 Job title: CCN(C(=O)Oc1ccccc1C)CC_conf_0                                   

 Storage needed:    204606 in NPA (1342171840 available)


 NATURAL POPULATIONS:  Natural atomic orbital occupancies 
                                                          
   NAO  Atom  No  lang   Type(AO)    Occupancy
 --------------------------------------------
     1    C    1  S      Cor( 1S)     1.99945
     2    C    1  S      Val( 2S)     1.11141
     3    C    1  S      Ryd( 3S)     0.00044
     4    C    1  S      Ryd( 4S)     0.00001
     5    C    1  px     Val( 2p)     1.24833
     6    C    1  px     Ryd( 3p)     0.00150
     7    C    1  py     Val( 2p)     1.23324
     8    C    1  py     Ryd( 3p)     0.00135
     9    C    1  pz     Val( 2p)     1.08777
    10    C    1  pz     Ryd( 3p)     0.00096
    11    C    1  dxy    Ryd( 3d)     0.00052
    12    C    1  dxz    Ryd( 3d)     0.00083
    13    C    1  dyz    Ryd( 3d)     0.00033
    14    C    1  dx2y2  Ryd( 3d)     0.00086
    15    C    1  dz2    Ryd( 3d)     0.00068

    16    C    2  S      Cor( 1S)     1.99934
    17    C    2  S      Val( 2S)     1.01689
    18    C    2  S      Ryd( 3S)     0.00135
    19    C    2  S      Ryd( 4S)     0.00003
    20    C    2  px     Val( 2p)     1.24636
    21    C    2  px     Ryd( 3p)     0.00563
    22    C    2  py     Val( 2p)     0.88142
    23    C    2  py     Ryd( 3p)     0.00211
    24    C    2  pz     Val( 2p)     1.09992
    25    C    2  pz     Ryd( 3p)     0.00115
    26    C    2  dxy    Ryd( 3d)     0.00070
    27    C    2  dxz    Ryd( 3d)     0.00103
    28    C    2  dyz    Ryd( 3d)     0.00119
    29    C    2  dx2y2  Ryd( 3d)     0.00117
    30    C    2  dz2    Ryd( 3d)     0.00081

    31    N    3  S      Cor( 1S)     1.99930
    32    N    3  S      Val( 2S)     1.20578
    33    N    3  S      Ryd( 3S)     0.00160
    34    N    3  S      Ryd( 4S)     0.00005
    35    N    3  px     Val( 2p)     1.29944
    36    N    3  px     Ryd( 3p)     0.00137
    37    N    3  py     Val( 2p)     1.30011
    38    N    3  py     Ryd( 3p)     0.00153
    39    N    3  pz     Val( 2p)     1.67614
    40    N    3  pz     Ryd( 3p)     0.00598
    41    N    3  dxy    Ryd( 3d)     0.00072
    42    N    3  dxz    Ryd( 3d)     0.00058
    43    N    3  dyz    Ryd( 3d)     0.00043
    44    N    3  dx2y2  Ryd( 3d)     0.00073
    45    N    3  dz2    Ryd( 3d)     0.00057

    46    C    4  S      Cor( 1S)     1.99936
    47    C    4  S      Val( 2S)     0.69490
    48    C    4  S      Ryd( 3S)     0.00270
    49    C    4  S      Ryd( 4S)     0.00052
    50    C    4  px     Val( 2p)     0.76767
    51    C    4  px     Ryd( 3p)     0.00624
    52    C    4  py     Val( 2p)     0.72417
    53    C    4  py     Ryd( 3p)     0.02166
    54    C    4  pz     Val( 2p)     0.83242
    55    C    4  pz     Ryd( 3p)     0.00285
    56    C    4  dxy    Ryd( 3d)     0.00407
    57    C    4  dxz    Ryd( 3d)     0.00235
    58    C    4  dyz    Ryd( 3d)     0.00249
    59    C    4  dx2y2  Ryd( 3d)     0.00202
    60    C    4  dz2    Ryd( 3d)     0.00067

    61    O    5  S      Cor( 1S)     1.99978
    62    O    5  S      Val( 2S)     1.70377
    63    O    5  S      Ryd( 3S)     0.00044
    64    O    5  S      Ryd( 4S)     0.00014
    65    O    5  px     Val( 2p)     1.80250
    66    O    5  px     Ryd( 3p)     0.00086
    67    O    5  py     Val( 2p)     1.57414
    68    O    5  py     Ryd( 3p)     0.00042
    69    O    5  pz     Val( 2p)     1.53900
    70    O    5  pz     Ryd( 3p)     0.00094
    71    O    5  dxy    Ryd( 3d)     0.00480
    72    O    5  dxz    Ryd( 3d)     0.00045
    73    O    5  dyz    Ryd( 3d)     0.00478
    74    O    5  dx2y2  Ryd( 3d)     0.00458
    75    O    5  dz2    Ryd( 3d)     0.00170

    76    O    6  S      Cor( 1S)     1.99969
    77    O    6  S      Val( 2S)     1.59874
    78    O    6  S      Ryd( 3S)     0.00092
    79    O    6  S      Ryd( 4S)     0.00016
    80    O    6  px     Val( 2p)     1.42545
    81    O    6  px     Ryd( 3p)     0.00073
    82    O    6  py     Val( 2p)     1.73383
    83    O    6  py     Ryd( 3p)     0.00161
    84    O    6  pz     Val( 2p)     1.77068
    85    O    6  pz     Ryd( 3p)     0.00172
    86    O    6  dxy    Ryd( 3d)     0.00132
    87    O    6  dxz    Ryd( 3d)     0.00047
    88    O    6  dyz    Ryd( 3d)     0.00142
    89    O    6  dx2y2  Ryd( 3d)     0.00114
    90    O    6  dz2    Ryd( 3d)     0.00074

    91    C    7  S      Cor( 1S)     1.99867
    92    C    7  S      Val( 2S)     0.83692
    93    C    7  S      Ryd( 3S)     0.00135
    94    C    7  S      Ryd( 4S)     0.00011
    95    C    7  px     Val( 2p)     0.73798
    96    C    7  px     Ryd( 3p)     0.00658
    97    C    7  py     Val( 2p)     1.05397
    98    C    7  py     Ryd( 3p)     0.00590
    99    C    7  pz     Val( 2p)     1.04048
   100    C    7  pz     Ryd( 3p)     0.00323
   101    C    7  dxy    Ryd( 3d)     0.00128
   102    C    7  dxz    Ryd( 3d)     0.00135
   103    C    7  dyz    Ryd( 3d)     0.00054
   104    C    7  dx2y2  Ryd( 3d)     0.00156
   105    C    7  dz2    Ryd( 3d)     0.00112

   106    C    8  S      Cor( 1S)     1.99904
   107    C    8  S      Val( 2S)     0.96681
   108    C    8  S      Ryd( 3S)     0.00082
   109    C    8  S      Ryd( 4S)     0.00005
   110    C    8  px     Val( 2p)     1.11849
   111    C    8  px     Ryd( 3p)     0.00440
   112    C    8  py     Val( 2p)     1.08686
   113    C    8  py     Ryd( 3p)     0.00506
   114    C    8  pz     Val( 2p)     1.08582
   115    C    8  pz     Ryd( 3p)     0.00497
   116    C    8  dxy    Ryd( 3d)     0.00062
   117    C    8  dxz    Ryd( 3d)     0.00073
   118    C    8  dyz    Ryd( 3d)     0.00056
   119    C    8  dx2y2  Ryd( 3d)     0.00062
   120    C    8  dz2    Ryd( 3d)     0.00047

   121    C    9  S      Cor( 1S)     1.99914
   122    C    9  S      Val( 2S)     0.96714
   123    C    9  S      Ryd( 3S)     0.00058
   124    C    9  S      Ryd( 4S)     0.00004
   125    C    9  px     Val( 2p)     1.06511
   126    C    9  px     Ryd( 3p)     0.00507
   127    C    9  py     Val( 2p)     1.11658
   128    C    9  py     Ryd( 3p)     0.00455
   129    C    9  pz     Val( 2p)     1.06806
   130    C    9  pz     Ryd( 3p)     0.00459
   131    C    9  dxy    Ryd( 3d)     0.00075
   132    C    9  dxz    Ryd( 3d)     0.00069
   133    C    9  dyz    Ryd( 3d)     0.00060
   134    C    9  dx2y2  Ryd( 3d)     0.00060
   135    C    9  dz2    Ryd( 3d)     0.00045

   136    C   10  S      Cor( 1S)     1.99913
   137    C   10  S      Val( 2S)     0.96897
   138    C   10  S      Ryd( 3S)     0.00055
   139    C   10  S      Ryd( 4S)     0.00003
   140    C   10  px     Val( 2p)     1.18490
   141    C   10  px     Ryd( 3p)     0.00466
   142    C   10  py     Val( 2p)     1.03415
   143    C   10  py     Ryd( 3p)     0.00467
   144    C   10  pz     Val( 2p)     1.00963
   145    C   10  pz     Ryd( 3p)     0.00442
   146    C   10  dxy    Ryd( 3d)     0.00059
   147    C   10  dxz    Ryd( 3d)     0.00046
   148    C   10  dyz    Ryd( 3d)     0.00044
   149    C   10  dx2y2  Ryd( 3d)     0.00084
   150    C   10  dz2    Ryd( 3d)     0.00080

   151    C   11  S      Cor( 1S)     1.99908
   152    C   11  S      Val( 2S)     0.95649
   153    C   11  S      Ryd( 3S)     0.00057
   154    C   11  S      Ryd( 4S)     0.00004
   155    C   11  px     Val( 2p)     1.09356
   156    C   11  px     Ryd( 3p)     0.00458
   157    C   11  py     Val( 2p)     1.09486
   158    C   11  py     Ryd( 3p)     0.00456
   159    C   11  pz     Val( 2p)     1.08685
   160    C   11  pz     Ryd( 3p)     0.00490
   161    C   11  dxy    Ryd( 3d)     0.00069
   162    C   11  dxz    Ryd( 3d)     0.00071
   163    C   11  dyz    Ryd( 3d)     0.00054
   164    C   11  dx2y2  Ryd( 3d)     0.00062
   165    C   11  dz2    Ryd( 3d)     0.00044

   166    C   12  S      Cor( 1S)     1.99898
   167    C   12  S      Val( 2S)     0.89096
   168    C   12  S      Ryd( 3S)     0.00056
   169    C   12  S      Ryd( 4S)     0.00006
   170    C   12  px     Val( 2p)     1.08052
   171    C   12  px     Ryd( 3p)     0.00428
   172    C   12  py     Val( 2p)     1.04164
   173    C   12  py     Ryd( 3p)     0.00423
   174    C   12  pz     Val( 2p)     1.02462
   175    C   12  pz     Ryd( 3p)     0.00442
   176    C   12  dxy    Ryd( 3d)     0.00083
   177    C   12  dxz    Ryd( 3d)     0.00081
   178    C   12  dyz    Ryd( 3d)     0.00047
   179    C   12  dx2y2  Ryd( 3d)     0.00057
   180    C   12  dz2    Ryd( 3d)     0.00058

   181    C   13  S      Cor( 1S)     1.99941
   182    C   13  S      Val( 2S)     1.09815
   183    C   13  S      Ryd( 3S)     0.00027
   184    C   13  S      Ryd( 4S)     0.00001
   185    C   13  px     Val( 2p)     1.23552
   186    C   13  px     Ryd( 3p)     0.00257
   187    C   13  py     Val( 2p)     1.15230
   188    C   13  py     Ryd( 3p)     0.00091
   189    C   13  pz     Val( 2p)     1.19762
   190    C   13  pz     Ryd( 3p)     0.00100
   191    C   13  dxy    Ryd( 3d)     0.00074
   192    C   13  dxz    Ryd( 3d)     0.00109
   193    C   13  dyz    Ryd( 3d)     0.00089
   194    C   13  dx2y2  Ryd( 3d)     0.00044
   195    C   13  dz2    Ryd( 3d)     0.00024

   196    C   14  S      Cor( 1S)     1.99935
   197    C   14  S      Val( 2S)     1.01791
   198    C   14  S      Ryd( 3S)     0.00120
   199    C   14  S      Ryd( 4S)     0.00003
   200    C   14  px     Val( 2p)     0.98907
   201    C   14  px     Ryd( 3p)     0.00366
   202    C   14  py     Val( 2p)     1.12462
   203    C   14  py     Ryd( 3p)     0.00433
   204    C   14  pz     Val( 2p)     1.10869
   205    C   14  pz     Ryd( 3p)     0.00134
   206    C   14  dxy    Ryd( 3d)     0.00122
   207    C   14  dxz    Ryd( 3d)     0.00129
   208    C   14  dyz    Ryd( 3d)     0.00094
   209    C   14  dx2y2  Ryd( 3d)     0.00069
   210    C   14  dz2    Ryd( 3d)     0.00077

   211    C   15  S      Cor( 1S)     1.99945
   212    C   15  S      Val( 2S)     1.11114
   213    C   15  S      Ryd( 3S)     0.00042
   214    C   15  S      Ryd( 4S)     0.00001
   215    C   15  px     Val( 2p)     1.23428
   216    C   15  px     Ryd( 3p)     0.00132
   217    C   15  py     Val( 2p)     1.23868
   218    C   15  py     Ryd( 3p)     0.00153
   219    C   15  pz     Val( 2p)     1.09746
   220    C   15  pz     Ryd( 3p)     0.00094
   221    C   15  dxy    Ryd( 3d)     0.00088
   222    C   15  dxz    Ryd( 3d)     0.00063
   223    C   15  dyz    Ryd( 3d)     0.00056
   224    C   15  dx2y2  Ryd( 3d)     0.00048
   225    C   15  dz2    Ryd( 3d)     0.00067

   226    H   16  S      Val( 1S)     0.77104
   227    H   16  S      Ryd( 2S)     0.00093

   228    H   17  S      Val( 1S)     0.76400
   229    H   17  S      Ryd( 2S)     0.00092

   230    H   18  S      Val( 1S)     0.75920
   231    H   18  S      Ryd( 2S)     0.00132

   232    H   19  S      Val( 1S)     0.74665
   233    H   19  S      Ryd( 2S)     0.00149

   234    H   20  S      Val( 1S)     0.76733
   235    H   20  S      Ryd( 2S)     0.00144

   236    H   21  S      Val( 1S)     0.75162
   237    H   21  S      Ryd( 2S)     0.00117

   238    H   22  S      Val( 1S)     0.76803
   239    H   22  S      Ryd( 2S)     0.00083

   240    H   23  S      Val( 1S)     0.76885
   241    H   23  S      Ryd( 2S)     0.00085

   242    H   24  S      Val( 1S)     0.77279
   243    H   24  S      Ryd( 2S)     0.00101

   244    H   25  S      Val( 1S)     0.76110
   245    H   25  S      Ryd( 2S)     0.00082

   246    H   26  S      Val( 1S)     0.75634
   247    H   26  S      Ryd( 2S)     0.00199

   248    H   27  S      Val( 1S)     0.75450
   249    H   27  S      Ryd( 2S)     0.00171

   250    H   28  S      Val( 1S)     0.77135
   251    H   28  S      Ryd( 2S)     0.00136

   252    H   29  S      Val( 1S)     0.73978
   253    H   29  S      Ryd( 2S)     0.00195

   254    H   30  S      Val( 1S)     0.77500
   255    H   30  S      Ryd( 2S)     0.00094

   256    H   31  S      Val( 1S)     0.76368
   257    H   31  S      Ryd( 2S)     0.00087

   258    H   32  S      Val( 1S)     0.75446
   259    H   32  S      Ryd( 2S)     0.00127

 WARNING:  1 low occupancy (<1.9990e) core orbital  found on  C    7
           1 low occupancy (<1.9990e) core orbital  found on  C   12


 Summary of Natural Population Analysis:                  
                                                          
                                       Natural Population 
                Natural  -----------------------------------------------
    Atom  No    Charge         Core      Valence    Rydberg      Total
 -----------------------------------------------------------------------
      C    1   -0.68768      1.99945     4.68074    0.00748     6.68768
      C    2   -0.25910      1.99934     4.24459    0.01516     6.25910
      N    3   -0.49434      1.99930     5.48147    0.01357     7.49434
      C    4    0.93591      1.99936     3.01916    0.04557     5.06409
      O    5   -0.63830      1.99978     6.61941    0.01912     8.63830
      O    6   -0.53861      1.99969     6.52869    0.01023     8.53861
      C    7    0.30895      1.99867     3.66935    0.02302     5.69105
      C    8   -0.27533      1.99904     4.25797    0.01831     6.27533
      C    9   -0.23394      1.99914     4.21689    0.01791     6.23394
      C   10   -0.21425      1.99913     4.19765    0.01746     6.21425
      C   11   -0.24848      1.99908     4.23175    0.01765     6.24848
      C   12   -0.05353      1.99898     4.03774    0.01680     6.05353
      C   13   -0.69117      1.99941     4.68359    0.00818     6.69117
      C   14   -0.25511      1.99935     4.24029    0.01547     6.25511
      C   15   -0.68845      1.99945     4.68156    0.00744     6.68845
      H   16    0.22803      0.00000     0.77104    0.00093     0.77197
      H   17    0.23508      0.00000     0.76400    0.00092     0.76492
      H   18    0.23948      0.00000     0.75920    0.00132     0.76052
      H   19    0.25186      0.00000     0.74665    0.00149     0.74814
      H   20    0.23122      0.00000     0.76733    0.00144     0.76878
      H   21    0.24721      0.00000     0.75162    0.00117     0.75279
      H   22    0.23114      0.00000     0.76803    0.00083     0.76886
      H   23    0.23030      0.00000     0.76885    0.00085     0.76970
      H   24    0.22620      0.00000     0.77279    0.00101     0.77380
      H   25    0.23808      0.00000     0.76110    0.00082     0.76192
      H   26    0.24167      0.00000     0.75634    0.00199     0.75833
      H   27    0.24379      0.00000     0.75450    0.00171     0.75621
      H   28    0.22729      0.00000     0.77135    0.00136     0.77271
      H   29    0.25827      0.00000     0.73978    0.00195     0.74173
      H   30    0.22406      0.00000     0.77500    0.00094     0.77594
      H   31    0.23545      0.00000     0.76368    0.00087     0.76455
      H   32    0.24427      0.00000     0.75446    0.00127     0.75573
 =======================================================================
   * Total *    0.00000     29.98919    81.73657    0.27424   112.00000

                                 Natural Population      
 --------------------------------------------------------
   Core                      29.98919 ( 99.9640% of  30)
   Valence                   81.73657 ( 99.6787% of  82)
   Natural Minimal Basis    111.72576 ( 99.7551% of 112)
   Natural Rydberg Basis      0.27424 (  0.2449% of 112)
 --------------------------------------------------------

    Atom  No          Natural Electron Configuration
 ----------------------------------------------------------------------------
      C    1      [core]2S( 1.11)2p( 3.57)
      C    2      [core]2S( 1.02)2p( 3.23)3p( 0.01)
      N    3      [core]2S( 1.21)2p( 4.28)3p( 0.01)
      C    4      [core]2S( 0.69)2p( 2.32)3p( 0.03)3d( 0.01)
      O    5      [core]2S( 1.70)2p( 4.92)3d( 0.02)
      O    6      [core]2S( 1.60)2p( 4.93)3d( 0.01)
      C    7      [core]2S( 0.84)2p( 2.83)3p( 0.02)3d( 0.01)
      C    8      [core]2S( 0.97)2p( 3.29)3p( 0.01)
      C    9      [core]2S( 0.97)2p( 3.25)3p( 0.01)
      C   10      [core]2S( 0.97)2p( 3.23)3p( 0.01)
      C   11      [core]2S( 0.96)2p( 3.28)3p( 0.01)
      C   12      [core]2S( 0.89)2p( 3.15)3p( 0.01)
      C   13      [core]2S( 1.10)2p( 3.59)
      C   14      [core]2S( 1.02)2p( 3.22)3p( 0.01)
      C   15      [core]2S( 1.11)2p( 3.57)
      H   16            1S( 0.77)
      H   17            1S( 0.76)
      H   18            1S( 0.76)
      H   19            1S( 0.75)
      H   20            1S( 0.77)
      H   21            1S( 0.75)
      H   22            1S( 0.77)
      H   23            1S( 0.77)
      H   24            1S( 0.77)
      H   25            1S( 0.76)
      H   26            1S( 0.76)
      H   27            1S( 0.75)
      H   28            1S( 0.77)
      H   29            1S( 0.74)
      H   30            1S( 0.78)
      H   31            1S( 0.76)
      H   32            1S( 0.75)


 NBO analysis skipped by request.
 Leave Link  607 at Thu Sep 30 09:49:55 2021, MaxMem= 1342177280 cpu:      25.0
 (Enter /sw/target/amd/app/gaussian/Gaussian09RevA.02_gcc-4.9.2/g09/l9999.exe)
 1\1\GINC-HERMITE\SP\RTD-B3LYP-FC\6-31G(d)\C12H17N1O2\JSCHLEINITZ\30-Se
 p-2021\0\\#p TD(NStates=10, Root=1) b3lyp/6-31G* volume pop=NPA densit
 y=current Geom=AllCheck Guess=Read\\CCN(C(=O)Oc1ccccc1C)CC_conf_0\\0,1
 \C,0,-1.7050690433,1.8177259673,-0.8545739211\C,0,-0.6044647959,0.9791
 282975,-1.5104240201\N,0,0.5003793418,0.6583717234,-0.6011694291\C,0,1
 .5914831985,1.4550112278,-0.4228663008\O,0,2.5352019247,1.2020150225,0
 .3023212525\O,0,1.4816825631,2.6042057869,-1.1827180501\C,0,2.48892908
 61,3.5688610406,-1.1305321718\C,0,2.9442678754,4.0856223228,0.08067760
 76\C,0,3.8911604305,5.1096532516,0.0711911857\C,0,4.3656799917,5.61194
 08064,-1.1403459288\C,0,3.8916781452,5.0838251897,-2.3415337842\C,0,2.
 9474835159,4.0507553255,-2.3645665932\C,0,2.4334487718,3.4776587671,-3
 .6621265169\C,0,0.4464790063,-0.5923729583,0.162686192\C,0,1.107416937
 4,-1.7666869814,-0.5631362268\H,0,-2.1196468697,1.3120675987,0.0248995
 129\H,0,-2.5239161178,1.9935535972,-1.5620640697\H,0,-1.3092183375,2.7
 877922052,-0.5389841762\H,0,-0.2035273594,1.4990718683,-2.3822686235\H
 ,0,-1.0138923974,0.0263375944,-1.8652987539\H,0,2.5712304203,3.6789515
 284,1.012431703\H,0,4.2534962396,5.5121820411,1.0130335298\H,0,5.10165
 45708,6.4110952625,-1.1520993105\H,0,4.2602881756,5.47497383,-3.286985
 2337\H,0,2.9405494194,3.9372774176,-4.5158293147\H,0,1.3557748957,3.64
 52956495,-3.7782567\H,0,2.5934261478,2.3942664362,-3.7144490881\H,0,-0
 .6089242933,-0.8078335503,0.3653590722\H,0,0.9405544727,-0.4208161925,
 1.1214083503\H,0,0.6397707898,-1.9506834426,-1.5374348142\H,0,1.019424
 4343,-2.6823797718,0.0331320829\H,0,2.1701432353,-1.5601472274,-0.7214
 460676\\Version=AM64L-G09RevA.02\State=1-A\HF=-672.7447424\RMSD=8.973e
 -09\Dipole=-1.1132195,-0.3899231,-0.4975714\Quadrupole=-0.4997313,1.16
 11121,-0.6613808,5.9949701,-1.6742936,0.2706506\PG=C01 [X(C12H17N1O2)]
 \\@


 TIMES HAVE CHANGED. IN THE BIBLE WHEN AN ASS
 SPOKE IT WAS CONSIDERED A MIRACLE.
 Job cpu time:  0 days  4 hours 21 minutes  5.4 seconds.
 File lengths (MBytes):  RWF=    228 Int=      0 D2E=      0 Chk=     31 Scr=      1
 Normal termination of Gaussian 09 at Thu Sep 30 09:50:02 2021.
