 Entering Gaussian System, Link 0=g09
 Input=C12H16O2_0f03_conf_0.com
 Output=C12H16O2_0f03_conf_0.log
 Initial command:
 /sw/target/amd/app/gaussian/Gaussian09RevA.02_gcc-4.9.2/g09/l1.exe /home/jschleinitz/gaussian/Gau-892931.inp -scrdir=/home/jschleinitz/gaussian/
 Entering Link 1 = /sw/target/amd/app/gaussian/Gaussian09RevA.02_gcc-4.9.2/g09/l1.exe PID=    892941.
  
 Copyright (c) 1988,1990,1992,1993,1995,1998,2003,2009, Gaussian, Inc.
                  All Rights Reserved.
  
 This is part of the Gaussian(R) 09 program.  It is based on
 the Gaussian(R) 03 system (copyright 2003, Gaussian, Inc.),
 the Gaussian(R) 98 system (copyright 1998, Gaussian, Inc.),
 the Gaussian(R) 94 system (copyright 1995, Gaussian, Inc.),
 the Gaussian 92(TM) system (copyright 1992, Gaussian, Inc.),
 the Gaussian 90(TM) system (copyright 1990, Gaussian, Inc.),
 the Gaussian 88(TM) system (copyright 1988, Gaussian, Inc.),
 the Gaussian 86(TM) system (copyright 1986, Carnegie Mellon
 University), and the Gaussian 82(TM) system (copyright 1983,
 Carnegie Mellon University). Gaussian is a federally registered
 trademark of Gaussian, Inc.
  
 This software contains proprietary and confidential information,
 including trade secrets, belonging to Gaussian, Inc.
  
 This software is provided under written license and may be
 used, copied, transmitted, or stored only in accord with that
 written license.
  
 The following legend is applicable only to US Government
 contracts under FAR:
  
                    RESTRICTED RIGHTS LEGEND
  
 Use, reproduction and disclosure by the US Government is
 subject to restrictions as set forth in subparagraphs (a)
 and (c) of the Commercial Computer Software - Restricted
 Rights clause in FAR 52.227-19.
  
 Gaussian, Inc.
 340 Quinnipiac St., Bldg. 40, Wallingford CT 06492
  
  
 ---------------------------------------------------------------
 Warning -- This program may not be used in any manner that
 competes with the business of Gaussian, Inc. or will provide
 assistance to any competitor of Gaussian, Inc.  The licensee
 of this program is prohibited from giving any competitor of
 Gaussian, Inc. access to this program.  By using this program,
 the user acknowledges that Gaussian, Inc. is engaged in the
 business of creating and licensing software in the field of
 computational chemistry and represents and warrants to the
 licensee that it is not a competitor of Gaussian, Inc. and that
 it will not use this program in any manner prohibited above.
 ---------------------------------------------------------------
  

 Cite this work as:
 Gaussian 09, Revision A.02,
 M. J. Frisch, G. W. Trucks, H. B. Schlegel, G. E. Scuseria, 
 M. A. Robb, J. R. Cheeseman, G. Scalmani, V. Barone, B. Mennucci, 
 G. A. Petersson, H. Nakatsuji, M. Caricato, X. Li, H. P. Hratchian, 
 A. F. Izmaylov, J. Bloino, G. Zheng, J. L. Sonnenberg, M. Hada, 
 M. Ehara, K. Toyota, R. Fukuda, J. Hasegawa, M. Ishida, T. Nakajima, 
 Y. Honda, O. Kitao, H. Nakai, T. Vreven, J. A. Montgomery, Jr., 
 J. E. Peralta, F. Ogliaro, M. Bearpark, J. J. Heyd, E. Brothers, 
 K. N. Kudin, V. N. Staroverov, R. Kobayashi, J. Normand, 
 K. Raghavachari, A. Rendell, J. C. Burant, S. S. Iyengar, J. Tomasi, 
 M. Cossi, N. Rega, J. M. Millam, M. Klene, J. E. Knox, J. B. Cross, 
 V. Bakken, C. Adamo, J. Jaramillo, R. Gomperts, R. E. Stratmann, 
 O. Yazyev, A. J. Austin, R. Cammi, C. Pomelli, J. W. Ochterski, 
 R. L. Martin, K. Morokuma, V. G. Zakrzewski, G. A. Voth, 
 P. Salvador, J. J. Dannenberg, S. Dapprich, A. D. Daniels, 
 O. Farkas, J. B. Foresman, J. V. Ortiz, J. Cioslowski, 
 and D. J. Fox, Gaussian, Inc., Wallingford CT, 2009.
 
 ******************************************
 Gaussian 09:  AM64L-G09RevA.02 11-Jun-2009
                30-Sep-2021 
 ******************************************
 %nproc=5
 Will use up to    5 processors via shared memory.
 %mem=10gb
 %chk=C12H16O2_0f03_conf_0.chk
 -----------------------------------
 #p opt b3lyp/6-31G* scf=(xqc,tight)
 -----------------------------------
 1/14=-1,18=20,19=15,26=3,38=1/1,3;
 2/9=110,12=2,17=6,18=5,40=1/2;
 3/5=1,6=6,7=1,11=2,16=1,25=1,30=1,71=1,74=-5/1,2,3;
 4//1;
 5/5=2,8=3,13=1,32=2,38=5/2,8;
 6/7=2,8=2,9=2,10=2,28=1/1;
 7//1,2,3,16;
 1/14=-1,18=20,19=15/3(2);
 2/9=110/2;
 99//99;
 2/9=110/2;
 3/5=1,6=6,7=1,11=2,16=1,25=1,30=1,71=1,74=-5/1,2,3;
 4/5=5,16=3/1;
 5/5=2,8=3,13=1,32=2,38=5/2,8;
 7//1,2,3,16;
 1/14=-1,18=20,19=15/3(-5);
 2/9=110/2;
 6/7=2,8=2,9=2,10=2,19=2,28=1/1;
 99/9=1/99;
 Leave Link    1 at Thu Sep 30 23:44:30 2021, MaxMem= 1342177280 cpu:       0.1
 (Enter /sw/target/amd/app/gaussian/Gaussian09RevA.02_gcc-4.9.2/g09/l101.exe)
 --------------------------------
 Cc1cccc(c1)OC(=O)C(C)(C)C_conf_0
 --------------------------------
 Symbolic Z-matrix:
 Charge =  0 Multiplicity = 1
 C                    -1.11243  -0.15901  -3.83084 
 C                    -0.69647  -0.97599  -2.64435 
 C                     0.64916  -1.08621  -2.27203 
 C                     1.02016  -1.87687  -1.18024 
 C                     0.05097  -2.57532  -0.46086 
 C                    -1.28641  -2.47637  -0.83941 
 C                    -1.66413  -1.69126  -1.92852 
 O                    -2.19374  -3.32388  -0.1753 
 C                    -3.51534  -2.92874   0.04455 
 O                    -3.94752  -1.78634  -0.06524 
 C                    -4.35284  -4.14725   0.446 
 C                    -3.85925  -4.6829    1.79472 
 C                    -5.82829  -3.73312   0.56757 
 C                    -4.237    -5.23058  -0.63756 
 H                    -0.32605   0.54017  -4.13272 
 H                    -2.00339   0.43178  -3.59153 
 H                    -1.33809  -0.8166   -4.67628 
 H                     1.41975  -0.56295  -2.83418 
 H                     2.06786  -1.95984  -0.90208 
 H                     0.34089  -3.20586   0.37361 
 H                    -2.70412  -1.6398   -2.23981 
 H                    -3.90402  -3.90628   2.56688 
 H                    -2.8186   -5.02139   1.73648 
 H                    -4.465    -5.53149   2.13112 
 H                    -5.96407  -2.96303   1.33542 
 H                    -6.46183  -4.58661   0.83326 
 H                    -6.20192  -3.32142  -0.37762 
 H                    -3.21669  -5.62341  -0.71125 
 H                    -4.50238  -4.83064  -1.62305 
 H                    -4.89984  -6.07697  -0.42649 
 
 NAtoms=     30 NQM=     30 NQMF=      0 NMic=      0 NMicF=      0 NTot=     30.
                    Isotopes and Nuclear Properties:
 (Nuclear quadrupole moments (NQMom) in fm**2, nuclear magnetic moments (NMagM)
  in nuclear magnetons)

  Atom         1           2           3           4           5           6           7           8           9          10
 IAtWgt=          12          12          12          12          12          12          12          16          12          16
 AtmWgt=  12.0000000  12.0000000  12.0000000  12.0000000  12.0000000  12.0000000  12.0000000  15.9949146  12.0000000  15.9949146
 NucSpn=           0           0           0           0           0           0           0           0           0           0
 AtZEff=   0.0000000   0.0000000   0.0000000   0.0000000   0.0000000   0.0000000   0.0000000   0.0000000   0.0000000   0.0000000
 NQMom=    0.0000000   0.0000000   0.0000000   0.0000000   0.0000000   0.0000000   0.0000000   0.0000000   0.0000000   0.0000000
 NMagM=    0.0000000   0.0000000   0.0000000   0.0000000   0.0000000   0.0000000   0.0000000   0.0000000   0.0000000   0.0000000

  Atom        11          12          13          14          15          16          17          18          19          20
 IAtWgt=          12          12          12          12           1           1           1           1           1           1
 AtmWgt=  12.0000000  12.0000000  12.0000000  12.0000000   1.0078250   1.0078250   1.0078250   1.0078250   1.0078250   1.0078250
 NucSpn=           0           0           0           0           1           1           1           1           1           1
 AtZEff=   0.0000000   0.0000000   0.0000000   0.0000000   0.0000000   0.0000000   0.0000000   0.0000000   0.0000000   0.0000000
 NQMom=    0.0000000   0.0000000   0.0000000   0.0000000   0.0000000   0.0000000   0.0000000   0.0000000   0.0000000   0.0000000
 NMagM=    0.0000000   0.0000000   0.0000000   0.0000000   2.7928460   2.7928460   2.7928460   2.7928460   2.7928460   2.7928460

  Atom        21          22          23          24          25          26          27          28          29          30
 IAtWgt=           1           1           1           1           1           1           1           1           1           1
 AtmWgt=   1.0078250   1.0078250   1.0078250   1.0078250   1.0078250   1.0078250   1.0078250   1.0078250   1.0078250   1.0078250
 NucSpn=           1           1           1           1           1           1           1           1           1           1
 AtZEff=   0.0000000   0.0000000   0.0000000   0.0000000   0.0000000   0.0000000   0.0000000   0.0000000   0.0000000   0.0000000
 NQMom=    0.0000000   0.0000000   0.0000000   0.0000000   0.0000000   0.0000000   0.0000000   0.0000000   0.0000000   0.0000000
 NMagM=    2.7928460   2.7928460   2.7928460   2.7928460   2.7928460   2.7928460   2.7928460   2.7928460   2.7928460   2.7928460
 Leave Link  101 at Thu Sep 30 23:44:31 2021, MaxMem= 1342177280 cpu:       0.2
 (Enter /sw/target/amd/app/gaussian/Gaussian09RevA.02_gcc-4.9.2/g09/l103.exe)

 GradGradGradGradGradGradGradGradGradGradGradGradGradGradGradGradGradGrad
 Berny optimization.
 Initialization pass.
                           ----------------------------
                           !    Initial Parameters    !
                           ! (Angstroms and Degrees)  !
 --------------------------                            --------------------------
 ! Name  Definition              Value          Derivative Info.                !
 --------------------------------------------------------------------------------
 ! R1    R(1,2)                  1.4994         estimate D2E/DX2                !
 ! R2    R(1,15)                 1.0947         estimate D2E/DX2                !
 ! R3    R(1,16)                 1.0955         estimate D2E/DX2                !
 ! R4    R(1,17)                 1.0946         estimate D2E/DX2                !
 ! R5    R(2,3)                  1.4005         estimate D2E/DX2                !
 ! R6    R(2,7)                  1.4001         estimate D2E/DX2                !
 ! R7    R(3,4)                  1.3981         estimate D2E/DX2                !
 ! R8    R(3,18)                 1.0879         estimate D2E/DX2                !
 ! R9    R(4,5)                  1.3945         estimate D2E/DX2                !
 ! R10   R(4,19)                 1.0872         estimate D2E/DX2                !
 ! R11   R(5,6)                  1.3934         estimate D2E/DX2                !
 ! R12   R(5,20)                 1.0854         estimate D2E/DX2                !
 ! R13   R(6,7)                  1.3947         estimate D2E/DX2                !
 ! R14   R(6,8)                  1.408          estimate D2E/DX2                !
 ! R15   R(7,21)                 1.0868         estimate D2E/DX2                !
 ! R16   R(8,9)                  1.3968         estimate D2E/DX2                !
 ! R17   R(9,10)                 1.2263         estimate D2E/DX2                !
 ! R18   R(9,11)                 1.5321         estimate D2E/DX2                !
 ! R19   R(11,12)                1.5328         estimate D2E/DX2                !
 ! R20   R(11,13)                1.5373         estimate D2E/DX2                !
 ! R21   R(11,14)                1.5366         estimate D2E/DX2                !
 ! R22   R(12,22)                1.0961         estimate D2E/DX2                !
 ! R23   R(12,23)                1.0959         estimate D2E/DX2                !
 ! R24   R(12,24)                1.0955         estimate D2E/DX2                !
 ! R25   R(13,25)                1.0959         estimate D2E/DX2                !
 ! R26   R(13,26)                1.0956         estimate D2E/DX2                !
 ! R27   R(13,27)                1.0966         estimate D2E/DX2                !
 ! R28   R(14,28)                1.0958         estimate D2E/DX2                !
 ! R29   R(14,29)                1.0962         estimate D2E/DX2                !
 ! R30   R(14,30)                1.0956         estimate D2E/DX2                !
 ! A1    A(2,1,15)             111.5265         estimate D2E/DX2                !
 ! A2    A(2,1,16)             110.2799         estimate D2E/DX2                !
 ! A3    A(2,1,17)             109.9407         estimate D2E/DX2                !
 ! A4    A(15,1,16)            107.4593         estimate D2E/DX2                !
 ! A5    A(15,1,17)            108.5906         estimate D2E/DX2                !
 ! A6    A(16,1,17)            108.9681         estimate D2E/DX2                !
 ! A7    A(1,2,3)              121.3182         estimate D2E/DX2                !
 ! A8    A(1,2,7)              119.4179         estimate D2E/DX2                !
 ! A9    A(3,2,7)              119.203          estimate D2E/DX2                !
 ! A10   A(2,3,4)              120.4676         estimate D2E/DX2                !
 ! A11   A(2,3,18)             120.3524         estimate D2E/DX2                !
 ! A12   A(4,3,18)             119.1784         estimate D2E/DX2                !
 ! A13   A(3,4,5)              120.1093         estimate D2E/DX2                !
 ! A14   A(3,4,19)             119.9125         estimate D2E/DX2                !
 ! A15   A(5,4,19)             119.9707         estimate D2E/DX2                !
 ! A16   A(4,5,6)              119.428          estimate D2E/DX2                !
 ! A17   A(4,5,20)             120.1286         estimate D2E/DX2                !
 ! A18   A(6,5,20)             120.4315         estimate D2E/DX2                !
 ! A19   A(5,6,7)              120.7999         estimate D2E/DX2                !
 ! A20   A(5,6,8)              116.5893         estimate D2E/DX2                !
 ! A21   A(7,6,8)              122.1825         estimate D2E/DX2                !
 ! A22   A(2,7,6)              119.9755         estimate D2E/DX2                !
 ! A23   A(2,7,21)             119.3885         estimate D2E/DX2                !
 ! A24   A(6,7,21)             120.629          estimate D2E/DX2                !
 ! A25   A(6,8,9)              120.9078         estimate D2E/DX2                !
 ! A26   A(8,9,10)             125.6527         estimate D2E/DX2                !
 ! A27   A(8,9,11)             109.4788         estimate D2E/DX2                !
 ! A28   A(10,9,11)            124.8685         estimate D2E/DX2                !
 ! A29   A(9,11,12)            109.4179         estimate D2E/DX2                !
 ! A30   A(9,11,13)            109.3368         estimate D2E/DX2                !
 ! A31   A(9,11,14)            109.556          estimate D2E/DX2                !
 ! A32   A(12,11,13)           109.4886         estimate D2E/DX2                !
 ! A33   A(12,11,14)           110.4763         estimate D2E/DX2                !
 ! A34   A(13,11,14)           108.5448         estimate D2E/DX2                !
 ! A35   A(11,12,22)           111.045          estimate D2E/DX2                !
 ! A36   A(11,12,23)           111.5283         estimate D2E/DX2                !
 ! A37   A(11,12,24)           111.273          estimate D2E/DX2                !
 ! A38   A(22,12,23)           107.1625         estimate D2E/DX2                !
 ! A39   A(22,12,24)           108.0553         estimate D2E/DX2                !
 ! A40   A(23,12,24)           107.5854         estimate D2E/DX2                !
 ! A41   A(11,13,25)           111.3224         estimate D2E/DX2                !
 ! A42   A(11,13,26)           111.3652         estimate D2E/DX2                !
 ! A43   A(11,13,27)           111.1004         estimate D2E/DX2                !
 ! A44   A(25,13,26)           107.8078         estimate D2E/DX2                !
 ! A45   A(25,13,27)           107.3301         estimate D2E/DX2                !
 ! A46   A(26,13,27)           107.7263         estimate D2E/DX2                !
 ! A47   A(11,14,28)           111.7375         estimate D2E/DX2                !
 ! A48   A(11,14,29)           111.0076         estimate D2E/DX2                !
 ! A49   A(11,14,30)           111.2966         estimate D2E/DX2                !
 ! A50   A(28,14,29)           107.2032         estimate D2E/DX2                !
 ! A51   A(28,14,30)           107.4178         estimate D2E/DX2                !
 ! A52   A(29,14,30)           107.9753         estimate D2E/DX2                !
 ! D1    D(15,1,2,3)           -17.6399         estimate D2E/DX2                !
 ! D2    D(15,1,2,7)           165.223          estimate D2E/DX2                !
 ! D3    D(16,1,2,3)          -136.9536         estimate D2E/DX2                !
 ! D4    D(16,1,2,7)            45.9093         estimate D2E/DX2                !
 ! D5    D(17,1,2,3)           102.8688         estimate D2E/DX2                !
 ! D6    D(17,1,2,7)           -74.2683         estimate D2E/DX2                !
 ! D7    D(1,2,3,4)           -178.5678         estimate D2E/DX2                !
 ! D8    D(1,2,3,18)             0.971          estimate D2E/DX2                !
 ! D9    D(7,2,3,4)             -1.4248         estimate D2E/DX2                !
 ! D10   D(7,2,3,18)           178.1141         estimate D2E/DX2                !
 ! D11   D(1,2,7,6)            178.7087         estimate D2E/DX2                !
 ! D12   D(1,2,7,21)            -0.3338         estimate D2E/DX2                !
 ! D13   D(3,2,7,6)              1.5106         estimate D2E/DX2                !
 ! D14   D(3,2,7,21)          -177.5319         estimate D2E/DX2                !
 ! D15   D(2,3,4,5)              0.7036         estimate D2E/DX2                !
 ! D16   D(2,3,4,19)           179.7045         estimate D2E/DX2                !
 ! D17   D(18,3,4,5)          -178.8406         estimate D2E/DX2                !
 ! D18   D(18,3,4,19)            0.1603         estimate D2E/DX2                !
 ! D19   D(3,4,5,6)             -0.0585         estimate D2E/DX2                !
 ! D20   D(3,4,5,20)           178.6979         estimate D2E/DX2                !
 ! D21   D(19,4,5,6)          -179.0588         estimate D2E/DX2                !
 ! D22   D(19,4,5,20)           -0.3024         estimate D2E/DX2                !
 ! D23   D(4,5,6,7)              0.153          estimate D2E/DX2                !
 ! D24   D(4,5,6,8)            172.8027         estimate D2E/DX2                !
 ! D25   D(20,5,6,7)          -178.5996         estimate D2E/DX2                !
 ! D26   D(20,5,6,8)            -5.9498         estimate D2E/DX2                !
 ! D27   D(5,6,7,2)             -0.8884         estimate D2E/DX2                !
 ! D28   D(5,6,7,21)           178.1421         estimate D2E/DX2                !
 ! D29   D(8,6,7,2)           -173.1198         estimate D2E/DX2                !
 ! D30   D(8,6,7,21)             5.9107         estimate D2E/DX2                !
 ! D31   D(5,6,8,9)            148.6889         estimate D2E/DX2                !
 ! D32   D(7,6,8,9)            -38.7715         estimate D2E/DX2                !
 ! D33   D(6,8,9,10)           -14.4121         estimate D2E/DX2                !
 ! D34   D(6,8,9,11)           165.54           estimate D2E/DX2                !
 ! D35   D(8,9,11,12)           64.9906         estimate D2E/DX2                !
 ! D36   D(8,9,11,13)         -175.1027         estimate D2E/DX2                !
 ! D37   D(8,9,11,14)          -56.264          estimate D2E/DX2                !
 ! D38   D(10,9,11,12)        -115.0569         estimate D2E/DX2                !
 ! D39   D(10,9,11,13)           4.8499         estimate D2E/DX2                !
 ! D40   D(10,9,11,14)         123.6886         estimate D2E/DX2                !
 ! D41   D(9,11,12,22)          57.264          estimate D2E/DX2                !
 ! D42   D(9,11,12,23)         -62.1861         estimate D2E/DX2                !
 ! D43   D(9,11,12,24)         177.6733         estimate D2E/DX2                !
 ! D44   D(13,11,12,22)        -62.5495         estimate D2E/DX2                !
 ! D45   D(13,11,12,23)        178.0003         estimate D2E/DX2                !
 ! D46   D(13,11,12,24)         57.8598         estimate D2E/DX2                !
 ! D47   D(14,11,12,22)        177.9601         estimate D2E/DX2                !
 ! D48   D(14,11,12,23)         58.5099         estimate D2E/DX2                !
 ! D49   D(14,11,12,24)        -61.6306         estimate D2E/DX2                !
 ! D50   D(9,11,13,25)         -60.8666         estimate D2E/DX2                !
 ! D51   D(9,11,13,26)         178.7873         estimate D2E/DX2                !
 ! D52   D(9,11,13,27)          58.6954         estimate D2E/DX2                !
 ! D53   D(12,11,13,25)         58.9967         estimate D2E/DX2                !
 ! D54   D(12,11,13,26)        -61.3494         estimate D2E/DX2                !
 ! D55   D(12,11,13,27)        178.5587         estimate D2E/DX2                !
 ! D56   D(14,11,13,25)        179.6686         estimate D2E/DX2                !
 ! D57   D(14,11,13,26)         59.3226         estimate D2E/DX2                !
 ! D58   D(14,11,13,27)        -60.7693         estimate D2E/DX2                !
 ! D59   D(9,11,14,28)          65.3221         estimate D2E/DX2                !
 ! D60   D(9,11,14,29)         -54.2938         estimate D2E/DX2                !
 ! D61   D(9,11,14,30)        -174.5923         estimate D2E/DX2                !
 ! D62   D(12,11,14,28)        -55.2916         estimate D2E/DX2                !
 ! D63   D(12,11,14,29)       -174.9075         estimate D2E/DX2                !
 ! D64   D(12,11,14,30)         64.7941         estimate D2E/DX2                !
 ! D65   D(13,11,14,28)       -175.3506         estimate D2E/DX2                !
 ! D66   D(13,11,14,29)         65.0335         estimate D2E/DX2                !
 ! D67   D(13,11,14,30)        -55.2649         estimate D2E/DX2                !
 --------------------------------------------------------------------------------
 Trust Radius=3.00D-01 FncErr=1.00D-07 GrdErr=1.00D-06
 Number of steps in this run= 159 maximum allowed number of steps= 180.
 GradGradGradGradGradGradGradGradGradGradGradGradGradGradGradGradGradGrad

 Leave Link  103 at Thu Sep 30 23:44:31 2021, MaxMem= 1342177280 cpu:       0.0
 (Enter /sw/target/amd/app/gaussian/Gaussian09RevA.02_gcc-4.9.2/g09/l202.exe)
                          Input orientation:                          
 ---------------------------------------------------------------------
 Center     Atomic      Atomic             Coordinates (Angstroms)
 Number     Number       Type             X           Y           Z
 ---------------------------------------------------------------------
      1          6           0       -1.112429   -0.159014   -3.830840
      2          6           0       -0.696466   -0.975988   -2.644354
      3          6           0        0.649160   -1.086212   -2.272029
      4          6           0        1.020156   -1.876873   -1.180244
      5          6           0        0.050966   -2.575322   -0.460863
      6          6           0       -1.286408   -2.476367   -0.839412
      7          6           0       -1.664130   -1.691256   -1.928525
      8          8           0       -2.193738   -3.323879   -0.175305
      9          6           0       -3.515341   -2.928738    0.044546
     10          8           0       -3.947519   -1.786339   -0.065237
     11          6           0       -4.352845   -4.147247    0.446003
     12          6           0       -3.859252   -4.682899    1.794722
     13          6           0       -5.828287   -3.733122    0.567566
     14          6           0       -4.236999   -5.230580   -0.637560
     15          1           0       -0.326047    0.540167   -4.132721
     16          1           0       -2.003389    0.431776   -3.591534
     17          1           0       -1.338090   -0.816604   -4.676281
     18          1           0        1.419753   -0.562950   -2.834178
     19          1           0        2.067864   -1.959844   -0.902076
     20          1           0        0.340893   -3.205863    0.373612
     21          1           0       -2.704118   -1.639798   -2.239811
     22          1           0       -3.904016   -3.906279    2.566875
     23          1           0       -2.818604   -5.021392    1.736478
     24          1           0       -4.464998   -5.531487    2.131120
     25          1           0       -5.964075   -2.963032    1.335419
     26          1           0       -6.461828   -4.586605    0.833262
     27          1           0       -6.201919   -3.321419   -0.377616
     28          1           0       -3.216691   -5.623409   -0.711246
     29          1           0       -4.502378   -4.830641   -1.623050
     30          1           0       -4.899837   -6.076974   -0.426486
 ---------------------------------------------------------------------
                    Distance matrix (angstroms):
                    1          2          3          4          5
     1  C    0.000000
     2  C    1.499406   0.000000
     3  C    2.528395   1.400529   0.000000
     4  C    3.811118   2.429404   1.398135   0.000000
     5  C    4.306829   2.807874   2.419837   1.394514   0.000000
     6  C    3.788012   2.420122   2.780530   2.407447   1.393435
     7  C    2.504185   1.400141   2.415653   2.792807   2.424284
     8  O    4.954648   3.721643   4.181564   3.665085   2.383396
     9  C    5.335163   4.357691   5.109255   4.814277   3.619238
    10  O    4.986550   4.228222   5.146802   5.092076   4.094740
    11  C    6.685632   5.742499   6.463565   6.055445   4.763076
    12  C    7.723828   6.591647   7.056940   6.366540   4.981902
    13  C    7.372892   6.652354   7.551606   7.307645   6.079785
    14  C    6.758754   5.887627   6.612248   6.259356   5.046609
    15  H    1.094707   2.156657   2.656748   4.046167   4.830212
    16  H    1.095495   2.141728   3.328873   4.503999   4.802511
    17  H    1.094586   2.136776   3.130858   4.348307   4.774130
    18  H    2.751081   2.164489   1.087947   2.149784   3.399389
    19  H    4.683472   3.412481   2.157018   1.087176   2.154382
    20  H    5.391924   3.893145   3.404022   2.154549   1.085352
    21  H    2.693987   2.152898   3.398819   3.879318   3.410330
    22  H    7.922481   6.784681   7.217977   6.512055   5.155630
    23  H    7.586091   6.329333   6.601451   5.755984   4.364172
    24  H    8.697594   7.599972   8.081015   7.376195   5.987589
    25  H    7.621759   6.894538   7.763441   7.502519   6.289488
    26  H    8.365015   7.640011   8.512445   8.208346   6.938047
    27  H    6.915812   6.399153   7.451324   7.408731   6.297790
    28  H    6.634711   5.629118   6.161737   5.675153   4.475612
    29  H    6.179821   5.512385   6.401583   6.278472   5.212493
    30  H    7.807453   6.971896   7.687984   7.297624   6.064091
                    6          7          8          9         10
     6  C    0.000000
     7  C    1.394718   0.000000
     8  O    1.408035   2.453512   0.000000
     9  C    2.440115   2.975122   1.396820   0.000000
    10  O    2.856046   2.948686   2.334929   1.226338   0.000000
    11  C    3.721177   4.347350   2.392843   1.532104   2.449396
    12  C    4.292665   5.256525   2.915798   2.501694   3.443443
    13  C    4.918097   5.266867   3.732196   2.504058   2.779873
    14  C    4.041339   4.562133   2.832685   2.506898   3.503449
    15  H    4.568113   3.410014   5.837830   6.297178   5.922172
    16  H    4.067620   2.718081   5.080532   5.176884   4.597222
    17  H    4.180795   2.901979   5.222772   5.611393   5.386207
    18  H    3.868277   3.406408   5.267794   6.183782   6.162088
    19  H    3.394387   3.879886   4.533215   5.745174   6.075791
    20  H    2.156780   3.407929   2.596073   3.880158   4.538515
    21  H    2.161219   1.086795   2.712711   2.745493   2.509241
    22  H    4.527616   5.489266   3.283868   2.732911   3.379949
    23  H    3.931919   5.084767   2.631905   2.779798   3.871201
    24  H    5.316131   6.250836   3.918131   3.468421   4.372403
    25  H    5.181438   5.546194   4.077737   2.768362   2.722672
    26  H    5.834030   6.247273   4.563800   3.471654   3.869178
    27  H    5.008953   5.065005   4.013284   2.747748   2.745245
    28  H    3.694088   4.399322   2.573228   2.814545   3.959109
    29  H    4.061915   4.243195   3.113859   2.715208   3.464453
    30  H    5.117787   5.653357   3.868539   3.471324   4.409871
                   11         12         13         14         15
    11  C    0.000000
    12  C    1.532841   0.000000
    13  C    1.537273   2.507008   0.000000
    14  C    1.536600   2.521635   2.495378   0.000000
    15  H    7.691011   8.654394   8.404067   7.798283   0.000000
    16  H    6.541337   7.656101   7.019568   6.765889   1.765816
    17  H    6.813201   7.948482   7.494389   6.648167   1.777784
    18  H    7.545174   8.140552   8.611384   7.655766   2.439446
    19  H    6.915746   7.058219   8.225179   7.107671   4.734758
    20  H    4.787757   4.673587   6.194708   5.106765   5.897846
    21  H    4.027305   5.183845   4.692952   4.220266   3.740398
    22  H    2.181196   1.096067   2.780296   3.483254   8.800985
    23  H    2.187087   1.095864   3.476232   2.773385   8.461163
    24  H    2.183649   1.095533   2.745429   2.794301   9.655651
    25  H    2.188490   2.756661   1.095936   3.466585   8.600019
    26  H    2.188793   2.776162   1.095629   2.743699   9.412363
    27  H    2.186188   3.472862   1.096571   2.751977   7.971105
    28  H    2.192971   2.752693   3.468282   1.095798   7.619185
    29  H    2.184117   3.480891   2.785926   1.096160   7.251604
    30  H    2.187301   2.821352   2.709946   1.095577   8.856765
                   16         17         18         19         20
    16  H    0.000000
    17  H    1.782625   0.000000
    18  H    3.644306   3.326166   0.000000
    19  H    5.433979   5.210772   2.470704   0.000000
    20  H    5.869451   5.833435   4.294047   2.482412   0.000000
    21  H    2.570914   2.912055   4.303393   4.966264   4.307509
    22  H    7.768984   8.282112   8.288048   7.175346   4.829104
    23  H    7.667420   7.809971   7.663699   6.341342   3.890498
    24  H    8.623735   8.851462   9.163561   8.039602   5.620850
    25  H    7.175418   7.883364   8.812880   8.397905   6.382528
    26  H    8.039941   8.415501   9.579104   9.092135   6.956633
    27  H    6.484088   6.957689   8.469577   8.397515   6.586812
    28  H    6.814208   6.508150   7.184128   6.433090   4.435972
    29  H    6.149221   5.953774   7.399436   7.206203   5.484874
    30  H    7.795561   7.643186   8.725747   8.107145   6.028987
                   21         22         23         24         25
    21  H    0.000000
    22  H    5.448020   0.000000
    23  H    5.221030   1.763846   0.000000
    24  H    6.111545   1.773664   1.768206   0.000000
    25  H    5.016028   2.578768   3.780433   3.078528   0.000000
    26  H    5.678717   3.163963   3.778613   2.562141   1.770850
    27  H    4.304675   3.780536   4.336603   3.767633   1.766211
    28  H    4.297487   3.763911   2.551911   3.105763   4.337575
    29  H    3.714244   4.332200   3.762700   3.819212   3.791710
    30  H    5.272367   3.829333   3.181855   2.651036   3.732767
                   26         27         28         29         30
    26  H    0.000000
    27  H    1.770445   0.000000
    28  H    3.740505   3.784449   0.000000
    29  H    3.151582   2.591775   1.764330   0.000000
    30  H    2.499596   3.048097   1.766293   1.772875   0.000000
 Stoichiometry    C12H16O2
 Framework group  C1[X(C12H16O2)]
 Deg. of freedom    84
 Full point group                 C1      NOp   1
 Largest Abelian subgroup         C1      NOp   1
 Largest concise Abelian subgroup C1      NOp   1
                         Standard orientation:                         
 ---------------------------------------------------------------------
 Center     Atomic      Atomic             Coordinates (Angstroms)
 Number     Number       Type             X           Y           Z
 ---------------------------------------------------------------------
      1          6           0        3.621086   -2.016422    0.273794
      2          6           0        2.939342   -0.692139    0.101401
      3          6           0        3.672379    0.497931    0.012689
      4          6           0        3.017142    1.726086   -0.118000
      5          6           0        1.623812    1.776093   -0.146328
      6          6           0        0.894079    0.593381   -0.044626
      7          6           0        1.540416   -0.635404    0.087947
      8          8           0       -0.502607    0.723154    0.077804
      9          6           0       -1.361668   -0.248524   -0.440813
     10          8           0       -1.048426   -1.129447   -1.234387
     11          6           0       -2.766866   -0.048492    0.136029
     12          6           0       -3.330424    1.292222   -0.348212
     13          6           0       -3.679655   -1.190328   -0.339614
     14          6           0       -2.702284   -0.081534    1.670916
     15          1           0        4.681854   -1.959559    0.009365
     16          1           0        3.160170   -2.768233   -0.376165
     17          1           0        3.537990   -2.346443    1.314130
     18          1           0        4.759430    0.478277    0.052217
     19          1           0        3.594970    2.644816   -0.181272
     20          1           0        1.114471    2.731148   -0.226517
     21          1           0        0.968366   -1.552980    0.197206
     22          1           0       -3.346954    1.339816   -1.443121
     23          1           0       -2.723089    2.134102    0.002927
     24          1           0       -4.352620    1.447766    0.013885
     25          1           0       -3.762841   -1.205172   -1.432287
     26          1           0       -4.690175   -1.091376    0.072044
     27          1           0       -3.286497   -2.165630   -0.028677
     28          1           0       -2.129289    0.762371    2.071261
     29          1           0       -2.217700   -0.999114    2.024177
     30          1           0       -3.703974   -0.036671    2.112384
 ---------------------------------------------------------------------
 Rotational constants (GHZ):      1.4755115      0.3620828      0.3217869
 Leave Link  202 at Thu Sep 30 23:44:31 2021, MaxMem= 1342177280 cpu:       0.1
 (Enter /sw/target/amd/app/gaussian/Gaussian09RevA.02_gcc-4.9.2/g09/l301.exe)
 Standard basis: 6-31G(d) (6D, 7F)
 Ernie: Thresh=  0.10000D-02 Tol=  0.10000D-05 Strict=F.
 There are   242 symmetry adapted basis functions of A   symmetry.
 Integral buffers will be    131072 words long.
 Raffenetti 2 integral format.
 Two-electron integral symmetry is turned on.
   242 basis functions,   456 primitive gaussians,   242 cartesian basis functions
    52 alpha electrons       52 beta electrons
       nuclear repulsion energy       882.4564202531 Hartrees.
 IExCor=  402 DFT=T Ex+Corr=B3LYP ExCW=0 ScaHFX=  0.200000
 ScaDFX=  0.800000  0.720000  1.000000  0.810000 ScalE2=  1.000000  1.000000
 IRadAn=      0 IRanWt=     -1 IRanGd=            0 ICorTp=0
 NAtoms=   30 NActive=   30 NUniq=   30 SFac= 7.50D-01 NAtFMM=   80 NAOKFM=F Big=F
 Leave Link  301 at Thu Sep 30 23:44:31 2021, MaxMem= 1342177280 cpu:       0.1
 (Enter /sw/target/amd/app/gaussian/Gaussian09RevA.02_gcc-4.9.2/g09/l302.exe)
 NPDir=0 NMtPBC=     1 NCelOv=     1 NCel=       1 NClECP=     1 NCelD=      1
         NCelK=      1 NCelE2=     1 NClLst=     1 CellRange=     0.0.
 One-electron integrals computed using PRISM.
 NBasis=   242 RedAO= T  NBF=   242
 NBsUse=   242 1.00D-06 NBFU=   242
 Precomputing XC quadrature grid using
 IXCGrd= 2 IRadAn=           0 IRanWt=          -1 IRanGd=           0 AccXCQ= 1.00D-10.
 NRdTot=    1902 NPtTot=      242018 NUsed=      255735 NTot=      255767
 NSgBfM=   241   241   241   241   241 NAtAll=    30    30.
 Leave Link  302 at Thu Sep 30 23:44:35 2021, MaxMem= 1342177280 cpu:       2.5
 (Enter /sw/target/amd/app/gaussian/Gaussian09RevA.02_gcc-4.9.2/g09/l303.exe)
 DipDrv:  MaxL=1.
 Leave Link  303 at Thu Sep 30 23:44:36 2021, MaxMem= 1342177280 cpu:       0.2
 (Enter /sw/target/amd/app/gaussian/Gaussian09RevA.02_gcc-4.9.2/g09/l401.exe)
 Harris functional with IExCor=  402 diagonalized for initial guess.
 ExpMin= 1.61D-01 ExpMax= 5.48D+03 ExpMxC= 8.25D+02 IAcc=1 IRadAn=         1 AccDes= 0.00D+00
 HarFok:  IExCor=  402 AccDes= 0.00D+00 IRadAn=         1 IDoV= 1
 ScaDFX=  1.000000  1.000000  1.000000  1.000000
 FoFCou: FMM=F IPFlag=           0 FMFlag=      100000 FMFlg1=           0
         NFxFlg=           0 DoJE=T BraDBF=F KetDBF=T FulRan=T
         Omega=  0.000000  0.000000  1.000000  0.000000  0.000000 ICntrl=     500 IOpCl=  0
         NMat0=    1 NMatS0=    1 NMatT0=    0 NMatD0=    1 NMtDS0=    0 NMtDT0=    0
         I1Cent=           4 NGrid=           0.
 Petite list used in FoFCou.
 Harris En= -617.507717659844    
 Initial guess orbital symmetries:
       Occupied  (A) (A) (A) (A) (A) (A) (A) (A) (A) (A) (A) (A)
                 (A) (A) (A) (A) (A) (A) (A) (A) (A) (A) (A) (A)
                 (A) (A) (A) (A) (A) (A) (A) (A) (A) (A) (A) (A)
                 (A) (A) (A) (A) (A) (A) (A) (A) (A) (A) (A) (A)
                 (A) (A) (A) (A)
       Virtual   (A) (A) (A) (A) (A) (A) (A) (A) (A) (A) (A) (A)
                 (A) (A) (A) (A) (A) (A) (A) (A) (A) (A) (A) (A)
                 (A) (A) (A) (A) (A) (A) (A) (A) (A) (A) (A) (A)
                 (A) (A) (A) (A) (A) (A) (A) (A) (A) (A) (A) (A)
                 (A) (A) (A) (A) (A) (A) (A) (A) (A) (A) (A) (A)
                 (A) (A) (A) (A) (A) (A) (A) (A) (A) (A) (A) (A)
                 (A) (A) (A) (A) (A) (A) (A) (A) (A) (A) (A) (A)
                 (A) (A) (A) (A) (A) (A) (A) (A) (A) (A) (A) (A)
                 (A) (A) (A) (A) (A) (A) (A) (A) (A) (A) (A) (A)
                 (A) (A) (A) (A) (A) (A) (A) (A) (A) (A) (A) (A)
                 (A) (A) (A) (A) (A) (A) (A) (A) (A) (A) (A) (A)
                 (A) (A) (A) (A) (A) (A) (A) (A) (A) (A) (A) (A)
                 (A) (A) (A) (A) (A) (A) (A) (A) (A) (A) (A) (A)
                 (A) (A) (A) (A) (A) (A) (A) (A) (A) (A) (A) (A)
                 (A) (A) (A) (A) (A) (A) (A) (A) (A) (A) (A) (A)
                 (A) (A) (A) (A) (A) (A) (A) (A) (A) (A)
 The electronic state of the initial guess is 1-A.
 Leave Link  401 at Thu Sep 30 23:44:47 2021, MaxMem= 1342177280 cpu:      10.4
 (Enter /sw/target/amd/app/gaussian/Gaussian09RevA.02_gcc-4.9.2/g09/l502.exe)
 Closed shell SCF:
 Requested convergence on RMS density matrix=1.00D-08 within  64 cycles.
 Requested convergence on MAX density matrix=1.00D-06.
 Requested convergence on             energy=1.00D-06.
 No special actions if energy rises.
 Using DIIS extrapolation, IDIIS=  1040.
 Integral symmetry usage will be decided dynamically.
       255452 words used for storage of precomputed grid.
 Keep R1 ints in memory in canonical form, NReq=439897228.
 IEnd=      439976 IEndB=      439976 NGot=  1342177280 MDV=   909517401
 LenX=   909517401 LenY=   909458396
 Symmetry not used in FoFDir.
 MinBra= 0 MaxBra= 2 Meth= 1.
 IRaf=       0 NMat=   1 IRICut=       1 DoRegI=T DoRafI=F ISym2E= 0 JSym2E=0.
 Integral accuracy reduced to 1.0D-05 until final iterations.

 Cycle   1  Pass 0  IDiag  1:
 E= -616.915151662362    
 DIIS: error= 4.69D-02 at cycle   1 NSaved=   1.
 NSaved= 1 IEnMin= 1 EnMin= -616.915151662362     IErMin= 1 ErrMin= 4.69D-02
 ErrMax= 4.69D-02 EMaxC= 1.00D-01 BMatC= 4.64D-01 BMatP= 4.64D-01
 IDIUse=3 WtCom= 5.31D-01 WtEn= 4.69D-01
 Coeff-Com:  0.100D+01
 Coeff-En:   0.100D+01
 Coeff:      0.100D+01
 Gap=     0.267 Goal=   None    Shift=    0.000
 GapD=    0.267 DampG=1.000 DampE=0.500 DampFc=0.5000 IDamp=-1.
 Damping current iteration by 5.00D-01
 RMSDP=6.16D-03 MaxDP=1.83D-01              OVMax= 2.38D-01

 Cycle   2  Pass 0  IDiag  1:
 E= -617.073516633026     Delta-E=       -0.158364970664 Rises=F Damp=T
 DIIS: error= 1.68D-02 at cycle   2 NSaved=   2.
 NSaved= 2 IEnMin= 2 EnMin= -617.073516633026     IErMin= 2 ErrMin= 1.68D-02
 ErrMax= 1.68D-02 EMaxC= 1.00D-01 BMatC= 6.01D-02 BMatP= 4.64D-01
 IDIUse=3 WtCom= 8.32D-01 WtEn= 1.68D-01
 Coeff-Com:  0.186D+00 0.814D+00
 Coeff-En:   0.277D+00 0.723D+00
 Coeff:      0.201D+00 0.799D+00
 Gap=     0.203 Goal=   None    Shift=    0.000
 RMSDP=1.93D-03 MaxDP=6.59D-02 DE=-1.58D-01 OVMax= 1.87D-01

 Cycle   3  Pass 0  IDiag  1:
 E= -617.311130681139     Delta-E=       -0.237614048113 Rises=F Damp=F
 DIIS: error= 2.21D-02 at cycle   3 NSaved=   3.
 NSaved= 3 IEnMin= 3 EnMin= -617.311130681139     IErMin= 2 ErrMin= 1.68D-02
 ErrMax= 2.21D-02 EMaxC= 1.00D-01 BMatC= 8.19D-02 BMatP= 6.01D-02
 IDIUse=2 WtCom= 0.00D+00 WtEn= 1.00D+00
 Coeff-En:   0.000D+00 0.000D+00 0.100D+01
 Coeff:      0.000D+00 0.000D+00 0.100D+01
 Gap=     0.237 Goal=   None    Shift=    0.000
 RMSDP=3.46D-03 MaxDP=1.48D-01 DE=-2.38D-01 OVMax= 3.23D-01

 Cycle   4  Pass 0  IDiag  1:
 E= -616.946885554815     Delta-E=        0.364245126324 Rises=F Damp=F
 DIIS: error= 5.88D-02 at cycle   4 NSaved=   4.
 NSaved= 4 IEnMin= 3 EnMin= -617.311130681139     IErMin= 2 ErrMin= 1.68D-02
 ErrMax= 5.88D-02 EMaxC= 1.00D-01 BMatC= 5.41D-01 BMatP= 6.01D-02
 IDIUse=2 WtCom= 0.00D+00 WtEn= 1.00D+00
 Coeff-En:   0.000D+00 0.000D+00 0.806D+00 0.194D+00
 Coeff:      0.000D+00 0.000D+00 0.806D+00 0.194D+00
 Gap=     0.236 Goal=   None    Shift=    0.000
 RMSDP=1.84D-03 MaxDP=7.72D-02 DE= 3.64D-01 OVMax= 1.63D-01

 Cycle   5  Pass 0  IDiag  1:
 E= -617.347973037064     Delta-E=       -0.401087482249 Rises=F Damp=F
 DIIS: error= 1.48D-02 at cycle   5 NSaved=   5.
 NSaved= 5 IEnMin= 5 EnMin= -617.347973037064     IErMin= 5 ErrMin= 1.48D-02
 ErrMax= 1.48D-02 EMaxC= 1.00D-01 BMatC= 4.02D-02 BMatP= 6.01D-02
 IDIUse=3 WtCom= 8.52D-01 WtEn= 1.48D-01
 Coeff-Com: -0.514D-02 0.509D-01 0.330D+00-0.784D-01 0.702D+00
 Coeff-En:   0.000D+00 0.000D+00 0.364D+00 0.000D+00 0.636D+00
 Coeff:     -0.438D-02 0.433D-01 0.335D+00-0.668D-01 0.693D+00
 Gap=     0.221 Goal=   None    Shift=    0.000
 RMSDP=7.35D-04 MaxDP=2.73D-02 DE=-4.01D-01 OVMax= 5.22D-02

 Cycle   6  Pass 0  IDiag  1:
 E= -617.380832391696     Delta-E=       -0.032859354632 Rises=F Damp=F
 DIIS: error= 1.16D-03 at cycle   6 NSaved=   6.
 NSaved= 6 IEnMin= 6 EnMin= -617.380832391696     IErMin= 6 ErrMin= 1.16D-03
 ErrMax= 1.16D-03 EMaxC= 1.00D-01 BMatC= 4.33D-04 BMatP= 4.02D-02
 IDIUse=3 WtCom= 9.88D-01 WtEn= 1.16D-02
 Coeff-Com: -0.698D-02 0.246D-01 0.170D+00-0.631D-01 0.455D+00 0.420D+00
 Coeff-En:   0.000D+00 0.000D+00 0.000D+00 0.000D+00 0.000D+00 0.100D+01
 Coeff:     -0.690D-02 0.243D-01 0.168D+00-0.624D-01 0.449D+00 0.427D+00
 Gap=     0.219 Goal=   None    Shift=    0.000
 RMSDP=9.18D-05 MaxDP=3.64D-03 DE=-3.29D-02 OVMax= 8.19D-03

 Cycle   7  Pass 0  IDiag  1:
 E= -617.381223152613     Delta-E=       -0.000390760916 Rises=F Damp=F
 DIIS: error= 2.36D-04 at cycle   7 NSaved=   7.
 NSaved= 7 IEnMin= 7 EnMin= -617.381223152613     IErMin= 7 ErrMin= 2.36D-04
 ErrMax= 2.36D-04 EMaxC= 1.00D-01 BMatC= 1.67D-05 BMatP= 4.33D-04
 IDIUse=3 WtCom= 9.98D-01 WtEn= 2.36D-03
 Coeff-Com: -0.103D-02 0.220D-02 0.324D-01-0.136D-01 0.854D-01 0.154D+00
 Coeff-Com:  0.741D+00
 Coeff-En:   0.000D+00 0.000D+00 0.000D+00 0.000D+00 0.000D+00 0.000D+00
 Coeff-En:   0.100D+01
 Coeff:     -0.102D-02 0.220D-02 0.324D-01-0.136D-01 0.852D-01 0.154D+00
 Coeff:      0.741D+00
 Gap=     0.219 Goal=   None    Shift=    0.000
 RMSDP=1.89D-05 MaxDP=5.33D-04 DE=-3.91D-04 OVMax= 1.49D-03

 Cycle   8  Pass 0  IDiag  1:
 E= -617.381238178301     Delta-E=       -0.000015025688 Rises=F Damp=F
 DIIS: error= 5.48D-05 at cycle   8 NSaved=   8.
 NSaved= 8 IEnMin= 8 EnMin= -617.381238178301     IErMin= 8 ErrMin= 5.48D-05
 ErrMax= 5.48D-05 EMaxC= 1.00D-01 BMatC= 1.27D-06 BMatP= 1.67D-05
 IDIUse=1 WtCom= 1.00D+00 WtEn= 0.00D+00
 Coeff-Com: -0.623D-04-0.507D-03 0.937D-02-0.378D-02 0.217D-01 0.628D-01
 Coeff-Com:  0.410D+00 0.501D+00
 Coeff:     -0.623D-04-0.507D-03 0.937D-02-0.378D-02 0.217D-01 0.628D-01
 Coeff:      0.410D+00 0.501D+00
 Gap=     0.219 Goal=   None    Shift=    0.000
 RMSDP=5.48D-06 MaxDP=2.55D-04 DE=-1.50D-05 OVMax= 4.81D-04

 Initial convergence to 1.0D-05 achieved.  Increase integral accuracy.
 Cycle   9  Pass 1  IDiag  1:
 E= -617.381291635167     Delta-E=       -0.000053456866 Rises=F Damp=F
 DIIS: error= 2.62D-05 at cycle   1 NSaved=   1.
 NSaved= 1 IEnMin= 1 EnMin= -617.381291635167     IErMin= 1 ErrMin= 2.62D-05
 ErrMax= 2.62D-05 EMaxC= 1.00D-01 BMatC= 2.03D-07 BMatP= 2.03D-07
 IDIUse=1 WtCom= 1.00D+00 WtEn= 0.00D+00
 Coeff-Com:  0.100D+01
 Coeff:      0.100D+01
 Gap=     0.219 Goal=   None    Shift=    0.000
 RMSDP=5.48D-06 MaxDP=2.55D-04 DE=-5.35D-05 OVMax= 3.98D-04

 Cycle  10  Pass 1  IDiag  1:
 E= -617.381291462525     Delta-E=        0.000000172642 Rises=F Damp=F
 DIIS: error= 4.83D-05 at cycle   2 NSaved=   2.
 NSaved= 2 IEnMin= 1 EnMin= -617.381291635167     IErMin= 1 ErrMin= 2.62D-05
 ErrMax= 4.83D-05 EMaxC= 1.00D-01 BMatC= 3.96D-07 BMatP= 2.03D-07
 IDIUse=1 WtCom= 1.00D+00 WtEn= 0.00D+00
 Coeff-Com:  0.599D+00 0.401D+00
 Coeff:      0.599D+00 0.401D+00
 Gap=     0.219 Goal=   None    Shift=    0.000
 RMSDP=3.33D-06 MaxDP=1.24D-04 DE= 1.73D-07 OVMax= 3.20D-04

 Cycle  11  Pass 1  IDiag  1:
 E= -617.381291864790     Delta-E=       -0.000000402266 Rises=F Damp=F
 DIIS: error= 1.06D-05 at cycle   3 NSaved=   3.
 NSaved= 3 IEnMin= 3 EnMin= -617.381291864790     IErMin= 3 ErrMin= 1.06D-05
 ErrMax= 1.06D-05 EMaxC= 1.00D-01 BMatC= 2.83D-08 BMatP= 2.03D-07
 IDIUse=1 WtCom= 1.00D+00 WtEn= 0.00D+00
 Coeff-Com:  0.583D-01 0.209D+00 0.733D+00
 Coeff:      0.583D-01 0.209D+00 0.733D+00
 Gap=     0.219 Goal=   None    Shift=    0.000
 RMSDP=9.27D-07 MaxDP=3.15D-05 DE=-4.02D-07 OVMax= 6.10D-05

 Cycle  12  Pass 1  IDiag  1:
 E= -617.381291883843     Delta-E=       -0.000000019052 Rises=F Damp=F
 DIIS: error= 6.52D-06 at cycle   4 NSaved=   4.
 NSaved= 4 IEnMin= 4 EnMin= -617.381291883843     IErMin= 4 ErrMin= 6.52D-06
 ErrMax= 6.52D-06 EMaxC= 1.00D-01 BMatC= 1.18D-08 BMatP= 2.83D-08
 IDIUse=1 WtCom= 1.00D+00 WtEn= 0.00D+00
 Coeff-Com: -0.112D-01 0.112D+00 0.515D+00 0.384D+00
 Coeff:     -0.112D-01 0.112D+00 0.515D+00 0.384D+00
 Gap=     0.219 Goal=   None    Shift=    0.000
 RMSDP=3.93D-07 MaxDP=1.77D-05 DE=-1.91D-08 OVMax= 2.95D-05

 Cycle  13  Pass 1  IDiag  1:
 E= -617.381291893011     Delta-E=       -0.000000009168 Rises=F Damp=F
 DIIS: error= 8.33D-07 at cycle   5 NSaved=   5.
 NSaved= 5 IEnMin= 5 EnMin= -617.381291893011     IErMin= 5 ErrMin= 8.33D-07
 ErrMax= 8.33D-07 EMaxC= 1.00D-01 BMatC= 2.69D-10 BMatP= 1.18D-08
 IDIUse=1 WtCom= 1.00D+00 WtEn= 0.00D+00
 Coeff-Com: -0.942D-02 0.454D-01 0.226D+00 0.203D+00 0.536D+00
 Coeff:     -0.942D-02 0.454D-01 0.226D+00 0.203D+00 0.536D+00
 Gap=     0.219 Goal=   None    Shift=    0.000
 RMSDP=8.33D-08 MaxDP=2.78D-06 DE=-9.17D-09 OVMax= 4.75D-06

 Cycle  14  Pass 1  IDiag  1:
 E= -617.381291893193     Delta-E=       -0.000000000182 Rises=F Damp=F
 DIIS: error= 3.19D-07 at cycle   6 NSaved=   6.
 NSaved= 6 IEnMin= 6 EnMin= -617.381291893193     IErMin= 6 ErrMin= 3.19D-07
 ErrMax= 3.19D-07 EMaxC= 1.00D-01 BMatC= 3.23D-11 BMatP= 2.69D-10
 IDIUse=1 WtCom= 1.00D+00 WtEn= 0.00D+00
 Coeff-Com: -0.492D-02 0.182D-01 0.943D-01 0.914D-01 0.321D+00 0.480D+00
 Coeff:     -0.492D-02 0.182D-01 0.943D-01 0.914D-01 0.321D+00 0.480D+00
 Gap=     0.219 Goal=   None    Shift=    0.000
 RMSDP=2.24D-08 MaxDP=8.88D-07 DE=-1.82D-10 OVMax= 1.13D-06

 Cycle  15  Pass 1  IDiag  1:
 E= -617.381291893255     Delta-E=       -0.000000000062 Rises=F Damp=F
 DIIS: error= 4.36D-08 at cycle   7 NSaved=   7.
 NSaved= 7 IEnMin= 7 EnMin= -617.381291893255     IErMin= 7 ErrMin= 4.36D-08
 ErrMax= 4.36D-08 EMaxC= 1.00D-01 BMatC= 1.09D-12 BMatP= 3.23D-11
 IDIUse=1 WtCom= 1.00D+00 WtEn= 0.00D+00
 Coeff-Com: -0.101D-02 0.295D-02 0.155D-01 0.170D-01 0.749D-01 0.190D+00
 Coeff-Com:  0.700D+00
 Coeff:     -0.101D-02 0.295D-02 0.155D-01 0.170D-01 0.749D-01 0.190D+00
 Coeff:      0.700D+00
 Gap=     0.219 Goal=   None    Shift=    0.000
 RMSDP=5.69D-09 MaxDP=2.26D-07 DE=-6.16D-11 OVMax= 2.45D-07

 SCF Done:  E(RB3LYP) =  -617.381291893     A.U. after   15 cycles
             Convg  =    0.5694D-08             -V/T =  2.0098
 KE= 6.113993835426D+02 PE=-3.199381734083D+03 EE= 1.088144638394D+03
 Leave Link  502 at Thu Sep 30 23:50:18 2021, MaxMem= 1342177280 cpu:     225.9
 (Enter /sw/target/amd/app/gaussian/Gaussian09RevA.02_gcc-4.9.2/g09/l508.exe)
 QCSCF skips out because SCF is already converged.
 Leave Link  508 at Thu Sep 30 23:50:20 2021, MaxMem= 1342177280 cpu:       0.0
 (Enter /sw/target/amd/app/gaussian/Gaussian09RevA.02_gcc-4.9.2/g09/l601.exe)
 Copying SCF densities to generalized density rwf, IOpCl= 0 IROHF=0.

 **********************************************************************

            Population analysis using the SCF density.

 **********************************************************************

 Orbital symmetries:
       Occupied  (A) (A) (A) (A) (A) (A) (A) (A) (A) (A) (A) (A)
                 (A) (A) (A) (A) (A) (A) (A) (A) (A) (A) (A) (A)
                 (A) (A) (A) (A) (A) (A) (A) (A) (A) (A) (A) (A)
                 (A) (A) (A) (A) (A) (A) (A) (A) (A) (A) (A) (A)
                 (A) (A) (A) (A)
       Virtual   (A) (A) (A) (A) (A) (A) (A) (A) (A) (A) (A) (A)
                 (A) (A) (A) (A) (A) (A) (A) (A) (A) (A) (A) (A)
                 (A) (A) (A) (A) (A) (A) (A) (A) (A) (A) (A) (A)
                 (A) (A) (A) (A) (A) (A) (A) (A) (A) (A) (A) (A)
                 (A) (A) (A) (A) (A) (A) (A) (A) (A) (A) (A) (A)
                 (A) (A) (A) (A) (A) (A) (A) (A) (A) (A) (A) (A)
                 (A) (A) (A) (A) (A) (A) (A) (A) (A) (A) (A) (A)
                 (A) (A) (A) (A) (A) (A) (A) (A) (A) (A) (A) (A)
                 (A) (A) (A) (A) (A) (A) (A) (A) (A) (A) (A) (A)
                 (A) (A) (A) (A) (A) (A) (A) (A) (A) (A) (A) (A)
                 (A) (A) (A) (A) (A) (A) (A) (A) (A) (A) (A) (A)
                 (A) (A) (A) (A) (A) (A) (A) (A) (A) (A) (A) (A)
                 (A) (A) (A) (A) (A) (A) (A) (A) (A) (A) (A) (A)
                 (A) (A) (A) (A) (A) (A) (A) (A) (A) (A) (A) (A)
                 (A) (A) (A) (A) (A) (A) (A) (A) (A) (A) (A) (A)
                 (A) (A) (A) (A) (A) (A) (A) (A) (A) (A)
 The electronic state is 1-A.
 Alpha  occ. eigenvalues --  -19.20168 -19.14571 -10.32204 -10.25174 -10.21409
 Alpha  occ. eigenvalues --  -10.19871 -10.19233 -10.18931 -10.18706 -10.18539
 Alpha  occ. eigenvalues --  -10.18265 -10.18219 -10.18153 -10.17445  -1.09483
 Alpha  occ. eigenvalues --   -1.01887  -0.85696  -0.82542  -0.77457  -0.74614
 Alpha  occ. eigenvalues --   -0.69351  -0.69122  -0.68526  -0.65715  -0.60323
 Alpha  occ. eigenvalues --   -0.57972  -0.54571  -0.50059  -0.48883  -0.47871
 Alpha  occ. eigenvalues --   -0.47215  -0.45318  -0.43708  -0.43231  -0.42514
 Alpha  occ. eigenvalues --   -0.41886  -0.41335  -0.40658  -0.39070  -0.39017
 Alpha  occ. eigenvalues --   -0.38121  -0.36716  -0.36527  -0.35932  -0.35091
 Alpha  occ. eigenvalues --   -0.34222  -0.33577  -0.33090  -0.31716  -0.27204
 Alpha  occ. eigenvalues --   -0.24323  -0.23372
 Alpha virt. eigenvalues --   -0.01484  -0.00097   0.01798   0.08312   0.09199
 Alpha virt. eigenvalues --    0.11962   0.12604   0.13385   0.14358   0.14699
 Alpha virt. eigenvalues --    0.15123   0.15550   0.15922   0.16953   0.17125
 Alpha virt. eigenvalues --    0.17827   0.19095   0.19305   0.19635   0.20176
 Alpha virt. eigenvalues --    0.21612   0.22135   0.22902   0.24464   0.25323
 Alpha virt. eigenvalues --    0.26669   0.29462   0.31412   0.32649   0.34370
 Alpha virt. eigenvalues --    0.36409   0.39797   0.43639   0.48055   0.49986
 Alpha virt. eigenvalues --    0.50268   0.51394   0.52634   0.53300   0.53827
 Alpha virt. eigenvalues --    0.54982   0.56071   0.57753   0.58357   0.59445
 Alpha virt. eigenvalues --    0.59592   0.60462   0.61676   0.62801   0.64043
 Alpha virt. eigenvalues --    0.64339   0.65090   0.66114   0.68295   0.70039
 Alpha virt. eigenvalues --    0.70190   0.71903   0.72357   0.73507   0.74955
 Alpha virt. eigenvalues --    0.76804   0.77624   0.80979   0.82751   0.84051
 Alpha virt. eigenvalues --    0.84862   0.85937   0.86601   0.88187   0.88679
 Alpha virt. eigenvalues --    0.88960   0.89195   0.89445   0.89931   0.90730
 Alpha virt. eigenvalues --    0.91214   0.92609   0.93112   0.93996   0.95168
 Alpha virt. eigenvalues --    0.95421   0.97008   0.98109   0.98707   0.99275
 Alpha virt. eigenvalues --    1.02720   1.05812   1.06138   1.10488   1.11578
 Alpha virt. eigenvalues --    1.12858   1.14687   1.18787   1.19082   1.21147
 Alpha virt. eigenvalues --    1.24195   1.27737   1.33151   1.34418   1.36047
 Alpha virt. eigenvalues --    1.37699   1.39289   1.43564   1.45897   1.46548
 Alpha virt. eigenvalues --    1.48873   1.49395   1.50097   1.51679   1.53816
 Alpha virt. eigenvalues --    1.62254   1.65423   1.68614   1.71493   1.72041
 Alpha virt. eigenvalues --    1.75999   1.77341   1.79166   1.83397   1.83665
 Alpha virt. eigenvalues --    1.85088   1.86946   1.87263   1.87879   1.88564
 Alpha virt. eigenvalues --    1.90001   1.90632   1.93252   1.94044   1.96342
 Alpha virt. eigenvalues --    1.97863   1.99260   2.00776   2.01691   2.08222
 Alpha virt. eigenvalues --    2.08429   2.09670   2.10881   2.13542   2.14712
 Alpha virt. eigenvalues --    2.15518   2.20654   2.21221   2.22671   2.24700
 Alpha virt. eigenvalues --    2.26400   2.26856   2.27736   2.28576   2.31221
 Alpha virt. eigenvalues --    2.32175   2.34543   2.35334   2.37379   2.41698
 Alpha virt. eigenvalues --    2.44682   2.48626   2.53708   2.55667   2.59713
 Alpha virt. eigenvalues --    2.62484   2.65469   2.66232   2.68456   2.71493
 Alpha virt. eigenvalues --    2.74507   2.76500   2.78176   2.82458   2.84890
 Alpha virt. eigenvalues --    2.88196   2.96319   3.03205   3.08486   3.26159
 Alpha virt. eigenvalues --    3.42427   4.06398   4.09341   4.11996   4.13134
 Alpha virt. eigenvalues --    4.16922   4.23792   4.28914   4.31388   4.32355
 Alpha virt. eigenvalues --    4.38125   4.45654   4.51322   4.71084   4.78136
          Condensed to atoms (all electrons):
              1          2          3          4          5          6
     1  C    5.208148   0.350019  -0.057738   0.007230   0.000689   0.005098
     2  C    0.350019   4.637614   0.559369  -0.016953  -0.033165   0.000666
     3  C   -0.057738   0.559369   4.951839   0.521220  -0.042012  -0.043286
     4  C    0.007230  -0.016953   0.521220   4.878789   0.525276  -0.008443
     5  C    0.000689  -0.033165  -0.042012   0.525276   4.988612   0.540235
     6  C    0.005098   0.000666  -0.043286  -0.008443   0.540235   4.542697
     7  C   -0.062058   0.507175  -0.038062  -0.045454  -0.075399   0.490794
     8  O   -0.000054   0.003053   0.000293   0.003003  -0.047987   0.192886
     9  C   -0.000022   0.000329   0.000033  -0.000043   0.000552  -0.006879
    10  O   -0.000005  -0.000000   0.000004   0.000001   0.000041  -0.000372
    11  C   -0.000000  -0.000000   0.000000   0.000004  -0.000408   0.004115
    12  C   -0.000000   0.000000   0.000000  -0.000000   0.000011  -0.000149
    13  C    0.000000  -0.000000  -0.000000  -0.000000   0.000003  -0.000056
    14  C    0.000000  -0.000001   0.000000  -0.000000  -0.000012  -0.000053
    15  H    0.365941  -0.029259  -0.003338   0.000165  -0.000001  -0.000121
    16  H    0.364861  -0.027934   0.002352  -0.000203   0.000021  -0.000024
    17  H    0.364001  -0.027971  -0.000846  -0.000183   0.000031  -0.000014
    18  H   -0.009930  -0.041986   0.354700  -0.046558   0.004817   0.000500
    19  H   -0.000208   0.003718  -0.037997   0.356522  -0.039446   0.003580
    20  H    0.000009   0.000332   0.004903  -0.042108   0.348576  -0.038511
    21  H   -0.008318  -0.045311   0.005670   0.000137   0.005444  -0.038533
    22  H    0.000000  -0.000000  -0.000000  -0.000000   0.000000  -0.000025
    23  H    0.000000  -0.000000   0.000000   0.000000   0.000006   0.000006
    24  H    0.000000  -0.000000  -0.000000   0.000000  -0.000001   0.000007
    25  H    0.000000  -0.000000  -0.000000   0.000000  -0.000000  -0.000005
    26  H   -0.000000   0.000000   0.000000   0.000000  -0.000000   0.000000
    27  H   -0.000000   0.000000   0.000000  -0.000000   0.000000  -0.000004
    28  H    0.000000  -0.000001   0.000000  -0.000000  -0.000004   0.000129
    29  H   -0.000000   0.000001   0.000000  -0.000000   0.000004  -0.000002
    30  H   -0.000000   0.000000   0.000000   0.000000  -0.000000  -0.000005
              7          8          9         10         11         12
     1  C   -0.062058  -0.000054  -0.000022  -0.000005  -0.000000  -0.000000
     2  C    0.507175   0.003053   0.000329  -0.000000  -0.000000   0.000000
     3  C   -0.038062   0.000293   0.000033   0.000004   0.000000   0.000000
     4  C   -0.045454   0.003003  -0.000043   0.000001   0.000004  -0.000000
     5  C   -0.075399  -0.047987   0.000552   0.000041  -0.000408   0.000011
     6  C    0.490794   0.192886  -0.006879  -0.000372   0.004115  -0.000149
     7  C    5.104592  -0.044392  -0.001315   0.000072   0.000294   0.000005
     8  O   -0.044392   8.376173   0.214933  -0.065594  -0.097948   0.000172
     9  C   -0.001315   0.214933   4.406954   0.537358   0.347388  -0.039190
    10  O    0.000072  -0.065594   0.537358   8.052067  -0.076494  -0.000238
    11  C    0.000294  -0.097948   0.347388  -0.076494   4.992865   0.363681
    12  C    0.000005   0.000172  -0.039190  -0.000238   0.363681   5.141763
    13  C   -0.000003   0.003319  -0.046029   0.002630   0.369909  -0.058577
    14  C   -0.000091   0.001858  -0.043739   0.000456   0.359894  -0.054616
    15  H    0.003609   0.000000   0.000000  -0.000000   0.000000  -0.000000
    16  H   -0.003518  -0.000000  -0.000000  -0.000006  -0.000000  -0.000000
    17  H   -0.003259   0.000001  -0.000000   0.000000   0.000000   0.000000
    18  H    0.006232   0.000002   0.000000   0.000000   0.000000   0.000000
    19  H    0.000768  -0.000053   0.000000  -0.000000  -0.000000  -0.000000
    20  H    0.006418  -0.001259  -0.000019   0.000008  -0.000020   0.000004
    21  H    0.349940  -0.007068   0.003620   0.007285  -0.000256   0.000010
    22  H   -0.000001  -0.000073  -0.002750   0.000750  -0.031780   0.368776
    23  H    0.000009   0.005990  -0.006407   0.000012  -0.028249   0.367257
    24  H    0.000000   0.000035   0.003866  -0.000071  -0.029524   0.370543
    25  H    0.000000   0.000038  -0.005127   0.003761  -0.026477  -0.004130
    26  H    0.000000  -0.000034   0.005111   0.000500  -0.027718  -0.004714
    27  H   -0.000006   0.000034  -0.004703   0.003095  -0.028078   0.005531
    28  H    0.000024   0.005841  -0.006316   0.000018  -0.026838  -0.004703
    29  H    0.000031  -0.000107  -0.001902   0.000524  -0.033407   0.005546
    30  H    0.000000   0.000221   0.004053  -0.000061  -0.028525  -0.004952
             13         14         15         16         17         18
     1  C    0.000000   0.000000   0.365941   0.364861   0.364001  -0.009930
     2  C   -0.000000  -0.000001  -0.029259  -0.027934  -0.027971  -0.041986
     3  C   -0.000000   0.000000  -0.003338   0.002352  -0.000846   0.354700
     4  C   -0.000000  -0.000000   0.000165  -0.000203  -0.000183  -0.046558
     5  C    0.000003  -0.000012  -0.000001   0.000021   0.000031   0.004817
     6  C   -0.000056  -0.000053  -0.000121  -0.000024  -0.000014   0.000500
     7  C   -0.000003  -0.000091   0.003609  -0.003518  -0.003259   0.006232
     8  O    0.003319   0.001858   0.000000  -0.000000   0.000001   0.000002
     9  C   -0.046029  -0.043739   0.000000  -0.000000  -0.000000   0.000000
    10  O    0.002630   0.000456  -0.000000  -0.000006   0.000000   0.000000
    11  C    0.369909   0.359894   0.000000  -0.000000   0.000000   0.000000
    12  C   -0.058577  -0.054616  -0.000000  -0.000000   0.000000   0.000000
    13  C    5.131236  -0.062432  -0.000000   0.000000   0.000000  -0.000000
    14  C   -0.062432   5.152395   0.000000   0.000000  -0.000000  -0.000000
    15  H   -0.000000   0.000000   0.556693  -0.027763  -0.027716   0.005981
    16  H    0.000000   0.000000  -0.027763   0.550882  -0.028920   0.000074
    17  H    0.000000  -0.000000  -0.027716  -0.028920   0.556714   0.000267
    18  H   -0.000000  -0.000000   0.005981   0.000074   0.000267   0.608546
    19  H    0.000000   0.000000  -0.000005   0.000003   0.000003  -0.005200
    20  H    0.000000  -0.000005  -0.000000  -0.000000  -0.000000  -0.000171
    21  H    0.000014  -0.000041   0.000044   0.003548   0.001128  -0.000150
    22  H   -0.004263   0.005680   0.000000   0.000000  -0.000000  -0.000000
    23  H    0.005573  -0.004898  -0.000000   0.000000  -0.000000  -0.000000
    24  H   -0.004981  -0.005253  -0.000000  -0.000000   0.000000  -0.000000
    25  H    0.368680   0.005658   0.000000   0.000000   0.000000  -0.000000
    26  H    0.362154  -0.005220   0.000000   0.000000   0.000000  -0.000000
    27  H    0.369419  -0.003888  -0.000000  -0.000000   0.000000  -0.000000
    28  H    0.005535   0.367173  -0.000000   0.000000  -0.000000  -0.000000
    29  H   -0.003666   0.369007  -0.000000   0.000000  -0.000000  -0.000000
    30  H   -0.004975   0.368665   0.000000   0.000000  -0.000000  -0.000000
             19         20         21         22         23         24
     1  C   -0.000208   0.000009  -0.008318   0.000000   0.000000   0.000000
     2  C    0.003718   0.000332  -0.045311  -0.000000  -0.000000  -0.000000
     3  C   -0.037997   0.004903   0.005670  -0.000000   0.000000  -0.000000
     4  C    0.356522  -0.042108   0.000137  -0.000000   0.000000   0.000000
     5  C   -0.039446   0.348576   0.005444   0.000000   0.000006  -0.000001
     6  C    0.003580  -0.038511  -0.038533  -0.000025   0.000006   0.000007
     7  C    0.000768   0.006418   0.349940  -0.000001   0.000009   0.000000
     8  O   -0.000053  -0.001259  -0.007068  -0.000073   0.005990   0.000035
     9  C    0.000000  -0.000019   0.003620  -0.002750  -0.006407   0.003866
    10  O   -0.000000   0.000008   0.007285   0.000750   0.000012  -0.000071
    11  C   -0.000000  -0.000020  -0.000256  -0.031780  -0.028249  -0.029524
    12  C   -0.000000   0.000004   0.000010   0.368776   0.367257   0.370543
    13  C    0.000000   0.000000   0.000014  -0.004263   0.005573  -0.004981
    14  C    0.000000  -0.000005  -0.000041   0.005680  -0.004898  -0.005253
    15  H   -0.000005  -0.000000   0.000044   0.000000  -0.000000  -0.000000
    16  H    0.000003  -0.000000   0.003548   0.000000   0.000000  -0.000000
    17  H    0.000003  -0.000000   0.001128  -0.000000  -0.000000   0.000000
    18  H   -0.005200  -0.000171  -0.000150  -0.000000  -0.000000  -0.000000
    19  H    0.590974  -0.006045   0.000015   0.000000  -0.000000  -0.000000
    20  H   -0.006045   0.590271  -0.000148  -0.000001   0.000148   0.000000
    21  H    0.000015  -0.000148   0.575812  -0.000001  -0.000000  -0.000000
    22  H    0.000000  -0.000001  -0.000001   0.565084  -0.029352  -0.029180
    23  H   -0.000000   0.000148  -0.000000  -0.029352   0.553836  -0.028557
    24  H   -0.000000   0.000000  -0.000000  -0.029180  -0.028557   0.566836
    25  H    0.000000  -0.000000  -0.000002   0.004114  -0.000048  -0.000290
    26  H   -0.000000  -0.000000  -0.000000  -0.000106  -0.000045   0.003250
    27  H    0.000000  -0.000000   0.000022  -0.000062  -0.000192   0.000013
    28  H    0.000000   0.000017   0.000004  -0.000037   0.004045  -0.000112
    29  H    0.000000   0.000000   0.000176  -0.000192  -0.000040  -0.000031
    30  H    0.000000  -0.000000   0.000000  -0.000050  -0.000113   0.003407
             25         26         27         28         29         30
     1  C    0.000000  -0.000000  -0.000000   0.000000  -0.000000  -0.000000
     2  C   -0.000000   0.000000   0.000000  -0.000001   0.000001   0.000000
     3  C   -0.000000   0.000000   0.000000   0.000000   0.000000   0.000000
     4  C    0.000000   0.000000  -0.000000  -0.000000  -0.000000   0.000000
     5  C   -0.000000  -0.000000   0.000000  -0.000004   0.000004  -0.000000
     6  C   -0.000005   0.000000  -0.000004   0.000129  -0.000002  -0.000005
     7  C    0.000000   0.000000  -0.000006   0.000024   0.000031   0.000000
     8  O    0.000038  -0.000034   0.000034   0.005841  -0.000107   0.000221
     9  C   -0.005127   0.005111  -0.004703  -0.006316  -0.001902   0.004053
    10  O    0.003761   0.000500   0.003095   0.000018   0.000524  -0.000061
    11  C   -0.026477  -0.027718  -0.028078  -0.026838  -0.033407  -0.028525
    12  C   -0.004130  -0.004714   0.005531  -0.004703   0.005546  -0.004952
    13  C    0.368680   0.362154   0.369419   0.005535  -0.003666  -0.004975
    14  C    0.005658  -0.005220  -0.003888   0.367173   0.369007   0.368665
    15  H    0.000000   0.000000  -0.000000  -0.000000  -0.000000   0.000000
    16  H    0.000000   0.000000  -0.000000   0.000000   0.000000   0.000000
    17  H    0.000000   0.000000   0.000000  -0.000000  -0.000000  -0.000000
    18  H   -0.000000  -0.000000  -0.000000  -0.000000  -0.000000  -0.000000
    19  H    0.000000  -0.000000   0.000000   0.000000   0.000000   0.000000
    20  H   -0.000000  -0.000000  -0.000000   0.000017   0.000000  -0.000000
    21  H   -0.000002  -0.000000   0.000022   0.000004   0.000176   0.000000
    22  H    0.004114  -0.000106  -0.000062  -0.000037  -0.000192  -0.000050
    23  H   -0.000048  -0.000045  -0.000192   0.004045  -0.000040  -0.000113
    24  H   -0.000290   0.003250   0.000013  -0.000112  -0.000031   0.003407
    25  H    0.555095  -0.030365  -0.026963  -0.000193  -0.000071   0.000035
    26  H   -0.030365   0.586366  -0.030661  -0.000031  -0.000087   0.003291
    27  H   -0.026963  -0.030661   0.561313  -0.000050   0.003880  -0.000280
    28  H   -0.000193  -0.000031  -0.000050   0.549840  -0.029109  -0.028626
    29  H   -0.000071  -0.000087   0.003880  -0.029109   0.571294  -0.029571
    30  H    0.000035   0.003291  -0.000280  -0.028626  -0.029571   0.568635
 Mulliken atomic charges:
              1
     1  C   -0.527663
     2  C    0.160306
     3  C   -0.177104
     4  C   -0.132402
     5  C   -0.175883
     6  C    0.355770
     7  C   -0.196405
     8  O   -0.543283
     9  C    0.640246
    10  O   -0.465741
    11  C   -0.002427
    12  C   -0.452028
    13  C   -0.433491
    14  C   -0.450535
    15  H    0.155772
    16  H    0.166627
    17  H    0.166764
    18  H    0.122875
    19  H    0.133370
    20  H    0.137601
    21  H    0.146959
    22  H    0.153468
    23  H    0.161020
    24  H    0.150043
    25  H    0.156288
    26  H    0.138309
    27  H    0.151580
    28  H    0.163394
    29  H    0.147719
    30  H    0.148850
 Sum of Mulliken atomic charges =  -0.00000
 Mulliken charges with hydrogens summed into heavy atoms:
              1
     1  C   -0.038499
     2  C    0.160306
     3  C   -0.054229
     4  C    0.000968
     5  C   -0.038282
     6  C    0.355770
     7  C   -0.049445
     8  O   -0.543283
     9  C    0.640246
    10  O   -0.465741
    11  C   -0.002427
    12  C    0.012503
    13  C    0.012685
    14  C    0.009428
 Sum of Mulliken charges with hydrogens summed into heavy atoms =  -0.00000
 Electronic spatial extent (au):  <R**2>=           3595.3938
 Charge=             -0.0000 electrons
 Dipole moment (field-independent basis, Debye):
    X=             -0.0142    Y=              0.7492    Z=              1.4763  Tot=              1.6556
 Quadrupole moment (field-independent basis, Debye-Ang):
   XX=            -72.5995   YY=            -80.9017   ZZ=            -87.6947
   XY=             -1.7742   XZ=             -1.1472   YZ=             -3.5334
 Traceless Quadrupole moment (field-independent basis, Debye-Ang):
   XX=              7.7991   YY=             -0.5031   ZZ=             -7.2960
   XY=             -1.7742   XZ=             -1.1472   YZ=             -3.5334
 Octapole moment (field-independent basis, Debye-Ang**2):
  XXX=              2.0356  YYY=              6.1206  ZZZ=             -1.4940  XYY=              9.6679
  XXY=              1.7484  XXZ=              1.8929  XZZ=             -9.3368  YZZ=              0.0428
  YYZ=              1.4861  XYZ=              1.3054
 Hexadecapole moment (field-independent basis, Debye-Ang**3):
 XXXX=          -3539.6822 YYYY=           -789.5080 ZZZZ=           -325.7118 XXXY=             -0.8797
 XXXZ=             -7.4992 YYYX=             16.3607 YYYZ=             -1.1098 ZZZX=              9.9897
 ZZZY=              0.4053 XXYY=           -740.5932 XXZZ=           -697.7429 YYZZ=           -197.4141
 XXYZ=             -3.9033 YYXZ=             -5.2899 ZZXY=            -11.7339
 N-N= 8.824564202531D+02 E-N=-3.199381743558D+03  KE= 6.113993835426D+02
 No NMR shielding tensors so no spin-rotation constants.
 Leave Link  601 at Thu Sep 30 23:50:23 2021, MaxMem= 1342177280 cpu:       1.7
 (Enter /sw/target/amd/app/gaussian/Gaussian09RevA.02_gcc-4.9.2/g09/l701.exe)
 Compute integral first derivatives.
 ... and contract with generalized density number  0.
 Leave Link  701 at Thu Sep 30 23:50:25 2021, MaxMem= 1342177280 cpu:       1.5
 (Enter /sw/target/amd/app/gaussian/Gaussian09RevA.02_gcc-4.9.2/g09/l702.exe)
 L702 exits ... SP integral derivatives will be done elsewhere.
 Leave Link  702 at Thu Sep 30 23:50:26 2021, MaxMem= 1342177280 cpu:       0.1
 (Enter /sw/target/amd/app/gaussian/Gaussian09RevA.02_gcc-4.9.2/g09/l703.exe)
 Compute integral first derivatives, UseDBF=F ICtDFT=           0.
 Integral derivatives from FoFDir, PRISM(SPDF).
 Calling FoFJK, ICntrl=      2127 FMM=F ISym2X=0 I1Cent= 0 IOpClX= 0 NMat=1 NMatS=1 NMatT=0.
 FoFCou: FMM=F IPFlag=           0 FMFlag=      100000 FMFlg1=         800
         NFxFlg=           0 DoJE=F BraDBF=F KetDBF=F FulRan=T
         Omega=  0.000000  0.000000  1.000000  0.000000  0.000000 ICntrl=    2127 IOpCl=  0
         NMat0=    1 NMatS0=    1 NMatT0=    0 NMatD0=    1 NMtDS0=    0 NMtDT0=    0
         I1Cent=           0 NGrid=           0.
 Symmetry not used in FoFCou.
 Leave Link  703 at Thu Sep 30 23:51:45 2021, MaxMem= 1342177280 cpu:      84.2
 (Enter /sw/target/amd/app/gaussian/Gaussian09RevA.02_gcc-4.9.2/g09/l716.exe)
 Dipole        =-5.59434914D-03 2.94742048D-01 5.80831726D-01
 ***** Axes restored to original set *****
 -------------------------------------------------------------------
 Center     Atomic                   Forces (Hartrees/Bohr)
 Number     Number              X              Y              Z
 -------------------------------------------------------------------
      1        6          -0.000090951    0.004586014    0.000197330
      2        6           0.004534490   -0.004169189    0.003793160
      3        6           0.001487304   -0.000951769    0.003730561
      4        6          -0.003309250    0.001127300   -0.003329519
      5        6           0.003319552   -0.001174378    0.003362331
      6        6          -0.003840112   -0.004145616   -0.001236882
      7        6          -0.001145066   -0.000423681    0.000440944
      8        8          -0.011331894    0.015211582   -0.002303448
      9        6          -0.003436959    0.018207349   -0.002123144
     10        8           0.018474460   -0.030014096    0.000591888
     11        6          -0.008455250   -0.002444651    0.000310490
     12        6           0.008553994   -0.001175674    0.006356364
     13        6          -0.002793242    0.007727559   -0.000081064
     14        6           0.007704545   -0.003933625   -0.005949898
     15        1           0.000240596   -0.001054727   -0.001333297
     16        1          -0.001354751   -0.000671283   -0.003001464
     17        1          -0.001812163    0.001890180   -0.003199492
     18        1          -0.001683917    0.001068321   -0.000222690
     19        1          -0.000808924   -0.000186770    0.000555004
     20        1          -0.002477049   -0.000474770    0.000717653
     21        1           0.001746362    0.000318456    0.002307184
     22        1          -0.001467712   -0.000172763    0.000573342
     23        1          -0.000557871    0.000114592   -0.000816119
     24        1          -0.001700854    0.000500921   -0.001432210
     25        1           0.000322271   -0.000121796   -0.000999276
     26        1           0.002782730   -0.001684922    0.000165059
     27        1           0.000551199   -0.000034457    0.001015920
     28        1          -0.000492312    0.000999012    0.000474414
     29        1          -0.001514351   -0.000474823   -0.000219587
     30        1          -0.001444873    0.001557704    0.001656449
 -------------------------------------------------------------------
 Cartesian Forces:  Max     0.030014096 RMS     0.005357328
 Leave Link  716 at Thu Sep 30 23:51:46 2021, MaxMem= 1342177280 cpu:       0.1
 (Enter /sw/target/amd/app/gaussian/Gaussian09RevA.02_gcc-4.9.2/g09/l103.exe)

 GradGradGradGradGradGradGradGradGradGradGradGradGradGradGradGradGradGrad
 Berny optimization.
 Internal  Forces:  Max     0.034523506 RMS     0.003856707
 Search for a local minimum.
 Step number   1 out of a maximum of  159
 All quantities printed in internal units (Hartrees-Bohrs-Radians)
 RMS Force = .38567D-02 SwitMx=.10000D-02 MixMth= 1
 Mixed Optimization -- RFO/linear search
 Second derivative matrix not updated -- first step.
     Eigenvalues ---    0.00273   0.00282   0.00332   0.00341   0.00694
     Eigenvalues ---    0.00774   0.01561   0.01585   0.01734   0.02090
     Eigenvalues ---    0.02098   0.02100   0.02125   0.02135   0.02138
     Eigenvalues ---    0.02165   0.02169   0.04759   0.05216   0.05377
     Eigenvalues ---    0.05388   0.05411   0.05427   0.05428   0.05436
     Eigenvalues ---    0.05469   0.07261   0.07384   0.14926   0.15144
     Eigenvalues ---    0.15996   0.15998   0.15998   0.16000   0.16000
     Eigenvalues ---    0.16000   0.16000   0.16000   0.16000   0.16000
     Eigenvalues ---    0.16000   0.16000   0.16000   0.16000   0.16000
     Eigenvalues ---    0.16000   0.21999   0.23450   0.23470   0.24787
     Eigenvalues ---    0.24968   0.25000   0.25000   0.25000   0.28762
     Eigenvalues ---    0.28822   0.29163   0.29230   0.32440   0.34064
     Eigenvalues ---    0.34110   0.34121   0.34136   0.34144   0.34151
     Eigenvalues ---    0.34170   0.34176   0.34181   0.34185   0.34274
     Eigenvalues ---    0.34288   0.35051   0.35141   0.35186   0.35355
     Eigenvalues ---    0.41923   0.42083   0.44315   0.45668   0.46145
     Eigenvalues ---    0.46152   0.46228   0.46606   0.926291000.00000
     Eigenvalues --- 1000.000001000.000001000.000001000.000001000.00000
     Eigenvalues --- 1000.000001000.000001000.000001000.000001000.00000
     Eigenvalues --- 1000.000001000.000001000.000001000.000001000.00000
     Eigenvalues --- 1000.000001000.000001000.000001000.000001000.00000
     Eigenvalues --- 1000.000001000.000001000.000001000.000001000.00000
     Eigenvalues --- 1000.000001000.000001000.000001000.000001000.00000
     Eigenvalues --- 1000.000001000.000001000.000001000.000001000.00000
     Eigenvalues --- 1000.000001000.000001000.000001000.000001000.00000
     Eigenvalues --- 1000.000001000.000001000.000001000.000001000.00000
     Eigenvalues --- 1000.000001000.000001000.000001000.000001000.00000
     Eigenvalues --- 1000.000001000.000001000.000001000.000001000.00000
     Eigenvalues --- 1000.000001000.000001000.000001000.000001000.00000
     Eigenvalues --- 1000.000001000.000001000.000001000.00000
 RFO step:  Lambda=-6.79270115D-03 EMin= 2.72893566D-03
 Linear search not attempted -- first point.
 Maximum step size (   0.300) exceeded in Quadratic search.
    -- Step size scaled by   0.896
 Iteration  1 RMS(Cart)=  0.13977937 RMS(Int)=  0.00480287
 Iteration  2 RMS(Cart)=  0.01127378 RMS(Int)=  0.00028373
 Iteration  3 RMS(Cart)=  0.00003450 RMS(Int)=  0.00028342
 Iteration  4 RMS(Cart)=  0.00000001 RMS(Int)=  0.00028342
 Variable       Old X    -DE/DX   Delta X   Delta X   Delta X     New X
                                 (Linear)    (Quad)   (Total)
    R1        2.83347   0.00923   0.00000   0.02497   0.02497   2.85844
    R2        2.06870  -0.00013   0.00000  -0.00034  -0.00034   2.06835
    R3        2.07019   0.00008   0.00000   0.00022   0.00022   2.07040
    R4        2.06847   0.00171   0.00000   0.00438   0.00438   2.07285
    R5        2.64662  -0.00061   0.00000  -0.00106  -0.00113   2.64549
    R6        2.64588   0.00131   0.00000   0.00266   0.00266   2.64854
    R7        2.64209  -0.00137   0.00000  -0.00263  -0.00270   2.63939
    R8        2.05592  -0.00056   0.00000  -0.00141  -0.00141   2.05451
    R9        2.63525  -0.00099   0.00000  -0.00199  -0.00199   2.63326
   R10        2.05447  -0.00062   0.00000  -0.00156  -0.00156   2.05291
   R11        2.63321  -0.00139   0.00000  -0.00275  -0.00268   2.63053
   R12        2.05102   0.00017   0.00000   0.00041   0.00041   2.05143
   R13        2.63564  -0.00092   0.00000  -0.00176  -0.00169   2.63395
   R14        2.66080  -0.00722   0.00000  -0.01438  -0.01438   2.64642
   R15        2.05375  -0.00232   0.00000  -0.00578  -0.00578   2.04796
   R16        2.63961  -0.01882   0.00000  -0.03599  -0.03599   2.60361
   R17        2.31744  -0.03452   0.00000  -0.03314  -0.03314   2.28430
   R18        2.89526  -0.00122   0.00000  -0.00364  -0.00364   2.89162
   R19        2.89665   0.00593   0.00000   0.01780   0.01780   2.91445
   R20        2.90503   0.00076   0.00000   0.00232   0.00232   2.90735
   R21        2.90375   0.00448   0.00000   0.01359   0.01359   2.91734
   R22        2.07127   0.00034   0.00000   0.00088   0.00088   2.07215
   R23        2.07088  -0.00052   0.00000  -0.00134  -0.00134   2.06954
   R24        2.07026   0.00011   0.00000   0.00029   0.00029   2.07055
   R25        2.07102  -0.00083   0.00000  -0.00213  -0.00213   2.06889
   R26        2.07044  -0.00026   0.00000  -0.00066  -0.00066   2.06978
   R27        2.07222  -0.00108   0.00000  -0.00278  -0.00278   2.06944
   R28        2.07076  -0.00085   0.00000  -0.00218  -0.00218   2.06858
   R29        2.07144   0.00039   0.00000   0.00100   0.00100   2.07245
   R30        2.07034  -0.00001   0.00000  -0.00003  -0.00003   2.07031
    A1        1.94650  -0.00044   0.00000  -0.00120  -0.00124   1.94527
    A2        1.92475   0.00293   0.00000   0.01710   0.01701   1.94176
    A3        1.91883   0.00417   0.00000   0.01992   0.01986   1.93869
    A4        1.87552  -0.00029   0.00000   0.00321   0.00314   1.87866
    A5        1.89526  -0.00254   0.00000  -0.01616  -0.01615   1.87911
    A6        1.90185  -0.00414   0.00000  -0.02447  -0.02458   1.87727
    A7        2.11740  -0.00004   0.00000   0.00014   0.00002   2.11742
    A8        2.08423   0.00189   0.00000   0.00685   0.00673   2.09096
    A9        2.08048  -0.00182   0.00000  -0.00583  -0.00590   2.07459
   A10        2.10256   0.00080   0.00000   0.00308   0.00304   2.10559
   A11        2.10055  -0.00216   0.00000  -0.01098  -0.01097   2.08957
   A12        2.08006   0.00136   0.00000   0.00796   0.00796   2.08802
   A13        2.09630   0.00147   0.00000   0.00526   0.00524   2.10154
   A14        2.09287   0.00002   0.00000   0.00154   0.00146   2.09433
   A15        2.09388  -0.00148   0.00000  -0.00650  -0.00657   2.08731
   A16        2.08441  -0.00219   0.00000  -0.00943  -0.00932   2.07510
[...]
 No NMR shielding tensors so no spin-rotation constants.
 Leave Link  601 at Fri Oct  1 05:52:39 2021, MaxMem= 1342177280 cpu:       1.6
 (Enter /sw/target/amd/app/gaussian/Gaussian09RevA.02_gcc-4.9.2/g09/l604.exe)
 Evaluate density.
 Using the total density.
 Monte-Carlo method of calculating molar volume:
 based on  0.001 e/bohr**3 density envelope.
 Number of points per bohr**3 =   20 CutOff= 1.00D-04
 Using the CI density.
 There are       422 points.  Will hold       422 in memory.
 LenV=  1342014662 MDV=  1342177280.
 Box volume = 9439.676 fraction occupied=0.182
 Integrated density= 1.0427007871435271D+02 error= 2.7007871435270658D-01
 Molar volume = 1722.405 bohr**3/mol (153.706 cm**3/mol)
 Recommended a0 for SCRF calculation =  4.83 angstrom (  9.13 bohr)
 Leave Link  604 at Fri Oct  1 05:52:40 2021, MaxMem= 1342177280 cpu:       0.3
 (Enter /sw/target/amd/app/gaussian/Gaussian09RevA.02_gcc-4.9.2/g09/l607.exe)
 ******************************Gaussian NBO Version 3.1******************************
             N A T U R A L   A T O M I C   O R B I T A L   A N D
          N A T U R A L   B O N D   O R B I T A L   A N A L Y S I S
 ******************************Gaussian NBO Version 3.1******************************
       /RESON  / : Allow strongly delocalized NBO set

 Analyzing the CI density

 Job title: Cc1cccc(c1)OC(=O)C(C)(C)C_conf_0                                

 Storage needed:    178664 in NPA (1342172480 available)


 NATURAL POPULATIONS:  Natural atomic orbital occupancies 
                                                          
   NAO  Atom  No  lang   Type(AO)    Occupancy
 --------------------------------------------
     1    C    1  S      Cor( 1S)     1.99940
     2    C    1  S      Val( 2S)     1.10106
     3    C    1  S      Ryd( 3S)     0.00025
     4    C    1  S      Ryd( 4S)     0.00001
     5    C    1  px     Val( 2p)     1.20474
     6    C    1  px     Ryd( 3p)     0.00227
     7    C    1  py     Val( 2p)     1.13953
     8    C    1  py     Ryd( 3p)     0.00139
     9    C    1  pz     Val( 2p)     1.24190
    10    C    1  pz     Ryd( 3p)     0.00044
    11    C    1  dxy    Ryd( 3d)     0.00057
    12    C    1  dxz    Ryd( 3d)     0.00031
    13    C    1  dyz    Ryd( 3d)     0.00098
    14    C    1  dx2y2  Ryd( 3d)     0.00076
    15    C    1  dz2    Ryd( 3d)     0.00074

    16    C    2  S      Cor( 1S)     1.99907
    17    C    2  S      Val( 2S)     0.89347
    18    C    2  S      Ryd( 3S)     0.00051
    19    C    2  S      Ryd( 4S)     0.00006
    20    C    2  px     Val( 2p)     1.06653
    21    C    2  px     Ryd( 3p)     0.00447
    22    C    2  py     Val( 2p)     1.06328
    23    C    2  py     Ryd( 3p)     0.00446
    24    C    2  pz     Val( 2p)     0.95631
    25    C    2  pz     Ryd( 3p)     0.00324
    26    C    2  dxy    Ryd( 3d)     0.00070
    27    C    2  dxz    Ryd( 3d)     0.00073
    28    C    2  dyz    Ryd( 3d)     0.00066
    29    C    2  dx2y2  Ryd( 3d)     0.00084
    30    C    2  dz2    Ryd( 3d)     0.00039

    31    C    3  S      Cor( 1S)     1.99906
    32    C    3  S      Val( 2S)     0.96201
    33    C    3  S      Ryd( 3S)     0.00054
    34    C    3  S      Ryd( 4S)     0.00004
    35    C    3  px     Val( 2p)     1.18936
    36    C    3  px     Ryd( 3p)     0.00445
    37    C    3  py     Val( 2p)     1.05339
    38    C    3  py     Ryd( 3p)     0.00411
    39    C    3  pz     Val( 2p)     1.00056
    40    C    3  pz     Ryd( 3p)     0.00364
    41    C    3  dxy    Ryd( 3d)     0.00067
    42    C    3  dxz    Ryd( 3d)     0.00036
    43    C    3  dyz    Ryd( 3d)     0.00070
    44    C    3  dx2y2  Ryd( 3d)     0.00089
    45    C    3  dz2    Ryd( 3d)     0.00044

    46    C    4  S      Cor( 1S)     1.99915
    47    C    4  S      Val( 2S)     0.96581
    48    C    4  S      Ryd( 3S)     0.00058
    49    C    4  S      Ryd( 4S)     0.00004
    50    C    4  px     Val( 2p)     1.07504
    51    C    4  px     Ryd( 3p)     0.00510
    52    C    4  py     Val( 2p)     1.16138
    53    C    4  py     Ryd( 3p)     0.00490
    54    C    4  pz     Val( 2p)     1.02390
    55    C    4  pz     Ryd( 3p)     0.00438
    56    C    4  dxy    Ryd( 3d)     0.00075
    57    C    4  dxz    Ryd( 3d)     0.00062
    58    C    4  dyz    Ryd( 3d)     0.00045
    59    C    4  dx2y2  Ryd( 3d)     0.00073
    60    C    4  dz2    Ryd( 3d)     0.00043

    61    C    5  S      Cor( 1S)     1.99903
    62    C    5  S      Val( 2S)     0.97447
    63    C    5  S      Ryd( 3S)     0.00070
    64    C    5  S      Ryd( 4S)     0.00005
    65    C    5  px     Val( 2p)     1.10439
    66    C    5  px     Ryd( 3p)     0.00479
    67    C    5  py     Val( 2p)     1.14822
    68    C    5  py     Ryd( 3p)     0.00435
    69    C    5  pz     Val( 2p)     0.98578
    70    C    5  pz     Ryd( 3p)     0.00418
    71    C    5  dxy    Ryd( 3d)     0.00085
    72    C    5  dxz    Ryd( 3d)     0.00064
    73    C    5  dyz    Ryd( 3d)     0.00050
    74    C    5  dx2y2  Ryd( 3d)     0.00061
    75    C    5  dz2    Ryd( 3d)     0.00047

    76    C    6  S      Cor( 1S)     1.99875
    77    C    6  S      Val( 2S)     0.84321
    78    C    6  S      Ryd( 3S)     0.00134
    79    C    6  S      Ryd( 4S)     0.00012
    80    C    6  px     Val( 2p)     0.73877
    81    C    6  px     Ryd( 3p)     0.00712
    82    C    6  py     Val( 2p)     1.08285
    83    C    6  py     Ryd( 3p)     0.00566
    84    C    6  pz     Val( 2p)     1.00743
    85    C    6  pz     Ryd( 3p)     0.00420
    86    C    6  dxy    Ryd( 3d)     0.00134
    87    C    6  dxz    Ryd( 3d)     0.00139
    88    C    6  dyz    Ryd( 3d)     0.00092
    89    C    6  dx2y2  Ryd( 3d)     0.00169
    90    C    6  dz2    Ryd( 3d)     0.00054

    91    C    7  S      Cor( 1S)     1.99896
    92    C    7  S      Val( 2S)     0.95950
    93    C    7  S      Ryd( 3S)     0.00076
    94    C    7  S      Ryd( 4S)     0.00006
    95    C    7  px     Val( 2p)     1.08832
    96    C    7  px     Ryd( 3p)     0.00400
    97    C    7  py     Val( 2p)     1.16764
    98    C    7  py     Ryd( 3p)     0.00404
    99    C    7  pz     Val( 2p)     1.05123
   100    C    7  pz     Ryd( 3p)     0.00570
   101    C    7  dxy    Ryd( 3d)     0.00079
   102    C    7  dxz    Ryd( 3d)     0.00056
   103    C    7  dyz    Ryd( 3d)     0.00051
   104    C    7  dx2y2  Ryd( 3d)     0.00061
   105    C    7  dz2    Ryd( 3d)     0.00044

   106    O    8  S      Cor( 1S)     1.99970
   107    O    8  S      Val( 2S)     1.59810
   108    O    8  S      Ryd( 3S)     0.00134
   109    O    8  S      Ryd( 4S)     0.00010
   110    O    8  px     Val( 2p)     1.45054
   111    O    8  px     Ryd( 3p)     0.00096
   112    O    8  py     Val( 2p)     1.75774
   113    O    8  py     Ryd( 3p)     0.00225
   114    O    8  pz     Val( 2p)     1.70988
   115    O    8  pz     Ryd( 3p)     0.00137
   116    O    8  dxy    Ryd( 3d)     0.00080
   117    O    8  dxz    Ryd( 3d)     0.00104
   118    O    8  dyz    Ryd( 3d)     0.00101
   119    O    8  dx2y2  Ryd( 3d)     0.00109
   120    O    8  dz2    Ryd( 3d)     0.00128

   121    C    9  S      Cor( 1S)     1.99928
   122    C    9  S      Val( 2S)     0.77271
   123    C    9  S      Ryd( 3S)     0.00660
   124    C    9  S      Ryd( 4S)     0.00049
   125    C    9  px     Val( 2p)     0.86970
   126    C    9  px     Ryd( 3p)     0.00623
   127    C    9  py     Val( 2p)     0.75689
   128    C    9  py     Ryd( 3p)     0.01378
   129    C    9  pz     Val( 2p)     0.76656
   130    C    9  pz     Ryd( 3p)     0.01240
   131    C    9  dxy    Ryd( 3d)     0.00223
   132    C    9  dxz    Ryd( 3d)     0.00211
   133    C    9  dyz    Ryd( 3d)     0.00110
   134    C    9  dx2y2  Ryd( 3d)     0.00194
   135    C    9  dz2    Ryd( 3d)     0.00201

   136    O   10  S      Cor( 1S)     1.99977
   137    O   10  S      Val( 2S)     1.69571
   138    O   10  S      Ryd( 3S)     0.00056
   139    O   10  S      Ryd( 4S)     0.00013
   140    O   10  px     Val( 2p)     1.76030
   141    O   10  px     Ryd( 3p)     0.00155
   142    O   10  py     Val( 2p)     1.55709
   143    O   10  py     Ryd( 3p)     0.00105
   144    O   10  pz     Val( 2p)     1.53240
   145    O   10  pz     Ryd( 3p)     0.00092
   146    O   10  dxy    Ryd( 3d)     0.00267
   147    O   10  dxz    Ryd( 3d)     0.00256
   148    O   10  dyz    Ryd( 3d)     0.00419
   149    O   10  dx2y2  Ryd( 3d)     0.00275
   150    O   10  dz2    Ryd( 3d)     0.00379

   151    C   11  S      Cor( 1S)     1.99906
   152    C   11  S      Val( 2S)     0.94027
   153    C   11  S      Ryd( 3S)     0.00046
   154    C   11  S      Ryd( 4S)     0.00003
   155    C   11  px     Val( 2p)     1.06120
   156    C   11  px     Ryd( 3p)     0.00198
   157    C   11  py     Val( 2p)     1.06716
   158    C   11  py     Ryd( 3p)     0.00322
   159    C   11  pz     Val( 2p)     1.06549
   160    C   11  pz     Ryd( 3p)     0.00303
   161    C   11  dxy    Ryd( 3d)     0.00062
   162    C   11  dxz    Ryd( 3d)     0.00063
   163    C   11  dyz    Ryd( 3d)     0.00070
   164    C   11  dx2y2  Ryd( 3d)     0.00108
   165    C   11  dz2    Ryd( 3d)     0.00095

   166    C   12  S      Cor( 1S)     1.99938
   167    C   12  S      Val( 2S)     1.09558
   168    C   12  S      Ryd( 3S)     0.00059
   169    C   12  S      Ryd( 4S)     0.00002
   170    C   12  px     Val( 2p)     1.23487
   171    C   12  px     Ryd( 3p)     0.00187
   172    C   12  py     Val( 2p)     1.08855
   173    C   12  py     Ryd( 3p)     0.00167
   174    C   12  pz     Val( 2p)     1.24079
   175    C   12  pz     Ryd( 3p)     0.00232
   176    C   12  dxy    Ryd( 3d)     0.00062
   177    C   12  dxz    Ryd( 3d)     0.00035
   178    C   12  dyz    Ryd( 3d)     0.00058
   179    C   12  dx2y2  Ryd( 3d)     0.00079
   180    C   12  dz2    Ryd( 3d)     0.00102

   181    C   13  S      Cor( 1S)     1.99939
   182    C   13  S      Val( 2S)     1.09042
   183    C   13  S      Ryd( 3S)     0.00058
   184    C   13  S      Ryd( 4S)     0.00002
   185    C   13  px     Val( 2p)     1.17850
   186    C   13  px     Ryd( 3p)     0.00255
   187    C   13  py     Val( 2p)     1.18011
   188    C   13  py     Ryd( 3p)     0.00218
   189    C   13  pz     Val( 2p)     1.20976
   190    C   13  pz     Ryd( 3p)     0.00234
   191    C   13  dxy    Ryd( 3d)     0.00039
   192    C   13  dxz    Ryd( 3d)     0.00033
   193    C   13  dyz    Ryd( 3d)     0.00034
   194    C   13  dx2y2  Ryd( 3d)     0.00109
   195    C   13  dz2    Ryd( 3d)     0.00118

   196    C   14  S      Cor( 1S)     1.99938
   197    C   14  S      Val( 2S)     1.09607
   198    C   14  S      Ryd( 3S)     0.00059
   199    C   14  S      Ryd( 4S)     0.00002
   200    C   14  px     Val( 2p)     1.24613
   201    C   14  px     Ryd( 3p)     0.00192
   202    C   14  py     Val( 2p)     1.24685
   203    C   14  py     Ryd( 3p)     0.00236
   204    C   14  pz     Val( 2p)     1.07134
   205    C   14  pz     Ryd( 3p)     0.00153
   206    C   14  dxy    Ryd( 3d)     0.00049
   207    C   14  dxz    Ryd( 3d)     0.00060
   208    C   14  dyz    Ryd( 3d)     0.00065
   209    C   14  dx2y2  Ryd( 3d)     0.00091
   210    C   14  dz2    Ryd( 3d)     0.00071

   211    H   15  S      Val( 1S)     0.76078
   212    H   15  S      Ryd( 2S)     0.00081

   213    H   16  S      Val( 1S)     0.74968
   214    H   16  S      Ryd( 2S)     0.00198

   215    H   17  S      Val( 1S)     0.75206
   216    H   17  S      Ryd( 2S)     0.00203

   217    H   18  S      Val( 1S)     0.76809
   218    H   18  S      Ryd( 2S)     0.00098

   219    H   19  S      Val( 1S)     0.76377
   220    H   19  S      Ryd( 2S)     0.00083

   221    H   20  S      Val( 1S)     0.75586
   222    H   20  S      Ryd( 2S)     0.00116

   223    H   21  S      Val( 1S)     0.74999
   224    H   21  S      Ryd( 2S)     0.00120

   225    H   22  S      Val( 1S)     0.76353
   226    H   22  S      Ryd( 2S)     0.00095

   227    H   23  S      Val( 1S)     0.75835
   228    H   23  S      Ryd( 2S)     0.00117

   229    H   24  S      Val( 1S)     0.76657
   230    H   24  S      Ryd( 2S)     0.00116

   231    H   25  S      Val( 1S)     0.75637
   232    H   25  S      Ryd( 2S)     0.00106

   233    H   26  S      Val( 1S)     0.77054
   234    H   26  S      Ryd( 2S)     0.00094

   235    H   27  S      Val( 1S)     0.75761
   236    H   27  S      Ryd( 2S)     0.00105

   237    H   28  S      Val( 1S)     0.75660
   238    H   28  S      Ryd( 2S)     0.00106

   239    H   29  S      Val( 1S)     0.76454
   240    H   29  S      Ryd( 2S)     0.00097

   241    H   30  S      Val( 1S)     0.76668
   242    H   30  S      Ryd( 2S)     0.00137

 WARNING:  1 low occupancy (<1.9990e) core orbital  found on  C    6
           1 low occupancy (<1.9990e) core orbital  found on  C    7


 Summary of Natural Population Analysis:                  
                                                          
                                       Natural Population 
                Natural  -----------------------------------------------
    Atom  No    Charge         Core      Valence    Rydberg      Total
 -----------------------------------------------------------------------
      C    1   -0.69433      1.99940     4.68723    0.00770     6.69433
      C    2    0.00529      1.99907     3.97958    0.01605     5.99471
      C    3   -0.22022      1.99906     4.20533    0.01583     6.22022
      C    4   -0.24326      1.99915     4.22613    0.01798     6.24326
      C    5   -0.22902      1.99903     4.21285    0.01714     6.22902
      C    6    0.30467      1.99875     3.67226    0.02433     5.69533
      C    7   -0.28312      1.99896     4.26669    0.01747     6.28312
      O    8   -0.52721      1.99970     6.51626    0.01125     8.52721
      C    9    0.78598      1.99928     3.16586    0.04888     5.21402
      O   10   -0.56543      1.99977     6.54550    0.02016     8.56543
      C   11   -0.14588      1.99906     4.13412    0.01270     6.14588
      C   12   -0.66899      1.99938     4.65978    0.00983     6.66899
      C   13   -0.66918      1.99939     4.65879    0.01100     6.66918
      C   14   -0.66955      1.99938     4.66039    0.00978     6.66955
      H   15    0.23841      0.00000     0.76078    0.00081     0.76159
      H   16    0.24834      0.00000     0.74968    0.00198     0.75166
      H   17    0.24591      0.00000     0.75206    0.00203     0.75409
      H   18    0.23094      0.00000     0.76809    0.00098     0.76906
      H   19    0.23540      0.00000     0.76377    0.00083     0.76460
      H   20    0.24298      0.00000     0.75586    0.00116     0.75702
      H   21    0.24880      0.00000     0.74999    0.00120     0.75120
      H   22    0.23552      0.00000     0.76353    0.00095     0.76448
      H   23    0.24048      0.00000     0.75835    0.00117     0.75952
      H   24    0.23227      0.00000     0.76657    0.00116     0.76773
      H   25    0.24257      0.00000     0.75637    0.00106     0.75743
      H   26    0.22852      0.00000     0.77054    0.00094     0.77148
      H   27    0.24134      0.00000     0.75761    0.00105     0.75866
      H   28    0.24233      0.00000     0.75660    0.00106     0.75767
      H   29    0.23448      0.00000     0.76454    0.00097     0.76552
      H   30    0.23195      0.00000     0.76668    0.00137     0.76805
 =======================================================================
   * Total *    0.00000     27.98938    75.75181    0.25881   104.00000

                                 Natural Population      
 --------------------------------------------------------
   Core                      27.98938 ( 99.9621% of  28)
   Valence                   75.75181 ( 99.6734% of  76)
   Natural Minimal Basis    103.74119 ( 99.7511% of 104)
   Natural Rydberg Basis      0.25881 (  0.2489% of 104)
 --------------------------------------------------------

    Atom  No          Natural Electron Configuration
 ----------------------------------------------------------------------------
      C    1      [core]2S( 1.10)2p( 3.59)
      C    2      [core]2S( 0.89)2p( 3.09)3p( 0.01)
      C    3      [core]2S( 0.96)2p( 3.24)3p( 0.01)
      C    4      [core]2S( 0.97)2p( 3.26)3p( 0.01)
      C    5      [core]2S( 0.97)2p( 3.24)3p( 0.01)
      C    6      [core]2S( 0.84)2p( 2.83)3p( 0.02)3d( 0.01)
      C    7      [core]2S( 0.96)2p( 3.31)3p( 0.01)
      O    8      [core]2S( 1.60)2p( 4.92)3d( 0.01)
      C    9      [core]2S( 0.77)2p( 2.39)3S( 0.01)3p( 0.03)3d( 0.01)
      O   10      [core]2S( 1.70)2p( 4.85)3d( 0.02)
      C   11      [core]2S( 0.94)2p( 3.19)3p( 0.01)
      C   12      [core]2S( 1.10)2p( 3.56)3p( 0.01)
      C   13      [core]2S( 1.09)2p( 3.57)3p( 0.01)
      C   14      [core]2S( 1.10)2p( 3.56)3p( 0.01)
      H   15            1S( 0.76)
      H   16            1S( 0.75)
      H   17            1S( 0.75)
      H   18            1S( 0.77)
      H   19            1S( 0.76)
      H   20            1S( 0.76)
      H   21            1S( 0.75)
      H   22            1S( 0.76)
      H   23            1S( 0.76)
      H   24            1S( 0.77)
      H   25            1S( 0.76)
      H   26            1S( 0.77)
      H   27            1S( 0.76)
      H   28            1S( 0.76)
      H   29            1S( 0.76)
      H   30            1S( 0.77)


 NBO analysis skipped by request.
 Leave Link  607 at Fri Oct  1 05:52:50 2021, MaxMem= 1342177280 cpu:      20.6
 (Enter /sw/target/amd/app/gaussian/Gaussian09RevA.02_gcc-4.9.2/g09/l9999.exe)
 1\1\GINC-HERMITE\SP\RTD-B3LYP-FC\6-31G(d)\C12H16O2\JSCHLEINITZ\01-Oct-
 2021\0\\#p TD(NStates=10, Root=1) b3lyp/6-31G* volume pop=NPA density=
 current Geom=AllCheck Guess=Read\\Cc1cccc(c1)OC(=O)C(C)(C)C_conf_0\\0,
 1\C,0,-0.9451668195,-0.113924474,-3.9003931369\C,0,-0.6431547071,-0.96
 14751539,-2.6856913792\C,0,0.6244689329,-0.9528176609,-2.0921010212\C,
 0,0.8958419701,-1.7451075439,-0.9749067489\C,0,-0.0971571642,-2.555068
 2073,-0.4286181672\C,0,-1.3595029867,-2.5599811321,-1.0196333602\C,0,-
 1.6400622972,-1.7807697799,-2.1382354456\O,0,-2.2916994648,-3.45033670
 09,-0.4789080227\C,0,-3.5608085801,-3.0348223329,-0.1595348206\O,0,-3.
 9567179544,-1.9065413402,-0.324456785\C,0,-4.3720415307,-4.1951324167,
 0.4276960171\C,0,-3.6703646987,-4.7065309839,1.7062161888\C,0,-5.78132
 6446,-3.6842982662,0.7663751664\C,0,-4.4519971427,-5.3328915148,-0.614
 6319967\H,0,-0.0985745673,0.5299226667,-4.1578362067\H,0,-1.8175874594
 ,0.5283643728,-3.7314039711\H,0,-1.1684044218,-0.7363303688,-4.7762746
 56\H,0,1.4050853235,-0.3209331955,-2.5082536879\H,0,1.8852598816,-1.73
 02312444,-0.5260319941\H,0,0.0883070759,-3.1800745532,0.4389989104\H,0
 ,-2.6318757588,-1.8014561531,-2.5754627256\H,0,-3.5832513378,-3.911291
 68,2.4556331706\H,0,-2.6679556593,-5.0844122277,1.487211934\H,0,-4.257
 6393494,-5.5200887236,2.1471340068\H,0,-5.7427671885,-2.8667159076,1.4
 924323443\H,0,-6.3780765408,-4.4987579161,1.1922293785\H,0,-6.29297442
 04,-3.3096450819,-0.1253169428\H,0,-3.4581529478,-5.7094438352,-0.8719
 472137\H,0,-4.9409718338,-4.9941877611,-1.5355254007\H,0,-5.0413450802
 ,-6.1632118695,-0.2085271432\\Version=AM64L-G09RevA.02\State=1-A\HF=-6
 17.3853456\RMSD=9.428e-09\Dipole=0.5080667,-0.3484223,-0.2189995\Quadr
 upole=0.6032943,-1.8562609,1.2529666,4.6986539,-0.1978191,-4.2567884\P
 G=C01 [X(C12H16O2)]\\@


 MAN IS A SINGULAR CREATURE.  HE HAS A SET OF GIFTS
 WHICH MAKE HIM UNIQUE AMONG THE ANIMALS: SO THAT, 
 UNLIKE THEM, HE IS NOT A FIGURE IN THE LANDSCAPE --
 HE IS A SHAPER OF THE LANDSCAPE.

                       -- JACOB BRONOWSKI
 Job cpu time:  0 days  3 hours 27 minutes 35.7 seconds.
 File lengths (MBytes):  RWF=    199 Int=      0 D2E=      0 Chk=     27 Scr=      1
 Normal termination of Gaussian 09 at Fri Oct  1 05:52:53 2021.
