 Entering Gaussian System, Link 0=g09
 Input=C12H12O_d53c_conf_0.com
 Output=C12H12O_d53c_conf_0.log
 Initial command:
 /sw/target/amd/app/gaussian/Gaussian09RevA.02_gcc-4.9.2/g09/l1.exe /home/jschleinitz/gaussian/Gau-3165518.inp -scrdir=/home/jschleinitz/gaussian/
 Entering Link 1 = /sw/target/amd/app/gaussian/Gaussian09RevA.02_gcc-4.9.2/g09/l1.exe PID=   3165522.
  
 Copyright (c) 1988,1990,1992,1993,1995,1998,2003,2009, Gaussian, Inc.
                  All Rights Reserved.
  
 This is part of the Gaussian(R) 09 program.  It is based on
 the Gaussian(R) 03 system (copyright 2003, Gaussian, Inc.),
 the Gaussian(R) 98 system (copyright 1998, Gaussian, Inc.),
 the Gaussian(R) 94 system (copyright 1995, Gaussian, Inc.),
 the Gaussian 92(TM) system (copyright 1992, Gaussian, Inc.),
 the Gaussian 90(TM) system (copyright 1990, Gaussian, Inc.),
 the Gaussian 88(TM) system (copyright 1988, Gaussian, Inc.),
 the Gaussian 86(TM) system (copyright 1986, Carnegie Mellon
 University), and the Gaussian 82(TM) system (copyright 1983,
 Carnegie Mellon University). Gaussian is a federally registered
 trademark of Gaussian, Inc.
  
 This software contains proprietary and confidential information,
 including trade secrets, belonging to Gaussian, Inc.
  
 This software is provided under written license and may be
 used, copied, transmitted, or stored only in accord with that
 written license.
  
 The following legend is applicable only to US Government
 contracts under FAR:
  
                    RESTRICTED RIGHTS LEGEND
  
 Use, reproduction and disclosure by the US Government is
 subject to restrictions as set forth in subparagraphs (a)
 and (c) of the Commercial Computer Software - Restricted
 Rights clause in FAR 52.227-19.
  
 Gaussian, Inc.
 340 Quinnipiac St., Bldg. 40, Wallingford CT 06492
  
  
 ---------------------------------------------------------------
 Warning -- This program may not be used in any manner that
 competes with the business of Gaussian, Inc. or will provide
 assistance to any competitor of Gaussian, Inc.  The licensee
 of this program is prohibited from giving any competitor of
 Gaussian, Inc. access to this program.  By using this program,
 the user acknowledges that Gaussian, Inc. is engaged in the
 business of creating and licensing software in the field of
 computational chemistry and represents and warrants to the
 licensee that it is not a competitor of Gaussian, Inc. and that
 it will not use this program in any manner prohibited above.
 ---------------------------------------------------------------
  

 Cite this work as:
 Gaussian 09, Revision A.02,
 M. J. Frisch, G. W. Trucks, H. B. Schlegel, G. E. Scuseria, 
 M. A. Robb, J. R. Cheeseman, G. Scalmani, V. Barone, B. Mennucci, 
 G. A. Petersson, H. Nakatsuji, M. Caricato, X. Li, H. P. Hratchian, 
 A. F. Izmaylov, J. Bloino, G. Zheng, J. L. Sonnenberg, M. Hada, 
 M. Ehara, K. Toyota, R. Fukuda, J. Hasegawa, M. Ishida, T. Nakajima, 
 Y. Honda, O. Kitao, H. Nakai, T. Vreven, J. A. Montgomery, Jr., 
 J. E. Peralta, F. Ogliaro, M. Bearpark, J. J. Heyd, E. Brothers, 
 K. N. Kudin, V. N. Staroverov, R. Kobayashi, J. Normand, 
 K. Raghavachari, A. Rendell, J. C. Burant, S. S. Iyengar, J. Tomasi, 
 M. Cossi, N. Rega, J. M. Millam, M. Klene, J. E. Knox, J. B. Cross, 
 V. Bakken, C. Adamo, J. Jaramillo, R. Gomperts, R. E. Stratmann, 
 O. Yazyev, A. J. Austin, R. Cammi, C. Pomelli, J. W. Ochterski, 
 R. L. Martin, K. Morokuma, V. G. Zakrzewski, G. A. Voth, 
 P. Salvador, J. J. Dannenberg, S. Dapprich, A. D. Daniels, 
 O. Farkas, J. B. Foresman, J. V. Ortiz, J. Cioslowski, 
 and D. J. Fox, Gaussian, Inc., Wallingford CT, 2009.
 
 ******************************************
 Gaussian 09:  AM64L-G09RevA.02 11-Jun-2009
                28-Sep-2021 
 ******************************************
 %nproc=4
 Will use up to    4 processors via shared memory.
 %mem=8gb
 %chk=C12H12O_d53c_conf_0.chk
 -----------------------------------
 #p opt b3lyp/6-31G* scf=(xqc,tight)
 -----------------------------------
 1/14=-1,18=20,19=15,26=3,38=1/1,3;
 2/9=110,12=2,17=6,18=5,40=1/2;
 3/5=1,6=6,7=1,11=2,16=1,25=1,30=1,71=1,74=-5/1,2,3;
 4//1;
 5/5=2,8=3,13=1,32=2,38=5/2,8;
 6/7=2,8=2,9=2,10=2,28=1/1;
 7//1,2,3,16;
 1/14=-1,18=20,19=15/3(2);
 2/9=110/2;
 99//99;
 2/9=110/2;
 3/5=1,6=6,7=1,11=2,16=1,25=1,30=1,71=1,74=-5/1,2,3;
 4/5=5,16=3/1;
 5/5=2,8=3,13=1,32=2,38=5/2,8;
 7//1,2,3,16;
 1/14=-1,18=20,19=15/3(-5);
 2/9=110/2;
 6/7=2,8=2,9=2,10=2,19=2,28=1/1;
 99/9=1/99;
 Leave Link    1 at Tue Sep 28 14:42:18 2021, MaxMem= 1073741824 cpu:       0.1
 (Enter /sw/target/amd/app/gaussian/Gaussian09RevA.02_gcc-4.9.2/g09/l101.exe)
 --------------------------
 CCOc1ccc2c(c1)cccc2_conf_0
 --------------------------
 Symbolic Z-matrix:
 Charge =  0 Multiplicity = 1
 C                     1.14915  -0.4595   -0.13481 
 C                     2.61439  -0.8164   -0.30203 
 O                     3.2101    0.1362   -1.18188 
 C                     4.5421   -0.02584  -1.45304 
 C                     5.36558  -1.02005  -0.92828 
 C                     6.71659  -1.07426  -1.28345 
 C                     7.26715  -0.13676  -2.16876 
 C                     6.4374    0.8724   -2.70599 
 C                     5.0816    0.91296  -2.33791 
 C                     6.98882   1.81032  -3.59475 
 C                     8.33917   1.75333  -3.94494 
 C                     9.15523   0.75982  -3.41246 
 C                     8.62267  -0.18057  -2.52962 
 H                     0.65172  -1.16848   0.53317 
 H                     0.63719  -0.46607  -1.10255 
 H                     1.04252   0.54918   0.27754 
 H                     2.68968  -1.82367  -0.72802 
 H                     3.1016   -0.78415   0.6794 
 H                     4.99301  -1.76949  -0.23878 
 H                     7.33873  -1.85975  -0.85961 
 H                     4.43013   1.68456  -2.7422 
 H                     6.36675   2.5944   -4.02079 
 H                     8.75248   2.4859   -4.63338 
 H                     10.20693   0.71494  -3.68321 
 H                     9.27526  -0.95     -2.12373 
 
 NAtoms=     25 NQM=     25 NQMF=      0 NMic=      0 NMicF=      0 NTot=     25.
                    Isotopes and Nuclear Properties:
 (Nuclear quadrupole moments (NQMom) in fm**2, nuclear magnetic moments (NMagM)
  in nuclear magnetons)

  Atom         1           2           3           4           5           6           7           8           9          10
 IAtWgt=          12          12          16          12          12          12          12          12          12          12
 AtmWgt=  12.0000000  12.0000000  15.9949146  12.0000000  12.0000000  12.0000000  12.0000000  12.0000000  12.0000000  12.0000000
 NucSpn=           0           0           0           0           0           0           0           0           0           0
 AtZEff=   0.0000000   0.0000000   0.0000000   0.0000000   0.0000000   0.0000000   0.0000000   0.0000000   0.0000000   0.0000000
 NQMom=    0.0000000   0.0000000   0.0000000   0.0000000   0.0000000   0.0000000   0.0000000   0.0000000   0.0000000   0.0000000
 NMagM=    0.0000000   0.0000000   0.0000000   0.0000000   0.0000000   0.0000000   0.0000000   0.0000000   0.0000000   0.0000000

  Atom        11          12          13          14          15          16          17          18          19          20
 IAtWgt=          12          12          12           1           1           1           1           1           1           1
 AtmWgt=  12.0000000  12.0000000  12.0000000   1.0078250   1.0078250   1.0078250   1.0078250   1.0078250   1.0078250   1.0078250
 NucSpn=           0           0           0           1           1           1           1           1           1           1
 AtZEff=   0.0000000   0.0000000   0.0000000   0.0000000   0.0000000   0.0000000   0.0000000   0.0000000   0.0000000   0.0000000
 NQMom=    0.0000000   0.0000000   0.0000000   0.0000000   0.0000000   0.0000000   0.0000000   0.0000000   0.0000000   0.0000000
 NMagM=    0.0000000   0.0000000   0.0000000   2.7928460   2.7928460   2.7928460   2.7928460   2.7928460   2.7928460   2.7928460

  Atom        21          22          23          24          25
 IAtWgt=           1           1           1           1           1
 AtmWgt=   1.0078250   1.0078250   1.0078250   1.0078250   1.0078250
 NucSpn=           1           1           1           1           1
 AtZEff=   0.0000000   0.0000000   0.0000000   0.0000000   0.0000000
 NQMom=    0.0000000   0.0000000   0.0000000   0.0000000   0.0000000
 NMagM=    2.7928460   2.7928460   2.7928460   2.7928460   2.7928460
 Leave Link  101 at Tue Sep 28 14:42:18 2021, MaxMem= 1073741824 cpu:       0.2
 (Enter /sw/target/amd/app/gaussian/Gaussian09RevA.02_gcc-4.9.2/g09/l103.exe)

 GradGradGradGradGradGradGradGradGradGradGradGradGradGradGradGradGradGrad
 Berny optimization.
 Initialization pass.
                           ----------------------------
                           !    Initial Parameters    !
                           ! (Angstroms and Degrees)  !
 --------------------------                            --------------------------
 ! Name  Definition              Value          Derivative Info.                !
 --------------------------------------------------------------------------------
 ! R1    R(1,2)                  1.5173         estimate D2E/DX2                !
 ! R2    R(1,14)                 1.0938         estimate D2E/DX2                !
 ! R3    R(1,15)                 1.0948         estimate D2E/DX2                !
 ! R4    R(1,16)                 1.0949         estimate D2E/DX2                !
 ! R5    R(2,3)                  1.427          estimate D2E/DX2                !
 ! R6    R(2,17)                 1.0962         estimate D2E/DX2                !
 ! R7    R(2,18)                 1.0962         estimate D2E/DX2                !
 ! R8    R(3,4)                  1.369          estimate D2E/DX2                !
 ! R9    R(4,5)                  1.3935         estimate D2E/DX2                !
 ! R10   R(4,9)                  1.3984         estimate D2E/DX2                !
 ! R11   R(5,6)                  1.398          estimate D2E/DX2                !
 ! R12   R(5,19)                 1.0844         estimate D2E/DX2                !
 ! R13   R(6,7)                  1.4021         estimate D2E/DX2                !
 ! R14   R(6,20)                 1.088          estimate D2E/DX2                !
 ! R15   R(7,8)                  1.4126         estimate D2E/DX2                !
 ! R16   R(7,13)                 1.4034         estimate D2E/DX2                !
 ! R17   R(8,9)                  1.4055         estimate D2E/DX2                !
 ! R18   R(8,10)                 1.4049         estimate D2E/DX2                !
 ! R19   R(9,21)                 1.0878         estimate D2E/DX2                !
 ! R20   R(10,11)                1.3962         estimate D2E/DX2                !
 ! R21   R(10,22)                1.0878         estimate D2E/DX2                !
 ! R22   R(11,12)                1.3916         estimate D2E/DX2                !
 ! R23   R(11,23)                1.0869         estimate D2E/DX2                !
 ! R24   R(12,13)                1.3955         estimate D2E/DX2                !
 ! R25   R(12,24)                1.0869         estimate D2E/DX2                !
 ! R26   R(13,25)                1.0875         estimate D2E/DX2                !
 ! A1    A(2,1,14)             110.733          estimate D2E/DX2                !
 ! A2    A(2,1,15)             110.6543         estimate D2E/DX2                !
 ! A3    A(2,1,16)             110.6242         estimate D2E/DX2                !
 ! A4    A(14,1,15)            108.8608         estimate D2E/DX2                !
 ! A5    A(14,1,16)            108.8369         estimate D2E/DX2                !
 ! A6    A(15,1,16)            107.0307         estimate D2E/DX2                !
 ! A7    A(1,2,3)              108.3036         estimate D2E/DX2                !
 ! A8    A(1,2,17)             108.9826         estimate D2E/DX2                !
 ! A9    A(1,2,18)             108.8818         estimate D2E/DX2                !
 ! A10   A(3,2,17)             110.1878         estimate D2E/DX2                !
 ! A11   A(3,2,18)             110.2939         estimate D2E/DX2                !
 ! A12   A(17,2,18)            110.1459         estimate D2E/DX2                !
 ! A13   A(2,3,4)              116.6984         estimate D2E/DX2                !
 ! A14   A(3,4,5)              125.7914         estimate D2E/DX2                !
 ! A15   A(3,4,9)              114.9149         estimate D2E/DX2                !
 ! A16   A(5,4,9)              119.2936         estimate D2E/DX2                !
 ! A17   A(4,5,6)              120.2036         estimate D2E/DX2                !
 ! A18   A(4,5,19)             121.9709         estimate D2E/DX2                !
 ! A19   A(6,5,19)             117.8255         estimate D2E/DX2                !
 ! A20   A(5,6,7)              120.9292         estimate D2E/DX2                !
 ! A21   A(5,6,20)             118.7932         estimate D2E/DX2                !
 ! A22   A(7,6,20)             120.2776         estimate D2E/DX2                !
 ! A23   A(6,7,8)              119.1542         estimate D2E/DX2                !
 ! A24   A(6,7,13)             121.3835         estimate D2E/DX2                !
 ! A25   A(8,7,13)             119.4622         estimate D2E/DX2                !
 ! A26   A(7,8,9)              119.1859         estimate D2E/DX2                !
 ! A27   A(7,8,10)             119.142          estimate D2E/DX2                !
 ! A28   A(9,8,10)             121.672          estimate D2E/DX2                !
 ! A29   A(4,9,8)              121.2333         estimate D2E/DX2                !
 ! A30   A(4,9,21)             118.7084         estimate D2E/DX2                !
 ! A31   A(8,9,21)             120.0582         estimate D2E/DX2                !
 ! A32   A(8,10,11)            120.7337         estimate D2E/DX2                !
 ! A33   A(8,10,22)            120.3003         estimate D2E/DX2                !
 ! A34   A(11,10,22)           118.966          estimate D2E/DX2                !
 ! A35   A(10,11,12)           120.0223         estimate D2E/DX2                !
 ! A36   A(10,11,23)           119.9418         estimate D2E/DX2                !
 ! A37   A(12,11,23)           120.0358         estimate D2E/DX2                !
 ! A38   A(11,12,13)           119.9592         estimate D2E/DX2                !
 ! A39   A(11,12,24)           120.1047         estimate D2E/DX2                !
 ! A40   A(13,12,24)           119.9361         estimate D2E/DX2                !
 ! A41   A(7,13,12)            120.6803         estimate D2E/DX2                !
 ! A42   A(7,13,25)            120.3792         estimate D2E/DX2                !
 ! A43   A(12,13,25)           118.9405         estimate D2E/DX2                !
 ! D1    D(14,1,2,3)           179.8784         estimate D2E/DX2                !
 ! D2    D(14,1,2,17)           59.9988         estimate D2E/DX2                !
 ! D3    D(14,1,2,18)          -60.1724         estimate D2E/DX2                !
 ! D4    D(15,1,2,3)            59.0756         estimate D2E/DX2                !
 ! D5    D(15,1,2,17)          -60.8041         estimate D2E/DX2                !
 ! D6    D(15,1,2,18)          179.0247         estimate D2E/DX2                !
 ! D7    D(16,1,2,3)           -59.3689         estimate D2E/DX2                !
 ! D8    D(16,1,2,17)         -179.2486         estimate D2E/DX2                !
 ! D9    D(16,1,2,18)           60.5802         estimate D2E/DX2                !
 ! D10   D(1,2,3,4)            179.9645         estimate D2E/DX2                !
 ! D11   D(17,2,3,4)           -60.9138         estimate D2E/DX2                !
 ! D12   D(18,2,3,4)            60.9033         estimate D2E/DX2                !
 ! D13   D(2,3,4,5)             -1.2213         estimate D2E/DX2                !
 ! D14   D(2,3,4,9)            178.8784         estimate D2E/DX2                !
 ! D15   D(3,4,5,6)           -179.8119         estimate D2E/DX2                !
 ! D16   D(3,4,5,19)             0.09           estimate D2E/DX2                !
 ! D17   D(9,4,5,6)              0.0844         estimate D2E/DX2                !
 ! D18   D(9,4,5,19)           179.9863         estimate D2E/DX2                !
 ! D19   D(3,4,9,8)            179.8569         estimate D2E/DX2                !
 ! D20   D(3,4,9,21)            -0.1243         estimate D2E/DX2                !
 ! D21   D(5,4,9,8)             -0.0504         estimate D2E/DX2                !
 ! D22   D(5,4,9,21)           179.9684         estimate D2E/DX2                !
 ! D23   D(4,5,6,7)             -0.0188         estimate D2E/DX2                !
 ! D24   D(4,5,6,20)           179.9592         estimate D2E/DX2                !
 ! D25   D(19,5,6,7)          -179.9247         estimate D2E/DX2                !
 ! D26   D(19,5,6,20)            0.0533         estimate D2E/DX2                !
 ! D27   D(5,6,7,8)             -0.0811         estimate D2E/DX2                !
 ! D28   D(5,6,7,13)           179.8648         estimate D2E/DX2                !
 ! D29   D(20,6,7,8)           179.9412         estimate D2E/DX2                !
 ! D30   D(20,6,7,13)           -0.1129         estimate D2E/DX2                !
 ! D31   D(6,7,8,9)              0.1136         estimate D2E/DX2                !
 ! D32   D(6,7,8,10)          -179.8963         estimate D2E/DX2                !
 ! D33   D(13,7,8,9)          -179.8334         estimate D2E/DX2                !
 ! D34   D(13,7,8,10)            0.1567         estimate D2E/DX2                !
 ! D35   D(6,7,13,12)          179.98           estimate D2E/DX2                !
 ! D36   D(6,7,13,25)           -0.0437         estimate D2E/DX2                !
 ! D37   D(8,7,13,12)           -0.0742         estimate D2E/DX2                !
 ! D38   D(8,7,13,25)          179.9021         estimate D2E/DX2                !
 ! D39   D(7,8,9,4)             -0.0491         estimate D2E/DX2                !
 ! D40   D(7,8,9,21)           179.9319         estimate D2E/DX2                !
 ! D41   D(10,8,9,4)           179.9611         estimate D2E/DX2                !
 ! D42   D(10,8,9,21)           -0.058          estimate D2E/DX2                !
 ! D43   D(7,8,10,11)           -0.1206         estimate D2E/DX2                !
 ! D44   D(7,8,10,22)          179.9075         estimate D2E/DX2                !
 ! D45   D(9,8,10,11)          179.8693         estimate D2E/DX2                !
 ! D46   D(9,8,10,22)           -0.1027         estimate D2E/DX2                !
 ! D47   D(8,10,11,12)          -0.0008         estimate D2E/DX2                !
 ! D48   D(8,10,11,23)        -179.9694         estimate D2E/DX2                !
 ! D49   D(22,10,11,12)        179.9716         estimate D2E/DX2                !
 ! D50   D(22,10,11,23)          0.0029         estimate D2E/DX2                !
 ! D51   D(10,11,12,13)          0.0857         estimate D2E/DX2                !
 ! D52   D(10,11,12,24)       -179.9245         estimate D2E/DX2                !
 ! D53   D(23,11,12,13)       -179.9457         estimate D2E/DX2                !
 ! D54   D(23,11,12,24)          0.0442         estimate D2E/DX2                !
 ! D55   D(11,12,13,7)          -0.0478         estimate D2E/DX2                !
 ! D56   D(11,12,13,25)        179.9755         estimate D2E/DX2                !
 ! D57   D(24,12,13,7)         179.9623         estimate D2E/DX2                !
 ! D58   D(24,12,13,25)         -0.0144         estimate D2E/DX2                !
 --------------------------------------------------------------------------------
 Trust Radius=3.00D-01 FncErr=1.00D-07 GrdErr=1.00D-06
 Number of steps in this run= 137 maximum allowed number of steps= 150.
 GradGradGradGradGradGradGradGradGradGradGradGradGradGradGradGradGradGrad

 Leave Link  103 at Tue Sep 28 14:42:19 2021, MaxMem= 1073741824 cpu:       0.0
 (Enter /sw/target/amd/app/gaussian/Gaussian09RevA.02_gcc-4.9.2/g09/l202.exe)
                          Input orientation:                          
 ---------------------------------------------------------------------
 Center     Atomic      Atomic             Coordinates (Angstroms)
 Number     Number       Type             X           Y           Z
 ---------------------------------------------------------------------
      1          6           0        1.149145   -0.459495   -0.134809
      2          6           0        2.614387   -0.816395   -0.302030
      3          8           0        3.210098    0.136198   -1.181879
      4          6           0        4.542104   -0.025842   -1.453043
      5          6           0        5.365581   -1.020046   -0.928279
      6          6           0        6.716591   -1.074264   -1.283453
      7          6           0        7.267154   -0.136756   -2.168758
      8          6           0        6.437398    0.872401   -2.705993
      9          6           0        5.081600    0.912961   -2.337911
     10          6           0        6.988825    1.810322   -3.594750
     11          6           0        8.339171    1.753328   -3.944943
     12          6           0        9.155232    0.759824   -3.412459
     13          6           0        8.622669   -0.180567   -2.529623
     14          1           0        0.651720   -1.168484    0.533172
     15          1           0        0.637190   -0.466074   -1.102554
     16          1           0        1.042520    0.549175    0.277536
     17          1           0        2.689682   -1.823668   -0.728018
     18          1           0        3.101601   -0.784149    0.679396
     19          1           0        4.993010   -1.769491   -0.238781
     20          1           0        7.338727   -1.859747   -0.859615
     21          1           0        4.430127    1.684557   -2.742202
     22          1           0        6.366750    2.594399   -4.020789
     23          1           0        8.752482    2.485901   -4.633384
     24          1           0       10.206932    0.714943   -3.683210
     25          1           0        9.275261   -0.950003   -2.123733
 ---------------------------------------------------------------------
                    Distance matrix (angstroms):
                    1          2          3          4          5
     1  C    0.000000
     2  C    1.517325   0.000000
     3  O    2.387202   1.427038   0.000000
     4  C    3.665784   2.380315   1.368951   0.000000
     5  C    4.326909   2.828909   2.459130   1.393533   0.000000
     6  C    5.717847   4.225844   3.710933   2.419988   1.397968
     7  C    6.455319   5.059132   4.184273   2.819654   2.436179
     8  C    6.029142   4.821460   3.644226   2.443125   2.808988
     9  C    4.711846   3.636292   2.332871   1.398355   2.409196
    10  C    7.157173   6.072673   4.785751   3.734280   4.213784
    11  C    8.432686   7.255856   6.046241   4.877779   5.063014
    12  C    8.736541   7.412279   6.380362   5.073217   4.868320
    13  C    7.852801   6.439402   5.586831   4.223028   3.725272
    14  H    1.093752   2.161849   3.344980   4.515061   4.937445
    15  H    1.094839   2.161683   2.643649   3.945251   4.763921
    16  H    1.094903   2.161353   2.645532   3.946219   4.754503
    17  H    2.141523   1.096236   2.077955   2.681288   2.801133
    18  H    2.140190   1.096182   2.079220   2.682793   2.786732
    19  H    4.062289   2.563247   2.774862   2.172109   1.084382
    20  H    6.387251   4.870203   4.597090   3.396537   2.145488
    21  H    4.707473   3.937780   2.514059   2.144746   3.388255
    22  H    7.186829   6.288315   4.905774   4.097355   4.861088
    23  H    9.312533   8.206216   6.939165   5.843860   6.122954
    24  H    9.798671   8.451278   7.453005   6.132917   5.834253
    25  H    8.380344   6.906785   6.233227   4.868949   4.088962
                    6          7          8          9         10
     6  C    0.000000
     7  C    1.402072   0.000000
     8  C    2.427153   1.412627   0.000000
     9  C    2.781032   2.430466   1.405460   0.000000
    10  C    3.706352   2.429410   1.404869   2.454060   0.000000
    11  C    4.208512   2.806505   2.434702   3.728343   1.396180
    12  C    3.720687   2.432177   2.810408   4.215754   2.414560
    13  C    2.446379   1.403411   2.432130   3.711028   2.787038
    14  H    6.331798   7.220032   6.937685   5.674448   8.128464
    15  H    6.112425   6.723219   6.164815   4.814626   7.192794
    16  H    6.104697   6.723164   6.173381   4.825668   7.207193
    17  H    4.133534   5.086713   5.022603   3.975193   6.317172
    18  H    4.123724   5.087528   5.033146   3.988073   6.333255
    19  H    2.131997   3.400348   3.892683   3.407307   5.297251
    20  H    1.087969   2.165104   3.418500   3.868836   4.590513
    21  H    3.868715   3.419757   2.165651   1.087763   2.699924
    22  H    4.590696   3.420520   2.167708   2.703872   1.087778
    23  H    5.295438   3.893444   3.417284   4.606377   2.155378
    24  H    4.598105   3.414857   3.897324   5.302647   3.400573
    25  H    2.695979   2.167000   3.422521   4.593832   3.874413
                   11         12         13         14         15
    11  C    0.000000
    12  C    1.391598   0.000000
    13  C    2.413183   1.395477   0.000000
    14  H    9.364155   9.570585   8.596087   0.000000
    15  H    8.504437   8.910417   8.117014   1.780221   0.000000
    16  H    8.515893   8.914961   8.116115   1.780007   1.760588
    17  H    7.420258   7.462170   6.414506   2.484584   2.489190
    18  H    7.433401   7.468171   6.414383   2.484152   3.057751
    19  H    6.110866   5.813240   4.576796   4.450160   4.627977
    20  H    4.855353   4.083975   2.693897   6.865404   6.849230
    21  H    4.090469   4.861172   4.593613   5.757107   4.658330
    22  H    2.145600   3.392840   3.874684   8.219454   7.121127
    23  H    1.086940   2.152257   3.398928  10.279600   9.329463
    24  H    2.152970   1.086919   2.154667  10.612598   9.981711
    25  H    3.391322   2.144464   1.087499   9.026203   8.711674
                   16         17         18         19         20
    16  H    0.000000
    17  H    3.058540   0.000000
    18  H    2.485771   1.797524   0.000000
    19  H    4.609682   2.355336   2.321934   0.000000
    20  H    6.836538   4.651047   4.634513   2.428162   0.000000
    21  H    4.678012   4.403831   4.423441   4.302836   4.956428
    22  H    7.141846   6.624385   6.645866   5.935847   5.547718
    23  H    9.344066   8.401298   8.417323   7.180148   5.926609
    24  H    9.985061   8.466802   8.471443   6.724692   4.777898
    25  H    8.705840   6.788310   6.782265   4.749976   2.485114
                   21         22         23         24         25
    21  H    0.000000
    22  H    2.492610   0.000000
    23  H    4.785548   2.465514   0.000000
    24  H    5.932716   4.288742   2.480836   0.000000
    25  H    5.549660   4.961959   4.286849   2.464147   0.000000
 Stoichiometry    C12H12O
 Framework group  C1[X(C12H12O)]
 Deg. of freedom    69
 Full point group                 C1      NOp   1
 Largest Abelian subgroup         C1      NOp   1
 Largest concise Abelian subgroup C1      NOp   1
                         Standard orientation:                         
 ---------------------------------------------------------------------
 Center     Atomic      Atomic             Coordinates (Angstroms)
 Number     Number       Type             X           Y           Z
 ---------------------------------------------------------------------
      1          6           0       -4.850016   -0.469965    0.000322
      2          6           0       -3.553705    0.318522    0.012091
      3          8           0       -2.466707   -0.605793   -0.010649
      4          6           0       -1.205824   -0.072719   -0.004771
      5          6           0       -0.895338    1.285783   -0.002761
      6          6           0        0.439171    1.702194   -0.000574
      7          6           0        1.485341    0.768741    0.000036
      8          6           0        1.177501   -0.609935    0.000153
      9          6           0       -0.169387   -1.011437   -0.002777
     10          6           0        2.225954   -1.545026    0.002985
     11          6           0        3.557242   -1.124322    0.003133
     12          6           0        3.858088    0.234365    0.000441
     13          6           0        2.828319    1.176137   -0.000599
     14          1           0       -5.712425    0.202482    0.019282
     15          1           0       -4.903318   -1.138400    0.865785
     16          1           0       -4.911189   -1.098196   -0.894327
     17          1           0       -3.514363    0.926434    0.923479
     18          1           0       -3.522818    0.963613   -0.873640
     19          1           0       -1.664182    2.050478   -0.004401
     20          1           0        0.655398    2.768459    0.000291
     21          1           0       -0.422564   -2.069326   -0.003847
     22          1           0        2.010411   -2.611234    0.004642
     23          1           0        4.358349   -1.858940    0.004838
     24          1           0        4.894016    0.563369   -0.000687
     25          1           0        3.082264    2.233569   -0.002301
 ---------------------------------------------------------------------
 Rotational constants (GHZ):      2.6761374      0.4013252      0.3505360
 Leave Link  202 at Tue Sep 28 14:42:19 2021, MaxMem= 1073741824 cpu:       0.0
 (Enter /sw/target/amd/app/gaussian/Gaussian09RevA.02_gcc-4.9.2/g09/l301.exe)
 Standard basis: 6-31G(d) (6D, 7F)
 Ernie: Thresh=  0.10000D-02 Tol=  0.10000D-05 Strict=F.
 There are   219 symmetry adapted basis functions of A   symmetry.
 Integral buffers will be    131072 words long.
 Raffenetti 2 integral format.
 Two-electron integral symmetry is turned on.
   219 basis functions,   412 primitive gaussians,   219 cartesian basis functions
    46 alpha electrons       46 beta electrons
       nuclear repulsion energy       721.7746262134 Hartrees.
 IExCor=  402 DFT=T Ex+Corr=B3LYP ExCW=0 ScaHFX=  0.200000
 ScaDFX=  0.800000  0.720000  1.000000  0.810000 ScalE2=  1.000000  1.000000
 IRadAn=      0 IRanWt=     -1 IRanGd=            0 ICorTp=0
 NAtoms=   25 NActive=   25 NUniq=   25 SFac= 7.50D-01 NAtFMM=   80 NAOKFM=F Big=F
 Leave Link  301 at Tue Sep 28 14:42:19 2021, MaxMem= 1073741824 cpu:       0.1
 (Enter /sw/target/amd/app/gaussian/Gaussian09RevA.02_gcc-4.9.2/g09/l302.exe)
 NPDir=0 NMtPBC=     1 NCelOv=     1 NCel=       1 NClECP=     1 NCelD=      1
         NCelK=      1 NCelE2=     1 NClLst=     1 CellRange=     0.0.
 One-electron integrals computed using PRISM.
 NBasis=   219 RedAO= T  NBF=   219
 NBsUse=   219 1.00D-06 NBFU=   219
 Precomputing XC quadrature grid using
 IXCGrd= 2 IRadAn=           0 IRanWt=          -1 IRanGd=           0 AccXCQ= 1.00D-10.
 NRdTot=    1579 NPtTot=      201446 NUsed=      212837 NTot=      212869
 NSgBfM=   218   218   218   218   218 NAtAll=    25    25.
 Leave Link  302 at Tue Sep 28 14:42:19 2021, MaxMem= 1073741824 cpu:       1.6
 (Enter /sw/target/amd/app/gaussian/Gaussian09RevA.02_gcc-4.9.2/g09/l303.exe)
 DipDrv:  MaxL=1.
 Leave Link  303 at Tue Sep 28 14:42:19 2021, MaxMem= 1073741824 cpu:       0.1
 (Enter /sw/target/amd/app/gaussian/Gaussian09RevA.02_gcc-4.9.2/g09/l401.exe)
 Harris functional with IExCor=  402 diagonalized for initial guess.
 ExpMin= 1.61D-01 ExpMax= 5.48D+03 ExpMxC= 8.25D+02 IAcc=1 IRadAn=         1 AccDes= 0.00D+00
 HarFok:  IExCor=  402 AccDes= 0.00D+00 IRadAn=         1 IDoV= 1
 ScaDFX=  1.000000  1.000000  1.000000  1.000000
 FoFCou: FMM=F IPFlag=           0 FMFlag=      100000 FMFlg1=           0
         NFxFlg=           0 DoJE=T BraDBF=F KetDBF=T FulRan=T
         Omega=  0.000000  0.000000  1.000000  0.000000  0.000000 ICntrl=     500 IOpCl=  0
         NMat0=    1 NMatS0=    1 NMatT0=    0 NMatD0=    1 NMtDS0=    0 NMtDT0=    0
         I1Cent=           4 NGrid=           0.
 Petite list used in FoFCou.
 Harris En= -539.805415424652    
 Initial guess orbital symmetries:
       Occupied  (A) (A) (A) (A) (A) (A) (A) (A) (A) (A) (A) (A)
                 (A) (A) (A) (A) (A) (A) (A) (A) (A) (A) (A) (A)
                 (A) (A) (A) (A) (A) (A) (A) (A) (A) (A) (A) (A)
                 (A) (A) (A) (A) (A) (A) (A) (A) (A) (A)
       Virtual   (A) (A) (A) (A) (A) (A) (A) (A) (A) (A) (A) (A)
                 (A) (A) (A) (A) (A) (A) (A) (A) (A) (A) (A) (A)
                 (A) (A) (A) (A) (A) (A) (A) (A) (A) (A) (A) (A)
                 (A) (A) (A) (A) (A) (A) (A) (A) (A) (A) (A) (A)
                 (A) (A) (A) (A) (A) (A) (A) (A) (A) (A) (A) (A)
                 (A) (A) (A) (A) (A) (A) (A) (A) (A) (A) (A) (A)
                 (A) (A) (A) (A) (A) (A) (A) (A) (A) (A) (A) (A)
                 (A) (A) (A) (A) (A) (A) (A) (A) (A) (A) (A) (A)
                 (A) (A) (A) (A) (A) (A) (A) (A) (A) (A) (A) (A)
                 (A) (A) (A) (A) (A) (A) (A) (A) (A) (A) (A) (A)
                 (A) (A) (A) (A) (A) (A) (A) (A) (A) (A) (A) (A)
                 (A) (A) (A) (A) (A) (A) (A) (A) (A) (A) (A) (A)
                 (A) (A) (A) (A) (A) (A) (A) (A) (A) (A) (A) (A)
                 (A) (A) (A) (A) (A) (A) (A) (A) (A) (A) (A) (A)
                 (A) (A) (A) (A) (A)
 The electronic state of the initial guess is 1-A.
 Leave Link  401 at Tue Sep 28 14:42:21 2021, MaxMem= 1073741824 cpu:       6.7
 (Enter /sw/target/amd/app/gaussian/Gaussian09RevA.02_gcc-4.9.2/g09/l502.exe)
 Closed shell SCF:
 Requested convergence on RMS density matrix=1.00D-08 within  64 cycles.
 Requested convergence on MAX density matrix=1.00D-06.
 Requested convergence on             energy=1.00D-06.
 No special actions if energy rises.
 Using DIIS extrapolation, IDIIS=  1040.
 Integral symmetry usage will be decided dynamically.
       212599 words used for storage of precomputed grid.
 Keep R1 ints in memory in canonical form, NReq=295864992.
 IEnd=      364993 IEndB=      364993 NGot=  1073741824 MDV=   783253113
 LenX=   783253113 LenY=   783204711
 Symmetry not used in FoFDir.
 MinBra= 0 MaxBra= 2 Meth= 1.
 IRaf=       0 NMat=   1 IRICut=       1 DoRegI=T DoRafI=F ISym2E= 0 JSym2E=0.
 Integral accuracy reduced to 1.0D-05 until final iterations.

 Cycle   1  Pass 0  IDiag  1:
 E= -539.410591892790    
 DIIS: error= 4.29D-02 at cycle   1 NSaved=   1.
 NSaved= 1 IEnMin= 1 EnMin= -539.410591892790     IErMin= 1 ErrMin= 4.29D-02
 ErrMax= 4.29D-02 EMaxC= 1.00D-01 BMatC= 2.88D-01 BMatP= 2.88D-01
 IDIUse=3 WtCom= 5.71D-01 WtEn= 4.29D-01
 Coeff-Com:  0.100D+01
 Coeff-En:   0.100D+01
 Coeff:      0.100D+01
 Gap=     0.171 Goal=   None    Shift=    0.000
 GapD=    0.171 DampG=1.000 DampE=0.500 DampFc=0.5000 IDamp=-1.
 Damping current iteration by 5.00D-01
 RMSDP=5.95D-03 MaxDP=1.39D-01              OVMax= 1.79D-01

 Cycle   2  Pass 0  IDiag  1:
 E= -539.559877534102     Delta-E=       -0.149285641312 Rises=F Damp=T
 DIIS: error= 6.55D-03 at cycle   2 NSaved=   2.
 NSaved= 2 IEnMin= 2 EnMin= -539.559877534102     IErMin= 2 ErrMin= 6.55D-03
 ErrMax= 6.55D-03 EMaxC= 1.00D-01 BMatC= 1.58D-02 BMatP= 2.88D-01
 IDIUse=3 WtCom= 9.35D-01 WtEn= 6.55D-02
 Coeff-Com:  0.180D-01 0.982D+00
 Coeff-En:   0.277D-01 0.972D+00
 Coeff:      0.186D-01 0.981D+00
 Gap=     0.163 Goal=   None    Shift=    0.000
 RMSDP=1.98D-03 MaxDP=4.48D-02 DE=-1.49D-01 OVMax= 1.71D-01

 Cycle   3  Pass 0  IDiag  1:
 E= -539.713065363264     Delta-E=       -0.153187829162 Rises=F Damp=F
 DIIS: error= 8.17D-03 at cycle   3 NSaved=   3.
 NSaved= 3 IEnMin= 3 EnMin= -539.713065363264     IErMin= 2 ErrMin= 6.55D-03
 ErrMax= 8.17D-03 EMaxC= 1.00D-01 BMatC= 1.44D-02 BMatP= 1.58D-02
 IDIUse=3 WtCom= 9.18D-01 WtEn= 8.17D-02
 Coeff-Com: -0.302D-01 0.499D+00 0.531D+00
 Coeff-En:   0.000D+00 0.000D+00 0.100D+01
 Coeff:     -0.277D-01 0.459D+00 0.569D+00
 Gap=     0.161 Goal=   None    Shift=    0.000
 RMSDP=1.03D-03 MaxDP=3.70D-02 DE=-1.53D-01 OVMax= 7.79D-02

 Cycle   4  Pass 0  IDiag  1:
 E= -539.723364743493     Delta-E=       -0.010299380229 Rises=F Damp=F
 DIIS: error= 5.35D-03 at cycle   4 NSaved=   4.
 NSaved= 4 IEnMin= 4 EnMin= -539.723364743493     IErMin= 4 ErrMin= 5.35D-03
 ErrMax= 5.35D-03 EMaxC= 1.00D-01 BMatC= 5.15D-03 BMatP= 1.44D-02
 IDIUse=3 WtCom= 9.46D-01 WtEn= 5.35D-02
 Coeff-Com: -0.174D-01 0.104D+00 0.380D+00 0.534D+00
 Coeff-En:   0.000D+00 0.000D+00 0.307D+00 0.693D+00
 Coeff:     -0.164D-01 0.986D-01 0.376D+00 0.542D+00
 Gap=     0.158 Goal=   None    Shift=    0.000
 RMSDP=4.18D-04 MaxDP=1.33D-02 DE=-1.03D-02 OVMax= 3.44D-02

 Cycle   5  Pass 0  IDiag  1:
 E= -539.729164724583     Delta-E=       -0.005799981090 Rises=F Damp=F
 DIIS: error= 6.00D-04 at cycle   5 NSaved=   5.
 NSaved= 5 IEnMin= 5 EnMin= -539.729164724583     IErMin= 5 ErrMin= 6.00D-04
 ErrMax= 6.00D-04 EMaxC= 1.00D-01 BMatC= 1.05D-04 BMatP= 5.15D-03
 IDIUse=3 WtCom= 9.94D-01 WtEn= 6.00D-03
 Coeff-Com: -0.472D-02 0.172D-01 0.129D+00 0.235D+00 0.623D+00
 Coeff-En:   0.000D+00 0.000D+00 0.000D+00 0.000D+00 0.100D+01
 Coeff:     -0.469D-02 0.171D-01 0.128D+00 0.234D+00 0.625D+00
 Gap=     0.157 Goal=   None    Shift=    0.000
 RMSDP=6.24D-05 MaxDP=2.31D-03 DE=-5.80D-03 OVMax= 4.20D-03

 Cycle   6  Pass 0  IDiag  1:
 E= -539.729259131329     Delta-E=       -0.000094406746 Rises=F Damp=F
 DIIS: error= 2.25D-04 at cycle   6 NSaved=   6.
 NSaved= 6 IEnMin= 6 EnMin= -539.729259131329     IErMin= 6 ErrMin= 2.25D-04
 ErrMax= 2.25D-04 EMaxC= 1.00D-01 BMatC= 1.58D-05 BMatP= 1.05D-04
 IDIUse=3 WtCom= 9.98D-01 WtEn= 2.25D-03
 Coeff-Com: -0.104D-02 0.710D-03 0.382D-01 0.815D-01 0.347D+00 0.534D+00
 Coeff-En:   0.000D+00 0.000D+00 0.000D+00 0.000D+00 0.701D-01 0.930D+00
 Coeff:     -0.103D-02 0.708D-03 0.381D-01 0.813D-01 0.346D+00 0.535D+00
 Gap=     0.158 Goal=   None    Shift=    0.000
 RMSDP=2.07D-05 MaxDP=6.90D-04 DE=-9.44D-05 OVMax= 1.59D-03

 Cycle   7  Pass 0  IDiag  1:
 E= -539.729273521869     Delta-E=       -0.000014390539 Rises=F Damp=F
 DIIS: error= 1.07D-04 at cycle   7 NSaved=   7.
 NSaved= 7 IEnMin= 7 EnMin= -539.729273521869     IErMin= 7 ErrMin= 1.07D-04
 ErrMax= 1.07D-04 EMaxC= 1.00D-01 BMatC= 9.12D-07 BMatP= 1.58D-05
 IDIUse=3 WtCom= 9.99D-01 WtEn= 1.07D-03
 Coeff-Com: -0.346D-03-0.278D-03 0.160D-01 0.350D-01 0.167D+00 0.293D+00
 Coeff-Com:  0.490D+00
 Coeff-En:   0.000D+00 0.000D+00 0.000D+00 0.000D+00 0.000D+00 0.000D+00
 Coeff-En:   0.100D+01
 Coeff:     -0.346D-03-0.278D-03 0.160D-01 0.349D-01 0.167D+00 0.292D+00
 Coeff:      0.490D+00
 Gap=     0.158 Goal=   None    Shift=    0.000
 RMSDP=7.34D-06 MaxDP=2.19D-04 DE=-1.44D-05 OVMax= 8.06D-04

 Initial convergence to 1.0D-05 achieved.  Increase integral accuracy.
 Cycle   8  Pass 1  IDiag  1:
 E= -539.729329341483     Delta-E=       -0.000055819615 Rises=F Damp=F
 DIIS: error= 4.48D-05 at cycle   1 NSaved=   1.
 NSaved= 1 IEnMin= 1 EnMin= -539.729329341483     IErMin= 1 ErrMin= 4.48D-05
 ErrMax= 4.48D-05 EMaxC= 1.00D-01 BMatC= 2.61D-07 BMatP= 2.61D-07
 IDIUse=1 WtCom= 1.00D+00 WtEn= 0.00D+00
 Coeff-Com:  0.100D+01
 Coeff:      0.100D+01
 Gap=     0.158 Goal=   None    Shift=    0.000
 RMSDP=7.34D-06 MaxDP=2.19D-04 DE=-5.58D-05 OVMax= 8.21D-04

 Cycle   9  Pass 1  IDiag  1:
 E= -539.729328541290     Delta-E=        0.000000800194 Rises=F Damp=F
 DIIS: error= 9.95D-05 at cycle   2 NSaved=   2.
 NSaved= 2 IEnMin= 1 EnMin= -539.729329341483     IErMin= 1 ErrMin= 4.48D-05
 ErrMax= 9.95D-05 EMaxC= 1.00D-01 BMatC= 9.41D-07 BMatP= 2.61D-07
 IDIUse=1 WtCom= 1.00D+00 WtEn= 0.00D+00
 Coeff-Com:  0.665D+00 0.335D+00
 Coeff:      0.665D+00 0.335D+00
 Gap=     0.158 Goal=   None    Shift=    0.000
 RMSDP=5.61D-06 MaxDP=1.74D-04 DE= 8.00D-07 OVMax= 6.43D-04

 Cycle  10  Pass 1  IDiag  1:
 E= -539.729329644460     Delta-E=       -0.000001103170 Rises=F Damp=F
 DIIS: error= 7.59D-06 at cycle   3 NSaved=   3.
 NSaved= 3 IEnMin= 3 EnMin= -539.729329644460     IErMin= 3 ErrMin= 7.59D-06
 ErrMax= 7.59D-06 EMaxC= 1.00D-01 BMatC= 8.29D-09 BMatP= 2.61D-07
 IDIUse=1 WtCom= 1.00D+00 WtEn= 0.00D+00
 Coeff-Com:  0.619D-01 0.953D-01 0.843D+00
 Coeff:      0.619D-01 0.953D-01 0.843D+00
 Gap=     0.158 Goal=   None    Shift=    0.000
 RMSDP=6.77D-07 MaxDP=1.72D-05 DE=-1.10D-06 OVMax= 5.45D-05

 Cycle  11  Pass 1  IDiag  1:
 E= -539.729329651844     Delta-E=       -0.000000007384 Rises=F Damp=F
 DIIS: error= 2.72D-06 at cycle   4 NSaved=   4.
 NSaved= 4 IEnMin= 4 EnMin= -539.729329651844     IErMin= 4 ErrMin= 2.72D-06
 ErrMax= 2.72D-06 EMaxC= 1.00D-01 BMatC= 2.45D-09 BMatP= 8.29D-09
 IDIUse=1 WtCom= 1.00D+00 WtEn= 0.00D+00
 Coeff-Com: -0.107D-01 0.307D-01 0.474D+00 0.506D+00
 Coeff:     -0.107D-01 0.307D-01 0.474D+00 0.506D+00
 Gap=     0.158 Goal=   None    Shift=    0.000
 RMSDP=2.64D-07 MaxDP=9.72D-06 DE=-7.38D-09 OVMax= 2.31D-05

 Cycle  12  Pass 1  IDiag  1:
 E= -539.729329654207     Delta-E=       -0.000000002363 Rises=F Damp=F
 DIIS: error= 6.96D-07 at cycle   5 NSaved=   5.
 NSaved= 5 IEnMin= 5 EnMin= -539.729329654207     IErMin= 5 ErrMin= 6.96D-07
 ErrMax= 6.96D-07 EMaxC= 1.00D-01 BMatC= 1.15D-10 BMatP= 2.45D-09
 IDIUse=1 WtCom= 1.00D+00 WtEn= 0.00D+00
 Coeff-Com: -0.885D-02 0.111D-01 0.200D+00 0.265D+00 0.532D+00
 Coeff:     -0.885D-02 0.111D-01 0.200D+00 0.265D+00 0.532D+00
 Gap=     0.158 Goal=   None    Shift=    0.000
 RMSDP=7.12D-08 MaxDP=1.79D-06 DE=-2.36D-09 OVMax= 5.05D-06

 Cycle  13  Pass 1  IDiag  1:
 E= -539.729329654313     Delta-E=       -0.000000000106 Rises=F Damp=F
 DIIS: error= 2.41D-07 at cycle   6 NSaved=   6.
 NSaved= 6 IEnMin= 6 EnMin= -539.729329654313     IErMin= 6 ErrMin= 2.41D-07
 ErrMax= 2.41D-07 EMaxC= 1.00D-01 BMatC= 1.59D-11 BMatP= 1.15D-10
 IDIUse=1 WtCom= 1.00D+00 WtEn= 0.00D+00
 Coeff-Com: -0.435D-02 0.443D-02 0.825D-01 0.121D+00 0.324D+00 0.473D+00
 Coeff:     -0.435D-02 0.443D-02 0.825D-01 0.121D+00 0.324D+00 0.473D+00
 Gap=     0.158 Goal=   None    Shift=    0.000
 RMSDP=2.13D-08 MaxDP=5.63D-07 DE=-1.06D-10 OVMax= 1.44D-06

 Cycle  14  Pass 1  IDiag  1:
 E= -539.729329654335     Delta-E=       -0.000000000022 Rises=F Damp=F
 DIIS: error= 5.16D-08 at cycle   7 NSaved=   7.
 NSaved= 7 IEnMin= 7 EnMin= -539.729329654335     IErMin= 7 ErrMin= 5.16D-08
 ErrMax= 5.16D-08 EMaxC= 1.00D-01 BMatC= 5.54D-13 BMatP= 1.59D-11
 IDIUse=1 WtCom= 1.00D+00 WtEn= 0.00D+00
 Coeff-Com: -0.749D-03 0.599D-03 0.976D-02 0.183D-01 0.655D-01 0.181D+00
 Coeff-Com:  0.725D+00
 Coeff:     -0.749D-03 0.599D-03 0.976D-02 0.183D-01 0.655D-01 0.181D+00
 Coeff:      0.725D+00
 Gap=     0.158 Goal=   None    Shift=    0.000
 RMSDP=5.45D-09 MaxDP=1.84D-07 DE=-2.21D-11 OVMax= 4.87D-07

 SCF Done:  E(RB3LYP) =  -539.729329654     A.U. after   14 cycles
             Convg  =    0.5451D-08             -V/T =  2.0094
 KE= 5.347247858288D+02 PE=-2.695963672386D+03 EE= 8.997349306894D+02
 Leave Link  502 at Tue Sep 28 14:43:21 2021, MaxMem= 1073741824 cpu:     148.3
 (Enter /sw/target/amd/app/gaussian/Gaussian09RevA.02_gcc-4.9.2/g09/l508.exe)
 QCSCF skips out because SCF is already converged.
 Leave Link  508 at Tue Sep 28 14:43:21 2021, MaxMem= 1073741824 cpu:       0.0
 (Enter /sw/target/amd/app/gaussian/Gaussian09RevA.02_gcc-4.9.2/g09/l601.exe)
 Copying SCF densities to generalized density rwf, IOpCl= 0 IROHF=0.

 **********************************************************************

            Population analysis using the SCF density.

 **********************************************************************

 Orbital symmetries:
       Occupied  (A) (A) (A) (A) (A) (A) (A) (A) (A) (A) (A) (A)
                 (A) (A) (A) (A) (A) (A) (A) (A) (A) (A) (A) (A)
                 (A) (A) (A) (A) (A) (A) (A) (A) (A) (A) (A) (A)
                 (A) (A) (A) (A) (A) (A) (A) (A) (A) (A)
       Virtual   (A) (A) (A) (A) (A) (A) (A) (A) (A) (A) (A) (A)
                 (A) (A) (A) (A) (A) (A) (A) (A) (A) (A) (A) (A)
                 (A) (A) (A) (A) (A) (A) (A) (A) (A) (A) (A) (A)
                 (A) (A) (A) (A) (A) (A) (A) (A) (A) (A) (A) (A)
                 (A) (A) (A) (A) (A) (A) (A) (A) (A) (A) (A) (A)
                 (A) (A) (A) (A) (A) (A) (A) (A) (A) (A) (A) (A)
                 (A) (A) (A) (A) (A) (A) (A) (A) (A) (A) (A) (A)
                 (A) (A) (A) (A) (A) (A) (A) (A) (A) (A) (A) (A)
                 (A) (A) (A) (A) (A) (A) (A) (A) (A) (A) (A) (A)
                 (A) (A) (A) (A) (A) (A) (A) (A) (A) (A) (A) (A)
                 (A) (A) (A) (A) (A) (A) (A) (A) (A) (A) (A) (A)
                 (A) (A) (A) (A) (A) (A) (A) (A) (A) (A) (A) (A)
                 (A) (A) (A) (A) (A) (A) (A) (A) (A) (A) (A) (A)
                 (A) (A) (A) (A) (A) (A) (A) (A) (A) (A) (A) (A)
                 (A) (A) (A) (A) (A)
 The electronic state is 1-A.
 Alpha  occ. eigenvalues --  -19.17385 -10.24379 -10.24240 -10.19098 -10.18927
 Alpha  occ. eigenvalues --  -10.18915 -10.18560 -10.18448 -10.18426 -10.18331
 Alpha  occ. eigenvalues --  -10.18243 -10.18190 -10.17764  -1.05980  -0.87022
 Alpha  occ. eigenvalues --   -0.81557  -0.77686  -0.76088  -0.73319  -0.70469
 Alpha  occ. eigenvalues --   -0.63858  -0.62455  -0.59468  -0.58844  -0.53240
 Alpha  occ. eigenvalues --   -0.50973  -0.49751  -0.48604  -0.46347  -0.44537
 Alpha  occ. eigenvalues --   -0.42963  -0.41579  -0.40680  -0.40053  -0.39238
 Alpha  occ. eigenvalues --   -0.39060  -0.37640  -0.37591  -0.34009  -0.33978
 Alpha  occ. eigenvalues --   -0.33686  -0.32287  -0.29761  -0.27208  -0.23109
 Alpha  occ. eigenvalues --   -0.19456
 Alpha virt. eigenvalues --   -0.03697   0.00916   0.03826   0.09539   0.09881
 Alpha virt. eigenvalues --    0.11252   0.11521   0.12658   0.13589   0.15014
 Alpha virt. eigenvalues --    0.15442   0.17124   0.17492   0.17775   0.18909
 Alpha virt. eigenvalues --    0.19949   0.20618   0.21384   0.22686   0.24768
 Alpha virt. eigenvalues --    0.27220   0.28812   0.31601   0.33033   0.34833
 Alpha virt. eigenvalues --    0.36016   0.38432   0.47983   0.49269   0.51534
 Alpha virt. eigenvalues --    0.51587   0.52489   0.53241   0.54747   0.54895
 Alpha virt. eigenvalues --    0.54966   0.56859   0.57198   0.57428   0.57963
 Alpha virt. eigenvalues --    0.58677   0.60216   0.60745   0.61307   0.61971
 Alpha virt. eigenvalues --    0.62477   0.63215   0.63262   0.65906   0.66314
 Alpha virt. eigenvalues --    0.68083   0.68806   0.69541   0.72826   0.77202
 Alpha virt. eigenvalues --    0.78040   0.82779   0.83389   0.83979   0.84500
 Alpha virt. eigenvalues --    0.84959   0.86425   0.87041   0.87407   0.88779
 Alpha virt. eigenvalues --    0.90077   0.90640   0.91894   0.92510   0.93625
 Alpha virt. eigenvalues --    0.95542   0.96372   0.98920   0.99761   1.02444
 Alpha virt. eigenvalues --    1.04055   1.07394   1.08335   1.09556   1.11766
 Alpha virt. eigenvalues --    1.14897   1.19573   1.22487   1.22936   1.24077
 Alpha virt. eigenvalues --    1.26145   1.26426   1.33914   1.37248   1.39226
 Alpha virt. eigenvalues --    1.39716   1.41206   1.43180   1.45559   1.46302
 Alpha virt. eigenvalues --    1.47764   1.49710   1.49820   1.50587   1.51267
 Alpha virt. eigenvalues --    1.51665   1.53611   1.66447   1.72349   1.76154
 Alpha virt. eigenvalues --    1.79725   1.84122   1.85766   1.86889   1.89121
 Alpha virt. eigenvalues --    1.91579   1.92280   1.92441   1.92812   1.95036
 Alpha virt. eigenvalues --    1.95095   1.96786   1.97624   1.98899   2.03217
 Alpha virt. eigenvalues --    2.05831   2.06127   2.09984   2.13085   2.13443
 Alpha virt. eigenvalues --    2.15527   2.16247   2.19274   2.21652   2.22908
 Alpha virt. eigenvalues --    2.26290   2.28920   2.29027   2.31500   2.33233
 Alpha virt. eigenvalues --    2.34159   2.35144   2.40603   2.41479   2.43579
 Alpha virt. eigenvalues --    2.53052   2.57463   2.60815   2.61546   2.64586
 Alpha virt. eigenvalues --    2.64985   2.67909   2.69505   2.71007   2.78362
 Alpha virt. eigenvalues --    2.80051   2.82307   2.85765   2.90160   2.91565
 Alpha virt. eigenvalues --    3.04041   3.06693   3.18124   3.39810   3.50917
 Alpha virt. eigenvalues --    4.06461   4.09623   4.10966   4.12562   4.13959
 Alpha virt. eigenvalues --    4.17554   4.26481   4.29819   4.39252   4.42657
 Alpha virt. eigenvalues --    4.44380   4.62063   4.85379
          Condensed to atoms (all electrons):
              1          2          3          4          5          6
     1  C    5.089953   0.384484  -0.046941   0.003102   0.000434  -0.000007
     2  C    0.384484   4.806004   0.232517  -0.036140  -0.007412   0.000646
     3  O   -0.046941   0.232517   8.245621   0.268230  -0.059281   0.003398
     4  C    0.003102  -0.036140   0.268230   4.561168   0.418016   0.012714
     5  C    0.000434  -0.007412  -0.059281   0.418016   5.154422   0.451661
     6  C   -0.000007   0.000646   0.003398   0.012714   0.451661   5.167759
     7  C    0.000000  -0.000041   0.000360  -0.036681  -0.002185   0.443900
     8  C    0.000003  -0.000051   0.001998   0.010445  -0.041907  -0.023517
     9  C   -0.000188   0.003426  -0.048456   0.494201  -0.053287  -0.076467
    10  C   -0.000000   0.000004  -0.000085   0.008244  -0.000756   0.017773
    11  C    0.000000  -0.000000   0.000000  -0.000323   0.000071  -0.000775
    12  C    0.000000   0.000000  -0.000000   0.000057  -0.000381   0.008727
    13  C   -0.000000  -0.000000   0.000001  -0.000876   0.009932  -0.103486
    14  H    0.362543  -0.027235   0.002917  -0.000082   0.000011  -0.000000
    15  H    0.373943  -0.030504   0.001803   0.000109   0.000020   0.000000
    16  H    0.374072  -0.030576   0.001781   0.000120   0.000017   0.000000
    17  H   -0.040801   0.364123  -0.038623  -0.004176   0.004515  -0.000119
    18  H   -0.040900   0.363900  -0.038317  -0.004679   0.004504  -0.000105
    19  H   -0.000125   0.005951  -0.006912  -0.044763   0.351212  -0.034484
    20  H   -0.000000  -0.000007  -0.000046   0.002881  -0.041676   0.352951
    21  H   -0.000018  -0.000318   0.000708  -0.039728   0.007707  -0.000081
    22  H   -0.000000   0.000000  -0.000002   0.000167   0.000009  -0.000198
    23  H   -0.000000   0.000000  -0.000000   0.000003  -0.000001   0.000010
    24  H   -0.000000  -0.000000   0.000000  -0.000001   0.000003  -0.000205
    25  H   -0.000000   0.000000  -0.000000   0.000007   0.000244  -0.008733
              7          8          9         10         11         12
     1  C    0.000000   0.000003  -0.000188  -0.000000   0.000000   0.000000
     2  C   -0.000041  -0.000051   0.003426   0.000004  -0.000000   0.000000
     3  O    0.000360   0.001998  -0.048456  -0.000085   0.000000  -0.000000
     4  C   -0.036681   0.010445   0.494201   0.008244  -0.000323   0.000057
     5  C   -0.002185  -0.041907  -0.053287  -0.000756   0.000071  -0.000381
     6  C    0.443900  -0.023517  -0.076467   0.017773  -0.000775   0.008727
     7  C    4.675334   0.487903  -0.033027  -0.029641  -0.039398  -0.002479
     8  C    0.487903   4.668073   0.425907   0.443790  -0.001739  -0.039438
     9  C   -0.033027   0.425907   5.294426  -0.096623   0.008080  -0.000576
    10  C   -0.029641   0.443790  -0.096623   5.137402   0.512182  -0.020225
    11  C   -0.039398  -0.001739   0.008080   0.512182   4.895037   0.505080
    12  C   -0.002479  -0.039438  -0.000576  -0.020225   0.505080   4.904462
    13  C    0.443805  -0.029195   0.017261  -0.077845  -0.018356   0.508771
    14  H   -0.000000  -0.000000   0.000003   0.000000  -0.000000   0.000000
    15  H    0.000000  -0.000000  -0.000026  -0.000000   0.000000  -0.000000
    16  H    0.000000  -0.000000  -0.000025  -0.000000   0.000000  -0.000000
    17  H    0.000000  -0.000001   0.000178  -0.000000  -0.000000   0.000000
    18  H   -0.000000   0.000001   0.000139  -0.000000  -0.000000   0.000000
    19  H    0.002518   0.001003   0.004240   0.000011  -0.000000   0.000003
    20  H   -0.037007   0.004429   0.000706  -0.000213   0.000014   0.000190
    21  H    0.005094  -0.042858   0.343652  -0.009235   0.000230   0.000006
    22  H    0.004695  -0.040398  -0.008335   0.354116  -0.045739   0.004597
    23  H    0.001058   0.002731  -0.000202  -0.036636   0.356283  -0.042526
    24  H    0.002724   0.001061   0.000012   0.004370  -0.042453   0.356467
    25  H   -0.042608   0.004582  -0.000187   0.000547   0.004705  -0.045706
             13         14         15         16         17         18
     1  C   -0.000000   0.362543   0.373943   0.374072  -0.040801  -0.040900
     2  C   -0.000000  -0.027235  -0.030504  -0.030576   0.364123   0.363900
     3  O    0.000001   0.002917   0.001803   0.001781  -0.038623  -0.038317
     4  C   -0.000876  -0.000082   0.000109   0.000120  -0.004176  -0.004679
     5  C    0.009932   0.000011   0.000020   0.000017   0.004515   0.004504
     6  C   -0.103486  -0.000000   0.000000   0.000000  -0.000119  -0.000105
     7  C    0.443805  -0.000000   0.000000   0.000000   0.000000  -0.000000
     8  C   -0.029195  -0.000000  -0.000000  -0.000000  -0.000001   0.000001
     9  C    0.017261   0.000003  -0.000026  -0.000025   0.000178   0.000139
    10  C   -0.077845   0.000000  -0.000000  -0.000000  -0.000000  -0.000000
    11  C   -0.018356  -0.000000   0.000000   0.000000  -0.000000  -0.000000
    12  C    0.508771   0.000000  -0.000000  -0.000000   0.000000   0.000000
    13  C    5.139223  -0.000000   0.000000   0.000000   0.000000   0.000000
    14  H   -0.000000   0.567157  -0.026764  -0.026797  -0.000183  -0.000170
    15  H    0.000000  -0.026764   0.551987  -0.031633  -0.006971   0.005791
    16  H    0.000000  -0.026797  -0.031633   0.552090   0.005779  -0.007047
    17  H    0.000000  -0.000183  -0.006971   0.005779   0.628981  -0.055957
    18  H    0.000000  -0.000170   0.005791  -0.007047  -0.055957   0.629635
    19  H   -0.000201   0.000024   0.000006   0.000006   0.001959   0.002098
    20  H   -0.008536   0.000000   0.000000   0.000000   0.000000   0.000001
    21  H   -0.000148   0.000000   0.000010   0.000009   0.000031   0.000031
    22  H    0.000608   0.000000  -0.000000  -0.000000  -0.000000  -0.000000
    23  H    0.004437   0.000000  -0.000000  -0.000000   0.000000   0.000000
    24  H   -0.036836  -0.000000   0.000000   0.000000   0.000000   0.000000
    25  H    0.354732   0.000000   0.000000   0.000000   0.000000   0.000000
             19         20         21         22         23         24
     1  C   -0.000125  -0.000000  -0.000018  -0.000000  -0.000000  -0.000000
     2  C    0.005951  -0.000007  -0.000318   0.000000   0.000000  -0.000000
     3  O   -0.006912  -0.000046   0.000708  -0.000002  -0.000000   0.000000
     4  C   -0.044763   0.002881  -0.039728   0.000167   0.000003  -0.000001
     5  C    0.351212  -0.041676   0.007707   0.000009  -0.000001   0.000003
     6  C   -0.034484   0.352951  -0.000081  -0.000198   0.000010  -0.000205
     7  C    0.002518  -0.037007   0.005094   0.004695   0.001058   0.002724
     8  C    0.001003   0.004429  -0.042858  -0.040398   0.002731   0.001061
     9  C    0.004240   0.000706   0.343652  -0.008335  -0.000202   0.000012
    10  C    0.000011  -0.000213  -0.009235   0.354116  -0.036636   0.004370
    11  C   -0.000000   0.000014   0.000230  -0.045739   0.356283  -0.042453
    12  C    0.000003   0.000190   0.000006   0.004597  -0.042526   0.356467
    13  C   -0.000201  -0.008536  -0.000148   0.000608   0.004437  -0.036836
    14  H    0.000024   0.000000   0.000000   0.000000   0.000000  -0.000000
    15  H    0.000006   0.000000   0.000010  -0.000000  -0.000000   0.000000
    16  H    0.000006   0.000000   0.000009  -0.000000  -0.000000   0.000000
    17  H    0.001959   0.000000   0.000031  -0.000000   0.000000   0.000000
    18  H    0.002098   0.000001   0.000031  -0.000000   0.000000   0.000000
    19  H    0.588976  -0.005260  -0.000170  -0.000000   0.000000  -0.000000
    20  H   -0.005260   0.593043   0.000018   0.000003  -0.000000  -0.000012
    21  H   -0.000170   0.000018   0.595919   0.005902  -0.000012   0.000000
    22  H   -0.000000   0.000003   0.005902   0.602249  -0.005305  -0.000199
    23  H    0.000000  -0.000000  -0.000012  -0.005305   0.598606  -0.005290
    24  H   -0.000000  -0.000012   0.000000  -0.000199  -0.005290   0.600646
    25  H   -0.000013   0.006318   0.000003   0.000020  -0.000201  -0.005350
             25
     1  C   -0.000000
     2  C    0.000000
     3  O   -0.000000
     4  C    0.000007
     5  C    0.000244
     6  C   -0.008733
     7  C   -0.042608
     8  C    0.004582
     9  C   -0.000187
    10  C    0.000547
    11  C    0.004705
    12  C   -0.045706
    13  C    0.354732
    14  H    0.000000
    15  H    0.000000
    16  H    0.000000
    17  H    0.000000
    18  H    0.000000
    19  H   -0.000013
    20  H    0.006318
    21  H    0.000003
    22  H    0.000020
    23  H   -0.000201
    24  H   -0.005350
    25  H    0.605642
 Mulliken atomic charges:
              1
     1  C   -0.459553
     2  C   -0.028771
     3  O   -0.520671
     4  C    0.387982
     5  C   -0.195890
     6  C   -0.211362
     7  C    0.155674
     8  C    0.167179
     9  C   -0.274832
    10  C   -0.207180
    11  C   -0.132900
    12  C   -0.137029
    13  C   -0.203290
    14  H    0.148576
    15  H    0.162231
    16  H    0.162204
    17  H    0.141266
    18  H    0.141076
    19  H    0.133922
    20  H    0.132202
    21  H    0.133246
    22  H    0.127811
    23  H    0.127045
    24  H    0.125064
    25  H    0.125999
 Sum of Mulliken atomic charges =  -0.00000
 Mulliken charges with hydrogens summed into heavy atoms:
              1
     1  C    0.013458
     2  C    0.253572
     3  O   -0.520671
     4  C    0.387982
     5  C   -0.061968
     6  C   -0.079160
     7  C    0.155674
     8  C    0.167179
     9  C   -0.141585
    10  C   -0.079369
    11  C   -0.005855
    12  C   -0.011965
    13  C   -0.077292
 Sum of Mulliken charges with hydrogens summed into heavy atoms =  -0.00000
 Electronic spatial extent (au):  <R**2>=           3102.6535
 Charge=             -0.0000 electrons
 Dipole moment (field-independent basis, Debye):
    X=             -1.1722    Y=              1.1066    Z=              0.0209  Tot=              1.6122
 Quadrupole moment (field-independent basis, Debye-Ang):
   XX=            -64.1549   YY=            -70.0754   ZZ=            -79.7929
   XY=             -3.1508   XZ=             -0.0661   YZ=             -0.0261
 Traceless Quadrupole moment (field-independent basis, Debye-Ang):
   XX=              7.1861   YY=              1.2657   ZZ=             -8.4518
   XY=             -3.1508   XZ=             -0.0661   YZ=             -0.0261
 Octapole moment (field-independent basis, Debye-Ang**2):
  XXX=            -27.6814  YYY=             -0.4973  ZZZ=             -0.0384  XYY=              3.2176
  XXY=              7.6306  XXZ=              0.2006  XZZ=            -14.5872  YZZ=             -1.5217
  YYZ=              0.0036  XYZ=              0.0167
 Hexadecapole moment (field-independent basis, Debye-Ang**3):
 XXXX=          -3207.1633 YYYY=           -561.4181 ZZZZ=            -94.3848 XXXY=            -29.9776
 XXXZ=             -0.6601 YYYX=              2.3011 YYYZ=             -0.1435 ZZZX=              0.1167
 ZZZY=              0.0960 XXYY=           -656.0234 XXZZ=           -625.9103 YYZZ=           -125.6597
 XXYZ=             -0.1808 YYXZ=             -0.0059 ZZXY=              5.5779
 N-N= 7.217746262134D+02 E-N=-2.695963679178D+03  KE= 5.347247858288D+02
 No NMR shielding tensors so no spin-rotation constants.
 Leave Link  601 at Tue Sep 28 14:43:22 2021, MaxMem= 1073741824 cpu:       0.8
 (Enter /sw/target/amd/app/gaussian/Gaussian09RevA.02_gcc-4.9.2/g09/l701.exe)
 Compute integral first derivatives.
 ... and contract with generalized density number  0.
 Leave Link  701 at Tue Sep 28 14:43:22 2021, MaxMem= 1073741824 cpu:       0.8
 (Enter /sw/target/amd/app/gaussian/Gaussian09RevA.02_gcc-4.9.2/g09/l702.exe)
 L702 exits ... SP integral derivatives will be done elsewhere.
 Leave Link  702 at Tue Sep 28 14:43:22 2021, MaxMem= 1073741824 cpu:       0.0
 (Enter /sw/target/amd/app/gaussian/Gaussian09RevA.02_gcc-4.9.2/g09/l703.exe)
 Compute integral first derivatives, UseDBF=F ICtDFT=           0.
 Integral derivatives from FoFDir, PRISM(SPDF).
 Calling FoFJK, ICntrl=      2127 FMM=F ISym2X=0 I1Cent= 0 IOpClX= 0 NMat=1 NMatS=1 NMatT=0.
 FoFCou: FMM=F IPFlag=           0 FMFlag=      100000 FMFlg1=         800
         NFxFlg=           0 DoJE=F BraDBF=F KetDBF=F FulRan=T
         Omega=  0.000000  0.000000  1.000000  0.000000  0.000000 ICntrl=    2127 IOpCl=  0
         NMat0=    1 NMatS0=    1 NMatT0=    0 NMatD0=    1 NMtDS0=    0 NMtDT0=    0
         I1Cent=           0 NGrid=           0.
 Symmetry not used in FoFCou.
 Leave Link  703 at Tue Sep 28 14:43:37 2021, MaxMem= 1073741824 cpu:      53.8
 (Enter /sw/target/amd/app/gaussian/Gaussian09RevA.02_gcc-4.9.2/g09/l716.exe)
 Dipole        =-4.61177591D-01 4.35385896D-01 8.21830956D-03
 ***** Axes restored to original set *****
 -------------------------------------------------------------------
 Center     Atomic                   Forces (Hartrees/Bohr)
 Number     Number              X              Y              Z
 -------------------------------------------------------------------
      1        6          -0.002140368    0.006289236   -0.003983470
      2        6          -0.008722889    0.002182831    0.000985005
      3        8           0.001899197   -0.007399762    0.004999970
      4        6          -0.004527534    0.026703705   -0.019166761
      5        6           0.023340984   -0.017308919    0.006507548
      6        6          -0.022609031   -0.004706820    0.010291259
      7        6           0.010368884   -0.011038829    0.005542972
      8        6          -0.013994455    0.007491792   -0.001663687
      9        6          -0.010436600   -0.005421130    0.007216569
     10        6           0.021831921    0.010291059   -0.014304588
     11        6          -0.024229748    0.011817176   -0.002069218
     12        6           0.005565480   -0.021364896    0.014895162
     13        6           0.021105364    0.011067480   -0.014762266
     14        1           0.000269207   -0.000699295    0.000417937
     15        1          -0.000335802   -0.001629599   -0.000149550
     16        1           0.000165049   -0.000333048    0.001580658
     17        1           0.004206079   -0.001920403    0.001137516
     18        1           0.003854357   -0.002668777   -0.000054933
     19        1          -0.001947019    0.000884660   -0.000195372
     20        1           0.000520273    0.001190665   -0.001049048
     21        1           0.000201476   -0.001136444    0.000794648
     22        1          -0.001702910   -0.001196361    0.001452047
     23        1          -0.000684714    0.000261024   -0.000004632
     24        1          -0.000024101   -0.000429480    0.000317164
     25        1          -0.001973101   -0.000925866    0.001265073
 -------------------------------------------------------------------
 Cartesian Forces:  Max     0.026703705 RMS     0.009412374
 Leave Link  716 at Tue Sep 28 14:43:37 2021, MaxMem= 1073741824 cpu:       0.0
 (Enter /sw/target/amd/app/gaussian/Gaussian09RevA.02_gcc-4.9.2/g09/l103.exe)

 GradGradGradGradGradGradGradGradGradGradGradGradGradGradGradGradGradGrad
 Berny optimization.
 Internal  Forces:  Max     0.020502953 RMS     0.004596234
 Search for a local minimum.
 Step number   1 out of a maximum of  137
 All quantities printed in internal units (Hartrees-Bohrs-Radians)
 RMS Force = .45962D-02 SwitMx=.10000D-02 MixMth= 1
 Mixed Optimization -- RFO/linear search
 Second derivative matrix not updated -- first step.
     Eigenvalues ---    0.00537   0.01334   0.01994   0.02003   0.02017
     Eigenvalues ---    0.02063   0.02076   0.02080   0.02087   0.02089
     Eigenvalues ---    0.02094   0.02102   0.02131   0.02136   0.02151
     Eigenvalues ---    0.02161   0.02163   0.02179   0.05478   0.05647
     Eigenvalues ---    0.05746   0.06111   0.11036   0.13610   0.16000
     Eigenvalues ---    0.16000   0.16000   0.16000   0.16000   0.16000
     Eigenvalues ---    0.16000   0.16000   0.16000   0.16000   0.22000
     Eigenvalues ---    0.22086   0.22297   0.22709   0.23519   0.24368
     Eigenvalues ---    0.24750   0.25000   0.25000   0.30626   0.34102
     Eigenvalues ---    0.34108   0.34252   0.34259   0.34383   0.35048
     Eigenvalues ---    0.35071   0.35072   0.35103   0.35169   0.35171
     Eigenvalues ---    0.35470   0.38675   0.41042   0.41418   0.41683
     Eigenvalues ---    0.43639   0.44652   0.45423   0.45597   0.45730
     Eigenvalues ---    0.45765   0.46325   0.46664   0.511791000.00000
     Eigenvalues --- 1000.000001000.000001000.000001000.000001000.00000
     Eigenvalues --- 1000.000001000.000001000.000001000.000001000.00000
     Eigenvalues --- 1000.000001000.000001000.000001000.000001000.00000
     Eigenvalues --- 1000.000001000.000001000.000001000.000001000.00000
     Eigenvalues --- 1000.000001000.000001000.000001000.000001000.00000
     Eigenvalues --- 1000.000001000.000001000.000001000.000001000.00000
     Eigenvalues --- 1000.000001000.000001000.000001000.000001000.00000
     Eigenvalues --- 1000.000001000.000001000.000001000.000001000.00000
     Eigenvalues --- 1000.000001000.000001000.000001000.000001000.00000
     Eigenvalues --- 1000.000001000.000001000.000001000.000001000.00000
     Eigenvalues --- 1000.000001000.000001000.000001000.000001000.00000
     Eigenvalues --- 1000.000001000.00000
 RFO step:  Lambda=-6.87093428D-03 EMin= 5.36772544D-03
 Linear search not attempted -- first point.
 Iteration  1 RMS(Cart)=  0.01935802 RMS(Int)=  0.00022197
 Iteration  2 RMS(Cart)=  0.00036548 RMS(Int)=  0.00006171
 Iteration  3 RMS(Cart)=  0.00000010 RMS(Int)=  0.00006171
 Variable       Old X    -DE/DX   Delta X   Delta X   Delta X     New X
                                 (Linear)    (Quad)   (Total)
    R1        2.86733   0.00260   0.00000   0.00829   0.00829   2.87562
    R2        2.06689   0.00058   0.00000   0.00166   0.00166   2.06856
    R3        2.06895   0.00030   0.00000   0.00086   0.00086   2.06981
    R4        2.06907   0.00028   0.00000   0.00079   0.00079   2.06985
    R5        2.69671   0.00026   0.00000   0.00061   0.00061   2.69732
    R6        2.07159   0.00161   0.00000   0.00463   0.00463   2.07621
    R7        2.07148   0.00158   0.00000   0.00455   0.00455   2.07604
    R8        2.58694   0.00104   0.00000   0.00200   0.00200   2.58895
    R9        2.63340   0.01907   0.00000   0.03876   0.03875   2.67214
   R10        2.64251  -0.00879   0.00000  -0.01953  -0.01956   2.62295
   R11        2.64178  -0.01272   0.00000  -0.02808  -0.02807   2.61370
   R12        2.04918  -0.00007   0.00000  -0.00018  -0.00018   2.04900
   R13        2.64953   0.01158   0.00000   0.02587   0.02589   2.67542
   R14        2.05596  -0.00097   0.00000  -0.00272  -0.00272   2.05325
   R15        2.66948   0.01973   0.00000   0.04809   0.04811   2.71758
   R16        2.65206   0.01298   0.00000   0.02938   0.02938   2.68144
   R17        2.65593   0.00704   0.00000   0.01632   0.01631   2.67225
   R18        2.65482   0.01240   0.00000   0.02811   0.02811   2.68293
   R19        2.05557  -0.00122   0.00000  -0.00342  -0.00342   2.05216
   R20        2.63840  -0.01309   0.00000  -0.02888  -0.02888   2.60952
   R21        2.05560  -0.00046   0.00000  -0.00129  -0.00129   2.05432
   R22        2.62974   0.02050   0.00000   0.04114   0.04114   2.67088
   R23        2.05402  -0.00008   0.00000  -0.00023  -0.00023   2.05379
   R24        2.63707  -0.01268   0.00000  -0.02779  -0.02779   2.60928
   R25        2.05398  -0.00008   0.00000  -0.00023  -0.00023   2.05375
   R26        2.05508  -0.00005   0.00000  -0.00015  -0.00015   2.05492
    A1        1.93265  -0.00129   0.00000  -0.01245  -0.01248   1.92018
    A2        1.93128   0.00013   0.00000   0.00308   0.00303   1.93431
    A3        1.93076   0.00018   0.00000   0.00350   0.00345   1.93421
    A4        1.89998  -0.00001   0.00000  -0.00462  -0.00465   1.89533
    A5        1.89956  -0.00000   0.00000  -0.00436  -0.00438   1.89518
    A6        1.86804   0.00105   0.00000   0.01554   0.01547   1.88351
    A7        1.89025  -0.00384   0.00000  -0.01324  -0.01311   1.87714
    A8        1.90211   0.00407   0.00000   0.02928   0.02914   1.93124
    A9        1.90035   0.00417   0.00000   0.02977   0.02963   1.92997
   A10        1.92314  -0.00022   0.00000  -0.00653  -0.00647   1.91667
   A11        1.92499  -0.00032   0.00000  -0.00748  -0.00742   1.91757
   A12        1.92241  -0.00373   0.00000  -0.03048  -0.03100   1.89141
   A13        2.03677   0.00998   0.00000   0.03883   0.03883   2.07560
   A14        2.19547  -0.00693   0.00000  -0.02537  -0.02535   2.17013
   A15        2.00564   0.00342   0.00000   0.01490   0.01492   2.02056
   A16        2.08207   0.00351   0.00000   0.01046   0.01043   2.09249
   A17        2.09795   0.00019   0.00000  -0.00303  -0.00303   2.09492
   A18        2.12879  -0.00230   0.00000  -0.01167  -0.01167   2.11712
   A19        2.05644   0.00210   0.00000   0.01470   0.01470   2.07114
   A20        2.11061   0.00223   0.00000   0.01052   0.01055   2.12117
   A21        2.07333   0.00028   0.00000   0.00309   0.00308   2.07641
   A22        2.09924  -0.00251   0.00000  -0.01362  -0.01363   2.08561
   A23        2.07963  -0.00415   0.00000  -0.01418  -0.01414   2.06549
   A24        2.11854   0.00621   0.00000   0.01877   0.01875   2.13729
   A25        2.08501  -0.00206   0.00000  -0.00459  -0.00461   2.08040
   A26        2.08019  -0.00100   0.00000  -0.00154  -0.00153   2.07865
   A27        2.07942  -0.00294   0.00000  -0.00839  -0.00839   2.07103
   A28        2.12358   0.00394   0.00000   0.00993   0.00993   2.13351
   A29        2.11592  -0.00079   0.00000  -0.00224  -0.00227   2.11365
   A30        2.07185  -0.00031   0.00000  -0.00309  -0.00307   2.06878
   A31        2.09541   0.00110   0.00000   0.00533   0.00535   2.10076
   A32        2.10720  -0.00033   0.00000  -0.00111  -0.00112   2.10609
   A33        2.09964  -0.00240   0.00000  -0.01481  -0.01480   2.08483
   A34        2.07635   0.00273   0.00000   0.01592   0.01592   2.09227
   A35        2.09478   0.00362   0.00000   0.01065   0.01065   2.10543
   A36        2.09338  -0.00256   0.00000  -0.00978  -0.00978   2.08360
   A37        2.09502  -0.00107   0.00000  -0.00087  -0.00087   2.09415
   A38        2.09368   0.00204   0.00000   0.00396   0.00397   2.09765
   A39        2.09622  -0.00047   0.00000   0.00129   0.00129   2.09751
   A40        2.09328  -0.00157   0.00000  -0.00525  -0.00526   2.08802
   A41        2.10627  -0.00033   0.00000  -0.00051  -0.00050   2.10577
   A42        2.10101  -0.00243   0.00000  -0.01528  -0.01528   2.08573
   A43        2.07590   0.00275   0.00000   0.01578   0.01578   2.09168
    D1        3.13947   0.00001   0.00000   0.00051   0.00052   3.13999
    D2        1.04718   0.00017   0.00000  -0.00081  -0.00067   1.04650
    D3       -1.05021  -0.00021   0.00000   0.00099   0.00085  -1.04936
    D4        1.03106   0.00079   0.00000   0.01256   0.01257   1.04364
    D5       -1.06123   0.00095   0.00000   0.01124   0.01138  -1.04985
    D6        3.12457   0.00056   0.00000   0.01303   0.01291   3.13748
    D7       -1.03618  -0.00072   0.00000  -0.01090  -0.01091  -1.04709
    D8       -3.12848  -0.00056   0.00000  -0.01222  -0.01210  -3.14058
    D9        1.05732  -0.00095   0.00000  -0.01043  -0.01058   1.04675
   D10        3.14097   0.00013   0.00000   0.00567   0.00567  -3.13655
   D11       -1.06315   0.00263   0.00000   0.02942   0.02931  -1.03384
   D12        1.06296  -0.00241   0.00000  -0.01812  -0.01801   1.04495
   D13       -0.02132   0.00021   0.00000   0.00749   0.00748  -0.01383
   D14        3.12202   0.00018   0.00000   0.00659   0.00659   3.12861
   D15       -3.13831  -0.00004   0.00000  -0.00151  -0.00150  -3.13981
   D16        0.00157   0.00001   0.00000   0.00042   0.00042   0.00199
   D17        0.00147  -0.00001   0.00000  -0.00056  -0.00057   0.00090
   D18        3.14135   0.00005   0.00000   0.00137   0.00135  -3.14049
   D19        3.13909   0.00001   0.00000   0.00055   0.00056   3.13965
   D20       -0.00217   0.00002   0.00000   0.00070   0.00070  -0.00147
   D21       -0.00088  -0.00000   0.00000  -0.00025  -0.00025  -0.00113
   D22        3.14104  -0.00000   0.00000  -0.00010  -0.00011   3.14094
   D23       -0.00033   0.00001   0.00000   0.00034   0.00033   0.00000
   D24        3.14088   0.00003   0.00000   0.00094   0.00094  -3.14136
   D25       -3.14028  -0.00004   0.00000  -0.00149  -0.00151   3.14140
   D26        0.00093  -0.00002   0.00000  -0.00089  -0.00090   0.00003
   D27       -0.00142   0.00002   0.00000   0.00075   0.00075  -0.00067
   D28        3.13923   0.00004   0.00000   0.00160   0.00160   3.14083
   D29        3.14057   0.00001   0.00000   0.00014   0.00013   3.14070
   D30       -0.00197   0.00003   0.00000   0.00098   0.00098  -0.00099
   D31        0.00198  -0.00004   0.00000  -0.00155  -0.00155   0.00044
   D32       -3.13978  -0.00003   0.00000  -0.00102  -0.00102  -3.14081
   D33       -3.13868  -0.00007   0.00000  -0.00239  -0.00238  -3.14106
   D34        0.00274  -0.00005   0.00000  -0.00186  -0.00186   0.00088
   D35        3.14124   0.00001   0.00000   0.00009   0.00009   3.14133
   D36       -0.00076   0.00002   0.00000   0.00039   0.00038  -0.00039
   D37       -0.00130   0.00002   0.00000   0.00093   0.00094  -0.00036
   D38        3.13988   0.00003   0.00000   0.00123   0.00123   3.14111
   D39       -0.00086   0.00003   0.00000   0.00131   0.00131   0.00046
   D40        3.14040   0.00003   0.00000   0.00116   0.00116   3.14156
   D41        3.14091   0.00002   0.00000   0.00077   0.00078  -3.14150
   D42       -0.00101   0.00002   0.00000   0.00062   0.00062  -0.00039
   D43       -0.00210   0.00004   0.00000   0.00136   0.00136  -0.00075
   D44        3.13998   0.00002   0.00000   0.00078   0.00078   3.14076
   D45        3.13931   0.00005   0.00000   0.00190   0.00189   3.14121
   D46       -0.00179   0.00004   0.00000   0.00132   0.00132  -0.00048
   D47       -0.00001   0.00001   0.00000   0.00011   0.00010   0.00009
   D48       -3.14106  -0.00001   0.00000  -0.00056  -0.00057   3.14156
   D49        3.14110   0.00002   0.00000   0.00067   0.00067  -3.14142
   D50        0.00005   0.00000   0.00000   0.00000   0.00000   0.00005
   D51        0.00150  -0.00002   0.00000  -0.00103  -0.00104   0.00045
   D52       -3.14027  -0.00002   0.00000  -0.00077  -0.00077  -3.14105
   D53       -3.14064  -0.00001   0.00000  -0.00036  -0.00037  -3.14101
   D54        0.00077   0.00000   0.00000  -0.00010  -0.00010   0.00067
   D55       -0.00084   0.00002   0.00000   0.00053   0.00053  -0.00031
   D56        3.14117   0.00001   0.00000   0.00025   0.00024   3.14141
   D57        3.14093   0.00001   0.00000   0.00027   0.00026   3.14119
   D58       -0.00025   0.00000   0.00000  -0.00002  -0.00002  -0.00028
         Item               Value     Threshold  Converged?
 Maximum Force            0.020503     0.000450     NO 
 RMS     Force            0.004596     0.000300     NO 
 Maximum Displacement     0.071322     0.001800     NO 
 RMS     Displacement     0.019266     0.001200     NO 
 Predicted change in Energy=-3.509563D-03
 GradGradGradGradGradGradGradGradGradGradGradGradGradGradGradGradGradGrad

 Leave Link  103 at Tue Sep 28 14:43:37 2021, MaxMem= 1073741824 cpu:       1.2
 (Enter /sw/target/amd/app/gaussian/Gaussian09RevA.02_gcc-4.9.2/g09/l202.exe)
                          Input orientation:                          
 ---------------------------------------------------------------------
 Center     Atomic      Atomic             Coordinates (Angstroms)
 Number     Number       Type             X           Y           Z
 ---------------------------------------------------------------------
      1          6           0        1.134519   -0.441874   -0.148746
      2          6           0        2.600625   -0.827111   -0.281918
      3          8           0        3.213743    0.111366   -1.165493
      4          6           0        4.545786   -0.024297   -1.455647
      5          6           0        5.379298   -1.034732   -0.922935
      6          6           0        6.715603   -1.087125   -1.275840
      7          6           0        7.283341   -0.145616   -2.167830
      8          6           0        6.433670    0.880647   -2.709060
      9          6           0        5.070687    0.913746   -2.333780
     10          6           0        6.995794    1.827755   -3.604983
     11          6           0        8.331681    1.765299   -3.949054
     12          6           0        9.166237    0.756828   -3.416031
     13          6           0        8.651508   -0.180434   -2.542460
     14          1           0        0.623193   -1.139586    0.522048
     15          1           0        0.635570   -0.465437   -1.123510
     16          1           0        1.033258    0.570373    0.257244
     17          1           0        2.698965   -1.842336   -0.690276
     18          1           0        3.097993   -0.798085    0.697206
     19          1           0        4.993108   -1.779537   -0.236061
     20          1           0        7.340319   -1.870956   -0.856445
     21          1           0        4.410647    1.679654   -2.730047
     22          1           0        6.364997    2.608553   -4.022394
     23          1           0        8.740124    2.501061   -4.636806
     24          1           0       10.216714    0.714889   -3.691461
     25          1           0        9.298577   -0.954019   -2.135831
 ---------------------------------------------------------------------
                    Distance matrix (angstroms):
                    1          2          3          4          5
     1  C    0.000000
     2  C    1.521713   0.000000
     3  O    2.379711   1.427360   0.000000
     4  C    3.676833   2.409523   1.370011   0.000000
     5  C    4.355341   2.859201   2.462113   1.414038   0.000000
     6  C    5.730200   4.241289   3.702915   2.422818   1.383112
     7  C    6.478618   5.094009   4.199089   2.831278   2.442473
     8  C    6.032021   4.847648   3.652715   2.440098   2.823229
     9  C    4.701648   3.652660   2.336011   1.388007   2.425343
    10  C    7.172958   6.116256   4.816743   3.748637   4.242673
    11  C    8.432859   7.281036   6.056154   4.873678   5.070911
    12  C    8.753315   7.445722   6.396383   5.079550   4.875051
    13  C    7.893247   6.491643   5.616981   4.250000   3.749673
    14  H    1.094633   2.157368   3.335210   4.532315   4.971871
    15  H    1.095295   2.168070   2.642241   3.949013   4.781974
    16  H    1.095320   2.168017   2.643744   3.952907   4.780925
    17  H    2.168419   1.098684   2.075518   2.702185   2.809010
    18  H    2.167430   1.098591   2.076089   2.707328   2.808061
    19  H    4.084810   2.575498   2.757806   2.183656   1.084285
    20  H    6.407423   4.887166   4.588435   3.402735   2.132908
    21  H    4.679424   3.943778   2.517923   2.132090   3.401739
    22  H    7.188057   6.321823   4.932366   4.102392   4.883828
    23  H    9.308532   8.230141   6.949931   5.838636   6.131054
    24  H    9.817088   8.485727   7.469027   6.140415   5.841790
    25  H    8.417996   6.950947   6.253144   4.890405   4.103460
                    6          7          8          9         10
     6  C    0.000000
     7  C    1.415773   0.000000
     8  C    2.450660   1.438084   0.000000
     9  C    2.797941   2.458785   1.414091   0.000000
    10  C    3.741649   2.458106   1.419744   2.481412   0.000000
    11  C    4.230143   2.814848   2.433647   3.737424   1.380899
[...]
    23  H    0.114681
    24  H    0.128168
    25  H    0.119682
 Sum of Mulliken atomic charges =  -0.00000
 Mulliken charges with hydrogens summed into heavy atoms:
              1
     1  C    0.031911
     2  C    0.280352
     3  O   -0.476083
     4  C    0.393475
     5  C   -0.097740
     6  C   -0.093740
     7  C    0.154769
     8  C    0.143322
     9  C   -0.117454
    10  C   -0.090285
    11  C   -0.043280
    12  C    0.013801
    13  C   -0.099047
 Sum of Mulliken charges with hydrogens summed into heavy atoms =  -0.00000
 Electronic spatial extent (au):  <R**2>=           3119.0586
 Charge=              0.0000 electrons
 Dipole moment (field-independent basis, Debye):
    X=             -3.2612    Y=              0.7356    Z=              0.0002  Tot=              3.3431
 Quadrupole moment (field-independent basis, Debye-Ang):
   XX=            -62.3241   YY=            -71.7418   ZZ=            -79.9842
   XY=             -1.2537   XZ=             -0.0004   YZ=             -0.0000
 Traceless Quadrupole moment (field-independent basis, Debye-Ang):
   XX=              9.0260   YY=             -0.3918   ZZ=             -8.6341
   XY=             -1.2537   XZ=             -0.0004   YZ=             -0.0000
 Octapole moment (field-independent basis, Debye-Ang**2):
  XXX=            -57.4733  YYY=             -1.6374  ZZZ=             -0.0002  XYY=             -1.7529
  XXY=             11.9731  XXZ=              0.0024  XZZ=            -16.7186  YZZ=             -1.7518
  YYZ=             -0.0001  XYZ=              0.0005
 Hexadecapole moment (field-independent basis, Debye-Ang**3):
 XXXX=          -3167.0065 YYYY=           -579.4066 ZZZZ=            -94.6485 XXXY=             -6.2632
 XXXZ=             -0.0001 YYYX=              5.3844 YYYZ=              0.0004 ZZZX=             -0.0003
 ZZZY=              0.0005 XXYY=           -666.9696 XXZZ=           -626.9885 YYZZ=           -128.4909
 XXYZ=             -0.0004 YYXZ=              0.0006 ZZXY=              7.1588
 N-N= 7.194148716519D+02 E-N=-2.690912834876D+03  KE= 5.346953611027D+02
 No NMR shielding tensors so no spin-rotation constants.
 Leave Link  601 at Tue Sep 28 15:13:57 2021, MaxMem= 1073741824 cpu:       0.7
 (Enter /sw/target/amd/app/gaussian/Gaussian09RevA.02_gcc-4.9.2/g09/l604.exe)
 Evaluate density.
 Using the total density.
 Monte-Carlo method of calculating molar volume:
 based on  0.001 e/bohr**3 density envelope.
 Number of points per bohr**3 =   20 CutOff= 1.00D-04
 Using the CI density.
 There are       389 points.  Will hold       389 in memory.
 LenV=  1073606897 MDV=  1073741824.
 Box volume = 7378.870 fraction occupied=0.188
 Integrated density= 7.6877098415676187D+01 error=-1.5122901584323813D+01
 Molar volume = 1384.724 bohr**3/mol (123.571 cm**3/mol)
 Recommended a0 for SCRF calculation =  4.53 angstrom (  8.56 bohr)
 Leave Link  604 at Tue Sep 28 15:13:57 2021, MaxMem= 1073741824 cpu:       0.2
 (Enter /sw/target/amd/app/gaussian/Gaussian09RevA.02_gcc-4.9.2/g09/l607.exe)
 ******************************Gaussian NBO Version 3.1******************************
             N A T U R A L   A T O M I C   O R B I T A L   A N D
          N A T U R A L   B O N D   O R B I T A L   A N A L Y S I S
 ******************************Gaussian NBO Version 3.1******************************
       /RESON  / : Allow strongly delocalized NBO set

 Analyzing the CI density

 Job title: CCOc1ccc2c(c1)cccc2_conf_0                                      

 Storage needed:    146002 in NPA (1073738449 available)


 NATURAL POPULATIONS:  Natural atomic orbital occupancies 
                                                          
   NAO  Atom  No  lang   Type(AO)    Occupancy
 --------------------------------------------
     1    C    1  S      Cor( 1S)     1.99945
     2    C    1  S      Val( 2S)     1.11291
     3    C    1  S      Ryd( 3S)     0.00051
     4    C    1  S      Ryd( 4S)     0.00001
     5    C    1  px     Val( 2p)     1.12206
     6    C    1  px     Ryd( 3p)     0.00179
     7    C    1  py     Val( 2p)     1.19937
     8    C    1  py     Ryd( 3p)     0.00147
     9    C    1  pz     Val( 2p)     1.25552
    10    C    1  pz     Ryd( 3p)     0.00134
    11    C    1  dxy    Ryd( 3d)     0.00093
    12    C    1  dxz    Ryd( 3d)     0.00011
    13    C    1  dyz    Ryd( 3d)     0.00115
    14    C    1  dx2y2  Ryd( 3d)     0.00025
    15    C    1  dz2    Ryd( 3d)     0.00073

    16    C    2  S      Cor( 1S)     1.99927
    17    C    2  S      Val( 2S)     1.03328
    18    C    2  S      Ryd( 3S)     0.00246
    19    C    2  S      Ryd( 4S)     0.00004
    20    C    2  px     Val( 2p)     0.83129
    21    C    2  px     Ryd( 3p)     0.00182
    22    C    2  py     Val( 2p)     0.99764
    23    C    2  py     Ryd( 3p)     0.00257
    24    C    2  pz     Val( 2p)     1.23647
    25    C    2  pz     Ryd( 3p)     0.00139
    26    C    2  dxy    Ryd( 3d)     0.00178
    27    C    2  dxz    Ryd( 3d)     0.00085
    28    C    2  dyz    Ryd( 3d)     0.00177
    29    C    2  dx2y2  Ryd( 3d)     0.00116
    30    C    2  dz2    Ryd( 3d)     0.00102

    31    O    3  S      Cor( 1S)     1.99974
    32    O    3  S      Val( 2S)     1.59597
    33    O    3  S      Ryd( 3S)     0.00114
    34    O    3  S      Ryd( 4S)     0.00008
    35    O    3  px     Val( 2p)     1.38963
    36    O    3  px     Ryd( 3p)     0.00094
    37    O    3  py     Val( 2p)     1.73096
    38    O    3  py     Ryd( 3p)     0.00250
    39    O    3  pz     Val( 2p)     1.73337
    40    O    3  pz     Ryd( 3p)     0.00232
    41    O    3  dxy    Ryd( 3d)     0.00132
    42    O    3  dxz    Ryd( 3d)     0.00045
    43    O    3  dyz    Ryd( 3d)     0.00147
    44    O    3  dx2y2  Ryd( 3d)     0.00130
    45    O    3  dz2    Ryd( 3d)     0.00073

    46    C    4  S      Cor( 1S)     1.99880
    47    C    4  S      Val( 2S)     0.84101
    48    C    4  S      Ryd( 3S)     0.00161
    49    C    4  S      Ryd( 4S)     0.00014
    50    C    4  px     Val( 2p)     0.78131
    51    C    4  px     Ryd( 3p)     0.00564
    52    C    4  py     Val( 2p)     1.05305
    53    C    4  py     Ryd( 3p)     0.00719
    54    C    4  pz     Val( 2p)     0.93499
    55    C    4  pz     Ryd( 3p)     0.00105
    56    C    4  dxy    Ryd( 3d)     0.00168
    57    C    4  dxz    Ryd( 3d)     0.00175
    58    C    4  dyz    Ryd( 3d)     0.00133
    59    C    4  dx2y2  Ryd( 3d)     0.00146
    60    C    4  dz2    Ryd( 3d)     0.00047

    61    C    5  S      Cor( 1S)     1.99905
    62    C    5  S      Val( 2S)     0.95063
    63    C    5  S      Ryd( 3S)     0.00069
    64    C    5  S      Ryd( 4S)     0.00005
    65    C    5  px     Val( 2p)     1.15093
    66    C    5  px     Ryd( 3p)     0.00370
    67    C    5  py     Val( 2p)     1.10835
    68    C    5  py     Ryd( 3p)     0.00423
    69    C    5  pz     Val( 2p)     1.16069
    70    C    5  pz     Ryd( 3p)     0.00339
    71    C    5  dxy    Ryd( 3d)     0.00070
    72    C    5  dxz    Ryd( 3d)     0.00056
    73    C    5  dyz    Ryd( 3d)     0.00036
    74    C    5  dx2y2  Ryd( 3d)     0.00062
    75    C    5  dz2    Ryd( 3d)     0.00046

    76    C    6  S      Cor( 1S)     1.99907
    77    C    6  S      Val( 2S)     0.94400
    78    C    6  S      Ryd( 3S)     0.00074
    79    C    6  S      Ryd( 4S)     0.00005
    80    C    6  px     Val( 2p)     1.05706
    81    C    6  px     Ryd( 3p)     0.00428
    82    C    6  py     Val( 2p)     1.18093
    83    C    6  py     Ryd( 3p)     0.00495
    84    C    6  pz     Val( 2p)     1.01031
    85    C    6  pz     Ryd( 3p)     0.00326
    86    C    6  dxy    Ryd( 3d)     0.00067
    87    C    6  dxz    Ryd( 3d)     0.00075
    88    C    6  dyz    Ryd( 3d)     0.00029
    89    C    6  dx2y2  Ryd( 3d)     0.00080
    90    C    6  dz2    Ryd( 3d)     0.00043

    91    C    7  S      Cor( 1S)     1.99902
    92    C    7  S      Val( 2S)     0.87169
    93    C    7  S      Ryd( 3S)     0.00047
    94    C    7  S      Ryd( 4S)     0.00006
    95    C    7  px     Val( 2p)     1.09792
    96    C    7  px     Ryd( 3p)     0.00486
    97    C    7  py     Val( 2p)     1.07664
    98    C    7  py     Ryd( 3p)     0.00547
    99    C    7  pz     Val( 2p)     0.98685
   100    C    7  pz     Ryd( 3p)     0.00089
   101    C    7  dxy    Ryd( 3d)     0.00069
   102    C    7  dxz    Ryd( 3d)     0.00097
   103    C    7  dyz    Ryd( 3d)     0.00052
   104    C    7  dx2y2  Ryd( 3d)     0.00073
   105    C    7  dz2    Ryd( 3d)     0.00034

   106    C    8  S      Cor( 1S)     1.99903
   107    C    8  S      Val( 2S)     0.87122
   108    C    8  S      Ryd( 3S)     0.00050
   109    C    8  S      Ryd( 4S)     0.00007
   110    C    8  px     Val( 2p)     1.08757
   111    C    8  px     Ryd( 3p)     0.00497
   112    C    8  py     Val( 2p)     1.08581
   113    C    8  py     Ryd( 3p)     0.00570
   114    C    8  pz     Val( 2p)     0.99812
   115    C    8  pz     Ryd( 3p)     0.00076
   116    C    8  dxy    Ryd( 3d)     0.00065
   117    C    8  dxz    Ryd( 3d)     0.00091
   118    C    8  dyz    Ryd( 3d)     0.00060
   119    C    8  dx2y2  Ryd( 3d)     0.00076
   120    C    8  dz2    Ryd( 3d)     0.00034

   121    C    9  S      Cor( 1S)     1.99900
   122    C    9  S      Val( 2S)     0.95461
   123    C    9  S      Ryd( 3S)     0.00090
   124    C    9  S      Ryd( 4S)     0.00006
   125    C    9  px     Val( 2p)     1.05871
   126    C    9  px     Ryd( 3p)     0.00457
   127    C    9  py     Val( 2p)     1.18633
   128    C    9  py     Ryd( 3p)     0.00425
   129    C    9  pz     Val( 2p)     1.01739
   130    C    9  pz     Ryd( 3p)     0.00337
   131    C    9  dxy    Ryd( 3d)     0.00079
   132    C    9  dxz    Ryd( 3d)     0.00055
   133    C    9  dyz    Ryd( 3d)     0.00041
   134    C    9  dx2y2  Ryd( 3d)     0.00064
   135    C    9  dz2    Ryd( 3d)     0.00044

   136    C   10  S      Cor( 1S)     1.99906
   137    C   10  S      Val( 2S)     0.94565
   138    C   10  S      Ryd( 3S)     0.00064
   139    C   10  S      Ryd( 4S)     0.00004
   140    C   10  px     Val( 2p)     1.06297
   141    C   10  px     Ryd( 3p)     0.00420
   142    C   10  py     Val( 2p)     1.17289
   143    C   10  py     Ryd( 3p)     0.00461
   144    C   10  pz     Val( 2p)     1.03687
   145    C   10  pz     Ryd( 3p)     0.00321
   146    C   10  dxy    Ryd( 3d)     0.00070
   147    C   10  dxz    Ryd( 3d)     0.00069
   148    C   10  dyz    Ryd( 3d)     0.00027
   149    C   10  dx2y2  Ryd( 3d)     0.00078
   150    C   10  dz2    Ryd( 3d)     0.00042

   151    C   11  S      Cor( 1S)     1.99912
   152    C   11  S      Val( 2S)     0.95638
   153    C   11  S      Ryd( 3S)     0.00061
   154    C   11  S      Ryd( 4S)     0.00003
   155    C   11  px     Val( 2p)     1.13706
   156    C   11  px     Ryd( 3p)     0.00498
   157    C   11  py     Val( 2p)     1.11129
   158    C   11  py     Ryd( 3p)     0.00488
   159    C   11  pz     Val( 2p)     1.07342
   160    C   11  pz     Ryd( 3p)     0.00289
   161    C   11  dxy    Ryd( 3d)     0.00083
   162    C   11  dxz    Ryd( 3d)     0.00057
   163    C   11  dyz    Ryd( 3d)     0.00039
   164    C   11  dx2y2  Ryd( 3d)     0.00062
   165    C   11  dz2    Ryd( 3d)     0.00043

   166    C   12  S      Cor( 1S)     1.99910
   167    C   12  S      Val( 2S)     0.96737
   168    C   12  S      Ryd( 3S)     0.00056
   169    C   12  S      Ryd( 4S)     0.00004
   170    C   12  px     Val( 2p)     1.18135
   171    C   12  px     Ryd( 3p)     0.00493
   172    C   12  py     Val( 2p)     1.07281
   173    C   12  py     Ryd( 3p)     0.00459
   174    C   12  pz     Val( 2p)     0.93769
   175    C   12  pz     Ryd( 3p)     0.00129
   176    C   12  dxy    Ryd( 3d)     0.00076
   177    C   12  dxz    Ryd( 3d)     0.00040
   178    C   12  dyz    Ryd( 3d)     0.00084
   179    C   12  dx2y2  Ryd( 3d)     0.00079
   180    C   12  dz2    Ryd( 3d)     0.00043

   181    C   13  S      Cor( 1S)     1.99906
   182    C   13  S      Val( 2S)     0.94773
   183    C   13  S      Ryd( 3S)     0.00068
   184    C   13  S      Ryd( 4S)     0.00005
   185    C   13  px     Val( 2p)     1.05230
   186    C   13  px     Ryd( 3p)     0.00428
   187    C   13  py     Val( 2p)     1.18775
   188    C   13  py     Ryd( 3p)     0.00465
   189    C   13  pz     Val( 2p)     1.05409
   190    C   13  pz     Ryd( 3p)     0.00317
   191    C   13  dxy    Ryd( 3d)     0.00065
   192    C   13  dxz    Ryd( 3d)     0.00046
   193    C   13  dyz    Ryd( 3d)     0.00036
   194    C   13  dx2y2  Ryd( 3d)     0.00083
   195    C   13  dz2    Ryd( 3d)     0.00042

   196    H   14  S      Val( 1S)     0.75845
   197    H   14  S      Ryd( 2S)     0.00066

   198    H   15  S      Val( 1S)     0.75818
   199    H   15  S      Ryd( 2S)     0.00126

   200    H   16  S      Val( 1S)     0.75817
   201    H   16  S      Ryd( 2S)     0.00126

   202    H   17  S      Val( 1S)     0.77541
   203    H   17  S      Ryd( 2S)     0.00243

   204    H   18  S      Val( 1S)     0.77542
   205    H   18  S      Ryd( 2S)     0.00243

   206    H   19  S      Val( 1S)     0.76721
   207    H   19  S      Ryd( 2S)     0.00082

   208    H   20  S      Val( 1S)     0.76724
   209    H   20  S      Ryd( 2S)     0.00114

   210    H   21  S      Val( 1S)     0.75619
   211    H   21  S      Ryd( 2S)     0.00165

   212    H   22  S      Val( 1S)     0.77275
   213    H   22  S      Ryd( 2S)     0.00114

   214    H   23  S      Val( 1S)     0.76881
   215    H   23  S      Ryd( 2S)     0.00081

   216    H   24  S      Val( 1S)     0.76745
   217    H   24  S      Ryd( 2S)     0.00087

   218    H   25  S      Val( 1S)     0.77119
   219    H   25  S      Ryd( 2S)     0.00114

 WARNING:  1 low occupancy (<1.9990e) core orbital  found on  C    4


 Summary of Natural Population Analysis:                  
                                                          
                                       Natural Population 
                Natural  -----------------------------------------------
    Atom  No    Charge         Core      Valence    Rydberg      Total
 -----------------------------------------------------------------------
      C    1   -0.69760      1.99945     4.68986    0.00828     6.69760
      C    2   -0.11280      1.99927     4.09867    0.01486     6.11280
      O    3   -0.46193      1.99974     6.44994    0.01225     8.46193
      C    4    0.36851      1.99880     3.61036    0.02233     5.63149
      C    5   -0.38440      1.99905     4.37060    0.01475     6.38440
      C    6   -0.20760      1.99907     4.19230    0.01623     6.20760
      C    7   -0.04713      1.99902     4.03310    0.01501     6.04713
      C    8   -0.05701      1.99903     4.04271    0.01527     6.05701
      C    9   -0.23203      1.99900     4.21705    0.01599     6.23203
      C   10   -0.23301      1.99906     4.21838    0.01557     6.23301
      C   11   -0.29348      1.99912     4.27814    0.01623     6.29348
      C   12   -0.17295      1.99910     4.15922    0.01462     6.17295
      C   13   -0.25648      1.99906     4.24187    0.01554     6.25648
      H   14    0.24089      0.00000     0.75845    0.00066     0.75911
      H   15    0.24056      0.00000     0.75818    0.00126     0.75944
      H   16    0.24056      0.00000     0.75817    0.00126     0.75944
      H   17    0.22215      0.00000     0.77541    0.00243     0.77785
      H   18    0.22215      0.00000     0.77542    0.00243     0.77785
      H   19    0.23198      0.00000     0.76721    0.00082     0.76802
      H   20    0.23162      0.00000     0.76724    0.00114     0.76838
      H   21    0.24215      0.00000     0.75619    0.00165     0.75785
      H   22    0.22611      0.00000     0.77275    0.00114     0.77389
      H   23    0.23038      0.00000     0.76881    0.00081     0.76962
      H   24    0.23168      0.00000     0.76745    0.00087     0.76832
      H   25    0.22767      0.00000     0.77119    0.00114     0.77233
 =======================================================================
   * Total *   -0.00000     25.98878    65.79868    0.21254    92.00000

                                 Natural Population      
 --------------------------------------------------------
   Core                      25.98878 ( 99.9569% of  26)
   Valence                   65.79868 ( 99.6950% of  66)
   Natural Minimal Basis     91.78746 ( 99.7690% of  92)
   Natural Rydberg Basis      0.21254 (  0.2310% of  92)
 --------------------------------------------------------

    Atom  No          Natural Electron Configuration
 ----------------------------------------------------------------------------
      C    1      [core]2S( 1.11)2p( 3.58)
      C    2      [core]2S( 1.03)2p( 3.07)3p( 0.01)3d( 0.01)
      O    3      [core]2S( 1.60)2p( 4.85)3p( 0.01)3d( 0.01)
      C    4      [core]2S( 0.84)2p( 2.77)3p( 0.01)3d( 0.01)
      C    5      [core]2S( 0.95)2p( 3.42)3p( 0.01)
      C    6      [core]2S( 0.94)2p( 3.25)3p( 0.01)
      C    7      [core]2S( 0.87)2p( 3.16)3p( 0.01)
      C    8      [core]2S( 0.87)2p( 3.17)3p( 0.01)
      C    9      [core]2S( 0.95)2p( 3.26)3p( 0.01)
      C   10      [core]2S( 0.95)2p( 3.27)3p( 0.01)
      C   11      [core]2S( 0.96)2p( 3.32)3p( 0.01)
      C   12      [core]2S( 0.97)2p( 3.19)3p( 0.01)
      C   13      [core]2S( 0.95)2p( 3.29)3p( 0.01)
      H   14            1S( 0.76)
      H   15            1S( 0.76)
      H   16            1S( 0.76)
      H   17            1S( 0.78)
      H   18            1S( 0.78)
      H   19            1S( 0.77)
      H   20            1S( 0.77)
      H   21            1S( 0.76)
      H   22            1S( 0.77)
      H   23            1S( 0.77)
      H   24            1S( 0.77)
      H   25            1S( 0.77)


 NBO analysis skipped by request.
 Leave Link  607 at Tue Sep 28 15:14:00 2021, MaxMem= 1073741824 cpu:      10.3
 (Enter /sw/target/amd/app/gaussian/Gaussian09RevA.02_gcc-4.9.2/g09/l9999.exe)
 1\1\GINC-HERMITE\SP\RTD-B3LYP-FC\6-31G(d)\C12H12O1\JSCHLEINITZ\28-Sep-
 2021\0\\#p TD(NStates=10, Root=1) b3lyp/6-31G* volume pop=NPA density=
 current Geom=AllCheck Guess=Read\\CCOc1ccc2c(c1)cccc2_conf_0\\0,1\C,0,
 1.1406674517,-0.4417019149,-0.1485242065\C,0,2.6040798468,-0.828075705
 2,-0.2789662243\O,0,3.2127329552,0.1030316537,-1.1718388137\C,0,4.5416
 456159,-0.0209792497,-1.4647267998\C,0,5.3762637931,-1.0371167087,-0.9
 277922295\C,0,6.7083126483,-1.0875520529,-1.2780981997\C,0,7.279159782
 5,-0.1451075632,-2.1689097619\C,0,6.4317413471,0.8793927062,-2.7085330
 943\C,0,5.0678804393,0.914857162,-2.3374382768\C,0,7.0000226673,1.8292
 226035,-3.6042713827\C,0,8.3309190164,1.768231256,-3.9461255002\C,0,9.
 1671516334,0.7546846946,-3.4116490412\C,0,8.6497757808,-0.1786602613,-
 2.5434450007\H,0,0.6278054891,-1.1311107595,0.5308244095\H,0,0.6443490
 387,-0.479386734,-1.1232477906\H,0,1.0446780243,0.5739192665,0.2478830
 904\H,0,2.7037726246,-1.8493171446,-0.6740597744\H,0,3.1047197092,-0.7
 943495668,0.6993975053\H,0,4.9745955017,-1.7752953985,-0.2433268924\H,
 0,7.3422158209,-1.8681062646,-0.8635399017\H,0,4.4124565596,1.68359375
 05,-2.7366354209\H,0,6.3605503558,2.6069808019,-4.0150567534\H,0,8.749
 0197286,2.5011008029,-4.6313088568\H,0,10.2165592526,0.7196535905,-3.6
 912309307\H,0,9.2848811278,-0.9588802426,-2.1294917981\\Version=AM64L-
 G09RevA.02\State=1-A\HF=-539.7334298\RMSD=5.242e-09\Dipole=-1.0207395,
 -0.4865604,0.6718171\Quadrupole=4.2336549,-1.8644966,-2.3691583,1.0101
 134,-3.8867214,-3.7943666\PG=C01 [X(C12H12O1)]\\@


 NOTHING RESEMBLES A NEW PHENOMENON AS MUCH AS A MISTAKE.

                               -- ENRICO FERMI (?)
 Job cpu time:  0 days  0 hours 51 minutes 26.0 seconds.
 File lengths (MBytes):  RWF=    159 Int=      0 D2E=      0 Chk=     22 Scr=      1
 Normal termination of Gaussian 09 at Tue Sep 28 15:14:01 2021.
