 Entering Gaussian System, Link 0=g09
 Input=C12H10O3_1f88_conf_0.com
 Output=C12H10O3_1f88_conf_0.log
 Initial command:
 /sw/target/amd/app/gaussian/Gaussian09RevA.02_gcc-4.9.2/g09/l1.exe /home/jschleinitz/gaussian/Gau-1148884.inp -scrdir=/home/jschleinitz/gaussian/
 Entering Link 1 = /sw/target/amd/app/gaussian/Gaussian09RevA.02_gcc-4.9.2/g09/l1.exe PID=   1148886.
  
 Copyright (c) 1988,1990,1992,1993,1995,1998,2003,2009, Gaussian, Inc.
                  All Rights Reserved.
  
 This is part of the Gaussian(R) 09 program.  It is based on
 the Gaussian(R) 03 system (copyright 2003, Gaussian, Inc.),
 the Gaussian(R) 98 system (copyright 1998, Gaussian, Inc.),
 the Gaussian(R) 94 system (copyright 1995, Gaussian, Inc.),
 the Gaussian 92(TM) system (copyright 1992, Gaussian, Inc.),
 the Gaussian 90(TM) system (copyright 1990, Gaussian, Inc.),
 the Gaussian 88(TM) system (copyright 1988, Gaussian, Inc.),
 the Gaussian 86(TM) system (copyright 1986, Carnegie Mellon
 University), and the Gaussian 82(TM) system (copyright 1983,
 Carnegie Mellon University). Gaussian is a federally registered
 trademark of Gaussian, Inc.
  
 This software contains proprietary and confidential information,
 including trade secrets, belonging to Gaussian, Inc.
  
 This software is provided under written license and may be
 used, copied, transmitted, or stored only in accord with that
 written license.
  
 The following legend is applicable only to US Government
 contracts under FAR:
  
                    RESTRICTED RIGHTS LEGEND
  
 Use, reproduction and disclosure by the US Government is
 subject to restrictions as set forth in subparagraphs (a)
 and (c) of the Commercial Computer Software - Restricted
 Rights clause in FAR 52.227-19.
  
 Gaussian, Inc.
 340 Quinnipiac St., Bldg. 40, Wallingford CT 06492
  
  
 ---------------------------------------------------------------
 Warning -- This program may not be used in any manner that
 competes with the business of Gaussian, Inc. or will provide
 assistance to any competitor of Gaussian, Inc.  The licensee
 of this program is prohibited from giving any competitor of
 Gaussian, Inc. access to this program.  By using this program,
 the user acknowledges that Gaussian, Inc. is engaged in the
 business of creating and licensing software in the field of
 computational chemistry and represents and warrants to the
 licensee that it is not a competitor of Gaussian, Inc. and that
 it will not use this program in any manner prohibited above.
 ---------------------------------------------------------------
  

 Cite this work as:
 Gaussian 09, Revision A.02,
 M. J. Frisch, G. W. Trucks, H. B. Schlegel, G. E. Scuseria, 
 M. A. Robb, J. R. Cheeseman, G. Scalmani, V. Barone, B. Mennucci, 
 G. A. Petersson, H. Nakatsuji, M. Caricato, X. Li, H. P. Hratchian, 
 A. F. Izmaylov, J. Bloino, G. Zheng, J. L. Sonnenberg, M. Hada, 
 M. Ehara, K. Toyota, R. Fukuda, J. Hasegawa, M. Ishida, T. Nakajima, 
 Y. Honda, O. Kitao, H. Nakai, T. Vreven, J. A. Montgomery, Jr., 
 J. E. Peralta, F. Ogliaro, M. Bearpark, J. J. Heyd, E. Brothers, 
 K. N. Kudin, V. N. Staroverov, R. Kobayashi, J. Normand, 
 K. Raghavachari, A. Rendell, J. C. Burant, S. S. Iyengar, J. Tomasi, 
 M. Cossi, N. Rega, J. M. Millam, M. Klene, J. E. Knox, J. B. Cross, 
 V. Bakken, C. Adamo, J. Jaramillo, R. Gomperts, R. E. Stratmann, 
 O. Yazyev, A. J. Austin, R. Cammi, C. Pomelli, J. W. Ochterski, 
 R. L. Martin, K. Morokuma, V. G. Zakrzewski, G. A. Voth, 
 P. Salvador, J. J. Dannenberg, S. Dapprich, A. D. Daniels, 
 O. Farkas, J. B. Foresman, J. V. Ortiz, J. Cioslowski, 
 and D. J. Fox, Gaussian, Inc., Wallingford CT, 2009.
 
 ******************************************
 Gaussian 09:  AM64L-G09RevA.02 11-Jun-2009
                30-Sep-2021 
 ******************************************
 %nproc=4
 Will use up to    4 processors via shared memory.
 %mem=8gb
 %chk=C12H10O3_1f88_conf_0.chk
 -----------------------------------
 #p opt b3lyp/6-31G* scf=(xqc,tight)
 -----------------------------------
 1/14=-1,18=20,19=15,26=3,38=1/1,3;
 2/9=110,12=2,17=6,18=5,40=1/2;
 3/5=1,6=6,7=1,11=2,16=1,25=1,30=1,71=1,74=-5/1,2,3;
 4//1;
 5/5=2,8=3,13=1,32=2,38=5/2,8;
 6/7=2,8=2,9=2,10=2,28=1/1;
 7//1,2,3,16;
 1/14=-1,18=20,19=15/3(2);
 2/9=110/2;
 99//99;
 2/9=110/2;
 3/5=1,6=6,7=1,11=2,16=1,25=1,30=1,71=1,74=-5/1,2,3;
 4/5=5,16=3/1;
 5/5=2,8=3,13=1,32=2,38=5/2,8;
 7//1,2,3,16;
 1/14=-1,18=20,19=15/3(-5);
 2/9=110/2;
 6/7=2,8=2,9=2,10=2,19=2,28=1/1;
 99/9=1/99;
 Leave Link    1 at Thu Sep 30 00:44:07 2021, MaxMem= 1073741824 cpu:       0.1
 (Enter /sw/target/amd/app/gaussian/Gaussian09RevA.02_gcc-4.9.2/g09/l101.exe)
 -------------------------------
 COC(=O)Oc1ccc2c(c1)cccc2_conf_0
 -------------------------------
 Symbolic Z-matrix:
 Charge =  0 Multiplicity = 1
 C                     4.28883  -1.00482  -1.31154 
 O                     3.9345   -0.20801  -0.18218 
 C                     4.92969   0.62102   0.23113 
 O                     6.0257    0.71968  -0.30351 
 O                     4.48319   1.3018    1.35772 
 C                     5.31532   2.19671   2.06328 
 C                     5.08248   2.28817   3.43486 
 C                     5.85043   3.15717   4.21123 
 C                     6.85655   3.94475   3.62259 
 C                     7.07176   3.85886   2.22662 
 C                     6.2817    2.99491   1.45516 
 C                     8.07954   4.64086   1.63791 
 C                     8.86557   5.49321   2.41174 
 C                     8.65013   5.5806    3.78363 
 C                     7.6516    4.81355   4.3866 
 H                     5.11187  -1.68375  -1.05746 
 H                     4.55589  -0.37162  -2.1636 
 H                     3.4197   -1.60698  -1.58903 
 H                     4.30999   1.68241   3.9012 
 H                     5.66301   3.2138    5.28032 
 H                     6.43666   2.95476   0.3809 
 H                     8.26437   4.58032   0.5663 
 H                     9.64602   6.08641   1.94091 
 H                     9.26317   6.24742   4.38616 
 H                     7.50255   4.89729   5.45977 
 
 NAtoms=     25 NQM=     25 NQMF=      0 NMic=      0 NMicF=      0 NTot=     25.
                    Isotopes and Nuclear Properties:
 (Nuclear quadrupole moments (NQMom) in fm**2, nuclear magnetic moments (NMagM)
  in nuclear magnetons)

  Atom         1           2           3           4           5           6           7           8           9          10
 IAtWgt=          12          16          12          16          16          12          12          12          12          12
 AtmWgt=  12.0000000  15.9949146  12.0000000  15.9949146  15.9949146  12.0000000  12.0000000  12.0000000  12.0000000  12.0000000
 NucSpn=           0           0           0           0           0           0           0           0           0           0
 AtZEff=   0.0000000   0.0000000   0.0000000   0.0000000   0.0000000   0.0000000   0.0000000   0.0000000   0.0000000   0.0000000
 NQMom=    0.0000000   0.0000000   0.0000000   0.0000000   0.0000000   0.0000000   0.0000000   0.0000000   0.0000000   0.0000000
 NMagM=    0.0000000   0.0000000   0.0000000   0.0000000   0.0000000   0.0000000   0.0000000   0.0000000   0.0000000   0.0000000

  Atom        11          12          13          14          15          16          17          18          19          20
 IAtWgt=          12          12          12          12          12           1           1           1           1           1
 AtmWgt=  12.0000000  12.0000000  12.0000000  12.0000000  12.0000000   1.0078250   1.0078250   1.0078250   1.0078250   1.0078250
 NucSpn=           0           0           0           0           0           1           1           1           1           1
 AtZEff=   0.0000000   0.0000000   0.0000000   0.0000000   0.0000000   0.0000000   0.0000000   0.0000000   0.0000000   0.0000000
 NQMom=    0.0000000   0.0000000   0.0000000   0.0000000   0.0000000   0.0000000   0.0000000   0.0000000   0.0000000   0.0000000
 NMagM=    0.0000000   0.0000000   0.0000000   0.0000000   0.0000000   2.7928460   2.7928460   2.7928460   2.7928460   2.7928460

  Atom        21          22          23          24          25
 IAtWgt=           1           1           1           1           1
 AtmWgt=   1.0078250   1.0078250   1.0078250   1.0078250   1.0078250
 NucSpn=           1           1           1           1           1
 AtZEff=   0.0000000   0.0000000   0.0000000   0.0000000   0.0000000
 NQMom=    0.0000000   0.0000000   0.0000000   0.0000000   0.0000000
 NMagM=    2.7928460   2.7928460   2.7928460   2.7928460   2.7928460
 Leave Link  101 at Thu Sep 30 00:44:08 2021, MaxMem= 1073741824 cpu:       0.2
 (Enter /sw/target/amd/app/gaussian/Gaussian09RevA.02_gcc-4.9.2/g09/l103.exe)

 GradGradGradGradGradGradGradGradGradGradGradGradGradGradGradGradGradGrad
 Berny optimization.
 Initialization pass.
                           ----------------------------
                           !    Initial Parameters    !
                           ! (Angstroms and Degrees)  !
 --------------------------                            --------------------------
 ! Name  Definition              Value          Derivative Info.                !
 --------------------------------------------------------------------------------
 ! R1    R(1,2)                  1.4269         estimate D2E/DX2                !
 ! R2    R(1,16)                 1.0968         estimate D2E/DX2                !
 ! R3    R(1,17)                 1.0947         estimate D2E/DX2                !
 ! R4    R(1,18)                 1.0931         estimate D2E/DX2                !
 ! R5    R(2,3)                  1.3596         estimate D2E/DX2                !
 ! R6    R(3,4)                  1.2234         estimate D2E/DX2                !
 ! R7    R(3,5)                  1.39           estimate D2E/DX2                !
 ! R8    R(5,6)                  1.4111         estimate D2E/DX2                !
 ! R9    R(6,7)                  1.3942         estimate D2E/DX2                !
 ! R10   R(6,11)                 1.3931         estimate D2E/DX2                !
 ! R11   R(7,8)                  1.3956         estimate D2E/DX2                !
 ! R12   R(7,19)                 1.0868         estimate D2E/DX2                !
 ! R13   R(8,9)                  1.4068         estimate D2E/DX2                !
 ! R14   R(8,20)                 1.0869         estimate D2E/DX2                !
 ! R15   R(9,10)                 1.4151         estimate D2E/DX2                !
 ! R16   R(9,15)                 1.4038         estimate D2E/DX2                !
 ! R17   R(10,11)                1.4021         estimate D2E/DX2                !
 ! R18   R(10,12)                1.4049         estimate D2E/DX2                !
 ! R19   R(11,21)                1.0861         estimate D2E/DX2                !
 ! R20   R(12,13)                1.394          estimate D2E/DX2                !
 ! R21   R(12,22)                1.0891         estimate D2E/DX2                !
 ! R22   R(13,14)                1.3915         estimate D2E/DX2                !
 ! R23   R(13,23)                1.0875         estimate D2E/DX2                !
 ! R24   R(14,15)                1.3961         estimate D2E/DX2                !
 ! R25   R(14,24)                1.0879         estimate D2E/DX2                !
 ! R26   R(15,25)                1.0867         estimate D2E/DX2                !
 ! A1    A(2,1,16)             110.4062         estimate D2E/DX2                !
 ! A2    A(2,1,17)             110.7107         estimate D2E/DX2                !
 ! A3    A(2,1,18)             108.1251         estimate D2E/DX2                !
 ! A4    A(16,1,17)            110.8133         estimate D2E/DX2                !
 ! A5    A(16,1,18)            108.328          estimate D2E/DX2                !
 ! A6    A(17,1,18)            108.362          estimate D2E/DX2                !
 ! A7    A(1,2,3)              113.5379         estimate D2E/DX2                !
 ! A8    A(2,3,4)              124.8936         estimate D2E/DX2                !
 ! A9    A(2,3,5)              108.0536         estimate D2E/DX2                !
 ! A10   A(4,3,5)              127.0469         estimate D2E/DX2                !
 ! A11   A(3,5,6)              121.7659         estimate D2E/DX2                !
 ! A12   A(5,6,7)              115.7864         estimate D2E/DX2                !
 ! A13   A(5,6,11)             123.6545         estimate D2E/DX2                !
 ! A14   A(7,6,11)             120.5097         estimate D2E/DX2                !
 ! A15   A(6,7,8)              119.7506         estimate D2E/DX2                !
 ! A16   A(6,7,19)             120.2824         estimate D2E/DX2                !
 ! A17   A(8,7,19)             119.9662         estimate D2E/DX2                !
 ! A18   A(7,8,9)              120.6223         estimate D2E/DX2                !
 ! A19   A(7,8,20)             118.9965         estimate D2E/DX2                !
 ! A20   A(9,8,20)             120.3807         estimate D2E/DX2                !
 ! A21   A(8,9,10)             119.1809         estimate D2E/DX2                !
 ! A22   A(8,9,15)             121.5879         estimate D2E/DX2                !
 ! A23   A(10,9,15)            119.2312         estimate D2E/DX2                !
 ! A24   A(9,10,11)            119.6373         estimate D2E/DX2                !
 ! A25   A(9,10,12)            119.2549         estimate D2E/DX2                !
 ! A26   A(11,10,12)           121.1075         estimate D2E/DX2                !
 ! A27   A(6,11,10)            120.2492         estimate D2E/DX2                !
 ! A28   A(6,11,21)            120.6325         estimate D2E/DX2                !
 ! A29   A(10,11,21)           119.1179         estimate D2E/DX2                !
 ! A30   A(10,12,13)           120.8118         estimate D2E/DX2                !
 ! A31   A(10,12,22)           120.2055         estimate D2E/DX2                !
 ! A32   A(13,12,22)           118.9795         estimate D2E/DX2                !
 ! A33   A(12,13,14)           119.8954         estimate D2E/DX2                !
 ! A34   A(12,13,23)           119.8586         estimate D2E/DX2                !
 ! A35   A(14,13,23)           120.246          estimate D2E/DX2                !
 ! A36   A(13,14,15)           120.1373         estimate D2E/DX2                !
 ! A37   A(13,14,24)           119.8223         estimate D2E/DX2                !
 ! A38   A(15,14,24)           120.0403         estimate D2E/DX2                !
 ! A39   A(9,15,14)            120.6679         estimate D2E/DX2                !
 ! A40   A(9,15,25)            120.4959         estimate D2E/DX2                !
 ! A41   A(14,15,25)           118.8357         estimate D2E/DX2                !
 ! D1    D(16,1,2,3)            63.6415         estimate D2E/DX2                !
 ! D2    D(17,1,2,3)           -59.4489         estimate D2E/DX2                !
 ! D3    D(18,1,2,3)          -178.012          estimate D2E/DX2                !
 ! D4    D(1,2,3,4)              1.3202         estimate D2E/DX2                !
 ! D5    D(1,2,3,5)           -177.8434         estimate D2E/DX2                !
 ! D6    D(2,3,5,6)            176.9753         estimate D2E/DX2                !
 ! D7    D(4,3,5,6)             -2.1651         estimate D2E/DX2                !
 ! D8    D(3,5,6,7)           -148.6991         estimate D2E/DX2                !
 ! D9    D(3,5,6,11)            33.8492         estimate D2E/DX2                !
 ! D10   D(5,6,7,8)           -179.4483         estimate D2E/DX2                !
 ! D11   D(5,6,7,19)             0.8696         estimate D2E/DX2                !
 ! D12   D(11,6,7,8)            -1.9104         estimate D2E/DX2                !
 ! D13   D(11,6,7,19)          178.4075         estimate D2E/DX2                !
 ! D14   D(5,6,11,10)         -179.9016         estimate D2E/DX2                !
 ! D15   D(5,6,11,21)           -0.142          estimate D2E/DX2                !
 ! D16   D(7,6,11,10)            2.7618         estimate D2E/DX2                !
 ! D17   D(7,6,11,21)         -177.4785         estimate D2E/DX2                !
 ! D18   D(6,7,8,9)              0.1296         estimate D2E/DX2                !
 ! D19   D(6,7,8,20)          -179.5915         estimate D2E/DX2                !
 ! D20   D(19,7,8,9)           179.8127         estimate D2E/DX2                !
 ! D21   D(19,7,8,20)            0.0916         estimate D2E/DX2                !
 ! D22   D(7,8,9,10)             0.7858         estimate D2E/DX2                !
 ! D23   D(7,8,9,15)          -179.2243         estimate D2E/DX2                !
 ! D24   D(20,8,9,10)         -179.4971         estimate D2E/DX2                !
 ! D25   D(20,8,9,15)            0.4929         estimate D2E/DX2                !
 ! D26   D(8,9,10,11)            0.0539         estimate D2E/DX2                !
 ! D27   D(8,9,10,12)         -179.7569         estimate D2E/DX2                !
 ! D28   D(15,9,10,11)        -179.9362         estimate D2E/DX2                !
 ! D29   D(15,9,10,12)           0.253          estimate D2E/DX2                !
 ! D30   D(8,9,15,14)          179.6201         estimate D2E/DX2                !
 ! D31   D(8,9,15,25)           -0.1231         estimate D2E/DX2                !
 ! D32   D(10,9,15,14)          -0.39           estimate D2E/DX2                !
 ! D33   D(10,9,15,25)         179.8668         estimate D2E/DX2                !
 ! D34   D(9,10,11,6)           -1.8146         estimate D2E/DX2                !
 ! D35   D(9,10,11,21)         178.4221         estimate D2E/DX2                !
 ! D36   D(12,10,11,6)         177.9926         estimate D2E/DX2                !
 ! D37   D(12,10,11,21)         -1.7707         estimate D2E/DX2                !
 ! D38   D(9,10,12,13)           0.1065         estimate D2E/DX2                !
 ! D39   D(9,10,12,22)         179.4556         estimate D2E/DX2                !
 ! D40   D(11,10,12,13)       -179.7014         estimate D2E/DX2                !
 ! D41   D(11,10,12,22)         -0.3523         estimate D2E/DX2                !
 ! D42   D(10,12,13,14)         -0.3349         estimate D2E/DX2                !
 ! D43   D(10,12,13,23)        179.5756         estimate D2E/DX2                !
 ! D44   D(22,12,13,14)       -179.6918         estimate D2E/DX2                !
 ! D45   D(22,12,13,23)          0.2186         estimate D2E/DX2                !
 ! D46   D(12,13,14,15)          0.1988         estimate D2E/DX2                !
 ! D47   D(12,13,14,24)       -179.8986         estimate D2E/DX2                !
 ! D48   D(23,13,14,15)       -179.7113         estimate D2E/DX2                !
 ! D49   D(23,13,14,24)          0.1913         estimate D2E/DX2                !
 ! D50   D(13,14,15,9)           0.1653         estimate D2E/DX2                !
 ! D51   D(13,14,15,25)        179.9126         estimate D2E/DX2                !
 ! D52   D(24,14,15,9)        -179.7371         estimate D2E/DX2                !
 ! D53   D(24,14,15,25)          0.0103         estimate D2E/DX2                !
 --------------------------------------------------------------------------------
 Trust Radius=3.00D-01 FncErr=1.00D-07 GrdErr=1.00D-06
 Number of steps in this run= 130 maximum allowed number of steps= 150.
 GradGradGradGradGradGradGradGradGradGradGradGradGradGradGradGradGradGrad

 Leave Link  103 at Thu Sep 30 00:44:08 2021, MaxMem= 1073741824 cpu:       0.0
 (Enter /sw/target/amd/app/gaussian/Gaussian09RevA.02_gcc-4.9.2/g09/l202.exe)
                          Input orientation:                          
 ---------------------------------------------------------------------
 Center     Atomic      Atomic             Coordinates (Angstroms)
 Number     Number       Type             X           Y           Z
 ---------------------------------------------------------------------
      1          6           0        4.288828   -1.004821   -1.311545
      2          8           0        3.934496   -0.208013   -0.182182
      3          6           0        4.929689    0.621022    0.231132
      4          8           0        6.025702    0.719677   -0.303509
      5          8           0        4.483186    1.301801    1.357722
      6          6           0        5.315321    2.196711    2.063275
      7          6           0        5.082482    2.288174    3.434861
      8          6           0        5.850432    3.157172    4.211227
      9          6           0        6.856552    3.944751    3.622585
     10          6           0        7.071758    3.858865    2.226617
     11          6           0        6.281697    2.994913    1.455161
     12          6           0        8.079545    4.640856    1.637909
     13          6           0        8.865571    5.493212    2.411739
     14          6           0        8.650135    5.580595    3.783631
     15          6           0        7.651604    4.813552    4.386602
     16          1           0        5.111865   -1.683747   -1.057459
     17          1           0        4.555887   -0.371619   -2.163601
     18          1           0        3.419701   -1.606979   -1.589034
     19          1           0        4.309994    1.682406    3.901198
     20          1           0        5.663012    3.213798    5.280319
     21          1           0        6.436656    2.954760    0.380901
     22          1           0        8.264372    4.580319    0.566298
     23          1           0        9.646024    6.086413    1.940913
     24          1           0        9.263174    6.247421    4.386164
     25          1           0        7.502546    4.897289    5.459771
 ---------------------------------------------------------------------
                    Distance matrix (angstroms):
                    1          2          3          4          5
     1  C    0.000000
     2  O    1.426854   0.000000
     3  C    2.331077   1.359609   0.000000
     4  O    2.647028   2.290954   1.223445   0.000000
     5  O    3.533166   2.225287   1.389975   2.340494   0.000000
     6  C    4.763707   3.568116   2.447092   2.878878   1.411070
     7  C    5.831129   4.542226   3.614778   4.162362   2.376256
     8  C    7.089555   5.856392   4.808428   5.133707   3.668004
     9  C    7.445610   6.345086   5.124640   5.148363   4.212797
    10  C    6.627121   5.673114   4.365094   4.165366   3.740890
    11  C    5.255859   4.295227   2.993581   2.887066   2.471996
    12  C    7.412319   6.633678   5.297138   4.833531   4.915444
    13  C    8.776893   7.971694   6.632078   6.182562   6.155013
    14  C    9.399442   8.454165   7.145581   6.871746   6.446439
    15  C    8.810823   7.739948   6.500312   6.434323   5.616528
    16  H    1.096764   2.080889   2.646812   2.679549   3.891251
    17  H    1.094653   2.083006   2.619124   2.609832   3.899402
    18  H    1.093150   2.049720   3.249163   3.722518   4.274971
    19  H    5.864667   4.515383   3.870394   4.642205   2.577620
    20  H    7.945929   6.673490   5.723158   6.126281   4.520452
    21  H    4.812049   4.071977   2.782034   2.373372   2.739070
    22  H    7.108097   6.498936   5.187339   4.546732   5.066795
    23  H    9.463807   8.760644   7.418738   6.851717   7.063111
    24  H   10.478693   9.536101   8.227985   7.939157   7.515245
    25  H    9.540105   8.403971   7.228051   7.269726   6.234651
                    6          7          8          9         10
     6  C    0.000000
     7  C    1.394211   0.000000
     8  C    2.412991   1.395582   0.000000
     9  C    2.804013   2.434505   1.406790   0.000000
    10  C    2.423738   2.807871   2.433657   1.415068   0.000000
    11  C    1.393130   2.420084   2.794319   2.435238   1.402054
    12  C    3.714258   4.212663   3.713788   2.432943   1.404892
    13  C    4.857224   5.062688   4.217381   2.810700   2.433748
    14  C    5.052849   4.867219   3.727486   2.432870   2.807120
    15  C    4.207603   3.726088   2.453278   1.403796   2.431704
    16  H    4.983807   5.996495   7.192985   7.525074   6.734009
    17  H    5.003953   6.220496   7.400449   7.576548   6.595500
    18  H    5.603642   6.570889   7.889779   8.354319   7.600800
    19  H    2.157117   1.086814   2.154995   3.417718   3.894681
    20  H    3.391861   2.144647   1.086871   2.169541   3.424291
    21  H    2.159262   3.406581   3.880209   3.415394   2.151146
    22  H    4.076693   4.858703   4.597604   3.424441   2.167829
    23  H    5.822349   6.122452   5.304838   3.898191   3.416204
    24  H    6.114704   5.835991   4.607282   3.417187   3.895016
    25  H    4.859347   4.094441   2.704875   2.167922   3.423037
                   11         12         13         14         15
    11  C    0.000000
    12  C    2.444337   0.000000
    13  C    3.719267   1.393974   0.000000
    14  C    4.209160   2.410976   1.391451   0.000000
    15  C    3.711798   2.787161   2.415727   1.396063   0.000000
    16  H    5.437979   7.488173   8.811038   9.419457   8.848896
    17  H    5.235207   7.210586   8.596707   9.357419   8.909244
    18  H    6.215750   8.435801   9.801857  10.386732   9.738606
    19  H    3.404907   5.299473   6.123236   5.834940   4.605003
    20  H    3.881046   4.598181   4.866298   4.094472   2.704152
    21  H    1.086121   2.668721   4.058038   4.834570   4.580049
    22  H    2.689719   1.089117   2.144870   3.391253   3.876158
    23  H    4.594783   2.152976   1.087507   2.154822   3.402834
    24  H    5.297055   3.396312   2.150645   1.087897   2.157113
    25  H    4.598523   3.873669   3.391675   2.143201   1.086702
                   16         17         18         19         20
    16  H    0.000000
    17  H    1.803980   0.000000
    18  H    1.775355   1.774023   0.000000
    19  H    6.046674   6.407907   6.461836   0.000000
    20  H    8.028520   8.336239   8.686792   2.465318   0.000000
    21  H    5.033855   4.590924   5.813100   4.305122   4.966882
    22  H    7.198153   6.762168   8.148555   5.929298   5.554857
    23  H    9.482838   9.190360  10.507898   7.191052   5.938681
    24  H   10.477109  10.434063  11.469122   6.753410   4.792029
    25  H    9.565546   9.724196  10.424048   4.791348   2.500046
                   21         22         23         24         25
    21  H    0.000000
    22  H    2.453031   0.000000
    23  H    4.747729   2.463097   0.000000
    24  H    5.905332   4.285815   2.480273   0.000000
    25  H    5.541160   4.962552   4.288458   2.464811   0.000000
 Stoichiometry    C12H10O3
 Framework group  C1[X(C12H10O3)]
 Deg. of freedom    69
 Full point group                 C1      NOp   1
 Largest Abelian subgroup         C1      NOp   1
 Largest concise Abelian subgroup C1      NOp   1
                         Standard orientation:                         
 ---------------------------------------------------------------------
 Center     Atomic      Atomic             Coordinates (Angstroms)
 Number     Number       Type             X           Y           Z
 ---------------------------------------------------------------------
      1          6           0       -5.054765   -0.687048    0.229896
      2          8           0       -4.070812    0.257341   -0.189482
      3          6           0       -2.793883   -0.158155    0.023484
      4          8           0       -2.480397   -1.239533    0.502196
      5          8           0       -1.937006    0.860228   -0.377375
      6          6           0       -0.538124    0.757773   -0.223260
      7          6           0        0.137133    1.957293   -0.001889
      8          6           0        1.524354    1.953159    0.150583
      9          6           0        2.249390    0.749643    0.080367
     10          6           0        1.556730   -0.459847   -0.164119
     11          6           0        0.165021   -0.439878   -0.332949
     12          6           0        2.278610   -1.663318   -0.229430
     13          6           0        3.661501   -1.676832   -0.054522
     14          6           0        4.342411   -0.486468    0.181126
     15          6           0        3.642973    0.719961    0.246764
     16          1           0       -5.001949   -0.838019    1.314935
     17          1           0       -4.931566   -1.636202   -0.301324
     18          1           0       -6.040486   -0.281787   -0.013197
     19          1           0       -0.412713    2.892882    0.057336
     20          1           0        2.037555    2.894417    0.329324
     21          1           0       -0.354931   -1.369381   -0.545865
     22          1           0        1.760095   -2.604295   -0.407982
     23          1           0        4.203990   -2.618207   -0.101340
     24          1           0        5.421874   -0.498184    0.315815
     25          1           0        4.195749    1.636791    0.433268
 ---------------------------------------------------------------------
 Rotational constants (GHZ):      1.7846246      0.2924484      0.2549713
 Leave Link  202 at Thu Sep 30 00:44:08 2021, MaxMem= 1073741824 cpu:       0.0
 (Enter /sw/target/amd/app/gaussian/Gaussian09RevA.02_gcc-4.9.2/g09/l301.exe)
 Standard basis: 6-31G(d) (6D, 7F)
 Ernie: Thresh=  0.10000D-02 Tol=  0.10000D-05 Strict=F.
 There are   245 symmetry adapted basis functions of A   symmetry.
 Integral buffers will be    131072 words long.
 Raffenetti 2 integral format.
 Two-electron integral symmetry is turned on.
   245 basis functions,   460 primitive gaussians,   245 cartesian basis functions
    53 alpha electrons       53 beta electrons
       nuclear repulsion energy       907.9692068983 Hartrees.
 IExCor=  402 DFT=T Ex+Corr=B3LYP ExCW=0 ScaHFX=  0.200000
 ScaDFX=  0.800000  0.720000  1.000000  0.810000 ScalE2=  1.000000  1.000000
 IRadAn=      0 IRanWt=     -1 IRanGd=            0 ICorTp=0
 NAtoms=   25 NActive=   25 NUniq=   25 SFac= 7.50D-01 NAtFMM=   80 NAOKFM=F Big=F
 Leave Link  301 at Thu Sep 30 00:44:08 2021, MaxMem= 1073741824 cpu:       0.1
 (Enter /sw/target/amd/app/gaussian/Gaussian09RevA.02_gcc-4.9.2/g09/l302.exe)
 NPDir=0 NMtPBC=     1 NCelOv=     1 NCel=       1 NClECP=     1 NCelD=      1
         NCelK=      1 NCelE2=     1 NClLst=     1 CellRange=     0.0.
 One-electron integrals computed using PRISM.
 NBasis=   245 RedAO= T  NBF=   245
 NBsUse=   245 1.00D-06 NBFU=   245
 Precomputing XC quadrature grid using
 IXCGrd= 2 IRadAn=           0 IRanWt=          -1 IRanGd=           0 AccXCQ= 1.00D-10.
 NRdTot=    1587 NPtTot=      202370 NUsed=      213817 NTot=      213849
 NSgBfM=   244   244   244   244   244 NAtAll=    25    25.
 Leave Link  302 at Thu Sep 30 00:44:12 2021, MaxMem= 1073741824 cpu:       1.8
 (Enter /sw/target/amd/app/gaussian/Gaussian09RevA.02_gcc-4.9.2/g09/l303.exe)
 DipDrv:  MaxL=1.
 Leave Link  303 at Thu Sep 30 00:44:12 2021, MaxMem= 1073741824 cpu:       0.2
 (Enter /sw/target/amd/app/gaussian/Gaussian09RevA.02_gcc-4.9.2/g09/l401.exe)
 Harris functional with IExCor=  402 diagonalized for initial guess.
 ExpMin= 1.61D-01 ExpMax= 5.48D+03 ExpMxC= 8.25D+02 IAcc=1 IRadAn=         1 AccDes= 0.00D+00
 HarFok:  IExCor=  402 AccDes= 0.00D+00 IRadAn=         1 IDoV= 1
 ScaDFX=  1.000000  1.000000  1.000000  1.000000
 FoFCou: FMM=F IPFlag=           0 FMFlag=      100000 FMFlg1=           0
         NFxFlg=           0 DoJE=T BraDBF=F KetDBF=T FulRan=T
         Omega=  0.000000  0.000000  1.000000  0.000000  0.000000 ICntrl=     500 IOpCl=  0
         NMat0=    1 NMatS0=    1 NMatT0=    0 NMatD0=    1 NMtDS0=    0 NMtDT0=    0
         I1Cent=           4 NGrid=           0.
 Petite list used in FoFCou.
 Harris En= -689.067436640285    
 Initial guess orbital symmetries:
       Occupied  (A) (A) (A) (A) (A) (A) (A) (A) (A) (A) (A) (A)
                 (A) (A) (A) (A) (A) (A) (A) (A) (A) (A) (A) (A)
                 (A) (A) (A) (A) (A) (A) (A) (A) (A) (A) (A) (A)
                 (A) (A) (A) (A) (A) (A) (A) (A) (A) (A) (A) (A)
                 (A) (A) (A) (A) (A)
       Virtual   (A) (A) (A) (A) (A) (A) (A) (A) (A) (A) (A) (A)
                 (A) (A) (A) (A) (A) (A) (A) (A) (A) (A) (A) (A)
                 (A) (A) (A) (A) (A) (A) (A) (A) (A) (A) (A) (A)
                 (A) (A) (A) (A) (A) (A) (A) (A) (A) (A) (A) (A)
                 (A) (A) (A) (A) (A) (A) (A) (A) (A) (A) (A) (A)
                 (A) (A) (A) (A) (A) (A) (A) (A) (A) (A) (A) (A)
                 (A) (A) (A) (A) (A) (A) (A) (A) (A) (A) (A) (A)
                 (A) (A) (A) (A) (A) (A) (A) (A) (A) (A) (A) (A)
                 (A) (A) (A) (A) (A) (A) (A) (A) (A) (A) (A) (A)
                 (A) (A) (A) (A) (A) (A) (A) (A) (A) (A) (A) (A)
                 (A) (A) (A) (A) (A) (A) (A) (A) (A) (A) (A) (A)
                 (A) (A) (A) (A) (A) (A) (A) (A) (A) (A) (A) (A)
                 (A) (A) (A) (A) (A) (A) (A) (A) (A) (A) (A) (A)
                 (A) (A) (A) (A) (A) (A) (A) (A) (A) (A) (A) (A)
                 (A) (A) (A) (A) (A) (A) (A) (A) (A) (A) (A) (A)
                 (A) (A) (A) (A) (A) (A) (A) (A) (A) (A) (A) (A)
 The electronic state of the initial guess is 1-A.
 Leave Link  401 at Thu Sep 30 00:44:23 2021, MaxMem= 1073741824 cpu:       8.1
 (Enter /sw/target/amd/app/gaussian/Gaussian09RevA.02_gcc-4.9.2/g09/l502.exe)
 Closed shell SCF:
 Requested convergence on RMS density matrix=1.00D-08 within  64 cycles.
 Requested convergence on MAX density matrix=1.00D-06.
 Requested convergence on             energy=1.00D-06.
 No special actions if energy rises.
 Using DIIS extrapolation, IDIIS=  1040.
 Integral symmetry usage will be decided dynamically.
       213579 words used for storage of precomputed grid.
 Keep R1 ints in memory in canonical form, NReq=461920046.
 IEnd=      402507 IEndB=      402507 NGot=  1073741824 MDV=   619329604
 LenX=   619329604 LenY=   619269138
 Symmetry not used in FoFDir.
 MinBra= 0 MaxBra= 2 Meth= 1.
 IRaf=       0 NMat=   1 IRICut=       1 DoRegI=T DoRafI=F ISym2E= 0 JSym2E=0.
 Integral accuracy reduced to 1.0D-05 until final iterations.

 Cycle   1  Pass 0  IDiag  1:
 E= -688.610495808426    
 DIIS: error= 3.33D-02 at cycle   1 NSaved=   1.
 NSaved= 1 IEnMin= 1 EnMin= -688.610495808426     IErMin= 1 ErrMin= 3.33D-02
 ErrMax= 3.33D-02 EMaxC= 1.00D-01 BMatC= 3.90D-01 BMatP= 3.90D-01
 IDIUse=3 WtCom= 6.67D-01 WtEn= 3.33D-01
 Coeff-Com:  0.100D+01
 Coeff-En:   0.100D+01
 Coeff:      0.100D+01
 Gap=     0.184 Goal=   None    Shift=    0.000
 GapD=    0.184 DampG=1.000 DampE=0.500 DampFc=0.5000 IDamp=-1.
 Damping current iteration by 5.00D-01
 RMSDP=5.83D-03 MaxDP=2.25D-01              OVMax= 2.58D-01

 Cycle   2  Pass 0  IDiag  1:
 E= -688.713744701183     Delta-E=       -0.103248892757 Rises=F Damp=T
 DIIS: error= 1.28D-02 at cycle   2 NSaved=   2.
 NSaved= 2 IEnMin= 2 EnMin= -688.713744701183     IErMin= 2 ErrMin= 1.28D-02
 ErrMax= 1.28D-02 EMaxC= 1.00D-01 BMatC= 6.76D-02 BMatP= 3.90D-01
 IDIUse=3 WtCom= 8.72D-01 WtEn= 1.28D-01
 Coeff-Com:  0.219D+00 0.781D+00
 Coeff-En:   0.334D+00 0.666D+00
 Coeff:      0.234D+00 0.766D+00
 Gap=     0.180 Goal=   None    Shift=    0.000
 RMSDP=2.17D-03 MaxDP=7.45D-02 DE=-1.03D-01 OVMax= 1.75D-01

 Cycle   3  Pass 0  IDiag  1:
 E= -688.922113161922     Delta-E=       -0.208368460739 Rises=F Damp=F
 DIIS: error= 1.57D-02 at cycle   3 NSaved=   3.
 NSaved= 3 IEnMin= 3 EnMin= -688.922113161922     IErMin= 2 ErrMin= 1.28D-02
 ErrMax= 1.57D-02 EMaxC= 1.00D-01 BMatC= 7.02D-02 BMatP= 6.76D-02
 IDIUse=3 WtCom= 8.43D-01 WtEn= 1.57D-01
 Coeff-Com:  0.669D-01 0.493D+00 0.440D+00
 Coeff-En:   0.000D+00 0.000D+00 0.100D+01
 Coeff:      0.564D-01 0.416D+00 0.528D+00
 Gap=     0.167 Goal=   None    Shift=    0.000
 RMSDP=1.35D-03 MaxDP=6.55D-02 DE=-2.08D-01 OVMax= 1.14D-01

 Cycle   4  Pass 0  IDiag  1:
 E= -688.968274457750     Delta-E=       -0.046161295828 Rises=F Damp=F
 DIIS: error= 8.71D-03 at cycle   4 NSaved=   4.
 NSaved= 4 IEnMin= 4 EnMin= -688.968274457750     IErMin= 4 ErrMin= 8.71D-03
 ErrMax= 8.71D-03 EMaxC= 1.00D-01 BMatC= 1.79D-02 BMatP= 6.76D-02
 IDIUse=3 WtCom= 9.13D-01 WtEn= 8.71D-02
 Coeff-Com:  0.165D-01 0.117D+00 0.339D+00 0.528D+00
 Coeff-En:   0.000D+00 0.000D+00 0.229D+00 0.771D+00
 Coeff:      0.151D-01 0.107D+00 0.329D+00 0.549D+00
 Gap=     0.166 Goal=   None    Shift=    0.000
 RMSDP=4.88D-04 MaxDP=2.27D-02 DE=-4.62D-02 OVMax= 3.76D-02

 Cycle   5  Pass 0  IDiag  1:
 E= -688.981589406660     Delta-E=       -0.013314948910 Rises=F Damp=F
 DIIS: error= 1.48D-03 at cycle   5 NSaved=   5.
 NSaved= 5 IEnMin= 5 EnMin= -688.981589406660     IErMin= 5 ErrMin= 1.48D-03
 ErrMax= 1.48D-03 EMaxC= 1.00D-01 BMatC= 8.46D-04 BMatP= 1.79D-02
 IDIUse=3 WtCom= 9.85D-01 WtEn= 1.48D-02
 Coeff-Com:  0.259D-02 0.114D-01 0.126D+00 0.301D+00 0.559D+00
 Coeff-En:   0.000D+00 0.000D+00 0.000D+00 0.000D+00 0.100D+01
 Coeff:      0.255D-02 0.112D-01 0.125D+00 0.296D+00 0.565D+00
 Gap=     0.166 Goal=   None    Shift=    0.000
 RMSDP=1.21D-04 MaxDP=4.45D-03 DE=-1.33D-02 OVMax= 7.51D-03

 Cycle   6  Pass 0  IDiag  1:
 E= -688.982235064164     Delta-E=       -0.000645657504 Rises=F Damp=F
 DIIS: error= 3.55D-04 at cycle   6 NSaved=   6.
 NSaved= 6 IEnMin= 6 EnMin= -688.982235064164     IErMin= 6 ErrMin= 3.55D-04
 ErrMax= 3.55D-04 EMaxC= 1.00D-01 BMatC= 5.61D-05 BMatP= 8.46D-04
 IDIUse=3 WtCom= 9.96D-01 WtEn= 3.55D-03
 Coeff-Com:  0.196D-03-0.211D-02 0.378D-01 0.105D+00 0.293D+00 0.567D+00
 Coeff-En:   0.000D+00 0.000D+00 0.000D+00 0.000D+00 0.000D+00 0.100D+01
 Coeff:      0.195D-03-0.210D-02 0.377D-01 0.104D+00 0.292D+00 0.568D+00
 Gap=     0.166 Goal=   None    Shift=    0.000
 RMSDP=4.22D-05 MaxDP=1.61D-03 DE=-6.46D-04 OVMax= 4.27D-03

 Cycle   7  Pass 0  IDiag  1:
 E= -688.982276954780     Delta-E=       -0.000041890616 Rises=F Damp=F
 DIIS: error= 1.85D-04 at cycle   7 NSaved=   7.
 NSaved= 7 IEnMin= 7 EnMin= -688.982276954780     IErMin= 7 ErrMin= 1.85D-04
 ErrMax= 1.85D-04 EMaxC= 1.00D-01 BMatC= 9.52D-06 BMatP= 5.61D-05
 IDIUse=3 WtCom= 9.98D-01 WtEn= 1.85D-03
 Coeff-Com: -0.290D-04-0.217D-02 0.126D-01 0.380D-01 0.137D+00 0.358D+00
 Coeff-Com:  0.457D+00
 Coeff-En:   0.000D+00 0.000D+00 0.000D+00 0.000D+00 0.000D+00 0.143D+00
 Coeff-En:   0.857D+00
 Coeff:     -0.290D-04-0.217D-02 0.126D-01 0.379D-01 0.137D+00 0.357D+00
 Coeff:      0.458D+00
 Gap=     0.166 Goal=   None    Shift=    0.000
 RMSDP=1.68D-05 MaxDP=6.07D-04 DE=-4.19D-05 OVMax= 2.04D-03

 Cycle   8  Pass 0  IDiag  1:
 E= -688.982286751874     Delta-E=       -0.000009797094 Rises=F Damp=F
 DIIS: error= 5.14D-05 at cycle   8 NSaved=   8.
 NSaved= 8 IEnMin= 8 EnMin= -688.982286751874     IErMin= 8 ErrMin= 5.14D-05
 ErrMax= 5.14D-05 EMaxC= 1.00D-01 BMatC= 6.80D-07 BMatP= 9.52D-06
 IDIUse=1 WtCom= 1.00D+00 WtEn= 0.00D+00
 Coeff-Com:  0.591D-05-0.970D-03 0.271D-02 0.864D-02 0.439D-01 0.132D+00
 Coeff-Com:  0.256D+00 0.558D+00
 Coeff:      0.591D-05-0.970D-03 0.271D-02 0.864D-02 0.439D-01 0.132D+00
 Coeff:      0.256D+00 0.558D+00
 Gap=     0.166 Goal=   None    Shift=    0.000
 RMSDP=4.55D-06 MaxDP=1.35D-04 DE=-9.80D-06 OVMax= 4.61D-04

 Initial convergence to 1.0D-05 achieved.  Increase integral accuracy.
 Cycle   9  Pass 1  IDiag  1:
 E= -688.982244730410     Delta-E=        0.000042021464 Rises=F Damp=F
 DIIS: error= 2.50D-05 at cycle   1 NSaved=   1.
 NSaved= 1 IEnMin= 1 EnMin= -688.982244730410     IErMin= 1 ErrMin= 2.50D-05
 ErrMax= 2.50D-05 EMaxC= 1.00D-01 BMatC= 1.61D-07 BMatP= 1.61D-07
 IDIUse=1 WtCom= 1.00D+00 WtEn= 0.00D+00
 Coeff-Com:  0.100D+01
 Coeff:      0.100D+01
 Gap=     0.166 Goal=   None    Shift=    0.000
 RMSDP=4.55D-06 MaxDP=1.35D-04 DE= 4.20D-05 OVMax= 2.87D-04

 Cycle  10  Pass 1  IDiag  1:
 E= -688.982244741816     Delta-E=       -0.000000011406 Rises=F Damp=F
 DIIS: error= 1.99D-05 at cycle   2 NSaved=   2.
 NSaved= 2 IEnMin= 2 EnMin= -688.982244741816     IErMin= 2 ErrMin= 1.99D-05
 ErrMax= 1.99D-05 EMaxC= 1.00D-01 BMatC= 1.83D-07 BMatP= 1.61D-07
 IDIUse=1 WtCom= 1.00D+00 WtEn= 0.00D+00
 Coeff-Com:  0.521D+00 0.479D+00
 Coeff:      0.521D+00 0.479D+00
 Gap=     0.166 Goal=   None    Shift=    0.000
 RMSDP=2.58D-06 MaxDP=8.89D-05 DE=-1.14D-08 OVMax= 2.58D-04

 Cycle  11  Pass 1  IDiag  1:
 E= -688.982244890316     Delta-E=       -0.000000148500 Rises=F Damp=F
 DIIS: error= 9.95D-06 at cycle   3 NSaved=   3.
 NSaved= 3 IEnMin= 3 EnMin= -688.982244890316     IErMin= 3 ErrMin= 9.95D-06
 ErrMax= 9.95D-06 EMaxC= 1.00D-01 BMatC= 3.73D-08 BMatP= 1.61D-07
 IDIUse=1 WtCom= 1.00D+00 WtEn= 0.00D+00
 Coeff-Com:  0.531D-01 0.305D+00 0.642D+00
 Coeff:      0.531D-01 0.305D+00 0.642D+00
 Gap=     0.166 Goal=   None    Shift=    0.000
 RMSDP=1.05D-06 MaxDP=3.46D-05 DE=-1.48D-07 OVMax= 1.15D-04

 Cycle  12  Pass 1  IDiag  1:
 E= -688.982244924829     Delta-E=       -0.000000034513 Rises=F Damp=F
 DIIS: error= 2.84D-06 at cycle   4 NSaved=   4.
 NSaved= 4 IEnMin= 4 EnMin= -688.982244924829     IErMin= 4 ErrMin= 2.84D-06
 ErrMax= 2.84D-06 EMaxC= 1.00D-01 BMatC= 5.66D-09 BMatP= 3.73D-08
 IDIUse=1 WtCom= 1.00D+00 WtEn= 0.00D+00
 Coeff-Com: -0.141D-01 0.149D+00 0.402D+00 0.463D+00
 Coeff:     -0.141D-01 0.149D+00 0.402D+00 0.463D+00
 Gap=     0.166 Goal=   None    Shift=    0.000
 RMSDP=3.02D-07 MaxDP=1.24D-05 DE=-3.45D-08 OVMax= 2.60D-05

 Cycle  13  Pass 1  IDiag  1:
 E= -688.982244929763     Delta-E=       -0.000000004934 Rises=F Damp=F
 DIIS: error= 4.57D-07 at cycle   5 NSaved=   5.
 NSaved= 5 IEnMin= 5 EnMin= -688.982244929763     IErMin= 5 ErrMin= 4.57D-07
 ErrMax= 4.57D-07 EMaxC= 1.00D-01 BMatC= 1.50D-10 BMatP= 5.66D-09
 IDIUse=1 WtCom= 1.00D+00 WtEn= 0.00D+00
 Coeff-Com: -0.920D-02 0.645D-01 0.183D+00 0.242D+00 0.520D+00
 Coeff:     -0.920D-02 0.645D-01 0.183D+00 0.242D+00 0.520D+00
 Gap=     0.166 Goal=   None    Shift=    0.000
 RMSDP=6.29D-08 MaxDP=2.06D-06 DE=-4.93D-09 OVMax= 4.25D-06

 Cycle  14  Pass 1  IDiag  1:
 E= -688.982244929885     Delta-E=       -0.000000000122 Rises=F Damp=F
 DIIS: error= 1.68D-07 at cycle   6 NSaved=   6.
 NSaved= 6 IEnMin= 6 EnMin= -688.982244929885     IErMin= 6 ErrMin= 1.68D-07
 ErrMax= 1.68D-07 EMaxC= 1.00D-01 BMatC= 1.59D-11 BMatP= 1.50D-10
 IDIUse=1 WtCom= 1.00D+00 WtEn= 0.00D+00
 Coeff-Com: -0.376D-02 0.221D-01 0.646D-01 0.897D-01 0.290D+00 0.537D+00
 Coeff:     -0.376D-02 0.221D-01 0.646D-01 0.897D-01 0.290D+00 0.537D+00
 Gap=     0.166 Goal=   None    Shift=    0.000
 RMSDP=1.98D-08 MaxDP=6.61D-07 DE=-1.22D-10 OVMax= 1.69D-06

 Cycle  15  Pass 1  IDiag  1:
 E= -688.982244929864     Delta-E=        0.000000000021 Rises=F Damp=F
 DIIS: error= 6.60D-08 at cycle   7 NSaved=   7.
 NSaved= 7 IEnMin= 6 EnMin= -688.982244929885     IErMin= 7 ErrMin= 6.60D-08
 ErrMax= 6.60D-08 EMaxC= 1.00D-01 BMatC= 2.20D-12 BMatP= 1.59D-11
 IDIUse=1 WtCom= 1.00D+00 WtEn= 0.00D+00
 Coeff-Com: -0.122D-02 0.590D-02 0.181D-01 0.259D-01 0.116D+00 0.323D+00
 Coeff-Com:  0.512D+00
 Coeff:     -0.122D-02 0.590D-02 0.181D-01 0.259D-01 0.116D+00 0.323D+00
 Coeff:      0.512D+00
 Gap=     0.166 Goal=   None    Shift=    0.000
 RMSDP=7.41D-09 MaxDP=2.17D-07 DE= 2.09D-11 OVMax= 6.84D-07

 SCF Done:  E(RB3LYP) =  -688.982244930     A.U. after   15 cycles
             Convg  =    0.7414D-08             -V/T =  2.0095
 KE= 6.825004021444D+02 PE=-3.420531868785D+03 EE= 1.141080014812D+03
 Leave Link  502 at Thu Sep 30 00:51:52 2021, MaxMem= 1073741824 cpu:     225.2
 (Enter /sw/target/amd/app/gaussian/Gaussian09RevA.02_gcc-4.9.2/g09/l508.exe)
 QCSCF skips out because SCF is already converged.
 Leave Link  508 at Thu Sep 30 00:51:54 2021, MaxMem= 1073741824 cpu:       0.0
 (Enter /sw/target/amd/app/gaussian/Gaussian09RevA.02_gcc-4.9.2/g09/l601.exe)
 Copying SCF densities to generalized density rwf, IOpCl= 0 IROHF=0.

 **********************************************************************

            Population analysis using the SCF density.

 **********************************************************************

 Orbital symmetries:
       Occupied  (A) (A) (A) (A) (A) (A) (A) (A) (A) (A) (A) (A)
                 (A) (A) (A) (A) (A) (A) (A) (A) (A) (A) (A) (A)
                 (A) (A) (A) (A) (A) (A) (A) (A) (A) (A) (A) (A)
                 (A) (A) (A) (A) (A) (A) (A) (A) (A) (A) (A) (A)
                 (A) (A) (A) (A) (A)
       Virtual   (A) (A) (A) (A) (A) (A) (A) (A) (A) (A) (A) (A)
                 (A) (A) (A) (A) (A) (A) (A) (A) (A) (A) (A) (A)
                 (A) (A) (A) (A) (A) (A) (A) (A) (A) (A) (A) (A)
                 (A) (A) (A) (A) (A) (A) (A) (A) (A) (A) (A) (A)
                 (A) (A) (A) (A) (A) (A) (A) (A) (A) (A) (A) (A)
                 (A) (A) (A) (A) (A) (A) (A) (A) (A) (A) (A) (A)
                 (A) (A) (A) (A) (A) (A) (A) (A) (A) (A) (A) (A)
                 (A) (A) (A) (A) (A) (A) (A) (A) (A) (A) (A) (A)
                 (A) (A) (A) (A) (A) (A) (A) (A) (A) (A) (A) (A)
                 (A) (A) (A) (A) (A) (A) (A) (A) (A) (A) (A) (A)
                 (A) (A) (A) (A) (A) (A) (A) (A) (A) (A) (A) (A)
                 (A) (A) (A) (A) (A) (A) (A) (A) (A) (A) (A) (A)
                 (A) (A) (A) (A) (A) (A) (A) (A) (A) (A) (A) (A)
                 (A) (A) (A) (A) (A) (A) (A) (A) (A) (A) (A) (A)
                 (A) (A) (A) (A) (A) (A) (A) (A) (A) (A) (A) (A)
                 (A) (A) (A) (A) (A) (A) (A) (A) (A) (A) (A) (A)
 The electronic state is 1-A.
 Alpha  occ. eigenvalues --  -19.21214 -19.20837 -19.14866 -10.37563 -10.25864
 Alpha  occ. eigenvalues --  -10.24911 -10.19760 -10.19729 -10.19704 -10.19549
 Alpha  occ. eigenvalues --  -10.19141 -10.19129 -10.19086 -10.19025 -10.19000
 Alpha  occ. eigenvalues --   -1.13693  -1.06177  -1.02215  -0.87904  -0.82459
 Alpha  occ. eigenvalues --   -0.77650  -0.76053  -0.73211  -0.71232  -0.65399
 Alpha  occ. eigenvalues --   -0.62062  -0.60195  -0.58388  -0.54836  -0.51815
 Alpha  occ. eigenvalues --   -0.51188  -0.50094  -0.48778  -0.46984  -0.45250
 Alpha  occ. eigenvalues --   -0.45060  -0.44051  -0.43681  -0.41995  -0.40956
 Alpha  occ. eigenvalues --   -0.40051  -0.38975  -0.38417  -0.36824  -0.35464
 Alpha  occ. eigenvalues --   -0.34331  -0.33752  -0.31295  -0.31152  -0.29349
 Alpha  occ. eigenvalues --   -0.28273  -0.24273  -0.20957
 Alpha virt. eigenvalues --   -0.04371  -0.00764   0.02187   0.03400   0.08160
 Alpha virt. eigenvalues --    0.09933   0.10451   0.10989   0.11947   0.12777
 Alpha virt. eigenvalues --    0.15072   0.16720   0.16772   0.17038   0.17953
 Alpha virt. eigenvalues --    0.18559   0.19710   0.20499   0.23344   0.25212
 Alpha virt. eigenvalues --    0.27897   0.29717   0.31136   0.31624   0.33019
 Alpha virt. eigenvalues --    0.34395   0.37204   0.40431   0.47207   0.48733
 Alpha virt. eigenvalues --    0.49544   0.50603   0.51318   0.51603   0.52400
 Alpha virt. eigenvalues --    0.53667   0.54383   0.54667   0.54962   0.56386
 Alpha virt. eigenvalues --    0.56925   0.58350   0.58817   0.59902   0.60613
 Alpha virt. eigenvalues --    0.60903   0.61569   0.61687   0.62190   0.62762
 Alpha virt. eigenvalues --    0.63449   0.65185   0.67622   0.68538   0.69467
 Alpha virt. eigenvalues --    0.71144   0.76136   0.80423   0.81201   0.82445
 Alpha virt. eigenvalues --    0.82941   0.83360   0.83783   0.84061   0.84272
 Alpha virt. eigenvalues --    0.85069   0.87199   0.88040   0.89269   0.90003
 Alpha virt. eigenvalues --    0.91507   0.92730   0.94625   0.95159   0.96862
 Alpha virt. eigenvalues --    0.98265   1.00998   1.02347   1.03232   1.03914
 Alpha virt. eigenvalues --    1.05471   1.08448   1.09618   1.10148   1.13362
 Alpha virt. eigenvalues --    1.15639   1.17664   1.19945   1.21632   1.22505
 Alpha virt. eigenvalues --    1.24701   1.26216   1.28769   1.32039   1.36589
 Alpha virt. eigenvalues --    1.37258   1.39412   1.41060   1.42807   1.44875
 Alpha virt. eigenvalues --    1.46147   1.46532   1.47175   1.48877   1.49999
 Alpha virt. eigenvalues --    1.50279   1.50363   1.52251   1.52881   1.62617
 Alpha virt. eigenvalues --    1.64622   1.68116   1.73884   1.75166   1.78247
 Alpha virt. eigenvalues --    1.79581   1.80469   1.81539   1.83185   1.85787
 Alpha virt. eigenvalues --    1.87917   1.90744   1.92456   1.93420   1.93911
 Alpha virt. eigenvalues --    1.94423   1.95051   1.96686   1.96961   2.01376
 Alpha virt. eigenvalues --    2.02444   2.03177   2.04564   2.05428   2.07897
 Alpha virt. eigenvalues --    2.10425   2.13753   2.14939   2.15616   2.18728
 Alpha virt. eigenvalues --    2.19739   2.20987   2.27293   2.28418   2.29506
 Alpha virt. eigenvalues --    2.30527   2.31713   2.33179   2.33959   2.35287
 Alpha virt. eigenvalues --    2.40116   2.41808   2.47512   2.49980   2.58385
 Alpha virt. eigenvalues --    2.60523   2.61468   2.63117   2.64264   2.65597
 Alpha virt. eigenvalues --    2.67869   2.68439   2.73476   2.75324   2.77124
 Alpha virt. eigenvalues --    2.78381   2.82824   2.86708   2.89357   2.90663
 Alpha virt. eigenvalues --    2.93968   2.98280   3.08703   3.16682   3.25680
 Alpha virt. eigenvalues --    3.39595   3.49819   3.97031   4.07132   4.08878
 Alpha virt. eigenvalues --    4.10417   4.11840   4.13718   4.17224   4.23152
 Alpha virt. eigenvalues --    4.28301   4.34867   4.37799   4.40264   4.42940
 Alpha virt. eigenvalues --    4.59998   4.84356
          Condensed to atoms (all electrons):
              1          2          3          4          5          6
     1  C    4.892424   0.221403  -0.026896   0.002421   0.003220  -0.000032
     2  O    0.221403   8.149375   0.310521  -0.073100  -0.073564   0.000873
     3  C   -0.026896   0.310521   4.138490   0.504387   0.294509  -0.013931
     4  O    0.002421  -0.073100   0.504387   8.078267  -0.063144  -0.002940
     5  O    0.003220  -0.073564   0.294509  -0.063144   8.265950   0.200217
     6  C   -0.000032   0.000873  -0.013931  -0.002940   0.200217   4.600414
     7  C    0.000002  -0.000101   0.001321   0.000231  -0.045727   0.500385
     8  C   -0.000000   0.000000  -0.000042  -0.000003   0.002876  -0.003241
     9  C   -0.000000   0.000000   0.000022   0.000010   0.000350  -0.035264
    10  C   -0.000000  -0.000001   0.000341   0.000095   0.002571   0.015623
    11  C    0.000008   0.000074  -0.002836  -0.001959  -0.041677   0.458466
    12  C    0.000000  -0.000000  -0.000020  -0.000034  -0.000061   0.007507
    13  C   -0.000000   0.000000   0.000000  -0.000000   0.000000  -0.000303
    14  C    0.000000  -0.000000  -0.000000  -0.000000  -0.000000   0.000059
    15  C   -0.000000   0.000000   0.000000   0.000000   0.000001  -0.000821
    16  H    0.375680  -0.032298  -0.005751   0.004560  -0.000040   0.000014
    17  H    0.373521  -0.031827  -0.006239   0.006513  -0.000046   0.000004
    18  H    0.375667  -0.029264   0.004561   0.000678  -0.000017  -0.000001
    19  H    0.000000  -0.000011   0.000095   0.000013  -0.000387  -0.036021
    20  H    0.000000  -0.000000   0.000000  -0.000000  -0.000056   0.003694
    21  H    0.000006  -0.000014   0.001154   0.012776  -0.006231  -0.037012
    22  H    0.000000  -0.000000  -0.000002  -0.000018  -0.000000   0.000270
    23  H    0.000000  -0.000000  -0.000000   0.000000  -0.000000   0.000003
    24  H   -0.000000   0.000000  -0.000000  -0.000000   0.000000  -0.000000
    25  H    0.000000  -0.000000   0.000000  -0.000000  -0.000000   0.000013
              7          8          9         10         11         12
     1  C    0.000002  -0.000000  -0.000000  -0.000000   0.000008   0.000000
     2  O   -0.000101   0.000000   0.000000  -0.000001   0.000074  -0.000000
     3  C    0.001321  -0.000042   0.000022   0.000341  -0.002836  -0.000020
     4  O    0.000231  -0.000003   0.000010   0.000095  -0.001959  -0.000034
     5  O   -0.045727   0.002876   0.000350   0.002571  -0.041677  -0.000061
     6  C    0.500385  -0.003241  -0.035264   0.015623   0.458466   0.007507
     7  C    5.015747   0.484232  -0.008152  -0.037501  -0.056343  -0.000368
     8  C    0.484232   5.147959   0.442091  -0.023129  -0.077293   0.016624
     9  C   -0.008152   0.442091   4.678857   0.486752  -0.037247  -0.029144
    10  C   -0.037501  -0.023129   0.486752   4.712678   0.385762   0.445023
    11  C   -0.056343  -0.077293  -0.037247   0.385762   5.317515  -0.087486
    12  C   -0.000368   0.016624  -0.029144   0.445023  -0.087486   5.118700
    13  C    0.000053  -0.000681  -0.039403  -0.003918   0.008212   0.512875
    14  C   -0.000359   0.008546  -0.002222  -0.039967  -0.000637  -0.020294
    15  C    0.009009  -0.101859   0.445374  -0.027411   0.017586  -0.076308
    16  H   -0.000000   0.000000  -0.000000  -0.000000  -0.000005   0.000000
    17  H    0.000000  -0.000000   0.000000   0.000000  -0.000001  -0.000000
    18  H   -0.000000   0.000000  -0.000000  -0.000000   0.000000  -0.000000
    19  H    0.346856  -0.035303   0.003010   0.000506   0.006371   0.000009
    20  H   -0.042132   0.355750  -0.038159   0.004662   0.000410  -0.000198
    21  H    0.005105   0.000179   0.004708  -0.037900   0.346941  -0.008779
    22  H    0.000011  -0.000187   0.004648  -0.040506  -0.008100   0.354881
    23  H   -0.000001   0.000010   0.001031   0.002831  -0.000205  -0.036266
    24  H    0.000003  -0.000195   0.002739   0.001031   0.000011   0.004395
    25  H    0.000193  -0.008401  -0.041658   0.004583  -0.000194   0.000568
             13         14         15         16         17         18
     1  C   -0.000000   0.000000  -0.000000   0.375680   0.373521   0.375667
     2  O    0.000000  -0.000000   0.000000  -0.032298  -0.031827  -0.029264
     3  C    0.000000  -0.000000   0.000000  -0.005751  -0.006239   0.004561
     4  O   -0.000000  -0.000000   0.000000   0.004560   0.006513   0.000678
     5  O    0.000000  -0.000000   0.000001  -0.000040  -0.000046  -0.000017
     6  C   -0.000303   0.000059  -0.000821   0.000014   0.000004  -0.000001
     7  C    0.000053  -0.000359   0.009009  -0.000000   0.000000  -0.000000
     8  C   -0.000681   0.008546  -0.101859   0.000000  -0.000000   0.000000
     9  C   -0.039403  -0.002222   0.445374  -0.000000   0.000000  -0.000000
    10  C   -0.003918  -0.039967  -0.027411  -0.000000   0.000000  -0.000000
    11  C    0.008212  -0.000637   0.017586  -0.000005  -0.000001   0.000000
    12  C    0.512875  -0.020294  -0.076308   0.000000  -0.000000  -0.000000
    13  C    4.891937   0.507075  -0.019122   0.000000  -0.000000   0.000000
    14  C    0.507075   4.897580   0.508283  -0.000000   0.000000  -0.000000
    15  C   -0.019122   0.508283   5.135495   0.000000  -0.000000  -0.000000
    16  H    0.000000  -0.000000   0.000000   0.552971  -0.034511  -0.033478
    17  H   -0.000000   0.000000  -0.000000  -0.034511   0.551297  -0.032675
    18  H    0.000000  -0.000000  -0.000000  -0.033478  -0.032675   0.543169
    19  H   -0.000000   0.000003  -0.000165  -0.000000  -0.000000  -0.000000
    20  H    0.000013   0.000183  -0.008393   0.000000  -0.000000  -0.000000
    21  H    0.000211   0.000009  -0.000153  -0.000005   0.000012  -0.000000
    22  H   -0.044777   0.004607   0.000561  -0.000000   0.000000   0.000000
    23  H    0.356979  -0.041986   0.004361  -0.000000  -0.000000  -0.000000
    24  H   -0.042093   0.356994  -0.036539  -0.000000   0.000000  -0.000000
    25  H    0.004614  -0.045069   0.355365   0.000000  -0.000000   0.000000
             19         20         21         22         23         24
     1  C    0.000000   0.000000   0.000006   0.000000   0.000000  -0.000000
     2  O   -0.000011  -0.000000  -0.000014  -0.000000  -0.000000   0.000000
     3  C    0.000095   0.000000   0.001154  -0.000002  -0.000000  -0.000000
     4  O    0.000013  -0.000000   0.012776  -0.000018   0.000000  -0.000000
     5  O   -0.000387  -0.000056  -0.006231  -0.000000  -0.000000   0.000000
     6  C   -0.036021   0.003694  -0.037012   0.000270   0.000003  -0.000000
     7  C    0.346856  -0.042132   0.005105   0.000011  -0.000001   0.000003
     8  C   -0.035303   0.355750   0.000179  -0.000187   0.000010  -0.000195
     9  C    0.003010  -0.038159   0.004708   0.004648   0.001031   0.002739
    10  C    0.000506   0.004662  -0.037900  -0.040506   0.002831   0.001031
    11  C    0.006371   0.000410   0.346941  -0.008100  -0.000205   0.000011
    12  C    0.000009  -0.000198  -0.008779   0.354881  -0.036266   0.004395
    13  C   -0.000000   0.000013   0.000211  -0.044777   0.356979  -0.042093
    14  C    0.000003   0.000183   0.000009   0.004607  -0.041986   0.356994
    15  C   -0.000165  -0.008393  -0.000153   0.000561   0.004361  -0.036539
    16  H   -0.000000   0.000000  -0.000005  -0.000000  -0.000000  -0.000000
    17  H   -0.000000  -0.000000   0.000012   0.000000  -0.000000   0.000000
    18  H   -0.000000  -0.000000  -0.000000   0.000000  -0.000000  -0.000000
    19  H    0.574041  -0.005609  -0.000147  -0.000000   0.000000  -0.000000
    20  H   -0.005609   0.586225   0.000015   0.000002  -0.000000  -0.000011
    21  H   -0.000147   0.000015   0.548564   0.005919  -0.000012   0.000000
    22  H   -0.000000   0.000002   0.005919   0.592956  -0.005260  -0.000196
    23  H    0.000000  -0.000000  -0.000012  -0.005260   0.592306  -0.005208
    24  H   -0.000000  -0.000011   0.000000  -0.000196  -0.005208   0.594443
    25  H   -0.000011   0.006033   0.000002   0.000019  -0.000196  -0.005263
             25
     1  C    0.000000
     2  O   -0.000000
     3  C    0.000000
     4  O   -0.000000
     5  O   -0.000000
     6  C    0.000013
     7  C    0.000193
     8  C   -0.008401
     9  C   -0.041658
    10  C    0.004583
    11  C   -0.000194
    12  C    0.000568
    13  C    0.004614
    14  C   -0.045069
    15  C    0.355365
    16  H    0.000000
    17  H   -0.000000
    18  H    0.000000
    19  H   -0.000011
    20  H    0.006033
    21  H    0.000002
    22  H    0.000019
    23  H   -0.000196
    24  H   -0.005263
    25  H    0.598973
 Mulliken atomic charges:
              1
     1  C   -0.217424
     2  O   -0.442067
     3  C    0.800317
     4  O   -0.468753
     5  O   -0.538742
     6  C    0.342024
     7  C   -0.172467
     8  C   -0.207933
     9  C    0.161656
    10  C    0.147876
    11  C   -0.227371
    12  C   -0.201623
    13  C   -0.131672
    14  C   -0.132805
    15  C   -0.205264
    16  H    0.172863
    17  H    0.173950
    18  H    0.171360
    19  H    0.146750
    20  H    0.137572
    21  H    0.164652
    22  H    0.135172
    23  H    0.131612
    24  H    0.129890
    25  H    0.130427
 Sum of Mulliken atomic charges =  -0.00000
 Mulliken charges with hydrogens summed into heavy atoms:
              1
     1  C    0.300749
     2  O   -0.442067
     3  C    0.800317
     4  O   -0.468753
     5  O   -0.538742
     6  C    0.342024
     7  C   -0.025717
     8  C   -0.070361
     9  C    0.161656
    10  C    0.147876
    11  C   -0.062719
    12  C   -0.066451
    13  C   -0.000060
    14  C   -0.002915
    15  C   -0.074837
 Sum of Mulliken charges with hydrogens summed into heavy atoms =  -0.00000
 Electronic spatial extent (au):  <R**2>=           4092.3474
 Charge=             -0.0000 electrons
 Dipole moment (field-independent basis, Debye):
    X=             -0.3945    Y=              0.0928    Z=              0.0301  Tot=              0.4064
 Quadrupole moment (field-independent basis, Debye-Ang):
   XX=            -65.1794   YY=            -80.0666   ZZ=            -88.2943
   XY=              3.0988   XZ=             -0.1530   YZ=              3.4902
 Traceless Quadrupole moment (field-independent basis, Debye-Ang):
   XX=             12.6674   YY=             -2.2198   ZZ=            -10.4476
   XY=              3.0988   XZ=             -0.1530   YZ=              3.4902
 Octapole moment (field-independent basis, Debye-Ang**2):
  XXX=            -98.5746  YYY=              5.2565  ZZZ=              1.0107  XYY=              5.2452
  XXY=            -24.0948  XXZ=             14.3390  XZZ=            -24.9028  YZZ=             -1.1208
  YYZ=             -1.5679  XYZ=             -2.3008
 Hexadecapole moment (field-independent basis, Debye-Ang**3):
 XXXX=          -3637.9820 YYYY=           -744.5388 ZZZZ=           -123.1008 XXXY=            105.6879
 XXXZ=            -15.6299 YYYX=             -7.1588 YYYZ=             11.4344 ZZZX=             -5.9783
 ZZZY=             -5.0354 XXYY=           -837.3149 XXZZ=           -789.1853 YYZZ=           -165.3848
 XXYZ=             18.2014 YYXZ=              7.2564 ZZXY=              7.2310
 N-N= 9.079692068983D+02 E-N=-3.420531873392D+03  KE= 6.825004021444D+02
 No NMR shielding tensors so no spin-rotation constants.
 Leave Link  601 at Thu Sep 30 00:51:56 2021, MaxMem= 1073741824 cpu:       1.3
 (Enter /sw/target/amd/app/gaussian/Gaussian09RevA.02_gcc-4.9.2/g09/l701.exe)
 Compute integral first derivatives.
 ... and contract with generalized density number  0.
 Leave Link  701 at Thu Sep 30 00:51:58 2021, MaxMem= 1073741824 cpu:       1.3
 (Enter /sw/target/amd/app/gaussian/Gaussian09RevA.02_gcc-4.9.2/g09/l702.exe)
 L702 exits ... SP integral derivatives will be done elsewhere.
 Leave Link  702 at Thu Sep 30 00:51:58 2021, MaxMem= 1073741824 cpu:       0.1
 (Enter /sw/target/amd/app/gaussian/Gaussian09RevA.02_gcc-4.9.2/g09/l703.exe)
 Compute integral first derivatives, UseDBF=F ICtDFT=           0.
 Integral derivatives from FoFDir, PRISM(SPDF).
 Calling FoFJK, ICntrl=      2127 FMM=F ISym2X=0 I1Cent= 0 IOpClX= 0 NMat=1 NMatS=1 NMatT=0.
 FoFCou: FMM=F IPFlag=           0 FMFlag=      100000 FMFlg1=         800
         NFxFlg=           0 DoJE=F BraDBF=F KetDBF=F FulRan=T
         Omega=  0.000000  0.000000  1.000000  0.000000  0.000000 ICntrl=    2127 IOpCl=  0
         NMat0=    1 NMatS0=    1 NMatT0=    0 NMatD0=    1 NMtDS0=    0 NMtDT0=    0
         I1Cent=           0 NGrid=           0.
 Symmetry not used in FoFCou.
 Leave Link  703 at Thu Sep 30 00:53:36 2021, MaxMem= 1073741824 cpu:      80.2
 (Enter /sw/target/amd/app/gaussian/Gaussian09RevA.02_gcc-4.9.2/g09/l716.exe)
 Dipole        =-1.55221933D-01 3.64947580D-02 1.18289040D-02
 ***** Axes restored to original set *****
 -------------------------------------------------------------------
 Center     Atomic                   Forces (Hartrees/Bohr)
 Number     Number              X              Y              Z
 -------------------------------------------------------------------
      1        6           0.002399583   -0.006966211   -0.008642796
      2        8           0.007134980    0.016254514    0.014549880
      3        6           0.012257365    0.004422985    0.002633932
      4        8          -0.025654772   -0.001016681    0.013400162
      5        8           0.005082677   -0.010790650   -0.016877800
      6        6           0.011836563    0.002978224   -0.026136840
      7        6           0.002927900    0.006465443    0.023698598
      8        6          -0.017253876   -0.016708729   -0.008246674
      9        6          -0.001541146    0.001174033    0.013132809
     10        6           0.000224753   -0.000490707   -0.006802329
     11        6          -0.016706581   -0.015574568   -0.008402082
     12        6           0.018500959    0.016620315   -0.000110026
     13        6          -0.005275081   -0.009028989   -0.022379699
     14        6          -0.010989077   -0.005223925    0.022068204
     15        6           0.020139793    0.017740823    0.000540703
     16        1           0.000718069    0.003687455   -0.002075453
     17        1           0.003237108   -0.000908784    0.001779132
     18        1          -0.002788238    0.003386318    0.005603528
     19        1           0.000537572   -0.000607803   -0.002267738
     20        1           0.000997360    0.001084997   -0.000332012
     21        1           0.000054353   -0.001970219    0.003143302
     22        1          -0.002267413   -0.001534142    0.001162681
     23        1          -0.000584150   -0.000431563   -0.000036626
     24        1          -0.000962753   -0.000734062    0.000404459
     25        1          -0.002025947   -0.001828075    0.000192687
 -------------------------------------------------------------------
 Cartesian Forces:  Max     0.026136840 RMS     0.010139551
 Leave Link  716 at Thu Sep 30 00:53:37 2021, MaxMem= 1073741824 cpu:       0.1
 (Enter /sw/target/amd/app/gaussian/Gaussian09RevA.02_gcc-4.9.2/g09/l103.exe)

 GradGradGradGradGradGradGradGradGradGradGradGradGradGradGradGradGradGrad
 Berny optimization.
 Internal  Forces:  Max     0.032175981 RMS     0.006621464
 Search for a local minimum.
 Step number   1 out of a maximum of  130
 All quantities printed in internal units (Hartrees-Bohrs-Radians)
 RMS Force = .66215D-02 SwitMx=.10000D-02 MixMth= 1
 Mixed Optimization -- RFO/linear search
 Second derivative matrix not updated -- first step.
     Eigenvalues ---    0.01337   0.01545   0.01824   0.01976   0.01992
     Eigenvalues ---    0.02005   0.02021   0.02052   0.02073   0.02087
     Eigenvalues ---    0.02088   0.02094   0.02100   0.02120   0.02156
     Eigenvalues ---    0.02165   0.02167   0.02169   0.02187   0.02226
     Eigenvalues ---    0.10104   0.10496   0.15999   0.16000   0.16000
     Eigenvalues ---    0.16000   0.16000   0.16000   0.16000   0.16000
     Eigenvalues ---    0.16000   0.16000   0.22000   0.22295   0.22708
     Eigenvalues ---    0.23512   0.24365   0.24749   0.24975   0.24999
     Eigenvalues ---    0.25000   0.25000   0.25000   0.34043   0.34280
     Eigenvalues ---    0.34451   0.34915   0.35057   0.35102   0.35177
     Eigenvalues ---    0.35183   0.35197   0.35265   0.38467   0.41131
     Eigenvalues ---    0.41445   0.41765   0.43617   0.43834   0.44528
     Eigenvalues ---    0.45595   0.45727   0.45884   0.45926   0.46604
     Eigenvalues ---    0.46738   0.47323   0.53027   0.938731000.00000
     Eigenvalues --- 1000.000001000.000001000.000001000.000001000.00000
     Eigenvalues --- 1000.000001000.000001000.000001000.000001000.00000
     Eigenvalues --- 1000.000001000.000001000.000001000.000001000.00000
     Eigenvalues --- 1000.000001000.000001000.000001000.000001000.00000
     Eigenvalues --- 1000.000001000.000001000.000001000.000001000.00000
     Eigenvalues --- 1000.000001000.000001000.000001000.000001000.00000
     Eigenvalues --- 1000.000001000.000001000.000001000.000001000.00000
     Eigenvalues --- 1000.000001000.000001000.000001000.000001000.00000
     Eigenvalues --- 1000.000001000.000001000.000001000.000001000.00000
     Eigenvalues --- 1000.000001000.000001000.000001000.000001000.00000
 RFO step:  Lambda=-1.21448442D-02 EMin= 1.33654842D-02
 Linear search not attempted -- first point.
 Iteration  1 RMS(Cart)=  0.07228788 RMS(Int)=  0.00194301
 Iteration  2 RMS(Cart)=  0.00390067 RMS(Int)=  0.00010860
 Iteration  3 RMS(Cart)=  0.00000553 RMS(Int)=  0.00010857
 Iteration  4 RMS(Cart)=  0.00000000 RMS(Int)=  0.00010857
 Variable       Old X    -DE/DX   Delta X   Delta X   Delta X     New X
                                 (Linear)    (Quad)   (Total)
    R1        2.69636   0.00398   0.00000   0.00933   0.00933   2.70570
    R2        2.07258  -0.00222   0.00000  -0.00630  -0.00630   2.06628
    R3        2.06859  -0.00112   0.00000  -0.00316  -0.00316   2.06544
    R4        2.06575  -0.00107   0.00000  -0.00301  -0.00301   2.06275
    R5        2.56929  -0.02067   0.00000  -0.03811  -0.03811   2.53118
    R6        2.31198  -0.02892   0.00000  -0.03041  -0.03041   2.28156
    R7        2.62667  -0.03218   0.00000  -0.06629  -0.06629   2.56038
    R8        2.66654  -0.01171   0.00000  -0.02601  -0.02601   2.64053
    R9        2.63468   0.01336   0.00000   0.02599   0.02602   2.66069
   R10        2.63263  -0.01276   0.00000  -0.02711  -0.02710   2.60553
   R11        2.63727  -0.01439   0.00000  -0.03171  -0.03169   2.60558
   R12        2.05378  -0.00102   0.00000  -0.00279  -0.00279   2.05099
   R13        2.65845   0.00984   0.00000   0.02202   0.02202   2.68046
   R14        2.05389  -0.00044   0.00000  -0.00121  -0.00121   2.05267
   R15        2.67409   0.01697   0.00000   0.04212   0.04208   2.71617
   R16        2.65279   0.01170   0.00000   0.02608   0.02607   2.67886
   R17        2.64950   0.01397   0.00000   0.03154   0.03152   2.68102
   R18        2.65486   0.01102   0.00000   0.02485   0.02484   2.67970
   R19        2.05247  -0.00303   0.00000  -0.00830  -0.00830   2.04417
   R20        2.63423  -0.01075   0.00000  -0.02323  -0.02322   2.61101
   R21        2.05813  -0.00144   0.00000  -0.00400  -0.00400   2.05414
   R22        2.62946   0.01954   0.00000   0.03882   0.03883   2.66829
   R23        2.05509  -0.00064   0.00000  -0.00176  -0.00176   2.05333
   R24        2.63818  -0.01276   0.00000  -0.02778  -0.02778   2.61040
   R25        2.05583  -0.00077   0.00000  -0.00212  -0.00212   2.05371
   R26        2.05357   0.00033   0.00000   0.00090   0.00090   2.05447
    A1        1.92695   0.00179   0.00000   0.00961   0.00965   1.93660
    A2        1.93227   0.00138   0.00000   0.00716   0.00718   1.93945
    A3        1.88714  -0.00978   0.00000  -0.05527  -0.05523   1.83191
    A4        1.93406  -0.00295   0.00000  -0.01999  -0.01998   1.91408
    A5        1.89068   0.00467   0.00000   0.02876   0.02881   1.91949
    A6        1.89127   0.00486   0.00000   0.02971   0.02974   1.92101
    A7        1.98161   0.00280   0.00000   0.01069   0.01069   1.99230
    A8        2.17980   0.00821   0.00000   0.03157   0.03098   2.21079
    A9        1.88589  -0.01297   0.00000  -0.04921  -0.04979   1.83610
   A10        2.21739   0.00478   0.00000   0.01849   0.01791   2.23530
   A11        2.12522  -0.00396   0.00000  -0.01510  -0.01510   2.11011
   A12        2.02085  -0.00885   0.00000  -0.03231  -0.03237   1.98849
   A13        2.15818   0.00267   0.00000   0.01165   0.01159   2.16977
   A14        2.10329   0.00615   0.00000   0.01990   0.01986   2.12316
   A15        2.09004   0.00132   0.00000  -0.00013  -0.00011   2.08994
   A16        2.09932  -0.00286   0.00000  -0.01269  -0.01272   2.08661
   A17        2.09381   0.00154   0.00000   0.01286   0.01283   2.10664
   A18        2.10526   0.00161   0.00000   0.00629   0.00628   2.11154
   A19        2.07688   0.00066   0.00000   0.00541   0.00541   2.08229
   A20        2.10104  -0.00228   0.00000  -0.01168  -0.01168   2.08936
   A21        2.08010  -0.00374   0.00000  -0.01120  -0.01124   2.06886
   A22        2.12211   0.00488   0.00000   0.01296   0.01300   2.13511
   A23        2.08098  -0.00113   0.00000  -0.00176  -0.00177   2.07921
   A24        2.08807  -0.00142   0.00000  -0.00066  -0.00071   2.08735
   A25        2.08139  -0.00262   0.00000  -0.00807  -0.00807   2.07332
   A26        2.11372   0.00404   0.00000   0.00874   0.00879   2.12251
   A27        2.09874  -0.00390   0.00000  -0.01350  -0.01354   2.08521
   A28        2.10543   0.00086   0.00000   0.00039   0.00040   2.10584
   A29        2.07900   0.00305   0.00000   0.01311   0.01312   2.09212
   A30        2.10856  -0.00092   0.00000  -0.00262  -0.00263   2.10593
   A31        2.09798  -0.00221   0.00000  -0.01417  -0.01417   2.08381
   A32        2.07658   0.00313   0.00000   0.01684   0.01684   2.09343
   A33        2.09257   0.00337   0.00000   0.01046   0.01047   2.10304
   A34        2.09193  -0.00203   0.00000  -0.00726  -0.00727   2.08466
   A35        2.09869  -0.00133   0.00000  -0.00320  -0.00321   2.09548
   A36        2.09679   0.00172   0.00000   0.00309   0.00309   2.09988
   A37        2.09129   0.00019   0.00000   0.00455   0.00455   2.09584
   A38        2.09510  -0.00191   0.00000  -0.00763  -0.00764   2.08746
   A39        2.10605  -0.00042   0.00000  -0.00105  -0.00107   2.10498
   A40        2.10305  -0.00258   0.00000  -0.01567  -0.01567   2.08738
   A41        2.07407   0.00300   0.00000   0.01674   0.01674   2.09082
    D1        1.11075  -0.00087   0.00000  -0.00994  -0.00991   1.10085
    D2       -1.03758   0.00070   0.00000   0.00388   0.00388  -1.03370
    D3       -3.10689  -0.00005   0.00000  -0.00274  -0.00277  -3.10966
    D4        0.02304   0.00027   0.00000   0.00979   0.00991   0.03295
    D5       -3.10395  -0.00164   0.00000  -0.04968  -0.04980   3.12943
    D6        3.08880   0.00157   0.00000   0.04956   0.04942   3.13823
    D7       -0.03779  -0.00042   0.00000  -0.01168  -0.01154  -0.04933
    D8       -2.59529   0.00020   0.00000   0.00692   0.00709  -2.58820
    D9        0.59078   0.00071   0.00000   0.02603   0.02586   0.61664
   D10       -3.13196   0.00096   0.00000   0.03286   0.03273  -3.09924
   D11        0.01518   0.00066   0.00000   0.02397   0.02395   0.03913
   D12       -0.03334   0.00039   0.00000   0.01423   0.01433  -0.01901
   D13        3.11380   0.00009   0.00000   0.00533   0.00556   3.11936
   D14       -3.13988  -0.00156   0.00000  -0.04086  -0.04099   3.10232
   D15       -0.00248  -0.00157   0.00000  -0.04309  -0.04325  -0.04573
   D16        0.04820  -0.00067   0.00000  -0.01962  -0.01955   0.02865
   D17       -3.09758  -0.00067   0.00000  -0.02185  -0.02181  -3.11940
   D18        0.00226  -0.00025   0.00000  -0.00336  -0.00323  -0.00097
   D19       -3.13446  -0.00034   0.00000  -0.00801  -0.00795   3.14077
   D20        3.13832   0.00003   0.00000   0.00543   0.00556  -3.13930
   D21        0.00160  -0.00006   0.00000   0.00077   0.00085   0.00245
   D22        0.01371  -0.00016   0.00000  -0.00356  -0.00348   0.01024
   D23       -3.12805  -0.00011   0.00000  -0.00342  -0.00340  -3.13146
   D24       -3.13281  -0.00006   0.00000   0.00121   0.00130  -3.13151
   D25        0.00860  -0.00001   0.00000   0.00134   0.00138   0.00998
   D26        0.00094  -0.00000   0.00000  -0.00136  -0.00141  -0.00047
   D27       -3.13735  -0.00010   0.00000  -0.00411  -0.00417  -3.14152
   D28       -3.14048  -0.00005   0.00000  -0.00149  -0.00149   3.14122
   D29        0.00442  -0.00015   0.00000  -0.00424  -0.00425   0.00017
   D30        3.13496   0.00015   0.00000   0.00534   0.00538   3.14034
   D31       -0.00215   0.00003   0.00000   0.00168   0.00174  -0.00040
   D32       -0.00681   0.00020   0.00000   0.00547   0.00545  -0.00135
   D33        3.13927   0.00007   0.00000   0.00181   0.00182   3.14109
   D34       -0.03167   0.00048   0.00000   0.01319   0.01306  -0.01861
   D35        3.11405   0.00049   0.00000   0.01541   0.01533   3.12939
   D36        3.10656   0.00057   0.00000   0.01596   0.01586   3.12242
   D37       -0.03090   0.00058   0.00000   0.01819   0.01814  -0.01277
   D38        0.00186  -0.00001   0.00000  -0.00011  -0.00008   0.00178
   D39        3.13209   0.00017   0.00000   0.00474   0.00472   3.13681
   D40       -3.13638  -0.00010   0.00000  -0.00288  -0.00288  -3.13926
   D41       -0.00615   0.00008   0.00000   0.00197   0.00192  -0.00423
   D42       -0.00584   0.00011   0.00000   0.00330   0.00328  -0.00256
   D43        3.13418   0.00010   0.00000   0.00299   0.00298   3.13717
   D44       -3.13621  -0.00003   0.00000  -0.00130  -0.00134  -3.13756
   D45        0.00382  -0.00004   0.00000  -0.00161  -0.00164   0.00217
   D46        0.00347  -0.00006   0.00000  -0.00209  -0.00211   0.00136
   D47       -3.13982  -0.00003   0.00000  -0.00094  -0.00093  -3.14075
   D48       -3.13655  -0.00005   0.00000  -0.00177  -0.00180  -3.13836
   D49        0.00334  -0.00002   0.00000  -0.00062  -0.00062   0.00271
   D50        0.00288  -0.00007   0.00000  -0.00227  -0.00227   0.00062
   D51        3.14007   0.00003   0.00000   0.00125   0.00129   3.14136
   D52       -3.13700  -0.00011   0.00000  -0.00343  -0.00346  -3.14046
   D53        0.00018  -0.00000   0.00000   0.00008   0.00011   0.00029
         Item               Value     Threshold  Converged?
 Maximum Force            0.032176     0.000450     NO 
 RMS     Force            0.006621     0.000300     NO 
 Maximum Displacement     0.263974     0.001800     NO 
 RMS     Displacement     0.072748     0.001200     NO 
 Predicted change in Energy=-6.344019D-03
 GradGradGradGradGradGradGradGradGradGradGradGradGradGradGradGradGradGrad

 Leave Link  103 at Thu Sep 30 00:53:47 2021, MaxMem= 1073741824 cpu:       5.4
 (Enter /sw/target/amd/app/gaussian/Gaussian09RevA.02_gcc-4.9.2/g09/l202.exe)
                          Input orientation:                          
 ---------------------------------------------------------------------
 Center     Atomic      Atomic             Coordinates (Angstroms)
 Number     Number       Type             X           Y           Z
 ---------------------------------------------------------------------
      1          6           0        4.222024   -0.967107   -1.291618
      2          8           0        3.959881   -0.164246   -0.135449
      3          6           0        4.999580    0.581246    0.261252
      4          8           0        6.080405    0.653100   -0.271994
      5          8           0        4.553048    1.267999    1.340475
      6          6           0        5.389540    2.155110    2.022960
      7          6           0        5.122135    2.245681    3.402342
      8          6           0        5.843650    3.123989    4.182801
      9          6           0        6.856169    3.940816    3.617494
     10          6           0        7.108081    3.843898    2.205730
     11          6           0        6.346479    2.942356    1.418335
     12          6           0        8.119170    4.657955    1.634906
     13          6           0        8.851043    5.527359    2.420754
     14          6           0        8.602052    5.622359    3.807376
     15          6           0        7.623293    4.844542    4.394909
     16          1           0        5.007641   -1.700100   -1.088847
     17          1           0        4.508677   -0.347144   -2.144897
     18          1           0        3.280012   -1.477898   -1.499478
     19          1           0        4.346923    1.624327    3.839289
     20          1           0        5.630926    3.188626    5.246034
     21          1           0        6.524604    2.874047    0.353563
     22          1           0        8.320904    4.589300    0.568997
     23          1           0        9.623974    6.138937    1.963374
     24          1           0        9.181208    6.309034    4.419044
     25          1           0        7.438808    4.924343    5.463345
 ---------------------------------------------------------------------
                    Distance matrix (angstroms):
                    1          2          3          4          5
     1  C    0.000000
     2  O    1.431793   0.000000
     3  C    2.326670   1.339442   0.000000
     4  O    2.668011   2.276691   1.207351   0.000000
     5  O    3.468888   2.140450   1.354895   2.304555   0.000000
     6  C    4.700825   3.475927   2.394312   2.828452   1.397309
     7  C    5.758947   4.435601   3.556939   4.117687   2.351812
     8  C    7.023959   5.745290   4.749373   5.099661   3.631690
     9  C    7.424676   6.270934   5.098823   5.151602   4.199183
    10  C    6.611092   5.608699   4.344154   4.168505   3.729895
    11  C    5.209708   4.214389   2.954288   2.858094   2.454777
    12  C    7.442689   6.609650   5.313975   4.881772   4.929069
    13  C    8.797023   7.927927   6.630329   6.219786   6.146700
    14  C    9.413047   8.401216   7.139021   6.906049   6.437429
    15  C    8.813653   7.683274   6.492048   6.459774   5.616728
    16  H    1.093430   2.089406   2.650920   2.712125   3.862366
    17  H    1.092982   2.091055   2.625347   2.641701   3.841676
    18  H    1.091558   2.012083   3.208919   3.726938   4.150410
    19  H    5.749551   4.375768   3.783693   4.566278   2.532495
    20  H    7.873754   6.557019   5.660837   6.089298   4.483751
    21  H    4.771054   4.006015   2.755205   2.349732   2.727713
    22  H    7.150970   6.489297   5.214442   4.606602   5.081630
    23  H    9.501152   8.730242   7.427662   6.902765   7.058919
    24  H   10.495113   9.482037   8.220754   7.975613   7.503965
    25  H    9.522941   8.327255   7.202367   7.278934   6.220492
                    6          7          8          9         10
     6  C    0.000000
     7  C    1.407979   0.000000
[...]
  XXY=            -16.2330  XXZ=              7.8859  XZZ=            -26.1792  YZZ=             -1.1696
  YYZ=             -1.8295  XYZ=             -3.1999
 Hexadecapole moment (field-independent basis, Debye-Ang**3):
 XXXX=          -3588.7124 YYYY=           -751.0262 ZZZZ=           -111.8635 XXXY=            112.0662
 XXXZ=             -0.3265 YYYX=             -2.4496 YYYZ=              9.0690 ZZZX=             -3.7069
 ZZZY=             -5.1996 XXYY=           -857.1893 XXZZ=           -795.3437 YYZZ=           -164.6736
 XXYZ=             17.3439 YYXZ=              6.6201 ZZXY=              7.5410
 N-N= 9.091595985466D+02 E-N=-3.422761216023D+03  KE= 6.827839339203D+02
 No NMR shielding tensors so no spin-rotation constants.
 Leave Link  601 at Thu Sep 30 07:37:15 2021, MaxMem= 1073741824 cpu:       1.2
 (Enter /sw/target/amd/app/gaussian/Gaussian09RevA.02_gcc-4.9.2/g09/l604.exe)
 Evaluate density.
 Using the total density.
 Monte-Carlo method of calculating molar volume:
 based on  0.001 e/bohr**3 density envelope.
 Number of points per bohr**3 =   20 CutOff= 1.00D-04
 Using the CI density.
 There are       407 points.  Will hold       407 in memory.
 LenV=  1073580211 MDV=  1073741824.
 Box volume = 8447.317 fraction occupied=0.172
 Integrated density= 7.6216271145341466D+01 error=-2.9783728854658534D+01
 Molar volume = 1452.855 bohr**3/mol (129.651 cm**3/mol)
 Recommended a0 for SCRF calculation =  4.59 angstrom (  8.68 bohr)
 Leave Link  604 at Thu Sep 30 07:37:16 2021, MaxMem= 1073741824 cpu:       0.3
 (Enter /sw/target/amd/app/gaussian/Gaussian09RevA.02_gcc-4.9.2/g09/l607.exe)
 ******************************Gaussian NBO Version 3.1******************************
             N A T U R A L   A T O M I C   O R B I T A L   A N D
          N A T U R A L   B O N D   O R B I T A L   A N A L Y S I S
 ******************************Gaussian NBO Version 3.1******************************
       /RESON  / : Allow strongly delocalized NBO set

 Analyzing the CI density

 Job title: COC(=O)Oc1ccc2c(c1)cccc2_conf_0                                 

 Storage needed:    182220 in NPA (1073738449 available)


 NATURAL POPULATIONS:  Natural atomic orbital occupancies 
                                                          
   NAO  Atom  No  lang   Type(AO)    Occupancy
 --------------------------------------------
     1    C    1  S      Cor( 1S)     1.99942
     2    C    1  S      Val( 2S)     1.11286
     3    C    1  S      Ryd( 3S)     0.00136
     4    C    1  S      Ryd( 4S)     0.00003
     5    C    1  px     Val( 2p)     0.93315
     6    C    1  px     Ryd( 3p)     0.00245
     7    C    1  py     Val( 2p)     1.03848
     8    C    1  py     Ryd( 3p)     0.00278
     9    C    1  pz     Val( 2p)     1.22082
    10    C    1  pz     Ryd( 3p)     0.00068
    11    C    1  dxy    Ryd( 3d)     0.00180
    12    C    1  dxz    Ryd( 3d)     0.00083
    13    C    1  dyz    Ryd( 3d)     0.00110
    14    C    1  dx2y2  Ryd( 3d)     0.00120
    15    C    1  dz2    Ryd( 3d)     0.00134

    16    O    2  S      Cor( 1S)     1.99974
    17    O    2  S      Val( 2S)     1.62303
    18    O    2  S      Ryd( 3S)     0.00106
    19    O    2  S      Ryd( 4S)     0.00008
    20    O    2  px     Val( 2p)     1.38887
    21    O    2  px     Ryd( 3p)     0.00098
    22    O    2  py     Val( 2p)     1.72355
    23    O    2  py     Ryd( 3p)     0.00131
    24    O    2  pz     Val( 2p)     1.78845
    25    O    2  pz     Ryd( 3p)     0.00169
    26    O    2  dxy    Ryd( 3d)     0.00126
    27    O    2  dxz    Ryd( 3d)     0.00066
    28    O    2  dyz    Ryd( 3d)     0.00161
    29    O    2  dx2y2  Ryd( 3d)     0.00151
    30    O    2  dz2    Ryd( 3d)     0.00113

    31    C    3  S      Cor( 1S)     1.99954
    32    C    3  S      Val( 2S)     0.68528
    33    C    3  S      Ryd( 3S)     0.00195
    34    C    3  S      Ryd( 4S)     0.00042
    35    C    3  px     Val( 2p)     0.70545
    36    C    3  px     Ryd( 3p)     0.00732
    37    C    3  py     Val( 2p)     0.71511
    38    C    3  py     Ryd( 3p)     0.02189
    39    C    3  pz     Val( 2p)     0.79328
    40    C    3  pz     Ryd( 3p)     0.00509
    41    C    3  dxy    Ryd( 3d)     0.00449
    42    C    3  dxz    Ryd( 3d)     0.00296
    43    C    3  dyz    Ryd( 3d)     0.00197
    44    C    3  dx2y2  Ryd( 3d)     0.00312
    45    C    3  dz2    Ryd( 3d)     0.00147

    46    O    4  S      Cor( 1S)     1.99977
    47    O    4  S      Val( 2S)     1.71295
    48    O    4  S      Ryd( 3S)     0.00052
    49    O    4  S      Ryd( 4S)     0.00013
    50    O    4  px     Val( 2p)     1.80597
    51    O    4  px     Ryd( 3p)     0.00092
    52    O    4  py     Val( 2p)     1.57397
    53    O    4  py     Ryd( 3p)     0.00046
    54    O    4  pz     Val( 2p)     1.51219
    55    O    4  pz     Ryd( 3p)     0.00073
    56    O    4  dxy    Ryd( 3d)     0.00463
    57    O    4  dxz    Ryd( 3d)     0.00119
    58    O    4  dyz    Ryd( 3d)     0.00490
    59    O    4  dx2y2  Ryd( 3d)     0.00450
    60    O    4  dz2    Ryd( 3d)     0.00252

    61    O    5  S      Cor( 1S)     1.99967
    62    O    5  S      Val( 2S)     1.59230
    63    O    5  S      Ryd( 3S)     0.00085
    64    O    5  S      Ryd( 4S)     0.00006
    65    O    5  px     Val( 2p)     1.44133
    66    O    5  px     Ryd( 3p)     0.00110
    67    O    5  py     Val( 2p)     1.72626
    68    O    5  py     Ryd( 3p)     0.00221
    69    O    5  pz     Val( 2p)     1.73154
    70    O    5  pz     Ryd( 3p)     0.00130
    71    O    5  dxy    Ryd( 3d)     0.00135
    72    O    5  dxz    Ryd( 3d)     0.00064
    73    O    5  dyz    Ryd( 3d)     0.00158
    74    O    5  dx2y2  Ryd( 3d)     0.00129
    75    O    5  dz2    Ryd( 3d)     0.00103

    76    C    6  S      Cor( 1S)     1.99870
    77    C    6  S      Val( 2S)     0.84841
    78    C    6  S      Ryd( 3S)     0.00106
    79    C    6  S      Ryd( 4S)     0.00013
    80    C    6  px     Val( 2p)     0.72246
    81    C    6  px     Ryd( 3p)     0.00649
    82    C    6  py     Val( 2p)     1.09529
    83    C    6  py     Ryd( 3p)     0.00630
    84    C    6  pz     Val( 2p)     0.95089
    85    C    6  pz     Ryd( 3p)     0.00139
    86    C    6  dxy    Ryd( 3d)     0.00122
    87    C    6  dxz    Ryd( 3d)     0.00141
    88    C    6  dyz    Ryd( 3d)     0.00124
    89    C    6  dx2y2  Ryd( 3d)     0.00182
    90    C    6  dz2    Ryd( 3d)     0.00053

    91    C    7  S      Cor( 1S)     1.99904
    92    C    7  S      Val( 2S)     0.95722
    93    C    7  S      Ryd( 3S)     0.00084
    94    C    7  S      Ryd( 4S)     0.00004
    95    C    7  px     Val( 2p)     1.11082
    96    C    7  px     Ryd( 3p)     0.00532
    97    C    7  py     Val( 2p)     1.14113
    98    C    7  py     Ryd( 3p)     0.00458
    99    C    7  pz     Val( 2p)     1.10297
   100    C    7  pz     Ryd( 3p)     0.00367
   101    C    7  dxy    Ryd( 3d)     0.00078
   102    C    7  dxz    Ryd( 3d)     0.00064
   103    C    7  dyz    Ryd( 3d)     0.00037
   104    C    7  dx2y2  Ryd( 3d)     0.00056
   105    C    7  dz2    Ryd( 3d)     0.00046

   106    C    8  S      Cor( 1S)     1.99907
   107    C    8  S      Val( 2S)     0.94675
   108    C    8  S      Ryd( 3S)     0.00061
   109    C    8  S      Ryd( 4S)     0.00005
   110    C    8  px     Val( 2p)     1.08666
   111    C    8  px     Ryd( 3p)     0.00425
   112    C    8  py     Val( 2p)     1.14824
   113    C    8  py     Ryd( 3p)     0.00463
   114    C    8  pz     Val( 2p)     1.01846
   115    C    8  pz     Ryd( 3p)     0.00324
   116    C    8  dxy    Ryd( 3d)     0.00079
   117    C    8  dxz    Ryd( 3d)     0.00072
   118    C    8  dyz    Ryd( 3d)     0.00035
   119    C    8  dx2y2  Ryd( 3d)     0.00067
   120    C    8  dz2    Ryd( 3d)     0.00043

   121    C    9  S      Cor( 1S)     1.99903
   122    C    9  S      Val( 2S)     0.87362
   123    C    9  S      Ryd( 3S)     0.00047
   124    C    9  S      Ryd( 4S)     0.00006
   125    C    9  px     Val( 2p)     1.09220
   126    C    9  px     Ryd( 3p)     0.00483
   127    C    9  py     Val( 2p)     1.08208
   128    C    9  py     Ryd( 3p)     0.00539
   129    C    9  pz     Val( 2p)     0.99067
   130    C    9  pz     Ryd( 3p)     0.00106
   131    C    9  dxy    Ryd( 3d)     0.00073
   132    C    9  dxz    Ryd( 3d)     0.00078
   133    C    9  dyz    Ryd( 3d)     0.00070
   134    C    9  dx2y2  Ryd( 3d)     0.00070
   135    C    9  dz2    Ryd( 3d)     0.00034

   136    C   10  S      Cor( 1S)     1.99903
   137    C   10  S      Val( 2S)     0.87255
   138    C   10  S      Ryd( 3S)     0.00053
   139    C   10  S      Ryd( 4S)     0.00007
   140    C   10  px     Val( 2p)     1.07880
   141    C   10  px     Ryd( 3p)     0.00505
   142    C   10  py     Val( 2p)     1.08731
   143    C   10  py     Ryd( 3p)     0.00542
   144    C   10  pz     Val( 2p)     0.99603
   145    C   10  pz     Ryd( 3p)     0.00109
   146    C   10  dxy    Ryd( 3d)     0.00071
   147    C   10  dxz    Ryd( 3d)     0.00078
   148    C   10  dyz    Ryd( 3d)     0.00069
   149    C   10  dx2y2  Ryd( 3d)     0.00073
   150    C   10  dz2    Ryd( 3d)     0.00035

   151    C   11  S      Cor( 1S)     1.99897
   152    C   11  S      Val( 2S)     0.95678
   153    C   11  S      Ryd( 3S)     0.00079
   154    C   11  S      Ryd( 4S)     0.00006
   155    C   11  px     Val( 2p)     1.08590
   156    C   11  px     Ryd( 3p)     0.00388
   157    C   11  py     Val( 2p)     1.17902
   158    C   11  py     Ryd( 3p)     0.00394
   159    C   11  pz     Val( 2p)     1.02260
   160    C   11  pz     Ryd( 3p)     0.00331
   161    C   11  dxy    Ryd( 3d)     0.00082
   162    C   11  dxz    Ryd( 3d)     0.00047
   163    C   11  dyz    Ryd( 3d)     0.00056
   164    C   11  dx2y2  Ryd( 3d)     0.00059
   165    C   11  dz2    Ryd( 3d)     0.00044

   166    C   12  S      Cor( 1S)     1.99906
   167    C   12  S      Val( 2S)     0.95125
   168    C   12  S      Ryd( 3S)     0.00064
   169    C   12  S      Ryd( 4S)     0.00004
   170    C   12  px     Val( 2p)     1.09363
   171    C   12  px     Ryd( 3p)     0.00425
   172    C   12  py     Val( 2p)     1.14332
   173    C   12  py     Ryd( 3p)     0.00458
   174    C   12  pz     Val( 2p)     0.99772
   175    C   12  pz     Ryd( 3p)     0.00294
   176    C   12  dxy    Ryd( 3d)     0.00084
   177    C   12  dxz    Ryd( 3d)     0.00069
   178    C   12  dyz    Ryd( 3d)     0.00035
   179    C   12  dx2y2  Ryd( 3d)     0.00066
   180    C   12  dz2    Ryd( 3d)     0.00042

   181    C   13  S      Cor( 1S)     1.99912
   182    C   13  S      Val( 2S)     0.95943
   183    C   13  S      Ryd( 3S)     0.00062
   184    C   13  S      Ryd( 4S)     0.00003
   185    C   13  px     Val( 2p)     1.09898
   186    C   13  px     Ryd( 3p)     0.00502
   187    C   13  py     Val( 2p)     1.15050
   188    C   13  py     Ryd( 3p)     0.00493
   189    C   13  pz     Val( 2p)     1.06991
   190    C   13  pz     Ryd( 3p)     0.00294
   191    C   13  dxy    Ryd( 3d)     0.00077
   192    C   13  dxz    Ryd( 3d)     0.00061
   193    C   13  dyz    Ryd( 3d)     0.00033
   194    C   13  dx2y2  Ryd( 3d)     0.00068
   195    C   13  dz2    Ryd( 3d)     0.00044

   196    C   14  S      Cor( 1S)     1.99911
   197    C   14  S      Val( 2S)     0.97121
   198    C   14  S      Ryd( 3S)     0.00057
   199    C   14  S      Ryd( 4S)     0.00004
   200    C   14  px     Val( 2p)     1.19221
   201    C   14  px     Ryd( 3p)     0.00500
   202    C   14  py     Val( 2p)     1.05977
   203    C   14  py     Ryd( 3p)     0.00449
   204    C   14  pz     Val( 2p)     0.92358
   205    C   14  pz     Ryd( 3p)     0.00142
   206    C   14  dxy    Ryd( 3d)     0.00064
   207    C   14  dxz    Ryd( 3d)     0.00033
   208    C   14  dyz    Ryd( 3d)     0.00089
   209    C   14  dx2y2  Ryd( 3d)     0.00092
   210    C   14  dz2    Ryd( 3d)     0.00044

   211    C   15  S      Cor( 1S)     1.99907
   212    C   15  S      Val( 2S)     0.95382
   213    C   15  S      Ryd( 3S)     0.00067
   214    C   15  S      Ryd( 4S)     0.00005
   215    C   15  px     Val( 2p)     1.07482
   216    C   15  px     Ryd( 3p)     0.00437
   217    C   15  py     Val( 2p)     1.16592
   218    C   15  py     Ryd( 3p)     0.00454
   219    C   15  pz     Val( 2p)     1.01308
   220    C   15  pz     Ryd( 3p)     0.00291
   221    C   15  dxy    Ryd( 3d)     0.00078
   222    C   15  dxz    Ryd( 3d)     0.00045
   223    C   15  dyz    Ryd( 3d)     0.00047
   224    C   15  dx2y2  Ryd( 3d)     0.00072
   225    C   15  dz2    Ryd( 3d)     0.00041

   226    H   16  S      Val( 1S)     0.77696
   227    H   16  S      Ryd( 2S)     0.00140

   228    H   17  S      Val( 1S)     0.77768
   229    H   17  S      Ryd( 2S)     0.00141

   230    H   18  S      Val( 1S)     0.77165
   231    H   18  S      Ryd( 2S)     0.00058

   232    H   19  S      Val( 1S)     0.75171
   233    H   19  S      Ryd( 2S)     0.00097

   234    H   20  S      Val( 1S)     0.76500
   235    H   20  S      Ryd( 2S)     0.00108

   236    H   21  S      Val( 1S)     0.73674
   237    H   21  S      Ryd( 2S)     0.00154

   238    H   22  S      Val( 1S)     0.76648
   239    H   22  S      Ryd( 2S)     0.00112

   240    H   23  S      Val( 1S)     0.76442
   241    H   23  S      Ryd( 2S)     0.00079

   242    H   24  S      Val( 1S)     0.76377
   243    H   24  S      Ryd( 2S)     0.00086

   244    H   25  S      Val( 1S)     0.76628
   245    H   25  S      Ryd( 2S)     0.00114

 WARNING:  1 low occupancy (<1.9990e) core orbital  found on  C    6
           1 low occupancy (<1.9990e) core orbital  found on  C   11


 Summary of Natural Population Analysis:                  
                                                          
                                       Natural Population 
                Natural  -----------------------------------------------
    Atom  No    Charge         Core      Valence    Rydberg      Total
 -----------------------------------------------------------------------
      C    1   -0.31829      1.99942     4.30531    0.01357     6.31829
      O    2   -0.53494      1.99974     6.52390    0.01130     8.53494
      C    3    1.05065      1.99954     2.89912    0.05069     4.94935
      O    4   -0.62535      1.99977     6.60508    0.02050     8.62535
      O    5   -0.50252      1.99967     6.49143    0.01141     8.50252
      C    6    0.36267      1.99870     3.61705    0.02158     5.63733
      C    7   -0.32845      1.99904     4.31214    0.01726     6.32845
      C    8   -0.21491      1.99907     4.20010    0.01574     6.21491
      C    9   -0.05266      1.99903     4.03857    0.01506     6.05266
      C   10   -0.04912      1.99903     4.03468    0.01541     6.04912
      C   11   -0.25812      1.99897     4.24429    0.01486     6.25812
      C   12   -0.20039      1.99906     4.18592    0.01540     6.20039
      C   13   -0.29429      1.99912     4.27881    0.01636     6.29429
      C   14   -0.16062      1.99911     4.14677    0.01475     6.16062
      C   15   -0.22209      1.99907     4.20765    0.01538     6.22209
      H   16    0.22165      0.00000     0.77696    0.00140     0.77835
      H   17    0.22091      0.00000     0.77768    0.00141     0.77909
      H   18    0.22776      0.00000     0.77165    0.00058     0.77224
      H   19    0.24732      0.00000     0.75171    0.00097     0.75268
      H   20    0.23392      0.00000     0.76500    0.00108     0.76608
      H   21    0.26172      0.00000     0.73674    0.00154     0.73828
      H   22    0.23240      0.00000     0.76648    0.00112     0.76760
      H   23    0.23479      0.00000     0.76442    0.00079     0.76521
      H   24    0.23537      0.00000     0.76377    0.00086     0.76463
      H   25    0.23258      0.00000     0.76628    0.00114     0.76742
 =======================================================================
   * Total *   -0.00000     29.98833    75.73151    0.28016   106.00000

                                 Natural Population      
 --------------------------------------------------------
   Core                      29.98833 ( 99.9611% of  30)
   Valence                   75.73151 ( 99.6467% of  76)
   Natural Minimal Basis    105.71984 ( 99.7357% of 106)
   Natural Rydberg Basis      0.28016 (  0.2643% of 106)
 --------------------------------------------------------

    Atom  No          Natural Electron Configuration
 ----------------------------------------------------------------------------
      C    1      [core]2S( 1.11)2p( 3.19)3p( 0.01)3d( 0.01)
      O    2      [core]2S( 1.62)2p( 4.90)3d( 0.01)
      C    3      [core]2S( 0.69)2p( 2.21)3p( 0.03)3d( 0.01)
      O    4      [core]2S( 1.71)2p( 4.89)3d( 0.02)
      O    5      [core]2S( 1.59)2p( 4.90)3d( 0.01)
      C    6      [core]2S( 0.85)2p( 2.77)3p( 0.01)3d( 0.01)
      C    7      [core]2S( 0.96)2p( 3.35)3p( 0.01)
      C    8      [core]2S( 0.95)2p( 3.25)3p( 0.01)
      C    9      [core]2S( 0.87)2p( 3.16)3p( 0.01)
      C   10      [core]2S( 0.87)2p( 3.16)3p( 0.01)
      C   11      [core]2S( 0.96)2p( 3.29)3p( 0.01)
      C   12      [core]2S( 0.95)2p( 3.23)3p( 0.01)
      C   13      [core]2S( 0.96)2p( 3.32)3p( 0.01)
      C   14      [core]2S( 0.97)2p( 3.18)3p( 0.01)
      C   15      [core]2S( 0.95)2p( 3.25)3p( 0.01)
      H   16            1S( 0.78)
      H   17            1S( 0.78)
      H   18            1S( 0.77)
      H   19            1S( 0.75)
      H   20            1S( 0.77)
      H   21            1S( 0.74)
      H   22            1S( 0.77)
      H   23            1S( 0.76)
      H   24            1S( 0.76)
      H   25            1S( 0.77)


 NBO analysis skipped by request.
 Leave Link  607 at Thu Sep 30 07:37:36 2021, MaxMem= 1073741824 cpu:      15.0
 (Enter /sw/target/amd/app/gaussian/Gaussian09RevA.02_gcc-4.9.2/g09/l9999.exe)
 1\1\GINC-HERMITE\SP\RTD-B3LYP-FC\6-31G(d)\C12H10O3\JSCHLEINITZ\30-Sep-
 2021\0\\#p TD(NStates=10, Root=1) b3lyp/6-31G* volume pop=NPA density=
 current Geom=AllCheck Guess=Read\\COC(=O)Oc1ccc2c(c1)cccc2_conf_0\\0,1
 \C,0,4.1750803566,-0.9685374972,-1.3105378567\O,0,3.9522233007,-0.1931
 426557,-0.1215707687\C,0,4.9851954706,0.5805297259,0.2395929943\O,0,6.
 0428940434,0.664956382,-0.3388213534\O,0,4.6018707624,1.2278407282,1.3
 618586837\C,0,5.4345644544,2.1283817049,2.0293608712\C,0,5.1437314123,
 2.2384940714,3.4103694228\C,0,5.8433480933,3.1307821041,4.1854535434\C
 ,0,6.8591857091,3.9495518616,3.6223839041\C,0,7.138813578,3.826973062,
 2.2226575681\C,0,6.4016230862,2.9026404815,1.4329467052\C,0,8.15253338
 49,4.6452735322,1.654607775\C,0,8.8547801634,5.5395346667,2.4310443305
 \C,0,8.5781574991,5.6591788217,3.8150016141\C,0,7.6022426127,4.8804847
 911,4.3954363142\H,0,5.0169713403,-1.6517788963,-1.1719629182\H,0,4.37
 89073218,-0.3153398563,-2.162983302\H,0,3.250978974,-1.5253369835,-1.4
 660879791\H,0,4.3647692276,1.608725213,3.8276348353\H,0,5.6232863481,3
 .2179973192,5.2464893984\H,0,6.6204535505,2.8052998728,0.3782926197\H,
 0,8.3652425183,4.5512543079,0.5925287503\H,0,9.6272041812,6.158474045,
 1.9825491223\H,0,9.1400136376,6.3683444723,4.4166856051\H,0,7.38615562
 55,4.9679479986,5.4577668062\\Version=AM64L-G09RevA.02\State=1-A\HF=-6
 88.988929\RMSD=4.497e-09\Dipole=-0.2442443,-0.2555595,-0.2641332\Quadr
 upole=-4.9378982,1.3427561,3.5951422,6.3315618,3.8628003,6.1682548\PG=
 C01 [X(C12H10O3)]\\@


 GARLIC THEN HAVE POWER TO SAVE FROM DEATH
 BEAR WITH IT THOUGH IT MAKETH UNSAVORY BREATH,
 AND SCORN NOT GARLIC LIKE SOME THAT THINK
 IT ONLY MAKETH MEN WINK AND DRINK AND STINK.
   --  SIR JOHN HARRINGTON,
       "THE ENGLISHMAN'S DOCTOR", 1609
 Job cpu time:  0 days  3 hours  1 minutes 24.8 seconds.
 File lengths (MBytes):  RWF=    201 Int=      0 D2E=      0 Chk=     27 Scr=      1
 Normal termination of Gaussian 09 at Thu Sep 30 07:37:39 2021.
