 Entering Gaussian System, Link 0=g09
 Input=C12H17NO3_285a_conf_0.com
 Output=C12H17NO3_285a_conf_0.log
 Initial command:
 /sw/target/amd/app/gaussian/Gaussian09RevA.02_gcc-4.9.2/g09/l1.exe /home/jschleinitz/gaussian/Gau-144981.inp -scrdir=/home/jschleinitz/gaussian/
 Entering Link 1 = /sw/target/amd/app/gaussian/Gaussian09RevA.02_gcc-4.9.2/g09/l1.exe PID=    144993.
  
 Copyright (c) 1988,1990,1992,1993,1995,1998,2003,2009, Gaussian, Inc.
                  All Rights Reserved.
  
 This is part of the Gaussian(R) 09 program.  It is based on
 the Gaussian(R) 03 system (copyright 2003, Gaussian, Inc.),
 the Gaussian(R) 98 system (copyright 1998, Gaussian, Inc.),
 the Gaussian(R) 94 system (copyright 1995, Gaussian, Inc.),
 the Gaussian 92(TM) system (copyright 1992, Gaussian, Inc.),
 the Gaussian 90(TM) system (copyright 1990, Gaussian, Inc.),
 the Gaussian 88(TM) system (copyright 1988, Gaussian, Inc.),
 the Gaussian 86(TM) system (copyright 1986, Carnegie Mellon
 University), and the Gaussian 82(TM) system (copyright 1983,
 Carnegie Mellon University). Gaussian is a federally registered
 trademark of Gaussian, Inc.
  
 This software contains proprietary and confidential information,
 including trade secrets, belonging to Gaussian, Inc.
  
 This software is provided under written license and may be
 used, copied, transmitted, or stored only in accord with that
 written license.
  
 The following legend is applicable only to US Government
 contracts under FAR:
  
                    RESTRICTED RIGHTS LEGEND
  
 Use, reproduction and disclosure by the US Government is
 subject to restrictions as set forth in subparagraphs (a)
 and (c) of the Commercial Computer Software - Restricted
 Rights clause in FAR 52.227-19.
  
 Gaussian, Inc.
 340 Quinnipiac St., Bldg. 40, Wallingford CT 06492
  
  
 ---------------------------------------------------------------
 Warning -- This program may not be used in any manner that
 competes with the business of Gaussian, Inc. or will provide
 assistance to any competitor of Gaussian, Inc.  The licensee
 of this program is prohibited from giving any competitor of
 Gaussian, Inc. access to this program.  By using this program,
 the user acknowledges that Gaussian, Inc. is engaged in the
 business of creating and licensing software in the field of
 computational chemistry and represents and warrants to the
 licensee that it is not a competitor of Gaussian, Inc. and that
 it will not use this program in any manner prohibited above.
 ---------------------------------------------------------------
  

 Cite this work as:
 Gaussian 09, Revision A.02,
 M. J. Frisch, G. W. Trucks, H. B. Schlegel, G. E. Scuseria, 
 M. A. Robb, J. R. Cheeseman, G. Scalmani, V. Barone, B. Mennucci, 
 G. A. Petersson, H. Nakatsuji, M. Caricato, X. Li, H. P. Hratchian, 
 A. F. Izmaylov, J. Bloino, G. Zheng, J. L. Sonnenberg, M. Hada, 
 M. Ehara, K. Toyota, R. Fukuda, J. Hasegawa, M. Ishida, T. Nakajima, 
 Y. Honda, O. Kitao, H. Nakai, T. Vreven, J. A. Montgomery, Jr., 
 J. E. Peralta, F. Ogliaro, M. Bearpark, J. J. Heyd, E. Brothers, 
 K. N. Kudin, V. N. Staroverov, R. Kobayashi, J. Normand, 
 K. Raghavachari, A. Rendell, J. C. Burant, S. S. Iyengar, J. Tomasi, 
 M. Cossi, N. Rega, J. M. Millam, M. Klene, J. E. Knox, J. B. Cross, 
 V. Bakken, C. Adamo, J. Jaramillo, R. Gomperts, R. E. Stratmann, 
 O. Yazyev, A. J. Austin, R. Cammi, C. Pomelli, J. W. Ochterski, 
 R. L. Martin, K. Morokuma, V. G. Zakrzewski, G. A. Voth, 
 P. Salvador, J. J. Dannenberg, S. Dapprich, A. D. Daniels, 
 O. Farkas, J. B. Foresman, J. V. Ortiz, J. Cioslowski, 
 and D. J. Fox, Gaussian, Inc., Wallingford CT, 2009.
 
 ******************************************
 Gaussian 09:  AM64L-G09RevA.02 11-Jun-2009
                29-Sep-2021 
 ******************************************
 %nproc=5
 Will use up to    5 processors via shared memory.
 %mem=10gb
 %chk=C12H17NO3_285a_conf_0.chk
 -----------------------------------
 #p opt b3lyp/6-31G* scf=(xqc,tight)
 -----------------------------------
 1/14=-1,18=20,19=15,26=3,38=1/1,3;
 2/9=110,12=2,17=6,18=5,40=1/2;
 3/5=1,6=6,7=1,11=2,16=1,25=1,30=1,71=1,74=-5/1,2,3;
 4//1;
 5/5=2,8=3,13=1,32=2,38=5/2,8;
 6/7=2,8=2,9=2,10=2,28=1/1;
 7//1,2,3,16;
 1/14=-1,18=20,19=15/3(2);
 2/9=110/2;
 99//99;
 2/9=110/2;
 3/5=1,6=6,7=1,11=2,16=1,25=1,30=1,71=1,74=-5/1,2,3;
 4/5=5,16=3/1;
 5/5=2,8=3,13=1,32=2,38=5/2,8;
 7//1,2,3,16;
 1/14=-1,18=20,19=15/3(-5);
 2/9=110/2;
 6/7=2,8=2,9=2,10=2,19=2,28=1/1;
 99/9=1/99;
 Leave Link    1 at Wed Sep 29 19:07:02 2021, MaxMem= 1342177280 cpu:       0.1
 (Enter /sw/target/amd/app/gaussian/Gaussian09RevA.02_gcc-4.9.2/g09/l101.exe)
 ------------------------------
 CCN(C(=O)Oc1ccccc1OC)CC_conf_0
 ------------------------------
 Symbolic Z-matrix:
 Charge =  0 Multiplicity = 1
 C                     2.33544   2.40951   0.38356 
 C                     1.87108   1.05327   0.89341 
 N                     2.68544  -0.0868    0.45974 
 C                     2.09836  -1.26075  -0.03387 
 O                     2.73546  -2.27791  -0.26123 
 O                     0.70669  -1.14457  -0.16086 
 C                    -0.10596  -2.28458  -0.00201 
 C                    -1.1407   -2.14744   0.93035 
 C                    -1.99184  -3.21999   1.18584 
 C                    -1.79132  -4.43028   0.52447 
 C                    -0.77727  -4.55132  -0.43199 
 C                     0.0538   -3.467    -0.72807 
 O                     0.93869  -3.46878  -1.76968 
 C                     1.60738  -4.70572  -1.99199 
 C                     4.10839  -0.11134   0.82247 
 C                     4.53784  -1.30495   1.67693 
 H                     1.65219   3.1866    0.7442 
 H                     2.33698   2.44282  -0.7102 
 H                     3.33806   2.66553   0.73496 
 H                     0.83144   0.93245   0.56936 
 H                     1.86212   1.0412    1.98582 
 H                    -1.28722  -1.20412   1.4528 
 H                    -2.80752  -3.11586   1.89646 
 H                    -2.44275  -5.27572   0.72983 
 H                    -0.67695  -5.49581  -0.95805 
 H                     2.48368  -4.50455  -2.61585 
 H                     0.95739  -5.39278  -2.54152 
 H                     1.95679  -5.15923  -1.0578 
 H                     4.34136   0.79466   1.38798 
 H                     4.69483  -0.08342  -0.10429 
 H                     3.84584  -1.4659    2.50891 
 H                     5.54274  -1.14285   2.08143 
 H                     4.59004  -2.22842   1.09444 
 
 NAtoms=     33 NQM=     33 NQMF=      0 NMic=      0 NMicF=      0 NTot=     33.
                    Isotopes and Nuclear Properties:
 (Nuclear quadrupole moments (NQMom) in fm**2, nuclear magnetic moments (NMagM)
  in nuclear magnetons)

  Atom         1           2           3           4           5           6           7           8           9          10
 IAtWgt=          12          12          14          12          16          16          12          12          12          12
 AtmWgt=  12.0000000  12.0000000  14.0030740  12.0000000  15.9949146  15.9949146  12.0000000  12.0000000  12.0000000  12.0000000
 NucSpn=           0           0           2           0           0           0           0           0           0           0
 AtZEff=   0.0000000   0.0000000   0.0000000   0.0000000   0.0000000   0.0000000   0.0000000   0.0000000   0.0000000   0.0000000
 NQMom=    0.0000000   0.0000000   2.0440000   0.0000000   0.0000000   0.0000000   0.0000000   0.0000000   0.0000000   0.0000000
 NMagM=    0.0000000   0.0000000   0.4037610   0.0000000   0.0000000   0.0000000   0.0000000   0.0000000   0.0000000   0.0000000

  Atom        11          12          13          14          15          16          17          18          19          20
 IAtWgt=          12          12          16          12          12          12           1           1           1           1
 AtmWgt=  12.0000000  12.0000000  15.9949146  12.0000000  12.0000000  12.0000000   1.0078250   1.0078250   1.0078250   1.0078250
 NucSpn=           0           0           0           0           0           0           1           1           1           1
 AtZEff=   0.0000000   0.0000000   0.0000000   0.0000000   0.0000000   0.0000000   0.0000000   0.0000000   0.0000000   0.0000000
 NQMom=    0.0000000   0.0000000   0.0000000   0.0000000   0.0000000   0.0000000   0.0000000   0.0000000   0.0000000   0.0000000
 NMagM=    0.0000000   0.0000000   0.0000000   0.0000000   0.0000000   0.0000000   2.7928460   2.7928460   2.7928460   2.7928460

  Atom        21          22          23          24          25          26          27          28          29          30
 IAtWgt=           1           1           1           1           1           1           1           1           1           1
 AtmWgt=   1.0078250   1.0078250   1.0078250   1.0078250   1.0078250   1.0078250   1.0078250   1.0078250   1.0078250   1.0078250
 NucSpn=           1           1           1           1           1           1           1           1           1           1
 AtZEff=   0.0000000   0.0000000   0.0000000   0.0000000   0.0000000   0.0000000   0.0000000   0.0000000   0.0000000   0.0000000
 NQMom=    0.0000000   0.0000000   0.0000000   0.0000000   0.0000000   0.0000000   0.0000000   0.0000000   0.0000000   0.0000000
 NMagM=    2.7928460   2.7928460   2.7928460   2.7928460   2.7928460   2.7928460   2.7928460   2.7928460   2.7928460   2.7928460

  Atom        31          32          33
 IAtWgt=           1           1           1
 AtmWgt=   1.0078250   1.0078250   1.0078250
 NucSpn=           1           1           1
 AtZEff=   0.0000000   0.0000000   0.0000000
 NQMom=    0.0000000   0.0000000   0.0000000
 NMagM=    2.7928460   2.7928460   2.7928460
 Leave Link  101 at Wed Sep 29 19:07:03 2021, MaxMem= 1342177280 cpu:       0.2
 (Enter /sw/target/amd/app/gaussian/Gaussian09RevA.02_gcc-4.9.2/g09/l103.exe)

 GradGradGradGradGradGradGradGradGradGradGradGradGradGradGradGradGradGrad
 Berny optimization.
 Initialization pass.
                           ----------------------------
                           !    Initial Parameters    !
                           ! (Angstroms and Degrees)  !
 --------------------------                            --------------------------
 ! Name  Definition              Value          Derivative Info.                !
 --------------------------------------------------------------------------------
 ! R1    R(1,2)                  1.5215         estimate D2E/DX2                !
 ! R2    R(1,17)                 1.0958         estimate D2E/DX2                !
 ! R3    R(1,18)                 1.0943         estimate D2E/DX2                !
 ! R4    R(1,19)                 1.0928         estimate D2E/DX2                !
 ! R5    R(2,3)                  1.4666         estimate D2E/DX2                !
 ! R6    R(2,20)                 1.0956         estimate D2E/DX2                !
 ! R7    R(2,21)                 1.0925         estimate D2E/DX2                !
 ! R8    R(3,4)                  1.4023         estimate D2E/DX2                !
 ! R9    R(3,15)                 1.4687         estimate D2E/DX2                !
 ! R10   R(4,5)                  1.2216         estimate D2E/DX2                !
 ! R11   R(4,6)                  1.4023         estimate D2E/DX2                !
 ! R12   R(6,7)                  1.409          estimate D2E/DX2                !
 ! R13   R(7,8)                  1.3996         estimate D2E/DX2                !
 ! R14   R(7,12)                 1.3967         estimate D2E/DX2                !
 ! R15   R(8,9)                  1.3929         estimate D2E/DX2                !
 ! R16   R(8,22)                 1.0882         estimate D2E/DX2                !
 ! R17   R(9,10)                 1.3937         estimate D2E/DX2                !
 ! R18   R(9,23)                 1.0868         estimate D2E/DX2                !
 ! R19   R(10,11)                1.3992         estimate D2E/DX2                !
 ! R20   R(10,24)                1.0869         estimate D2E/DX2                !
 ! R21   R(11,12)                1.3979         estimate D2E/DX2                !
 ! R22   R(11,25)                1.0858         estimate D2E/DX2                !
 ! R23   R(12,13)                1.3667         estimate D2E/DX2                !
 ! R24   R(13,14)                1.4236         estimate D2E/DX2                !
 ! R25   R(14,26)                1.0943         estimate D2E/DX2                !
 ! R26   R(14,27)                1.0939         estimate D2E/DX2                !
 ! R27   R(14,28)                1.0957         estimate D2E/DX2                !
 ! R28   R(15,16)                1.5295         estimate D2E/DX2                !
 ! R29   R(15,29)                1.0931         estimate D2E/DX2                !
 ! R30   R(15,30)                1.0971         estimate D2E/DX2                !
 ! R31   R(16,31)                1.0941         estimate D2E/DX2                !
 ! R32   R(16,32)                1.0953         estimate D2E/DX2                !
 ! R33   R(16,33)                1.0931         estimate D2E/DX2                !
 ! A1    A(2,1,17)             109.3627         estimate D2E/DX2                !
 ! A2    A(2,1,18)             111.2545         estimate D2E/DX2                !
 ! A3    A(2,1,19)             112.4005         estimate D2E/DX2                !
 ! A4    A(17,1,18)            107.9539         estimate D2E/DX2                !
 ! A5    A(17,1,19)            107.4624         estimate D2E/DX2                !
 ! A6    A(18,1,19)            108.2392         estimate D2E/DX2                !
 ! A7    A(1,2,3)              115.1098         estimate D2E/DX2                !
 ! A8    A(1,2,20)             106.7854         estimate D2E/DX2                !
 ! A9    A(1,2,21)             110.3296         estimate D2E/DX2                !
 ! A10   A(3,2,20)             110.7137         estimate D2E/DX2                !
 ! A11   A(3,2,21)             106.9552         estimate D2E/DX2                !
 ! A12   A(20,2,21)            106.6625         estimate D2E/DX2                !
 ! A13   A(2,3,4)              121.4912         estimate D2E/DX2                !
 ! A14   A(2,3,15)             118.5509         estimate D2E/DX2                !
 ! A15   A(4,3,15)             118.5923         estimate D2E/DX2                !
 ! A16   A(3,4,5)              122.973          estimate D2E/DX2                !
 ! A17   A(3,4,6)              112.2103         estimate D2E/DX2                !
 ! A18   A(5,4,6)              124.7318         estimate D2E/DX2                !
 ! A19   A(4,6,7)              119.68           estimate D2E/DX2                !
 ! A20   A(6,7,8)              114.9758         estimate D2E/DX2                !
 ! A21   A(6,7,12)             124.0823         estimate D2E/DX2                !
 ! A22   A(8,7,12)             120.919          estimate D2E/DX2                !
 ! A23   A(7,8,9)              119.9022         estimate D2E/DX2                !
 ! A24   A(7,8,22)             120.285          estimate D2E/DX2                !
 ! A25   A(9,8,22)             119.8118         estimate D2E/DX2                !
 ! A26   A(8,9,10)             119.5862         estimate D2E/DX2                !
 ! A27   A(8,9,23)             120.3171         estimate D2E/DX2                !
 ! A28   A(10,9,23)            120.0967         estimate D2E/DX2                !
 ! A29   A(9,10,11)            120.25           estimate D2E/DX2                !
 ! A30   A(9,10,24)            119.9732         estimate D2E/DX2                !
 ! A31   A(11,10,24)           119.7522         estimate D2E/DX2                !
 ! A32   A(10,11,12)           120.5676         estimate D2E/DX2                !
 ! A33   A(10,11,25)           118.256          estimate D2E/DX2                !
 ! A34   A(12,11,25)           121.1451         estimate D2E/DX2                !
 ! A35   A(7,12,11)            118.5917         estimate D2E/DX2                !
 ! A36   A(7,12,13)            118.1207         estimate D2E/DX2                !
 ! A37   A(11,12,13)           123.0472         estimate D2E/DX2                !
 ! A38   A(12,13,14)           115.1038         estimate D2E/DX2                !
 ! A39   A(13,14,26)           107.784          estimate D2E/DX2                !
 ! A40   A(13,14,27)           110.1872         estimate D2E/DX2                !
 ! A41   A(13,14,28)           112.1049         estimate D2E/DX2                !
 ! A42   A(26,14,27)           107.7516         estimate D2E/DX2                !
 ! A43   A(26,14,28)           107.8657         estimate D2E/DX2                !
 ! A44   A(27,14,28)           110.969          estimate D2E/DX2                !
 ! A45   A(3,15,16)            115.0285         estimate D2E/DX2                !
 ! A46   A(3,15,29)            108.6882         estimate D2E/DX2                !
 ! A47   A(3,15,30)            107.9902         estimate D2E/DX2                !
 ! A48   A(16,15,29)           107.335          estimate D2E/DX2                !
 ! A49   A(16,15,30)           109.9805         estimate D2E/DX2                !
 ! A50   A(29,15,30)           107.5779         estimate D2E/DX2                !
 ! A51   A(15,16,31)           111.2264         estimate D2E/DX2                !
 ! A52   A(15,16,32)           110.391          estimate D2E/DX2                !
 ! A53   A(15,16,33)           112.0252         estimate D2E/DX2                !
 ! A54   A(31,16,32)           108.7376         estimate D2E/DX2                !
 ! A55   A(31,16,33)           108.129          estimate D2E/DX2                !
 ! A56   A(32,16,33)           106.1421         estimate D2E/DX2                !
 ! D1    D(17,1,2,3)           178.8042         estimate D2E/DX2                !
 ! D2    D(17,1,2,20)           55.4814         estimate D2E/DX2                !
 ! D3    D(17,1,2,21)          -60.0589         estimate D2E/DX2                !
 ! D4    D(18,1,2,3)            59.6429         estimate D2E/DX2                !
 ! D5    D(18,1,2,20)          -63.68           estimate D2E/DX2                !
 ! D6    D(18,1,2,21)         -179.2203         estimate D2E/DX2                !
 ! D7    D(19,1,2,3)           -61.9288         estimate D2E/DX2                !
 ! D8    D(19,1,2,20)          174.7484         estimate D2E/DX2                !
 ! D9    D(19,1,2,21)           59.2081         estimate D2E/DX2                !
 ! D10   D(1,2,3,4)           -133.7944         estimate D2E/DX2                !
 ! D11   D(1,2,3,15)            59.7362         estimate D2E/DX2                !
 ! D12   D(20,2,3,4)           -12.5841         estimate D2E/DX2                !
 ! D13   D(20,2,3,15)         -179.0536         estimate D2E/DX2                !
 ! D14   D(21,2,3,4)           103.2498         estimate D2E/DX2                !
 ! D15   D(21,2,3,15)          -63.2196         estimate D2E/DX2                !
 ! D16   D(2,3,4,5)           -171.5493         estimate D2E/DX2                !
 ! D17   D(2,3,4,6)              5.2423         estimate D2E/DX2                !
 ! D18   D(15,3,4,5)            -5.0853         estimate D2E/DX2                !
 ! D19   D(15,3,4,6)           171.7063         estimate D2E/DX2                !
 ! D20   D(2,3,15,16)          119.7681         estimate D2E/DX2                !
 ! D21   D(2,3,15,29)           -0.568          estimate D2E/DX2                !
 ! D22   D(2,3,15,30)         -116.9939         estimate D2E/DX2                !
 ! D23   D(4,3,15,16)          -47.0987         estimate D2E/DX2                !
 ! D24   D(4,3,15,29)         -167.4349         estimate D2E/DX2                !
 ! D25   D(4,3,15,30)           76.1393         estimate D2E/DX2                !
 ! D26   D(3,4,6,7)           -149.3463         estimate D2E/DX2                !
 ! D27   D(5,4,6,7)             27.3784         estimate D2E/DX2                !
 ! D28   D(4,6,7,8)            126.8626         estimate D2E/DX2                !
 ! D29   D(4,6,7,12)           -54.8708         estimate D2E/DX2                !
 ! D30   D(6,7,8,9)           -178.8584         estimate D2E/DX2                !
 ! D31   D(6,7,8,22)             1.5045         estimate D2E/DX2                !
 ! D32   D(12,7,8,9)             2.8151         estimate D2E/DX2                !
 ! D33   D(12,7,8,22)         -176.822          estimate D2E/DX2                !
 ! D34   D(6,7,12,11)          176.9423         estimate D2E/DX2                !
 ! D35   D(6,7,12,13)           -8.5156         estimate D2E/DX2                !
 ! D36   D(8,7,12,11)           -4.8894         estimate D2E/DX2                !
 ! D37   D(8,7,12,13)          169.6528         estimate D2E/DX2                !
 ! D38   D(7,8,9,10)             1.0305         estimate D2E/DX2                !
 ! D39   D(7,8,9,23)          -178.9958         estimate D2E/DX2                !
 ! D40   D(22,8,9,10)         -179.3306         estimate D2E/DX2                !
 ! D41   D(22,8,9,23)            0.6431         estimate D2E/DX2                !
 ! D42   D(8,9,10,11)           -2.7012         estimate D2E/DX2                !
 ! D43   D(8,9,10,24)          179.1067         estimate D2E/DX2                !
 ! D44   D(23,9,10,11)         177.3251         estimate D2E/DX2                !
 ! D45   D(23,9,10,24)          -0.867          estimate D2E/DX2                !
 ! D46   D(9,10,11,12)           0.5669         estimate D2E/DX2                !
 ! D47   D(9,10,11,25)        -177.4219         estimate D2E/DX2                !
 ! D48   D(24,10,11,12)        178.763          estimate D2E/DX2                !
 ! D49   D(24,10,11,25)          0.7742         estimate D2E/DX2                !
 ! D50   D(10,11,12,7)           3.1946         estimate D2E/DX2                !
 ! D51   D(10,11,12,13)       -171.0619         estimate D2E/DX2                !
 ! D52   D(25,11,12,7)        -178.8754         estimate D2E/DX2                !
 ! D53   D(25,11,12,13)          6.8682         estimate D2E/DX2                !
 ! D54   D(7,12,13,14)         147.0946         estimate D2E/DX2                !
 ! D55   D(11,12,13,14)        -38.6234         estimate D2E/DX2                !
 ! D56   D(12,13,14,26)       -162.6624         estimate D2E/DX2                !
 ! D57   D(12,13,14,27)         80.0098         estimate D2E/DX2                !
 ! D58   D(12,13,14,28)        -44.1062         estimate D2E/DX2                !
 ! D59   D(3,15,16,31)         -47.029          estimate D2E/DX2                !
 ! D60   D(3,15,16,32)        -167.828          estimate D2E/DX2                !
 ! D61   D(3,15,16,33)          74.1162         estimate D2E/DX2                !
 ! D62   D(29,15,16,31)         74.0481         estimate D2E/DX2                !
 ! D63   D(29,15,16,32)        -46.751          estimate D2E/DX2                !
 ! D64   D(29,15,16,33)       -164.8068         estimate D2E/DX2                !
 ! D65   D(30,15,16,31)       -169.2005         estimate D2E/DX2                !
 ! D66   D(30,15,16,32)         70.0005         estimate D2E/DX2                !
 ! D67   D(30,15,16,33)        -48.0553         estimate D2E/DX2                !
 --------------------------------------------------------------------------------
 Trust Radius=3.00D-01 FncErr=1.00D-07 GrdErr=1.00D-06
 Number of steps in this run= 166 maximum allowed number of steps= 198.
 GradGradGradGradGradGradGradGradGradGradGradGradGradGradGradGradGradGrad

 Leave Link  103 at Wed Sep 29 19:07:03 2021, MaxMem= 1342177280 cpu:       0.0
 (Enter /sw/target/amd/app/gaussian/Gaussian09RevA.02_gcc-4.9.2/g09/l202.exe)
                          Input orientation:                          
 ---------------------------------------------------------------------
 Center     Atomic      Atomic             Coordinates (Angstroms)
 Number     Number       Type             X           Y           Z
 ---------------------------------------------------------------------
      1          6           0        2.335437    2.409507    0.383555
      2          6           0        1.871078    1.053274    0.893409
      3          7           0        2.685445   -0.086799    0.459741
      4          6           0        2.098358   -1.260749   -0.033868
      5          8           0        2.735459   -2.277915   -0.261234
      6          8           0        0.706691   -1.144567   -0.160856
      7          6           0       -0.105961   -2.284578   -0.002009
      8          6           0       -1.140698   -2.147436    0.930353
      9          6           0       -1.991835   -3.219989    1.185843
     10          6           0       -1.791317   -4.430284    0.524469
     11          6           0       -0.777270   -4.551320   -0.431990
     12          6           0        0.053799   -3.466999   -0.728075
     13          8           0        0.938685   -3.468776   -1.769680
     14          6           0        1.607377   -4.705723   -1.991985
     15          6           0        4.108388   -0.111338    0.822468
     16          6           0        4.537842   -1.304952    1.676933
     17          1           0        1.652192    3.186597    0.744199
     18          1           0        2.336975    2.442822   -0.710202
     19          1           0        3.338056    2.665529    0.734963
     20          1           0        0.831443    0.932448    0.569361
     21          1           0        1.862122    1.041202    1.985824
     22          1           0       -1.287215   -1.204116    1.452800
     23          1           0       -2.807525   -3.115863    1.896457
     24          1           0       -2.442748   -5.275717    0.729829
     25          1           0       -0.676950   -5.495810   -0.958049
     26          1           0        2.483678   -4.504551   -2.615849
     27          1           0        0.957385   -5.392780   -2.541520
     28          1           0        1.956793   -5.159234   -1.057799
     29          1           0        4.341363    0.794658    1.387977
     30          1           0        4.694833   -0.083422   -0.104288
     31          1           0        3.845845   -1.465905    2.508910
     32          1           0        5.542741   -1.142847    2.081429
     33          1           0        4.590038   -2.228419    1.094436
 ---------------------------------------------------------------------
                    Distance matrix (angstroms):
                    1          2          3          4          5
     1  C    0.000000
     2  C    1.521495   0.000000
     3  N    2.521875   1.466638   0.000000
     4  C    3.701517   2.503238   1.402312   0.000000
     5  O    4.748441   3.630038   2.307227   1.221564   0.000000
     6  O    3.947232   2.701440   2.327978   1.402270   2.326038
     7  C    5.305047   3.981421   3.582652   2.430692   2.853227
     8  C    5.757450   4.395078   4.371164   3.493912   4.057277
     9  C    7.145640   5.767876   5.676359   4.696381   5.032777
    10  C    7.989537   6.604443   6.237905   5.048492   5.073630
    11  C    7.668584   6.338920   5.719924   4.388120   4.187696
    12  C    6.401166   5.134646   4.445472   3.087019   2.970381
    13  O    6.414168   5.330135   4.411265   3.038630   2.630961
    14  C    7.536562   6.446789   5.339256   3.992885   3.187840
    15  C    3.112983   2.523274   1.468653   2.468740   2.784493
    16  C    4.507840   3.645102   2.529195   2.979912   2.819882
    17  H    1.095790   2.149707   3.444364   4.536886   5.660852
    18  H    1.094265   2.172434   2.808768   3.772373   4.758751
    19  H    1.092831   2.185520   2.841999   4.188509   5.078698
    20  H    2.116182   1.095649   2.118538   2.603665   3.823819
    21  H    2.159526   1.092519   2.068617   3.071473   4.102259
    22  H    5.227348   3.922187   4.244596   3.698040   4.502540
    23  H    7.698613   6.346427   6.435223   5.588854   6.006867
    24  H    9.056137   7.661069   7.300423   6.109406   6.064887
    25  H    8.565537   7.267107   6.524817   5.147057   4.741829
    26  H    7.538077   6.601484   5.386696   4.163815   3.250464
    27  H    8.445755   7.361059   6.336182   4.966269   4.250134
    28  H    7.714060   6.512282   5.344480   4.033195   3.089148
    29  H    2.764116   2.532546   2.093001   3.358186   3.839209
    30  H    3.466906   3.203291   2.087051   2.851796   2.946112
    31  H    4.670897   3.585500   2.729021   3.092171   3.092898
    32  H    5.078267   4.440208   3.450978   4.043780   3.828483
    33  H    5.205664   4.266459   2.935448   2.901367   2.297772
                    6          7          8          9         10
     6  O    0.000000
     7  C    1.408992   0.000000
     8  C    2.368402   1.399567   0.000000
     9  C    3.661013   2.417128   1.392867   0.000000
    10  C    4.183975   2.778788   2.408203   1.393714   0.000000
    11  C    3.725804   2.402844   2.786883   2.421775   1.399198
    12  C    2.478245   1.396716   2.432787   2.812244   2.429246
    13  O    2.836209   2.370289   3.655127   4.169528   3.693309
    14  C    4.104400   3.571760   4.757815   5.025965   4.237868
    15  C    3.688636   4.812845   5.631185   6.856273   7.317693
    16  C    4.252165   5.034225   5.789040   6.822406   7.152212
    17  H    4.524608   5.794971   6.023852   7.383652   8.361992
    18  H    3.978564   5.368220   5.987996   7.375704   8.112139
    19  H    4.716292   6.075191   6.577390   7.953009   8.758159
    20  H    2.205169   3.399183   3.674962   5.059020   5.969906
    21  H    3.274270   4.345762   4.505370   5.800922   6.739461
    22  H    2.565754   2.163153   1.088242   2.152091   3.394713
    23  H    4.524185   3.404946   2.156274   1.086813   2.154700
    24  H    5.270548   3.865627   3.394360   2.153437   1.086872
    25  H    4.635008   3.398831   3.872045   3.391837   2.138929
    26  H    4.524839   4.297286   5.591748   6.011089   5.304970
    27  H    4.876241   4.152197   5.195009   5.226104   4.228718
    28  H    4.299397   3.692329   4.755852   4.938245   4.133191
    29  H    4.401172   5.585020   6.238456   7.501176   8.102804
    30  H    4.127289   5.282345   6.275672   7.497601   7.833307
    31  H    4.133424   4.753074   5.274651   6.237454   6.671068
    32  H    5.330593   6.127976   6.855839   7.866793   8.186561
    33  H    4.222663   4.822629   5.733657   6.656773   6.774568
                   11         12         13         14         15
    11  C    0.000000
    12  C    1.397889   0.000000
    13  O    2.430189   1.366736   0.000000
    14  C    2.853763   2.354891   1.423589   0.000000
    15  C    6.719878   5.486743   5.295153   5.940082   0.000000
    16  C    6.575476   5.528577   5.432790   5.797744   1.529462
    17  H    8.195185   6.999485   7.150012   8.353288   4.112834
    18  H    7.661197   6.335551   6.166417   7.299108   3.465648
    19  H    8.389315   7.108779   7.046980   8.047786   2.883065
    20  H    5.801928   4.652226   4.985317   6.241117   3.448466
    21  H    6.639919   5.564096   5.941082   6.993927   2.779831
    22  H    3.875081   3.416896   4.524124   5.701444   5.541121
    23  H    3.406485   3.898543   5.253494   6.094177   7.616461
    24  H    2.156013   3.410233   4.576753   4.912909   8.342468
    25  H    1.085755   2.168630   2.716227   2.628956   7.420394
    26  H    3.924948   3.247233   2.043486   1.094341   5.810510
    27  H    2.857832   2.795297   2.073133   1.093858   7.009912
    28  H    2.869895   2.567832   2.097848   1.095658   5.800519
    29  H    7.621822   6.404889   6.302847   7.010921   1.093118
    30  H    7.072017   5.777275   5.323796   5.870388   1.097075
    31  H    6.288233   5.372343   5.547018   5.980403   2.178960
    32  H    7.607726   6.589650   6.437260   6.691329   2.169415
    33  H    6.044323   5.043124   4.803543   4.955734   2.188147
                   16         17         18         19         20
    16  C    0.000000
    17  H    5.419500   0.000000
    18  H    4.958632   1.771274   0.000000
    19  H    4.253412   1.764577   1.772078   0.000000
    20  H    4.468788   2.405283   2.486994   3.051902   0.000000
    21  H    3.572021   2.487654   3.075481   2.526158   1.755133
    22  H    5.830240   5.331097   5.577947   6.073103   3.135935
    23  H    7.568488   7.806265   8.009964   8.517143   5.602864
    24  H    8.086570   9.401037   9.192131   9.822480   7.020498
    25  H    7.190305   9.149139   8.495120   9.251704   6.777222
    26  H    5.734544   8.434159   7.205484   7.960399   6.514323
    27  H    6.879343   9.213274   8.164169   9.018830   7.049962
    28  H    5.384799   8.543587   7.619489   8.145478   6.404893
    29  H    2.128488   3.656154   3.337120   2.221083   3.606751
    30  H    2.165531   4.546495   3.508352   3.178352   4.051120
    31  H    1.094053   5.438022   5.283702   4.524763   4.312837
    32  H    1.095316   5.972323   5.561219   4.601884   5.365587
    33  H    1.093078   6.170576   5.491221   5.064328   4.939010
                   21         22         23         24         25
    21  H    0.000000
    22  H    3.904343   0.000000
    23  H    6.252581   2.482528   0.000000
    24  H    7.746799   4.293702   2.481744   0.000000
    25  H    7.605643   4.960167   4.283889   2.452634   0.000000
    26  H    7.233057   6.454953   7.091276   6.004826   3.704115
    27  H    7.919061   6.207877   6.249364   4.719781   2.277949
    28  H    6.907823   5.698215   5.966718   4.750278   2.657035
    29  H    2.562195   5.973290   8.164393   9.127254   8.381963
    30  H    3.695620   6.282148   8.335710   8.865706   7.673260
    31  H    3.239500   5.247114   6.882208   7.564800   6.979658
    32  H    4.280908   6.859098   8.582187   9.092605   8.177486
    33  H    4.350463   5.976599   7.493646   7.673268   6.529143
                   26         27         28         29         30
    26  H    0.000000
    27  H    1.767497   0.000000
    28  H    1.770237   1.804103   0.000000
    29  H    6.896610   8.073206   6.864170   0.000000
    30  H    5.544685   6.935266   5.845504   1.767150   0.000000
    31  H    6.111631   7.019288   5.470888   2.571414   3.075848
    32  H    6.536310   7.775544   6.232587   2.382879   2.572681
    33  H    4.835674   6.035688   4.489518   3.047459   2.459458
                   31         32         33
    31  H    0.000000
    32  H    1.779483   0.000000
    33  H    1.770873   1.749361   0.000000
 Stoichiometry    C12H17NO3
 Framework group  C1[X(C12H17NO3)]
 Deg. of freedom    93
 Full point group                 C1      NOp   1
 Largest Abelian subgroup         C1      NOp   1
 Largest concise Abelian subgroup C1      NOp   1
                         Standard orientation:                         
 ---------------------------------------------------------------------
 Center     Atomic      Atomic             Coordinates (Angstroms)
 Number     Number       Type             X           Y           Z
 ---------------------------------------------------------------------
      1          6           0       -3.961257   -1.575569   -1.166810
      2          6           0       -2.736856   -1.401207   -0.280589
      3          7           0       -2.312935   -0.012915   -0.070908
      4          6           0       -0.967880    0.367285   -0.183837
      5          8           0       -0.561900    1.476101    0.129098
      6          8           0       -0.154044   -0.687066   -0.622444
      7          6           0        1.190344   -0.750687   -0.205513
      8          6           0        1.572293   -1.965769    0.374554
      9          6           0        2.872693   -2.132205    0.845019
     10          6           0        3.778127   -1.076666    0.753017
     11          6           0        3.401430    0.123818    0.140895
     12          6           0        2.112132    0.284927   -0.374708
     13          8           0        1.742350    1.358613   -1.135253
     14          6           0        2.293259    2.606237   -0.727162
     15          6           0       -3.258089    0.923243    0.551373
     16          6           0       -2.782697    1.544806    1.865494
     17          1           0       -4.181007   -2.643445   -1.276838
     18          1           0       -3.790430   -1.161719   -2.165291
     19          1           0       -4.850639   -1.099325   -0.746726
     20          1           0       -1.931011   -1.988000   -0.735269
     21          1           0       -2.918782   -1.831407    0.707048
     22          1           0        0.859165   -2.783894    0.454503
     23          1           0        3.181179   -3.078347    1.281845
     24          1           0        4.790150   -1.194835    1.131350
     25          1           0        4.145257    0.909385    0.048859
     26          1           0        1.700596    3.400921   -1.190635
     27          1           0        3.320825    2.701828   -1.089785
     28          1           0        2.246554    2.742018    0.359047
     29          1           0       -4.190403    0.392317    0.760690
     30          1           0       -3.482530    1.712361   -0.176976
     31          1           0       -2.374200    0.784832    2.538191
     32          1           0       -3.612233    2.051920    2.369897
     33          1           0       -2.014184    2.305333    1.704852
 ---------------------------------------------------------------------
 Rotational constants (GHZ):      0.8537973      0.3265617      0.2734025
 Leave Link  202 at Wed Sep 29 19:07:03 2021, MaxMem= 1342177280 cpu:       0.1
 (Enter /sw/target/amd/app/gaussian/Gaussian09RevA.02_gcc-4.9.2/g09/l301.exe)
 Standard basis: 6-31G(d) (6D, 7F)
 Ernie: Thresh=  0.10000D-02 Tol=  0.10000D-05 Strict=F.
 There are   274 symmetry adapted basis functions of A   symmetry.
 Integral buffers will be    131072 words long.
 Raffenetti 2 integral format.
 Two-electron integral symmetry is turned on.
   274 basis functions,   516 primitive gaussians,   274 cartesian basis functions
    60 alpha electrons       60 beta electrons
       nuclear repulsion energy      1138.7169831278 Hartrees.
 IExCor=  402 DFT=T Ex+Corr=B3LYP ExCW=0 ScaHFX=  0.200000
 ScaDFX=  0.800000  0.720000  1.000000  0.810000 ScalE2=  1.000000  1.000000
 IRadAn=      0 IRanWt=     -1 IRanGd=            0 ICorTp=0
 NAtoms=   33 NActive=   33 NUniq=   33 SFac= 7.50D-01 NAtFMM=   80 NAOKFM=F Big=F
 Leave Link  301 at Wed Sep 29 19:07:04 2021, MaxMem= 1342177280 cpu:       0.1
 (Enter /sw/target/amd/app/gaussian/Gaussian09RevA.02_gcc-4.9.2/g09/l302.exe)
 NPDir=0 NMtPBC=     1 NCelOv=     1 NCel=       1 NClECP=     1 NCelD=      1
         NCelK=      1 NCelE2=     1 NClLst=     1 CellRange=     0.0.
 One-electron integrals computed using PRISM.
 NBasis=   274 RedAO= T  NBF=   274
 NBsUse=   274 1.00D-06 NBFU=   274
 Precomputing XC quadrature grid using
 IXCGrd= 2 IRadAn=           0 IRanWt=          -1 IRanGd=           0 AccXCQ= 1.00D-10.
 NRdTot=    2092 NPtTot=      266716 NUsed=      281802 NTot=      281834
 NSgBfM=   273   273   273   273   273 NAtAll=    33    33.
 Leave Link  302 at Wed Sep 29 19:07:09 2021, MaxMem= 1342177280 cpu:       2.9
 (Enter /sw/target/amd/app/gaussian/Gaussian09RevA.02_gcc-4.9.2/g09/l303.exe)
 DipDrv:  MaxL=1.
 Leave Link  303 at Wed Sep 29 19:07:10 2021, MaxMem= 1342177280 cpu:       0.2
 (Enter /sw/target/amd/app/gaussian/Gaussian09RevA.02_gcc-4.9.2/g09/l401.exe)
 Harris functional with IExCor=  402 diagonalized for initial guess.
 ExpMin= 1.61D-01 ExpMax= 5.48D+03 ExpMxC= 8.25D+02 IAcc=1 IRadAn=         1 AccDes= 0.00D+00
 HarFok:  IExCor=  402 AccDes= 0.00D+00 IRadAn=         1 IDoV= 1
 ScaDFX=  1.000000  1.000000  1.000000  1.000000
 FoFCou: FMM=F IPFlag=           0 FMFlag=      100000 FMFlg1=           0
         NFxFlg=           0 DoJE=T BraDBF=F KetDBF=T FulRan=T
         Omega=  0.000000  0.000000  1.000000  0.000000  0.000000 ICntrl=     500 IOpCl=  0
         NMat0=    1 NMatS0=    1 NMatT0=    0 NMatD0=    1 NMtDS0=    0 NMtDT0=    0
         I1Cent=           4 NGrid=           0.
 Petite list used in FoFCou.
 Harris En= -748.041472877447    
 Initial guess orbital symmetries:
       Occupied  (A) (A) (A) (A) (A) (A) (A) (A) (A) (A) (A) (A)
                 (A) (A) (A) (A) (A) (A) (A) (A) (A) (A) (A) (A)
                 (A) (A) (A) (A) (A) (A) (A) (A) (A) (A) (A) (A)
                 (A) (A) (A) (A) (A) (A) (A) (A) (A) (A) (A) (A)
                 (A) (A) (A) (A) (A) (A) (A) (A) (A) (A) (A) (A)
       Virtual   (A) (A) (A) (A) (A) (A) (A) (A) (A) (A) (A) (A)
                 (A) (A) (A) (A) (A) (A) (A) (A) (A) (A) (A) (A)
                 (A) (A) (A) (A) (A) (A) (A) (A) (A) (A) (A) (A)
                 (A) (A) (A) (A) (A) (A) (A) (A) (A) (A) (A) (A)
                 (A) (A) (A) (A) (A) (A) (A) (A) (A) (A) (A) (A)
                 (A) (A) (A) (A) (A) (A) (A) (A) (A) (A) (A) (A)
                 (A) (A) (A) (A) (A) (A) (A) (A) (A) (A) (A) (A)
                 (A) (A) (A) (A) (A) (A) (A) (A) (A) (A) (A) (A)
                 (A) (A) (A) (A) (A) (A) (A) (A) (A) (A) (A) (A)
                 (A) (A) (A) (A) (A) (A) (A) (A) (A) (A) (A) (A)
                 (A) (A) (A) (A) (A) (A) (A) (A) (A) (A) (A) (A)
                 (A) (A) (A) (A) (A) (A) (A) (A) (A) (A) (A) (A)
                 (A) (A) (A) (A) (A) (A) (A) (A) (A) (A) (A) (A)
                 (A) (A) (A) (A) (A) (A) (A) (A) (A) (A) (A) (A)
                 (A) (A) (A) (A) (A) (A) (A) (A) (A) (A) (A) (A)
                 (A) (A) (A) (A) (A) (A) (A) (A) (A) (A) (A) (A)
                 (A) (A) (A) (A) (A) (A) (A) (A) (A) (A) (A) (A)
                 (A) (A) (A) (A) (A) (A) (A) (A) (A) (A)
 The electronic state of the initial guess is 1-A.
 Leave Link  401 at Wed Sep 29 19:07:26 2021, MaxMem= 1342177280 cpu:      13.3
 (Enter /sw/target/amd/app/gaussian/Gaussian09RevA.02_gcc-4.9.2/g09/l502.exe)
 Closed shell SCF:
 Requested convergence on RMS density matrix=1.00D-08 within  64 cycles.
 Requested convergence on MAX density matrix=1.00D-06.
 Requested convergence on             energy=1.00D-06.
 No special actions if energy rises.
 Using DIIS extrapolation, IDIIS=  1040.
 Integral symmetry usage will be decided dynamically.
       281492 words used for storage of precomputed grid.
 Keep R1 ints in memory in canonical form, NReq=720635948.
 IEnd=      515984 IEndB=      515984 NGot=  1342177280 MDV=   632019193
 LenX=   632019193 LenY=   631943676
 Symmetry not used in FoFDir.
 MinBra= 0 MaxBra= 2 Meth= 1.
 IRaf=       0 NMat=   1 IRICut=       1 DoRegI=T DoRafI=F ISym2E= 0 JSym2E=0.
 Integral accuracy reduced to 1.0D-05 until final iterations.

 Cycle   1  Pass 0  IDiag  1:
 E= -747.456725498363    
 DIIS: error= 2.67D-02 at cycle   1 NSaved=   1.
 NSaved= 1 IEnMin= 1 EnMin= -747.456725498363     IErMin= 1 ErrMin= 2.67D-02
 ErrMax= 2.67D-02 EMaxC= 1.00D-01 BMatC= 4.78D-01 BMatP= 4.78D-01
 IDIUse=3 WtCom= 7.33D-01 WtEn= 2.67D-01
 Coeff-Com:  0.100D+01
 Coeff-En:   0.100D+01
 Coeff:      0.100D+01
 Gap=     0.241 Goal=   None    Shift=    0.000
 GapD=    0.241 DampG=1.000 DampE=0.500 DampFc=0.5000 IDamp=-1.
 Damping current iteration by 5.00D-01
 RMSDP=5.51D-03 MaxDP=2.24D-01              OVMax= 2.30D-01

 Cycle   2  Pass 0  IDiag  1:
 E= -747.608821842664     Delta-E=       -0.152096344301 Rises=F Damp=T
 DIIS: error= 1.35D-02 at cycle   2 NSaved=   2.
 NSaved= 2 IEnMin= 2 EnMin= -747.608821842664     IErMin= 2 ErrMin= 1.35D-02
 ErrMax= 1.35D-02 EMaxC= 1.00D-01 BMatC= 6.52D-02 BMatP= 4.78D-01
 IDIUse=3 WtCom= 8.65D-01 WtEn= 1.35D-01
 Coeff-Com:  0.191D+00 0.809D+00
 Coeff-En:   0.289D+00 0.711D+00
 Coeff:      0.204D+00 0.796D+00
 Gap=     0.269 Goal=   None    Shift=    0.000
 RMSDP=1.74D-03 MaxDP=7.61D-02 DE=-1.52D-01 OVMax= 1.70D-01

 Cycle   3  Pass 0  IDiag  1:
 E= -747.857895023206     Delta-E=       -0.249073180542 Rises=F Damp=F
 DIIS: error= 1.69D-02 at cycle   3 NSaved=   3.
 NSaved= 3 IEnMin= 3 EnMin= -747.857895023206     IErMin= 2 ErrMin= 1.35D-02
 ErrMax= 1.69D-02 EMaxC= 1.00D-01 BMatC= 7.54D-02 BMatP= 6.52D-02
 IDIUse=2 WtCom= 0.00D+00 WtEn= 1.00D+00
 Coeff-En:   0.000D+00 0.000D+00 0.100D+01
 Coeff:      0.000D+00 0.000D+00 0.100D+01
 Gap=     0.237 Goal=   None    Shift=    0.000
 RMSDP=2.99D-03 MaxDP=1.68D-01 DE=-2.49D-01 OVMax= 2.49D-01

 Cycle   4  Pass 0  IDiag  1:
 E= -747.553142922167     Delta-E=        0.304752101039 Rises=F Damp=F
 DIIS: error= 4.05D-02 at cycle   4 NSaved=   4.
 NSaved= 4 IEnMin= 3 EnMin= -747.857895023206     IErMin= 2 ErrMin= 1.35D-02
 ErrMax= 4.05D-02 EMaxC= 1.00D-01 BMatC= 4.59D-01 BMatP= 6.52D-02
 IDIUse=2 WtCom= 0.00D+00 WtEn= 1.00D+00
 Coeff-En:   0.000D+00 0.000D+00 0.798D+00 0.202D+00
 Coeff:      0.000D+00 0.000D+00 0.798D+00 0.202D+00
 Gap=     0.231 Goal=   None    Shift=    0.000
 RMSDP=1.60D-03 MaxDP=9.16D-02 DE= 3.05D-01 OVMax= 1.23D-01

 Cycle   5  Pass 0  IDiag  1:
 E= -747.897056125302     Delta-E=       -0.343913203135 Rises=F Damp=F
 DIIS: error= 1.01D-02 at cycle   5 NSaved=   5.
 NSaved= 5 IEnMin= 5 EnMin= -747.897056125302     IErMin= 5 ErrMin= 1.01D-02
 ErrMax= 1.01D-02 EMaxC= 1.00D-01 BMatC= 3.05D-02 BMatP= 6.52D-02
 IDIUse=3 WtCom= 8.99D-01 WtEn= 1.01D-01
 Coeff-Com: -0.228D-02 0.361D-01 0.336D+00-0.511D-01 0.681D+00
 Coeff-En:   0.000D+00 0.000D+00 0.328D+00 0.000D+00 0.672D+00
 Coeff:     -0.205D-02 0.324D-01 0.335D+00-0.459D-01 0.680D+00
 Gap=     0.214 Goal=   None    Shift=    0.000
 RMSDP=6.10D-04 MaxDP=2.78D-02 DE=-3.44D-01 OVMax= 4.02D-02

 Cycle   6  Pass 0  IDiag  1:
 E= -747.922282911255     Delta-E=       -0.025226785953 Rises=F Damp=F
 DIIS: error= 8.26D-04 at cycle   6 NSaved=   6.
 NSaved= 6 IEnMin= 6 EnMin= -747.922282911255     IErMin= 6 ErrMin= 8.26D-04
 ErrMax= 8.26D-04 EMaxC= 1.00D-01 BMatC= 4.89D-04 BMatP= 3.05D-02
 IDIUse=3 WtCom= 9.92D-01 WtEn= 8.26D-03
 Coeff-Com: -0.687D-02 0.227D-01 0.160D+00-0.591D-01 0.457D+00 0.426D+00
 Coeff-En:   0.000D+00 0.000D+00 0.000D+00 0.000D+00 0.000D+00 0.100D+01
 Coeff:     -0.681D-02 0.225D-01 0.159D+00-0.586D-01 0.454D+00 0.430D+00
 Gap=     0.213 Goal=   None    Shift=    0.000
 RMSDP=9.07D-05 MaxDP=3.31D-03 DE=-2.52D-02 OVMax= 9.01D-03

 Cycle   7  Pass 0  IDiag  1:
 E= -747.922791954448     Delta-E=       -0.000509043193 Rises=F Damp=F
 DIIS: error= 1.12D-04 at cycle   7 NSaved=   7.
 NSaved= 7 IEnMin= 7 EnMin= -747.922791954448     IErMin= 7 ErrMin= 1.12D-04
 ErrMax= 1.12D-04 EMaxC= 1.00D-01 BMatC= 1.04D-05 BMatP= 4.89D-04
 IDIUse=3 WtCom= 9.99D-01 WtEn= 1.12D-03
 Coeff-Com: -0.198D-02 0.546D-02 0.422D-01-0.192D-01 0.129D+00 0.166D+00
 Coeff-Com:  0.679D+00
 Coeff-En:   0.000D+00 0.000D+00 0.000D+00 0.000D+00 0.000D+00 0.000D+00
 Coeff-En:   0.100D+01
 Coeff:     -0.197D-02 0.546D-02 0.422D-01-0.192D-01 0.128D+00 0.165D+00
 Coeff:      0.680D+00
 Gap=     0.213 Goal=   None    Shift=    0.000
 RMSDP=1.40D-05 MaxDP=3.66D-04 DE=-5.09D-04 OVMax= 9.22D-04

 Cycle   8  Pass 0  IDiag  1:
 E= -747.922800093292     Delta-E=       -0.000008138844 Rises=F Damp=F
 DIIS: error= 4.60D-05 at cycle   8 NSaved=   8.
 NSaved= 8 IEnMin= 8 EnMin= -747.922800093292     IErMin= 8 ErrMin= 4.60D-05
 ErrMax= 4.60D-05 EMaxC= 1.00D-01 BMatC= 1.86D-06 BMatP= 1.04D-05
 IDIUse=1 WtCom= 1.00D+00 WtEn= 0.00D+00
 Coeff-Com: -0.192D-03-0.176D-03 0.965D-02-0.395D-02 0.263D-01 0.528D-01
 Coeff-Com:  0.382D+00 0.533D+00
 Coeff:     -0.192D-03-0.176D-03 0.965D-02-0.395D-02 0.263D-01 0.528D-01
 Coeff:      0.382D+00 0.533D+00
 Gap=     0.213 Goal=   None    Shift=    0.000
 RMSDP=5.19D-06 MaxDP=1.74D-04 DE=-8.14D-06 OVMax= 4.05D-04

 Initial convergence to 1.0D-05 achieved.  Increase integral accuracy.
 Cycle   9  Pass 1  IDiag  1:
 E= -747.922809756381     Delta-E=       -0.000009663089 Rises=F Damp=F
 DIIS: error= 1.77D-05 at cycle   1 NSaved=   1.
 NSaved= 1 IEnMin= 1 EnMin= -747.922809756381     IErMin= 1 ErrMin= 1.77D-05
 ErrMax= 1.77D-05 EMaxC= 1.00D-01 BMatC= 2.29D-07 BMatP= 2.29D-07
 IDIUse=1 WtCom= 1.00D+00 WtEn= 0.00D+00
 Coeff-Com:  0.100D+01
 Coeff:      0.100D+01
 Gap=     0.213 Goal=   None    Shift=    0.000
 RMSDP=5.19D-06 MaxDP=1.74D-04 DE=-9.66D-06 OVMax= 3.22D-04

 Cycle  10  Pass 1  IDiag  1:
 E= -747.922809657214     Delta-E=        0.000000099166 Rises=F Damp=F
 DIIS: error= 3.33D-05 at cycle   2 NSaved=   2.
 NSaved= 2 IEnMin= 1 EnMin= -747.922809756381     IErMin= 1 ErrMin= 1.77D-05
 ErrMax= 3.33D-05 EMaxC= 1.00D-01 BMatC= 3.70D-07 BMatP= 2.29D-07
 IDIUse=1 WtCom= 1.00D+00 WtEn= 0.00D+00
 Coeff-Com:  0.571D+00 0.429D+00
 Coeff:      0.571D+00 0.429D+00
 Gap=     0.213 Goal=   None    Shift=    0.000
 RMSDP=2.87D-06 MaxDP=1.09D-04 DE= 9.92D-08 OVMax= 2.46D-04

 Cycle  11  Pass 1  IDiag  1:
 E= -747.922810003930     Delta-E=       -0.000000346716 Rises=F Damp=F
 DIIS: error= 9.71D-06 at cycle   3 NSaved=   3.
 NSaved= 3 IEnMin= 3 EnMin= -747.922810003930     IErMin= 3 ErrMin= 9.71D-06
 ErrMax= 9.71D-06 EMaxC= 1.00D-01 BMatC= 2.87D-08 BMatP= 2.29D-07
 IDIUse=1 WtCom= 1.00D+00 WtEn= 0.00D+00
 Coeff-Com:  0.370D-01 0.216D+00 0.747D+00
 Coeff:      0.370D-01 0.216D+00 0.747D+00
 Gap=     0.213 Goal=   None    Shift=    0.000
 RMSDP=8.29D-07 MaxDP=2.39D-05 DE=-3.47D-07 OVMax= 6.61D-05

 Cycle  12  Pass 1  IDiag  1:
 E= -747.922810027951     Delta-E=       -0.000000024021 Rises=F Damp=F
 DIIS: error= 3.07D-06 at cycle   4 NSaved=   4.
 NSaved= 4 IEnMin= 4 EnMin= -747.922810027951     IErMin= 4 ErrMin= 3.07D-06
 ErrMax= 3.07D-06 EMaxC= 1.00D-01 BMatC= 6.16D-09 BMatP= 2.87D-08
 IDIUse=1 WtCom= 1.00D+00 WtEn= 0.00D+00
 Coeff-Com: -0.107D-01 0.109D+00 0.469D+00 0.433D+00
 Coeff:     -0.107D-01 0.109D+00 0.469D+00 0.433D+00
 Gap=     0.213 Goal=   None    Shift=    0.000
 RMSDP=3.11D-07 MaxDP=1.39D-05 DE=-2.40D-08 OVMax= 1.99D-05

 Cycle  13  Pass 1  IDiag  1:
 E= -747.922810033190     Delta-E=       -0.000000005239 Rises=F Damp=F
 DIIS: error= 9.90D-07 at cycle   5 NSaved=   5.
 NSaved= 5 IEnMin= 5 EnMin= -747.922810033190     IErMin= 5 ErrMin= 9.90D-07
 ErrMax= 9.90D-07 EMaxC= 1.00D-01 BMatC= 4.47D-10 BMatP= 6.16D-09
 IDIUse=1 WtCom= 1.00D+00 WtEn= 0.00D+00
 Coeff-Com: -0.965D-02 0.512D-01 0.234D+00 0.268D+00 0.456D+00
 Coeff:     -0.965D-02 0.512D-01 0.234D+00 0.268D+00 0.456D+00
 Gap=     0.213 Goal=   None    Shift=    0.000
 RMSDP=7.66D-08 MaxDP=4.15D-06 DE=-5.24D-09 OVMax= 4.29D-06

 Cycle  14  Pass 1  IDiag  1:
 E= -747.922810033560     Delta-E=       -0.000000000370 Rises=F Damp=F
 DIIS: error= 2.42D-07 at cycle   6 NSaved=   6.
 NSaved= 6 IEnMin= 6 EnMin= -747.922810033560     IErMin= 6 ErrMin= 2.42D-07
 ErrMax= 2.42D-07 EMaxC= 1.00D-01 BMatC= 2.75D-11 BMatP= 4.47D-10
 IDIUse=1 WtCom= 1.00D+00 WtEn= 0.00D+00
 Coeff-Com: -0.453D-02 0.190D-01 0.904D-01 0.114D+00 0.259D+00 0.522D+00
 Coeff:     -0.453D-02 0.190D-01 0.904D-01 0.114D+00 0.259D+00 0.522D+00
 Gap=     0.213 Goal=   None    Shift=    0.000
 RMSDP=1.91D-08 MaxDP=9.70D-07 DE=-3.70D-10 OVMax= 1.08D-06

 Cycle  15  Pass 1  IDiag  1:
 E= -747.922810033553     Delta-E=        0.000000000008 Rises=F Damp=F
 DIIS: error= 5.08D-08 at cycle   7 NSaved=   7.
 NSaved= 7 IEnMin= 6 EnMin= -747.922810033560     IErMin= 7 ErrMin= 5.08D-08
 ErrMax= 5.08D-08 EMaxC= 1.00D-01 BMatC= 2.28D-12 BMatP= 2.75D-11
 IDIUse=1 WtCom= 1.00D+00 WtEn= 0.00D+00
 Coeff-Com: -0.110D-02 0.379D-02 0.185D-01 0.272D-01 0.759D-01 0.268D+00
 Coeff-Com:  0.608D+00
 Coeff:     -0.110D-02 0.379D-02 0.185D-01 0.272D-01 0.759D-01 0.268D+00
 Coeff:      0.608D+00
 Gap=     0.213 Goal=   None    Shift=    0.000
 RMSDP=7.47D-09 MaxDP=2.65D-07 DE= 7.50D-12 OVMax= 6.31D-07

 SCF Done:  E(RB3LYP) =  -747.922810034     A.U. after   15 cycles
             Convg  =    0.7473D-08             -V/T =  2.0096
 KE= 7.408038317159D+02 PE=-4.019188644296D+03 EE= 1.391745019419D+03
 Leave Link  502 at Wed Sep 29 19:18:00 2021, MaxMem= 1342177280 cpu:     340.3
 (Enter /sw/target/amd/app/gaussian/Gaussian09RevA.02_gcc-4.9.2/g09/l508.exe)
 QCSCF skips out because SCF is already converged.
 Leave Link  508 at Wed Sep 29 19:18:03 2021, MaxMem= 1342177280 cpu:       0.0
 (Enter /sw/target/amd/app/gaussian/Gaussian09RevA.02_gcc-4.9.2/g09/l601.exe)
 Copying SCF densities to generalized density rwf, IOpCl= 0 IROHF=0.

 **********************************************************************

            Population analysis using the SCF density.

 **********************************************************************

 Orbital symmetries:
       Occupied  (A) (A) (A) (A) (A) (A) (A) (A) (A) (A) (A) (A)
                 (A) (A) (A) (A) (A) (A) (A) (A) (A) (A) (A) (A)
                 (A) (A) (A) (A) (A) (A) (A) (A) (A) (A) (A) (A)
                 (A) (A) (A) (A) (A) (A) (A) (A) (A) (A) (A) (A)
                 (A) (A) (A) (A) (A) (A) (A) (A) (A) (A) (A) (A)
       Virtual   (A) (A) (A) (A) (A) (A) (A) (A) (A) (A) (A) (A)
                 (A) (A) (A) (A) (A) (A) (A) (A) (A) (A) (A) (A)
                 (A) (A) (A) (A) (A) (A) (A) (A) (A) (A) (A) (A)
                 (A) (A) (A) (A) (A) (A) (A) (A) (A) (A) (A) (A)
                 (A) (A) (A) (A) (A) (A) (A) (A) (A) (A) (A) (A)
                 (A) (A) (A) (A) (A) (A) (A) (A) (A) (A) (A) (A)
                 (A) (A) (A) (A) (A) (A) (A) (A) (A) (A) (A) (A)
                 (A) (A) (A) (A) (A) (A) (A) (A) (A) (A) (A) (A)
                 (A) (A) (A) (A) (A) (A) (A) (A) (A) (A) (A) (A)
                 (A) (A) (A) (A) (A) (A) (A) (A) (A) (A) (A) (A)
                 (A) (A) (A) (A) (A) (A) (A) (A) (A) (A) (A) (A)
                 (A) (A) (A) (A) (A) (A) (A) (A) (A) (A) (A) (A)
                 (A) (A) (A) (A) (A) (A) (A) (A) (A) (A) (A) (A)
                 (A) (A) (A) (A) (A) (A) (A) (A) (A) (A) (A) (A)
                 (A) (A) (A) (A) (A) (A) (A) (A) (A) (A) (A) (A)
                 (A) (A) (A) (A) (A) (A) (A) (A) (A) (A) (A) (A)
                 (A) (A) (A) (A) (A) (A) (A) (A) (A) (A) (A) (A)
                 (A) (A) (A) (A) (A) (A) (A) (A) (A) (A)
 The electronic state is 1-A.
 Alpha  occ. eigenvalues --  -19.18687 -19.16064 -19.11216 -14.35983 -10.32942
 Alpha  occ. eigenvalues --  -10.24589 -10.24426 -10.22589 -10.22031 -10.21863
 Alpha  occ. eigenvalues --  -10.19061 -10.18859 -10.18757 -10.18498 -10.18160
 Alpha  occ. eigenvalues --  -10.16717  -1.08711  -1.04743  -1.00440  -0.92602
 Alpha  occ. eigenvalues --   -0.84755  -0.76816  -0.75564  -0.74668  -0.73083
 Alpha  occ. eigenvalues --   -0.68779  -0.64975  -0.63390  -0.60540  -0.60181
 Alpha  occ. eigenvalues --   -0.55632  -0.51990  -0.51208  -0.48748  -0.48171
 Alpha  occ. eigenvalues --   -0.46935  -0.45990  -0.45096  -0.44867  -0.43935
 Alpha  occ. eigenvalues --   -0.43650  -0.43172  -0.41423  -0.39857  -0.39256
 Alpha  occ. eigenvalues --   -0.37789  -0.37693  -0.37101  -0.36615  -0.36105
 Alpha  occ. eigenvalues --   -0.35530  -0.34797  -0.33810  -0.33106  -0.30700
 Alpha  occ. eigenvalues --   -0.29830  -0.25489  -0.24193  -0.23388  -0.21291
 Alpha virt. eigenvalues --    0.00006   0.01221   0.04341   0.08468   0.08615
 Alpha virt. eigenvalues --    0.11500   0.11633   0.12651   0.13763   0.14462
 Alpha virt. eigenvalues --    0.14744   0.15484   0.15724   0.15866   0.16467
 Alpha virt. eigenvalues --    0.16738   0.17088   0.17716   0.18473   0.18763
 Alpha virt. eigenvalues --    0.19895   0.20692   0.21089   0.21397   0.23552
 Alpha virt. eigenvalues --    0.24881   0.25797   0.26908   0.27625   0.31913
 Alpha virt. eigenvalues --    0.33572   0.35094   0.36989   0.37408   0.39583
 Alpha virt. eigenvalues --    0.48034   0.49704   0.50908   0.51265   0.52285
 Alpha virt. eigenvalues --    0.52829   0.53082   0.53606   0.54379   0.55756
 Alpha virt. eigenvalues --    0.56308   0.57057   0.57175   0.58642   0.59616
 Alpha virt. eigenvalues --    0.59752   0.60788   0.61040   0.61116   0.61495
 Alpha virt. eigenvalues --    0.61850   0.62291   0.64600   0.65995   0.66279
 Alpha virt. eigenvalues --    0.68979   0.71397   0.72481   0.74160   0.74817
 Alpha virt. eigenvalues --    0.76478   0.79202   0.81582   0.82302   0.83351
 Alpha virt. eigenvalues --    0.84299   0.85250   0.85640   0.85927   0.87340
 Alpha virt. eigenvalues --    0.87665   0.87974   0.88195   0.90082   0.90718
 Alpha virt. eigenvalues --    0.91381   0.91685   0.92900   0.94258   0.94725
 Alpha virt. eigenvalues --    0.95689   0.96375   0.97819   0.98834   0.99408
 Alpha virt. eigenvalues --    1.01453   1.02224   1.03384   1.04497   1.05000
 Alpha virt. eigenvalues --    1.07012   1.08458   1.09127   1.11068   1.12355
 Alpha virt. eigenvalues --    1.17150   1.18025   1.23405   1.23889   1.24514
 Alpha virt. eigenvalues --    1.26545   1.28904   1.30299   1.32534   1.35310
 Alpha virt. eigenvalues --    1.38165   1.39536   1.39954   1.41771   1.43386
 Alpha virt. eigenvalues --    1.44868   1.47572   1.49654   1.50147   1.51389
 Alpha virt. eigenvalues --    1.54568   1.57598   1.59641   1.63261   1.65378
 Alpha virt. eigenvalues --    1.66466   1.70963   1.72577   1.73893   1.78270
 Alpha virt. eigenvalues --    1.78558   1.79387   1.81549   1.82395   1.82757
 Alpha virt. eigenvalues --    1.85775   1.87654   1.89337   1.90424   1.92669
 Alpha virt. eigenvalues --    1.93746   1.94671   1.95224   1.96223   1.97473
 Alpha virt. eigenvalues --    1.98791   1.99808   2.01608   2.02431   2.04500
 Alpha virt. eigenvalues --    2.05445   2.08990   2.10135   2.11769   2.13339
 Alpha virt. eigenvalues --    2.14565   2.16912   2.18604   2.21200   2.22193
 Alpha virt. eigenvalues --    2.23628   2.25686   2.28832   2.30173   2.30981
 Alpha virt. eigenvalues --    2.31437   2.32929   2.33388   2.34270   2.36738
 Alpha virt. eigenvalues --    2.38283   2.39416   2.40762   2.48997   2.51604
 Alpha virt. eigenvalues --    2.53611   2.57330   2.58331   2.59855   2.60698
 Alpha virt. eigenvalues --    2.62329   2.64071   2.67403   2.69473   2.72624
 Alpha virt. eigenvalues --    2.73322   2.74371   2.75322   2.78173   2.84530
 Alpha virt. eigenvalues --    2.87540   2.91024   2.99432   3.05615   3.11291
 Alpha virt. eigenvalues --    3.19077   3.27685   3.44129   3.97974   4.02591
 Alpha virt. eigenvalues --    4.09276   4.11467   4.17123   4.19008   4.23247
 Alpha virt. eigenvalues --    4.24822   4.28021   4.36374   4.37999   4.39854
 Alpha virt. eigenvalues --    4.49190   4.51669   4.53820   4.92596
          Condensed to atoms (all electrons):
              1          2          3          4          5          6
     1  C    5.130128   0.362240  -0.057088   0.001070  -0.000042   0.000273
     2  C    0.362240   4.889852   0.295081  -0.028297   0.002013  -0.005883
     3  N   -0.057088   0.295081   6.977934   0.337660  -0.085806  -0.090189
     4  C    0.001070  -0.028297   0.337660   4.160033   0.538975   0.256719
     5  O   -0.000042   0.002013  -0.085806   0.538975   8.096933  -0.067539
     6  O    0.000273  -0.005883  -0.090189   0.256719  -0.067539   8.349841
     7  C   -0.000019   0.000238   0.001086  -0.013721   0.005296   0.200444
     8  C   -0.000000   0.000007  -0.000130   0.000570   0.000167  -0.054541
     9  C    0.000000   0.000001   0.000001   0.000003   0.000014   0.003982
    10  C   -0.000000   0.000000  -0.000000   0.000003  -0.000003   0.000035
    11  C    0.000000  -0.000000   0.000004   0.000459  -0.000310   0.003944
    12  C    0.000001  -0.000029   0.000154  -0.004282   0.006380  -0.043651
    13  O   -0.000000   0.000003  -0.000037   0.004710  -0.015600  -0.000916
    14  C    0.000000  -0.000000   0.000012  -0.000198   0.004326  -0.000163
    15  C   -0.005935  -0.040849   0.287095  -0.029385   0.006223   0.002835
    16  C   -0.000073   0.001528  -0.049500  -0.004041  -0.010433  -0.000251
    17  H    0.363068  -0.026834   0.003904  -0.000011   0.000000   0.000003
    18  H    0.371493  -0.032797   0.001747   0.000514  -0.000012   0.000045
    19  H    0.375127  -0.032935  -0.003830  -0.000151  -0.000000  -0.000013
    20  H   -0.035813   0.379751  -0.027709  -0.007648   0.000165   0.012310
    21  H   -0.054857   0.375590  -0.057668   0.001360   0.000012   0.000551
    22  H   -0.000000   0.000101  -0.000099   0.000059   0.000008  -0.002029
    23  H   -0.000000  -0.000000  -0.000000  -0.000000   0.000000  -0.000061
    24  H   -0.000000   0.000000   0.000000   0.000000  -0.000000   0.000001
    25  H    0.000000   0.000000  -0.000000  -0.000009  -0.000002  -0.000040
    26  H    0.000000  -0.000000  -0.000001  -0.000070   0.000425  -0.000003
    27  H    0.000000  -0.000000   0.000000   0.000029   0.000095  -0.000002
    28  H   -0.000000  -0.000000   0.000003  -0.000024   0.001393  -0.000026
    29  H   -0.002449  -0.002218  -0.039686   0.004270   0.000346  -0.000040
    30  H    0.001400   0.003301  -0.045511  -0.003365   0.001582  -0.000047
    31  H    0.000044   0.000554  -0.000078   0.000918  -0.000943  -0.000058
    32  H    0.000006  -0.000089   0.003717   0.000367   0.000602   0.000001
    33  H   -0.000011  -0.000094  -0.003582   0.000983   0.011977   0.000085
              7          8          9         10         11         12
     1  C   -0.000019  -0.000000   0.000000  -0.000000   0.000000   0.000001
     2  C    0.000238   0.000007   0.000001   0.000000  -0.000000  -0.000029
     3  N    0.001086  -0.000130   0.000001  -0.000000   0.000004   0.000154
     4  C   -0.013721   0.000570   0.000003   0.000003   0.000459  -0.004282
     5  O    0.005296   0.000167   0.000014  -0.000003  -0.000310   0.006380
     6  O    0.200444  -0.054541   0.003982   0.000035   0.003944  -0.043651
     7  C    4.710693   0.537598  -0.019255  -0.034809  -0.054327   0.459817
     8  C    0.537598   4.979845   0.516361  -0.034281  -0.039816  -0.051551
     9  C   -0.019255   0.516361   4.877710   0.550093  -0.032649  -0.035576
    10  C   -0.034809  -0.034281   0.550093   4.857831   0.514207  -0.009880
    11  C   -0.054327  -0.039816  -0.032649   0.514207   5.083782   0.466505
    12  C    0.459817  -0.051551  -0.035576  -0.009880   0.466505   4.641929
    13  O   -0.065877   0.003584   0.000020   0.003755  -0.065066   0.271874
    14  C    0.003509  -0.000147   0.000019   0.000103  -0.006491  -0.040520
    15  C   -0.000046  -0.000001  -0.000000   0.000000  -0.000000  -0.000003
    16  C    0.000014  -0.000000   0.000000  -0.000000   0.000000   0.000004
    17  H    0.000000  -0.000000  -0.000000   0.000000  -0.000000  -0.000000
    18  H    0.000001  -0.000000   0.000000   0.000000  -0.000000   0.000000
    19  H    0.000000   0.000000  -0.000000   0.000000   0.000000  -0.000000
    20  H   -0.000108   0.000155   0.000004   0.000000  -0.000002   0.000018
    21  H    0.000108  -0.000030   0.000001   0.000000  -0.000000   0.000004
    22  H   -0.035767   0.348451  -0.041656   0.005080   0.000164   0.005657
    23  H    0.003828  -0.038918   0.357529  -0.041927   0.005060   0.000539
    24  H    0.000568   0.004848  -0.041875   0.358183  -0.039005   0.003478
    25  H    0.003505   0.000582   0.004678  -0.039470   0.353391  -0.040017
    26  H    0.000150   0.000005   0.000000   0.000001   0.000002   0.004032
    27  H   -0.000686   0.000011  -0.000003  -0.000051   0.003347  -0.007212
    28  H    0.001045  -0.000053  -0.000010  -0.000159   0.004747  -0.002495
    29  H    0.000002  -0.000000   0.000000  -0.000000   0.000000   0.000000
    30  H   -0.000005   0.000000  -0.000000  -0.000000   0.000000  -0.000000
    31  H   -0.000001   0.000003  -0.000000  -0.000000   0.000000   0.000001
    32  H   -0.000000   0.000000  -0.000000  -0.000000   0.000000  -0.000000
    33  H    0.000003  -0.000001  -0.000000   0.000000   0.000000  -0.000003
             13         14         15         16         17         18
     1  C   -0.000000   0.000000  -0.005935  -0.000073   0.363068   0.371493
     2  C    0.000003  -0.000000  -0.040849   0.001528  -0.026834  -0.032797
     3  N   -0.000037   0.000012   0.287095  -0.049500   0.003904   0.001747
     4  C    0.004710  -0.000198  -0.029385  -0.004041  -0.000011   0.000514
     5  O   -0.015600   0.004326   0.006223  -0.010433   0.000000  -0.000012
     6  O   -0.000916  -0.000163   0.002835  -0.000251   0.000003   0.000045
     7  C   -0.065877   0.003509  -0.000046   0.000014   0.000000   0.000001
     8  C    0.003584  -0.000147  -0.000001  -0.000000  -0.000000  -0.000000
     9  C    0.000020   0.000019  -0.000000   0.000000  -0.000000   0.000000
    10  C    0.003755   0.000103   0.000000  -0.000000   0.000000   0.000000
    11  C   -0.065066  -0.006491  -0.000000   0.000000  -0.000000  -0.000000
    12  C    0.271874  -0.040520  -0.000003   0.000004  -0.000000   0.000000
    13  O    8.224162   0.243984   0.000003   0.000001   0.000000  -0.000000
    14  C    0.243984   4.886912  -0.000000  -0.000001  -0.000000   0.000000
    15  C    0.000003  -0.000000   4.855867   0.370760   0.000038   0.000060
    16  C    0.000001  -0.000001   0.370760   5.120831   0.000002   0.000017
    17  H    0.000000  -0.000000   0.000038   0.000002   0.568713  -0.026119
    18  H   -0.000000   0.000000   0.000060   0.000017  -0.026119   0.555968
    19  H   -0.000000   0.000000   0.002325  -0.000057  -0.029753  -0.031616
    20  H   -0.000001   0.000000   0.003798  -0.000146  -0.002988  -0.004441
    21  H   -0.000000  -0.000000  -0.000593   0.001674   0.000662   0.005776
    22  H   -0.000046   0.000003   0.000002  -0.000000   0.000000   0.000000
    23  H    0.000002  -0.000000   0.000000   0.000000  -0.000000  -0.000000
    24  H   -0.000050  -0.000007  -0.000000   0.000000   0.000000   0.000000
    25  H   -0.006753   0.005083   0.000000  -0.000000   0.000000   0.000000
    26  H   -0.031031   0.383201   0.000000  -0.000000  -0.000000  -0.000000
    27  H   -0.038372   0.367890   0.000000   0.000000  -0.000000   0.000000
    28  H   -0.032596   0.361739  -0.000001   0.000001  -0.000000   0.000000
    29  H    0.000000  -0.000000   0.382586  -0.039574  -0.000011   0.000057
    30  H   -0.000000   0.000000   0.380493  -0.044056  -0.000023  -0.000214
    31  H   -0.000000   0.000000  -0.035635   0.374150  -0.000000  -0.000001
    32  H    0.000000  -0.000000  -0.029711   0.355160  -0.000000  -0.000001
    33  H    0.000001   0.000002  -0.025879   0.378262   0.000000   0.000001
             19         20         21         22         23         24
     1  C    0.375127  -0.035813  -0.054857  -0.000000  -0.000000  -0.000000
     2  C   -0.032935   0.379751   0.375590   0.000101  -0.000000   0.000000
     3  N   -0.003830  -0.027709  -0.057668  -0.000099  -0.000000   0.000000
     4  C   -0.000151  -0.007648   0.001360   0.000059  -0.000000   0.000000
     5  O   -0.000000   0.000165   0.000012   0.000008   0.000000  -0.000000
     6  O   -0.000013   0.012310   0.000551  -0.002029  -0.000061   0.000001
     7  C    0.000000  -0.000108   0.000108  -0.035767   0.003828   0.000568
     8  C    0.000000   0.000155  -0.000030   0.348451  -0.038918   0.004848
     9  C   -0.000000   0.000004   0.000001  -0.041656   0.357529  -0.041875
    10  C    0.000000   0.000000   0.000000   0.005080  -0.041927   0.358183
    11  C    0.000000  -0.000002  -0.000000   0.000164   0.005060  -0.039005
    12  C   -0.000000   0.000018   0.000004   0.005657   0.000539   0.003478
    13  O   -0.000000  -0.000001  -0.000000  -0.000046   0.000002  -0.000050
    14  C    0.000000   0.000000  -0.000000   0.000003  -0.000000  -0.000007
    15  C    0.002325   0.003798  -0.000593   0.000002   0.000000  -0.000000
    16  C   -0.000057  -0.000146   0.001674  -0.000000   0.000000   0.000000
    17  H   -0.029753  -0.002988   0.000662   0.000000  -0.000000   0.000000
    18  H   -0.031616  -0.004441   0.005776   0.000000  -0.000000   0.000000
    19  H    0.568920   0.004685  -0.005709   0.000000  -0.000000   0.000000
    20  H    0.004685   0.525359  -0.034827   0.000944  -0.000000  -0.000000
    21  H   -0.005709  -0.034827   0.626639   0.000052  -0.000000  -0.000000
    22  H    0.000000   0.000944   0.000052   0.587197  -0.006083  -0.000188
    23  H   -0.000000  -0.000000  -0.000000  -0.006083   0.597153  -0.005346
    24  H    0.000000  -0.000000  -0.000000  -0.000188  -0.005346   0.595836
    25  H   -0.000000   0.000000   0.000000   0.000013  -0.000196  -0.005728
    26  H    0.000000  -0.000000  -0.000000  -0.000000  -0.000000  -0.000000
    27  H   -0.000000  -0.000000   0.000000  -0.000000   0.000000   0.000007
    28  H   -0.000000   0.000000   0.000000   0.000000   0.000000  -0.000001
    29  H    0.004943   0.000276   0.001425  -0.000000  -0.000000   0.000000
    30  H   -0.000247  -0.000211  -0.000429  -0.000000   0.000000  -0.000000
    31  H   -0.000004  -0.000044   0.000067  -0.000000   0.000000  -0.000000
    32  H    0.000005   0.000003  -0.000086   0.000000   0.000000  -0.000000
    33  H    0.000002   0.000003   0.000004  -0.000000   0.000000  -0.000000
             25         26         27         28         29         30
     1  C    0.000000   0.000000   0.000000  -0.000000  -0.002449   0.001400
     2  C    0.000000  -0.000000  -0.000000  -0.000000  -0.002218   0.003301
     3  N   -0.000000  -0.000001   0.000000   0.000003  -0.039686  -0.045511
     4  C   -0.000009  -0.000070   0.000029  -0.000024   0.004270  -0.003365
     5  O   -0.000002   0.000425   0.000095   0.001393   0.000346   0.001582
     6  O   -0.000040  -0.000003  -0.000002  -0.000026  -0.000040  -0.000047
     7  C    0.003505   0.000150  -0.000686   0.001045   0.000002  -0.000005
     8  C    0.000582   0.000005   0.000011  -0.000053  -0.000000   0.000000
     9  C    0.004678   0.000000  -0.000003  -0.000010   0.000000  -0.000000
    10  C   -0.039470   0.000001  -0.000051  -0.000159  -0.000000  -0.000000
    11  C    0.353391   0.000002   0.003347   0.004747   0.000000   0.000000
    12  C   -0.040017   0.004032  -0.007212  -0.002495   0.000000  -0.000000
    13  O   -0.006753  -0.031031  -0.038372  -0.032596   0.000000  -0.000000
    14  C    0.005083   0.383201   0.367890   0.361739  -0.000000   0.000000
    15  C    0.000000   0.000000   0.000000  -0.000001   0.382586   0.380493
    16  C   -0.000000  -0.000000   0.000000   0.000001  -0.039574  -0.044056
    17  H    0.000000  -0.000000  -0.000000  -0.000000  -0.000011  -0.000023
    18  H    0.000000  -0.000000   0.000000   0.000000   0.000057  -0.000214
    19  H   -0.000000   0.000000  -0.000000  -0.000000   0.004943  -0.000247
    20  H    0.000000  -0.000000  -0.000000   0.000000   0.000276  -0.000211
    21  H    0.000000  -0.000000   0.000000   0.000000   0.001425  -0.000429
    22  H    0.000013  -0.000000  -0.000000   0.000000  -0.000000  -0.000000
    23  H   -0.000196  -0.000000   0.000000   0.000000  -0.000000   0.000000
    24  H   -0.005728  -0.000000   0.000007  -0.000001   0.000000  -0.000000
    25  H    0.583949  -0.000098   0.001759   0.000976  -0.000000  -0.000000
    26  H   -0.000098   0.541912  -0.039486  -0.027364  -0.000000   0.000000
    27  H    0.001759  -0.039486   0.619058  -0.045975   0.000000  -0.000000
    28  H    0.000976  -0.027364  -0.045975   0.580439   0.000000  -0.000000
    29  H   -0.000000  -0.000000   0.000000   0.000000   0.581691  -0.038356
    30  H   -0.000000   0.000000  -0.000000  -0.000000  -0.038356   0.586157
    31  H   -0.000000   0.000000  -0.000000  -0.000000  -0.002791   0.005126
    32  H    0.000000  -0.000000   0.000000  -0.000000  -0.004218   0.000997
    33  H   -0.000000   0.000001   0.000000   0.000005   0.004544  -0.006415
             31         32         33
     1  C    0.000044   0.000006  -0.000011
     2  C    0.000554  -0.000089  -0.000094
     3  N   -0.000078   0.003717  -0.003582
     4  C    0.000918   0.000367   0.000983
     5  O   -0.000943   0.000602   0.011977
     6  O   -0.000058   0.000001   0.000085
     7  C   -0.000001  -0.000000   0.000003
     8  C    0.000003   0.000000  -0.000001
     9  C   -0.000000  -0.000000  -0.000000
    10  C   -0.000000  -0.000000   0.000000
    11  C    0.000000   0.000000   0.000000
    12  C    0.000001  -0.000000  -0.000003
    13  O   -0.000000   0.000000   0.000001
    14  C    0.000000  -0.000000   0.000002
    15  C   -0.035635  -0.029711  -0.025879
    16  C    0.374150   0.355160   0.378262
    17  H   -0.000000  -0.000000   0.000000
    18  H   -0.000001  -0.000001   0.000001
    19  H   -0.000004   0.000005   0.000002
    20  H   -0.000044   0.000003   0.000003
    21  H    0.000067  -0.000086   0.000004
    22  H   -0.000000   0.000000  -0.000000
    23  H    0.000000   0.000000   0.000000
    24  H   -0.000000  -0.000000  -0.000000
    25  H   -0.000000   0.000000  -0.000000
    26  H    0.000000  -0.000000   0.000001
    27  H   -0.000000   0.000000   0.000000
    28  H   -0.000000  -0.000000   0.000005
    29  H   -0.002791  -0.004218   0.004544
    30  H    0.005126   0.000997  -0.006415
    31  H    0.570436  -0.028041  -0.027876
    32  H   -0.028041   0.596796  -0.029728
    33  H   -0.027876  -0.029728   0.503349
 Mulliken atomic charges:
              1
     1  C   -0.448561
     2  C   -0.140235
     3  N   -0.447482
     4  C    0.782501
     5  O   -0.496241
     6  O   -0.565618
     7  C    0.296714
     8  C   -0.172716
     9  C   -0.139392
    10  C   -0.128714
    11  C   -0.197947
    12  C    0.374826
    13  O   -0.495752
    14  C   -0.209256
    15  C   -0.124047
    16  C   -0.454272
    17  H    0.149348
    18  H    0.159522
    19  H    0.148309
    20  H    0.186464
    21  H    0.140274
    22  H    0.138139
    23  H    0.128421
    24  H    0.129278
    25  H    0.138378
    26  H    0.168325
    27  H    0.139588
    28  H    0.158356
    29  H    0.149204
    30  H    0.159822
    31  H    0.144175
    32  H    0.134220
    33  H    0.194368
 Sum of Mulliken atomic charges =  -0.00000
 Mulliken charges with hydrogens summed into heavy atoms:
              1
     1  C    0.008618
     2  C    0.186503
     3  N   -0.447482
     4  C    0.782501
     5  O   -0.496241
     6  O   -0.565618
     7  C    0.296714
     8  C   -0.034577
     9  C   -0.010971
    10  C    0.000565
    11  C   -0.059569
    12  C    0.374826
    13  O   -0.495752
    14  C    0.257012
    15  C    0.184978
    16  C    0.018492
 Sum of Mulliken charges with hydrogens summed into heavy atoms =  -0.00000
 Electronic spatial extent (au):  <R**2>=           4281.8219
 Charge=             -0.0000 electrons
 Dipole moment (field-independent basis, Debye):
    X=             -0.7513    Y=             -0.9360    Z=              0.9627  Tot=              1.5386
 Quadrupole moment (field-independent basis, Debye-Ang):
   XX=            -79.0824   YY=            -88.1664   ZZ=            -97.4372
   XY=              4.6519   XZ=              1.4448   YZ=             -1.7970
 Traceless Quadrupole moment (field-independent basis, Debye-Ang):
   XX=              9.1463   YY=              0.0623   ZZ=             -9.2086
   XY=              4.6519   XZ=              1.4448   YZ=             -1.7970
 Octapole moment (field-independent basis, Debye-Ang**2):
  XXX=             -0.4364  YYY=             11.5519  ZZZ=             -8.1889  XYY=             10.2370
  XXY=             12.6418  XXZ=              8.8953  XZZ=             -7.9511  YZZ=              3.8159
  YYZ=             -1.6165  XYZ=             -8.8223
 Hexadecapole moment (field-independent basis, Debye-Ang**3):
 XXXX=          -3702.7840 YYYY=          -1229.8797 ZZZZ=           -515.0039 XXXY=             29.7237
 XXXZ=             15.6251 YYYX=             41.9821 YYYZ=            -32.2213 ZZZX=             -6.9241
 ZZZY=             -2.5063 XXYY=           -818.5597 XXZZ=           -752.9808 YYZZ=           -298.4512
 XXYZ=            -22.7850 YYXZ=              7.7518 ZZXY=              2.5875
 N-N= 1.138716983128D+03 E-N=-4.019188662779D+03  KE= 7.408038317159D+02
 No NMR shielding tensors so no spin-rotation constants.
 Leave Link  601 at Wed Sep 29 19:18:06 2021, MaxMem= 1342177280 cpu:       1.8
 (Enter /sw/target/amd/app/gaussian/Gaussian09RevA.02_gcc-4.9.2/g09/l701.exe)
 Compute integral first derivatives.
 ... and contract with generalized density number  0.
 Leave Link  701 at Wed Sep 29 19:18:08 2021, MaxMem= 1342177280 cpu:       1.7
 (Enter /sw/target/amd/app/gaussian/Gaussian09RevA.02_gcc-4.9.2/g09/l702.exe)
 L702 exits ... SP integral derivatives will be done elsewhere.
 Leave Link  702 at Wed Sep 29 19:18:09 2021, MaxMem= 1342177280 cpu:       0.1
 (Enter /sw/target/amd/app/gaussian/Gaussian09RevA.02_gcc-4.9.2/g09/l703.exe)
 Compute integral first derivatives, UseDBF=F ICtDFT=           0.
 Integral derivatives from FoFDir, PRISM(SPDF).
 Calling FoFJK, ICntrl=      2127 FMM=F ISym2X=0 I1Cent= 0 IOpClX= 0 NMat=1 NMatS=1 NMatT=0.
 FoFCou: FMM=F IPFlag=           0 FMFlag=      100000 FMFlg1=         800
         NFxFlg=           0 DoJE=F BraDBF=F KetDBF=F FulRan=T
         Omega=  0.000000  0.000000  1.000000  0.000000  0.000000 ICntrl=    2127 IOpCl=  0
         NMat0=    1 NMatS0=    1 NMatT0=    0 NMatD0=    1 NMtDS0=    0 NMtDT0=    0
         I1Cent=           0 NGrid=           0.
 Symmetry not used in FoFCou.
 Leave Link  703 at Wed Sep 29 19:20:09 2021, MaxMem= 1342177280 cpu:     124.7
 (Enter /sw/target/amd/app/gaussian/Gaussian09RevA.02_gcc-4.9.2/g09/l716.exe)
 Dipole        =-2.95585949D-01-3.68242123D-01 3.78760940D-01
 ***** Axes restored to original set *****
 -------------------------------------------------------------------
 Center     Atomic                   Forces (Hartrees/Bohr)
 Number     Number              X              Y              Z
 -------------------------------------------------------------------
      1        6           0.003790563    0.003173364   -0.001469113
      2        6          -0.005841051    0.000795408    0.002067538
      3        7          -0.026762888   -0.015066767   -0.013382402
      4        6           0.015077083    0.002942606    0.013442498
      5        8          -0.010264110    0.013010681    0.001508253
      6        8           0.009666791   -0.005352101   -0.002295046
      7        6           0.003797940    0.016276976    0.010269372
      8        6           0.000495922   -0.001898667   -0.001843864
      9        6          -0.002073798   -0.001592025    0.000305169
     10        6           0.002258809    0.000339362   -0.002208772
     11        6          -0.008401659   -0.003977035    0.006557955
     12        6           0.002664757   -0.000012008   -0.014486752
     13        8          -0.001050790   -0.005586004    0.005893159
     14        6           0.003764830    0.001250150   -0.006467914
     15        6           0.003161324   -0.007164315   -0.004379939
     16        6           0.005428132   -0.008188068   -0.000851079
     17        1           0.000008750    0.000022125    0.000367125
     18        1           0.000145411   -0.000602050   -0.000844533
     19        1           0.001751080    0.001316136   -0.000337458
     20        1           0.006143188   -0.006875074    0.000569491
     21        1          -0.001176249    0.004301861    0.006084980
     22        1           0.004085959   -0.000727785   -0.001943726
     23        1           0.001090099    0.000623862    0.000435458
     24        1           0.000766637   -0.000309787   -0.000484163
     25        1           0.002233612    0.002217140   -0.001468913
     26        1          -0.001897831    0.003914826    0.000582038
     27        1          -0.000621568   -0.004523714    0.000705834
     28        1          -0.002564978    0.000569864    0.000705669
     29        1          -0.004951628    0.002909587   -0.003133090
     30        1           0.002890211    0.000604943    0.001466603
     31        1           0.000096547    0.000788484    0.001636900
     32        1          -0.000048672    0.004354425    0.002122997
     33        1          -0.003662423    0.002463600    0.000875723
 -------------------------------------------------------------------
 Cartesian Forces:  Max     0.026762888 RMS     0.005859979
 Leave Link  716 at Wed Sep 29 19:20:09 2021, MaxMem= 1342177280 cpu:       0.1
[...]
     7    C    1  py     Val( 2p)     1.08706
     8    C    1  py     Ryd( 3p)     0.00099
     9    C    1  pz     Val( 2p)     1.23691
    10    C    1  pz     Ryd( 3p)     0.00137
    11    C    1  dxy    Ryd( 3d)     0.00054
    12    C    1  dxz    Ryd( 3d)     0.00048
    13    C    1  dyz    Ryd( 3d)     0.00059
    14    C    1  dx2y2  Ryd( 3d)     0.00080
    15    C    1  dz2    Ryd( 3d)     0.00082

    16    C    2  S      Cor( 1S)     1.99935
    17    C    2  S      Val( 2S)     1.01677
    18    C    2  S      Ryd( 3S)     0.00128
    19    C    2  S      Ryd( 4S)     0.00003
    20    C    2  px     Val( 2p)     1.22669
    21    C    2  px     Ryd( 3p)     0.00527
    22    C    2  py     Val( 2p)     1.07321
    23    C    2  py     Ryd( 3p)     0.00149
    24    C    2  pz     Val( 2p)     0.92661
    25    C    2  pz     Ryd( 3p)     0.00226
    26    C    2  dxy    Ryd( 3d)     0.00064
    27    C    2  dxz    Ryd( 3d)     0.00065
    28    C    2  dyz    Ryd( 3d)     0.00138
    29    C    2  dx2y2  Ryd( 3d)     0.00105
    30    C    2  dz2    Ryd( 3d)     0.00119

    31    N    3  S      Cor( 1S)     1.99929
    32    N    3  S      Val( 2S)     1.20421
    33    N    3  S      Ryd( 3S)     0.00160
    34    N    3  S      Ryd( 4S)     0.00006
    35    N    3  px     Val( 2p)     1.32102
    36    N    3  px     Ryd( 3p)     0.00165
    37    N    3  py     Val( 2p)     1.65449
    38    N    3  py     Ryd( 3p)     0.00568
    39    N    3  pz     Val( 2p)     1.31243
    40    N    3  pz     Ryd( 3p)     0.00162
    41    N    3  dxy    Ryd( 3d)     0.00062
    42    N    3  dxz    Ryd( 3d)     0.00064
    43    N    3  dyz    Ryd( 3d)     0.00044
    44    N    3  dx2y2  Ryd( 3d)     0.00061
    45    N    3  dz2    Ryd( 3d)     0.00070

    46    C    4  S      Cor( 1S)     1.99936
    47    C    4  S      Val( 2S)     0.69757
    48    C    4  S      Ryd( 3S)     0.00300
    49    C    4  S      Ryd( 4S)     0.00059
    50    C    4  px     Val( 2p)     0.77536
    51    C    4  px     Ryd( 3p)     0.00639
    52    C    4  py     Val( 2p)     0.82379
    53    C    4  py     Ryd( 3p)     0.00383
    54    C    4  pz     Val( 2p)     0.71665
    55    C    4  pz     Ryd( 3p)     0.02145
    56    C    4  dxy    Ryd( 3d)     0.00218
    57    C    4  dxz    Ryd( 3d)     0.00372
    58    C    4  dyz    Ryd( 3d)     0.00227
    59    C    4  dx2y2  Ryd( 3d)     0.00120
    60    C    4  dz2    Ryd( 3d)     0.00222

    61    O    5  S      Cor( 1S)     1.99977
    62    O    5  S      Val( 2S)     1.70182
    63    O    5  S      Ryd( 3S)     0.00043
    64    O    5  S      Ryd( 4S)     0.00015
    65    O    5  px     Val( 2p)     1.78708
    66    O    5  px     Ryd( 3p)     0.00082
    67    O    5  py     Val( 2p)     1.54358
    68    O    5  py     Ryd( 3p)     0.00082
    69    O    5  pz     Val( 2p)     1.59282
    70    O    5  pz     Ryd( 3p)     0.00048
    71    O    5  dxy    Ryd( 3d)     0.00082
    72    O    5  dxz    Ryd( 3d)     0.00457
    73    O    5  dyz    Ryd( 3d)     0.00456
    74    O    5  dx2y2  Ryd( 3d)     0.00081
    75    O    5  dz2    Ryd( 3d)     0.00561

    76    O    6  S      Cor( 1S)     1.99970
    77    O    6  S      Val( 2S)     1.59995
    78    O    6  S      Ryd( 3S)     0.00095
    79    O    6  S      Ryd( 4S)     0.00014
    80    O    6  px     Val( 2p)     1.42746
    81    O    6  px     Ryd( 3p)     0.00077
    82    O    6  py     Val( 2p)     1.83454
    83    O    6  py     Ryd( 3p)     0.00234
    84    O    6  pz     Val( 2p)     1.68320
    85    O    6  pz     Ryd( 3p)     0.00131
    86    O    6  dxy    Ryd( 3d)     0.00032
    87    O    6  dxz    Ryd( 3d)     0.00148
    88    O    6  dyz    Ryd( 3d)     0.00155
    89    O    6  dx2y2  Ryd( 3d)     0.00061
    90    O    6  dz2    Ryd( 3d)     0.00140

    91    C    7  S      Cor( 1S)     1.99870
    92    C    7  S      Val( 2S)     0.83184
    93    C    7  S      Ryd( 3S)     0.00149
    94    C    7  S      Ryd( 4S)     0.00013
    95    C    7  px     Val( 2p)     0.75365
    96    C    7  px     Ryd( 3p)     0.00773
    97    C    7  py     Val( 2p)     1.06952
    98    C    7  py     Ryd( 3p)     0.00473
    99    C    7  pz     Val( 2p)     1.06875
   100    C    7  pz     Ryd( 3p)     0.00679
   101    C    7  dxy    Ryd( 3d)     0.00155
   102    C    7  dxz    Ryd( 3d)     0.00122
   103    C    7  dyz    Ryd( 3d)     0.00079
   104    C    7  dx2y2  Ryd( 3d)     0.00148
   105    C    7  dz2    Ryd( 3d)     0.00072

   106    C    8  S      Cor( 1S)     1.99904
   107    C    8  S      Val( 2S)     0.96215
   108    C    8  S      Ryd( 3S)     0.00081
   109    C    8  S      Ryd( 4S)     0.00006
   110    C    8  px     Val( 2p)     1.09785
   111    C    8  px     Ryd( 3p)     0.00508
   112    C    8  py     Val( 2p)     1.13312
   113    C    8  py     Ryd( 3p)     0.00501
   114    C    8  pz     Val( 2p)     1.11311
   115    C    8  pz     Ryd( 3p)     0.00614
   116    C    8  dxy    Ryd( 3d)     0.00068
   117    C    8  dxz    Ryd( 3d)     0.00057
   118    C    8  dyz    Ryd( 3d)     0.00061
   119    C    8  dx2y2  Ryd( 3d)     0.00059
   120    C    8  dz2    Ryd( 3d)     0.00042

   121    C    9  S      Cor( 1S)     1.99912
   122    C    9  S      Val( 2S)     0.97095
   123    C    9  S      Ryd( 3S)     0.00050
   124    C    9  S      Ryd( 4S)     0.00004
   125    C    9  px     Val( 2p)     1.07708
   126    C    9  px     Ryd( 3p)     0.00464
   127    C    9  py     Val( 2p)     1.14142
   128    C    9  py     Ryd( 3p)     0.00450
   129    C    9  pz     Val( 2p)     0.96454
   130    C    9  pz     Ryd( 3p)     0.00303
   131    C    9  dxy    Ryd( 3d)     0.00086
   132    C    9  dxz    Ryd( 3d)     0.00075
   133    C    9  dyz    Ryd( 3d)     0.00046
   134    C    9  dx2y2  Ryd( 3d)     0.00067
   135    C    9  dz2    Ryd( 3d)     0.00059

   136    C   10  S      Cor( 1S)     1.99915
   137    C   10  S      Val( 2S)     0.96020
   138    C   10  S      Ryd( 3S)     0.00066
   139    C   10  S      Ryd( 4S)     0.00003
   140    C   10  px     Val( 2p)     1.18489
   141    C   10  px     Ryd( 3p)     0.00476
   142    C   10  py     Val( 2p)     1.04871
   143    C   10  py     Ryd( 3p)     0.00534
   144    C   10  pz     Val( 2p)     1.05500
   145    C   10  pz     Ryd( 3p)     0.00527
   146    C   10  dxy    Ryd( 3d)     0.00061
   147    C   10  dxz    Ryd( 3d)     0.00042
   148    C   10  dyz    Ryd( 3d)     0.00057
   149    C   10  dx2y2  Ryd( 3d)     0.00082
   150    C   10  dz2    Ryd( 3d)     0.00054

   151    C   11  S      Cor( 1S)     1.99907
   152    C   11  S      Val( 2S)     0.95819
   153    C   11  S      Ryd( 3S)     0.00066
   154    C   11  S      Ryd( 4S)     0.00005
   155    C   11  px     Val( 2p)     1.08565
   156    C   11  px     Ryd( 3p)     0.00447
   157    C   11  py     Val( 2p)     1.15350
   158    C   11  py     Ryd( 3p)     0.00392
   159    C   11  pz     Val( 2p)     1.12815
   160    C   11  pz     Ryd( 3p)     0.00552
   161    C   11  dxy    Ryd( 3d)     0.00055
   162    C   11  dxz    Ryd( 3d)     0.00060
   163    C   11  dyz    Ryd( 3d)     0.00057
   164    C   11  dx2y2  Ryd( 3d)     0.00072
   165    C   11  dz2    Ryd( 3d)     0.00043

   166    C   12  S      Cor( 1S)     1.99872
   167    C   12  S      Val( 2S)     0.84178
   168    C   12  S      Ryd( 3S)     0.00186
   169    C   12  S      Ryd( 4S)     0.00014
   170    C   12  px     Val( 2p)     1.00158
   171    C   12  px     Ryd( 3p)     0.00728
   172    C   12  py     Val( 2p)     0.83920
   173    C   12  py     Ryd( 3p)     0.00451
   174    C   12  pz     Val( 2p)     0.99152
   175    C   12  pz     Ryd( 3p)     0.00262
   176    C   12  dxy    Ryd( 3d)     0.00180
   177    C   12  dxz    Ryd( 3d)     0.00134
   178    C   12  dyz    Ryd( 3d)     0.00121
   179    C   12  dx2y2  Ryd( 3d)     0.00132
   180    C   12  dz2    Ryd( 3d)     0.00093

   181    O   13  S      Cor( 1S)     1.99974
   182    O   13  S      Val( 2S)     1.59577
   183    O   13  S      Ryd( 3S)     0.00085
   184    O   13  S      Ryd( 4S)     0.00008
   185    O   13  px     Val( 2p)     1.73693
   186    O   13  px     Ryd( 3p)     0.00250
   187    O   13  py     Val( 2p)     1.42301
   188    O   13  py     Ryd( 3p)     0.00102
   189    O   13  pz     Val( 2p)     1.66838
   190    O   13  pz     Ryd( 3p)     0.00220
   191    O   13  dxy    Ryd( 3d)     0.00129
   192    O   13  dxz    Ryd( 3d)     0.00159
   193    O   13  dyz    Ryd( 3d)     0.00052
   194    O   13  dx2y2  Ryd( 3d)     0.00128
   195    O   13  dz2    Ryd( 3d)     0.00073

   196    C   14  S      Cor( 1S)     1.99942
   197    C   14  S      Val( 2S)     1.10463
   198    C   14  S      Ryd( 3S)     0.00149
   199    C   14  S      Ryd( 4S)     0.00003
   200    C   14  px     Val( 2p)     1.14809
   201    C   14  px     Ryd( 3p)     0.00309
   202    C   14  py     Val( 2p)     0.92328
   203    C   14  py     Ryd( 3p)     0.00219
   204    C   14  pz     Val( 2p)     1.13265
   205    C   14  pz     Ryd( 3p)     0.00091
   206    C   14  dxy    Ryd( 3d)     0.00184
   207    C   14  dxz    Ryd( 3d)     0.00119
   208    C   14  dyz    Ryd( 3d)     0.00135
   209    C   14  dx2y2  Ryd( 3d)     0.00089
   210    C   14  dz2    Ryd( 3d)     0.00121

   211    C   15  S      Cor( 1S)     1.99935
   212    C   15  S      Val( 2S)     1.01664
   213    C   15  S      Ryd( 3S)     0.00122
   214    C   15  S      Ryd( 4S)     0.00003
   215    C   15  px     Val( 2p)     1.01140
   216    C   15  px     Ryd( 3p)     0.00365
   217    C   15  py     Val( 2p)     1.12748
   218    C   15  py     Ryd( 3p)     0.00180
   219    C   15  pz     Val( 2p)     1.08336
   220    C   15  pz     Ryd( 3p)     0.00372
   221    C   15  dxy    Ryd( 3d)     0.00134
   222    C   15  dxz    Ryd( 3d)     0.00139
   223    C   15  dyz    Ryd( 3d)     0.00069
   224    C   15  dx2y2  Ryd( 3d)     0.00062
   225    C   15  dz2    Ryd( 3d)     0.00087

   226    C   16  S      Cor( 1S)     1.99945
   227    C   16  S      Val( 2S)     1.11109
   228    C   16  S      Ryd( 3S)     0.00042
   229    C   16  S      Ryd( 4S)     0.00001
   230    C   16  px     Val( 2p)     1.20303
   231    C   16  px     Ryd( 3p)     0.00129
   232    C   16  py     Val( 2p)     1.12843
   233    C   16  py     Ryd( 3p)     0.00096
   234    C   16  pz     Val( 2p)     1.23750
   235    C   16  pz     Ryd( 3p)     0.00151
   236    C   16  dxy    Ryd( 3d)     0.00083
   237    C   16  dxz    Ryd( 3d)     0.00103
   238    C   16  dyz    Ryd( 3d)     0.00031
   239    C   16  dx2y2  Ryd( 3d)     0.00042
   240    C   16  dz2    Ryd( 3d)     0.00063

   241    H   17  S      Val( 1S)     0.76691
   242    H   17  S      Ryd( 2S)     0.00096

   243    H   18  S      Val( 1S)     0.75629
   244    H   18  S      Ryd( 2S)     0.00169

   245    H   19  S      Val( 1S)     0.77482
   246    H   19  S      Ryd( 2S)     0.00096

   247    H   20  S      Val( 1S)     0.74540
   248    H   20  S      Ryd( 2S)     0.00153

   249    H   21  S      Val( 1S)     0.76939
   250    H   21  S      Ryd( 2S)     0.00147

   251    H   22  S      Val( 1S)     0.75946
   252    H   22  S      Ryd( 2S)     0.00106

   253    H   23  S      Val( 1S)     0.76657
   254    H   23  S      Ryd( 2S)     0.00083

   255    H   24  S      Val( 1S)     0.76873
   256    H   24  S      Ryd( 2S)     0.00084

   257    H   25  S      Val( 1S)     0.77071
   258    H   25  S      Ryd( 2S)     0.00097

   259    H   26  S      Val( 1S)     0.76737
   260    H   26  S      Ryd( 2S)     0.00053

   261    H   27  S      Val( 1S)     0.78268
   262    H   27  S      Ryd( 2S)     0.00194

   263    H   28  S      Val( 1S)     0.77741
   264    H   28  S      Ryd( 2S)     0.00198

   265    H   29  S      Val( 1S)     0.77485
   266    H   29  S      Ryd( 2S)     0.00144

   267    H   30  S      Val( 1S)     0.74135
   268    H   30  S      Ryd( 2S)     0.00209

   269    H   31  S      Val( 1S)     0.77530
   270    H   31  S      Ryd( 2S)     0.00098

   271    H   32  S      Val( 1S)     0.76663
   272    H   32  S      Ryd( 2S)     0.00092

   273    H   33  S      Val( 1S)     0.75650
   274    H   33  S      Ryd( 2S)     0.00125

 WARNING:  1 low occupancy (<1.9990e) core orbital  found on  C    7
           1 low occupancy (<1.9990e) core orbital  found on  C   12


 Summary of Natural Population Analysis:                  
                                                          
                                       Natural Population 
                Natural  -----------------------------------------------
    Atom  No    Charge         Core      Valence    Rydberg      Total
 -----------------------------------------------------------------------
      C    1   -0.68888      1.99945     4.68201    0.00742     6.68888
      C    2   -0.25789      1.99935     4.24329    0.01525     6.25789
      N    3   -0.50505      1.99929     5.49214    0.01362     7.50505
      C    4    0.94041      1.99936     3.01337    0.04686     5.05959
      O    5   -0.64416      1.99977     6.62531    0.01908     8.64416
      O    6   -0.55571      1.99970     6.54514    0.01086     8.55571
      C    7    0.25091      1.99870     3.72376    0.02663     5.74909
      C    8   -0.32523      1.99904     4.30623    0.01996     6.32523
      C    9   -0.16915      1.99912     4.15398    0.01604     6.16915
      C   10   -0.26697      1.99915     4.24881    0.01901     6.26697
      C   11   -0.34205      1.99907     4.32548    0.01749     6.34205
      C   12    0.30419      1.99872     3.67408    0.02301     5.69581
      O   13   -0.43587      1.99974     6.42409    0.01204     8.43587
      C   14   -0.32225      1.99942     4.30865    0.01418     6.32225
      C   15   -0.25356      1.99935     4.23887    0.01534     6.25356
      C   16   -0.68692      1.99945     4.68006    0.00742     6.68692
      H   17    0.23213      0.00000     0.76691    0.00096     0.76787
      H   18    0.24201      0.00000     0.75629    0.00169     0.75799
      H   19    0.22422      0.00000     0.77482    0.00096     0.77578
      H   20    0.25307      0.00000     0.74540    0.00153     0.74693
      H   21    0.22914      0.00000     0.76939    0.00147     0.77086
      H   22    0.23948      0.00000     0.75946    0.00106     0.76052
      H   23    0.23260      0.00000     0.76657    0.00083     0.76740
      H   24    0.23042      0.00000     0.76873    0.00084     0.76958
      H   25    0.22833      0.00000     0.77071    0.00097     0.77167
      H   26    0.23210      0.00000     0.76737    0.00053     0.76790
      H   27    0.21538      0.00000     0.78268    0.00194     0.78462
      H   28    0.22061      0.00000     0.77741    0.00198     0.77939
      H   29    0.22371      0.00000     0.77485    0.00144     0.77629
      H   30    0.25656      0.00000     0.74135    0.00209     0.74344
      H   31    0.22372      0.00000     0.77530    0.00098     0.77628
      H   32    0.23245      0.00000     0.76663    0.00092     0.76755
      H   33    0.24225      0.00000     0.75650    0.00125     0.75775
 =======================================================================
   * Total *   -0.00000     31.98868    87.70566    0.30566   120.00000

                                 Natural Population      
 --------------------------------------------------------
   Core                      31.98868 ( 99.9646% of  32)
   Valence                   87.70566 ( 99.6655% of  88)
   Natural Minimal Basis    119.69434 ( 99.7453% of 120)
   Natural Rydberg Basis      0.30566 (  0.2547% of 120)
 --------------------------------------------------------

    Atom  No          Natural Electron Configuration
 ----------------------------------------------------------------------------
      C    1      [core]2S( 1.11)2p( 3.57)
      C    2      [core]2S( 1.02)2p( 3.23)3p( 0.01)
      N    3      [core]2S( 1.20)2p( 4.29)3p( 0.01)
      C    4      [core]2S( 0.70)2p( 2.32)3p( 0.03)3d( 0.01)
      O    5      [core]2S( 1.70)2p( 4.92)3d( 0.02)
      O    6      [core]2S( 1.60)2p( 4.95)3d( 0.01)
      C    7      [core]2S( 0.83)2p( 2.89)3p( 0.02)3d( 0.01)
      C    8      [core]2S( 0.96)2p( 3.34)3p( 0.02)
      C    9      [core]2S( 0.97)2p( 3.18)3p( 0.01)
      C   10      [core]2S( 0.96)2p( 3.29)3p( 0.02)
      C   11      [core]2S( 0.96)2p( 3.37)3p( 0.01)
      C   12      [core]2S( 0.84)2p( 2.83)3p( 0.01)3d( 0.01)
      O   13      [core]2S( 1.60)2p( 4.83)3p( 0.01)3d( 0.01)
      C   14      [core]2S( 1.10)2p( 3.20)3p( 0.01)3d( 0.01)
      C   15      [core]2S( 1.02)2p( 3.22)3p( 0.01)
      C   16      [core]2S( 1.11)2p( 3.57)
      H   17            1S( 0.77)
      H   18            1S( 0.76)
      H   19            1S( 0.77)
      H   20            1S( 0.75)
      H   21            1S( 0.77)
      H   22            1S( 0.76)
      H   23            1S( 0.77)
      H   24            1S( 0.77)
      H   25            1S( 0.77)
      H   26            1S( 0.77)
      H   27            1S( 0.78)
      H   28            1S( 0.78)
      H   29            1S( 0.77)
      H   30            1S( 0.74)
      H   31            1S( 0.78)
      H   32            1S( 0.77)
      H   33            1S( 0.76)


 NBO analysis skipped by request.
 Leave Link  607 at Thu Sep 30 05:36:25 2021, MaxMem= 1342177280 cpu:      21.0
 (Enter /sw/target/amd/app/gaussian/Gaussian09RevA.02_gcc-4.9.2/g09/l9999.exe)
 1\1\GINC-HERMITE\SP\RTD-B3LYP-FC\6-31G(d)\C12H17N1O3\JSCHLEINITZ\30-Se
 p-2021\0\\#p TD(NStates=10, Root=1) b3lyp/6-31G* volume pop=NPA densit
 y=current Geom=AllCheck Guess=Read\\CCN(C(=O)Oc1ccccc1OC)CC_conf_0\\0,
 1\C,0,2.1825163669,1.0750886518,-0.8780635518\C,0,2.2143517834,0.87631
 24424,0.640295412\N,0,2.8068687657,-0.4050649178,1.0376388164\C,0,2.10
 66623998,-1.5729997334,1.0628764094\O,0,2.5606991153,-2.6722378389,1.3
 121385001\O,0,0.7676906284,-1.3423757202,0.7887311371\C,0,-0.029224388
 ,-2.4596385808,0.5795630948\C,0,-0.944965243,-2.842265607,1.5465154667
 \C,0,-1.8097068948,-3.9149708542,1.3070500973\C,0,-1.736648218,-4.5944
 593908,0.0946740675\C,0,-0.8151496331,-4.2104158264,-0.885736607\C,0,0
 .0456353342,-3.1341867155,-0.6533140475\O,0,0.966840359,-2.6568976762,
 -1.5368679258\C,0,1.1420452068,-3.3558851909,-2.7594507003\C,0,4.24492
 8687,-0.470145304,1.3123186735\C,0,4.5799799382,-0.2598492745,2.790947
 9866\H,0,1.7364155398,2.0448556306,-1.1288539335\H,0,1.5890384033,0.28
 52467424,-1.3479632951\H,0,3.1928341805,1.0464444369,-1.3025114418\H,0
 ,1.20466325,0.9399530185,1.0504338905\H,0,2.8057035459,1.665214584,1.1
 188267497\H,0,-0.9696707595,-2.2919463608,2.4819250657\H,0,-2.52596005
 49,-4.2144994442,2.0660686909\H,0,-2.3995522321,-5.4323224533,-0.10298
 13923\H,0,-0.7760633062,-4.750638354,-1.8248405717\H,0,1.9408784646,-2
 .8342673585,-3.2893206793\H,0,0.2291208082,-3.3360921813,-3.3693963156
 \H,0,1.4396244405,-4.397740471,-2.5854797283\H,0,4.7348146017,0.291322
 8433,0.6942702777\H,0,4.6045842994,-1.4474084006,0.9830084517\H,0,4.21
 47973646,0.70914727,3.1507280704\H,0,5.6648142294,-0.2931047784,2.9461
 800908\H,0,4.1219377552,-1.048226809,3.3961406223\\Version=AM64L-G09Re
 vA.02\State=1-A\HF=-747.9463457\RMSD=8.710e-09\Dipole=0.2100401,0.6245
 228,-1.0989303\Quadrupole=-2.3118893,-0.661475,2.9733643,5.4768525,-1.
 4162895,5.7396435\PG=C01 [X(C12H17N1O3)]\\@


 WHEN A MATHEMATICIAN ENGAGED IN INVESTIGATING
 PHYSICAL ACTIONS AND RESULTS HAS ARRIVED AT HIS
 CONCLUSIONS, MAY THEY NOT BE EXPRESSED IN COMMON
 LANGUAGE AS FULLY, CLEARLY, AND DEFINITELY AS IN
 MATHEMATICAL FORMULAE?
           - LETTER FROM M. FARADAY TO J.C. MAXWELL, 1857.
 Job cpu time:  0 days  4 hours 31 minutes 30.5 seconds.
 File lengths (MBytes):  RWF=    256 Int=      0 D2E=      0 Chk=     35 Scr=      1
 Normal termination of Gaussian 09 at Thu Sep 30 05:36:33 2021.
