 Entering Gaussian System, Link 0=g09
 Input=C12H17NO3_0297_conf_0.com
 Output=C12H17NO3_0297_conf_0.log
 Initial command:
 /sw/target/amd/app/gaussian/Gaussian09RevA.02_gcc-4.9.2/g09/l1.exe /home/jschleinitz/gaussian/Gau-4072263.inp -scrdir=/home/jschleinitz/gaussian/
 Entering Link 1 = /sw/target/amd/app/gaussian/Gaussian09RevA.02_gcc-4.9.2/g09/l1.exe PID=   4072269.
  
 Copyright (c) 1988,1990,1992,1993,1995,1998,2003,2009, Gaussian, Inc.
                  All Rights Reserved.
  
 This is part of the Gaussian(R) 09 program.  It is based on
 the Gaussian(R) 03 system (copyright 2003, Gaussian, Inc.),
 the Gaussian(R) 98 system (copyright 1998, Gaussian, Inc.),
 the Gaussian(R) 94 system (copyright 1995, Gaussian, Inc.),
 the Gaussian 92(TM) system (copyright 1992, Gaussian, Inc.),
 the Gaussian 90(TM) system (copyright 1990, Gaussian, Inc.),
 the Gaussian 88(TM) system (copyright 1988, Gaussian, Inc.),
 the Gaussian 86(TM) system (copyright 1986, Carnegie Mellon
 University), and the Gaussian 82(TM) system (copyright 1983,
 Carnegie Mellon University). Gaussian is a federally registered
 trademark of Gaussian, Inc.
  
 This software contains proprietary and confidential information,
 including trade secrets, belonging to Gaussian, Inc.
  
 This software is provided under written license and may be
 used, copied, transmitted, or stored only in accord with that
 written license.
  
 The following legend is applicable only to US Government
 contracts under FAR:
  
                    RESTRICTED RIGHTS LEGEND
  
 Use, reproduction and disclosure by the US Government is
 subject to restrictions as set forth in subparagraphs (a)
 and (c) of the Commercial Computer Software - Restricted
 Rights clause in FAR 52.227-19.
  
 Gaussian, Inc.
 340 Quinnipiac St., Bldg. 40, Wallingford CT 06492
  
  
 ---------------------------------------------------------------
 Warning -- This program may not be used in any manner that
 competes with the business of Gaussian, Inc. or will provide
 assistance to any competitor of Gaussian, Inc.  The licensee
 of this program is prohibited from giving any competitor of
 Gaussian, Inc. access to this program.  By using this program,
 the user acknowledges that Gaussian, Inc. is engaged in the
 business of creating and licensing software in the field of
 computational chemistry and represents and warrants to the
 licensee that it is not a competitor of Gaussian, Inc. and that
 it will not use this program in any manner prohibited above.
 ---------------------------------------------------------------
  

 Cite this work as:
 Gaussian 09, Revision A.02,
 M. J. Frisch, G. W. Trucks, H. B. Schlegel, G. E. Scuseria, 
 M. A. Robb, J. R. Cheeseman, G. Scalmani, V. Barone, B. Mennucci, 
 G. A. Petersson, H. Nakatsuji, M. Caricato, X. Li, H. P. Hratchian, 
 A. F. Izmaylov, J. Bloino, G. Zheng, J. L. Sonnenberg, M. Hada, 
 M. Ehara, K. Toyota, R. Fukuda, J. Hasegawa, M. Ishida, T. Nakajima, 
 Y. Honda, O. Kitao, H. Nakai, T. Vreven, J. A. Montgomery, Jr., 
 J. E. Peralta, F. Ogliaro, M. Bearpark, J. J. Heyd, E. Brothers, 
 K. N. Kudin, V. N. Staroverov, R. Kobayashi, J. Normand, 
 K. Raghavachari, A. Rendell, J. C. Burant, S. S. Iyengar, J. Tomasi, 
 M. Cossi, N. Rega, J. M. Millam, M. Klene, J. E. Knox, J. B. Cross, 
 V. Bakken, C. Adamo, J. Jaramillo, R. Gomperts, R. E. Stratmann, 
 O. Yazyev, A. J. Austin, R. Cammi, C. Pomelli, J. W. Ochterski, 
 R. L. Martin, K. Morokuma, V. G. Zakrzewski, G. A. Voth, 
 P. Salvador, J. J. Dannenberg, S. Dapprich, A. D. Daniels, 
 O. Farkas, J. B. Foresman, J. V. Ortiz, J. Cioslowski, 
 and D. J. Fox, Gaussian, Inc., Wallingford CT, 2009.
 
 ******************************************
 Gaussian 09:  AM64L-G09RevA.02 11-Jun-2009
                29-Sep-2021 
 ******************************************
 %nproc=5
 Will use up to    5 processors via shared memory.
 %mem=10gb
 %chk=C12H17NO3_0297_conf_0.chk
 -----------------------------------
 #p opt b3lyp/6-31G* scf=(xqc,tight)
 -----------------------------------
 1/14=-1,18=20,19=15,26=3,38=1/1,3;
 2/9=110,12=2,17=6,18=5,40=1/2;
 3/5=1,6=6,7=1,11=2,16=1,25=1,30=1,71=1,74=-5/1,2,3;
 4//1;
 5/5=2,8=3,13=1,32=2,38=5/2,8;
 6/7=2,8=2,9=2,10=2,28=1/1;
 7//1,2,3,16;
 1/14=-1,18=20,19=15/3(2);
 2/9=110/2;
 99//99;
 2/9=110/2;
 3/5=1,6=6,7=1,11=2,16=1,25=1,30=1,71=1,74=-5/1,2,3;
 4/5=5,16=3/1;
 5/5=2,8=3,13=1,32=2,38=5/2,8;
 7//1,2,3,16;
 1/14=-1,18=20,19=15/3(-5);
 2/9=110/2;
 6/7=2,8=2,9=2,10=2,19=2,28=1/1;
 99/9=1/99;
 Leave Link    1 at Wed Sep 29 17:43:31 2021, MaxMem= 1342177280 cpu:       0.1
 (Enter /sw/target/amd/app/gaussian/Gaussian09RevA.02_gcc-4.9.2/g09/l101.exe)
 --------------------------------
 CCN(C(=O)Oc1ccc(cc1)OC)CC_conf_0
 --------------------------------
 Symbolic Z-matrix:
 Charge =  0 Multiplicity = 1
 C                     3.35246   2.24392  -1.22956 
 C                     2.83115   0.87282  -0.83161 
 N                     1.67347   0.93177   0.05719 
 C                     1.82289   0.6048    1.40423 
 O                     2.88611   0.28239   1.91856 
 O                     0.61037   0.68708   2.09659 
 C                     0.44797   0.28896   3.44054 
 C                    -0.4803    1.01904   4.18178 
 C                    -0.78256   0.6378    5.49272 
 C                    -0.16747  -0.48284   6.05383 
 C                     0.7551   -1.21124   5.29346 
 C                     1.06472  -0.83306   3.98352 
 O                    -0.39822  -0.98187   7.30656 
 C                    -1.20428  -0.197     8.17665 
 C                     0.38202   1.32902  -0.5038 
 C                     0.02342   2.77716  -0.20304 
 H                     4.22671   2.14128  -1.88032 
 H                     3.64394   2.82586  -0.34966 
 H                     2.59904   2.81403  -1.78072 
 H                     3.64264   0.31478  -0.35177 
 H                     2.54283   0.30507  -1.72333 
 H                    -0.97871   1.87584   3.73786 
 H                    -1.51388   1.22436   6.03779 
 H                     1.23147  -2.08902   5.72424 
 H                     1.76942  -1.4249    3.40803 
 H                    -1.32567  -0.75295   9.11157 
 H                    -2.20491  -0.03196   7.76416 
 H                    -0.71103   0.75205   8.41096 
 H                    -0.3941    0.67383  -0.09274 
 H                     0.3963    1.16097  -1.58676 
 H                     0.00061   2.97284   0.87346 
 H                    -0.96449   3.01221  -0.61181 
 H                     0.74375   3.46921  -0.64705 
 
 NAtoms=     33 NQM=     33 NQMF=      0 NMic=      0 NMicF=      0 NTot=     33.
                    Isotopes and Nuclear Properties:
 (Nuclear quadrupole moments (NQMom) in fm**2, nuclear magnetic moments (NMagM)
  in nuclear magnetons)

  Atom         1           2           3           4           5           6           7           8           9          10
 IAtWgt=          12          12          14          12          16          16          12          12          12          12
 AtmWgt=  12.0000000  12.0000000  14.0030740  12.0000000  15.9949146  15.9949146  12.0000000  12.0000000  12.0000000  12.0000000
 NucSpn=           0           0           2           0           0           0           0           0           0           0
 AtZEff=   0.0000000   0.0000000   0.0000000   0.0000000   0.0000000   0.0000000   0.0000000   0.0000000   0.0000000   0.0000000
 NQMom=    0.0000000   0.0000000   2.0440000   0.0000000   0.0000000   0.0000000   0.0000000   0.0000000   0.0000000   0.0000000
 NMagM=    0.0000000   0.0000000   0.4037610   0.0000000   0.0000000   0.0000000   0.0000000   0.0000000   0.0000000   0.0000000

  Atom        11          12          13          14          15          16          17          18          19          20
 IAtWgt=          12          12          16          12          12          12           1           1           1           1
 AtmWgt=  12.0000000  12.0000000  15.9949146  12.0000000  12.0000000  12.0000000   1.0078250   1.0078250   1.0078250   1.0078250
 NucSpn=           0           0           0           0           0           0           1           1           1           1
 AtZEff=   0.0000000   0.0000000   0.0000000   0.0000000   0.0000000   0.0000000   0.0000000   0.0000000   0.0000000   0.0000000
 NQMom=    0.0000000   0.0000000   0.0000000   0.0000000   0.0000000   0.0000000   0.0000000   0.0000000   0.0000000   0.0000000
 NMagM=    0.0000000   0.0000000   0.0000000   0.0000000   0.0000000   0.0000000   2.7928460   2.7928460   2.7928460   2.7928460

  Atom        21          22          23          24          25          26          27          28          29          30
 IAtWgt=           1           1           1           1           1           1           1           1           1           1
 AtmWgt=   1.0078250   1.0078250   1.0078250   1.0078250   1.0078250   1.0078250   1.0078250   1.0078250   1.0078250   1.0078250
 NucSpn=           1           1           1           1           1           1           1           1           1           1
 AtZEff=   0.0000000   0.0000000   0.0000000   0.0000000   0.0000000   0.0000000   0.0000000   0.0000000   0.0000000   0.0000000
 NQMom=    0.0000000   0.0000000   0.0000000   0.0000000   0.0000000   0.0000000   0.0000000   0.0000000   0.0000000   0.0000000
 NMagM=    2.7928460   2.7928460   2.7928460   2.7928460   2.7928460   2.7928460   2.7928460   2.7928460   2.7928460   2.7928460

  Atom        31          32          33
 IAtWgt=           1           1           1
 AtmWgt=   1.0078250   1.0078250   1.0078250
 NucSpn=           1           1           1
 AtZEff=   0.0000000   0.0000000   0.0000000
 NQMom=    0.0000000   0.0000000   0.0000000
 NMagM=    2.7928460   2.7928460   2.7928460
 Leave Link  101 at Wed Sep 29 17:43:32 2021, MaxMem= 1342177280 cpu:       0.2
 (Enter /sw/target/amd/app/gaussian/Gaussian09RevA.02_gcc-4.9.2/g09/l103.exe)

 GradGradGradGradGradGradGradGradGradGradGradGradGradGradGradGradGradGrad
 Berny optimization.
 Initialization pass.
                           ----------------------------
                           !    Initial Parameters    !
                           ! (Angstroms and Degrees)  !
 --------------------------                            --------------------------
 ! Name  Definition              Value          Derivative Info.                !
 --------------------------------------------------------------------------------
 ! R1    R(1,2)                  1.5199         estimate D2E/DX2                !
 ! R2    R(1,17)                 1.0947         estimate D2E/DX2                !
 ! R3    R(1,18)                 1.0945         estimate D2E/DX2                !
 ! R4    R(1,19)                 1.0938         estimate D2E/DX2                !
 ! R5    R(2,3)                  1.4607         estimate D2E/DX2                !
 ! R6    R(2,20)                 1.0955         estimate D2E/DX2                !
 ! R7    R(2,21)                 1.0957         estimate D2E/DX2                !
 ! R8    R(3,4)                  1.3942         estimate D2E/DX2                !
 ! R9    R(3,15)                 1.463          estimate D2E/DX2                !
 ! R10   R(4,5)                  1.2243         estimate D2E/DX2                !
 ! R11   R(4,6)                  1.3987         estimate D2E/DX2                !
 ! R12   R(6,7)                  1.4111         estimate D2E/DX2                !
 ! R13   R(7,8)                  1.3943         estimate D2E/DX2                !
 ! R14   R(7,12)                 1.3907         estimate D2E/DX2                !
 ! R15   R(8,9)                  1.3983         estimate D2E/DX2                !
 ! R16   R(8,22)                 1.0861         estimate D2E/DX2                !
 ! R17   R(9,10)                 1.3961         estimate D2E/DX2                !
 ! R18   R(9,23)                 1.0844         estimate D2E/DX2                !
 ! R19   R(10,11)                1.3999         estimate D2E/DX2                !
 ! R20   R(10,13)                1.3681         estimate D2E/DX2                !
 ! R21   R(11,12)                1.3982         estimate D2E/DX2                !
 ! R22   R(11,24)                1.0877         estimate D2E/DX2                !
 ! R23   R(12,25)                1.0854         estimate D2E/DX2                !
 ! R24   R(13,14)                1.4223         estimate D2E/DX2                !
 ! R25   R(14,26)                1.0945         estimate D2E/DX2                !
 ! R26   R(14,27)                1.0948         estimate D2E/DX2                !
 ! R27   R(14,28)                1.0949         estimate D2E/DX2                !
 ! R28   R(15,16)                1.5219         estimate D2E/DX2                !
 ! R29   R(15,29)                1.0957         estimate D2E/DX2                !
 ! R30   R(15,30)                1.096          estimate D2E/DX2                !
 ! R31   R(16,31)                1.0944         estimate D2E/DX2                !
 ! R32   R(16,32)                1.0947         estimate D2E/DX2                !
 ! R33   R(16,33)                1.0931         estimate D2E/DX2                !
 ! A1    A(2,1,17)             110.1817         estimate D2E/DX2                !
 ! A2    A(2,1,18)             111.1321         estimate D2E/DX2                !
 ! A3    A(2,1,19)             111.4607         estimate D2E/DX2                !
 ! A4    A(17,1,18)            108.3664         estimate D2E/DX2                !
 ! A5    A(17,1,19)            107.4224         estimate D2E/DX2                !
 ! A6    A(18,1,19)            108.144          estimate D2E/DX2                !
 ! A7    A(1,2,3)              113.2504         estimate D2E/DX2                !
 ! A8    A(1,2,20)             108.6709         estimate D2E/DX2                !
 ! A9    A(1,2,21)             110.1574         estimate D2E/DX2                !
 ! A10   A(3,2,20)             109.9443         estimate D2E/DX2                !
 ! A11   A(3,2,21)             107.9115         estimate D2E/DX2                !
 ! A12   A(20,2,21)            106.704          estimate D2E/DX2                !
 ! A13   A(2,3,4)              119.5707         estimate D2E/DX2                !
 ! A14   A(2,3,15)             118.5057         estimate D2E/DX2                !
 ! A15   A(4,3,15)             121.9227         estimate D2E/DX2                !
 ! A16   A(3,4,5)              124.106          estimate D2E/DX2                !
 ! A17   A(3,4,6)              111.8123         estimate D2E/DX2                !
 ! A18   A(5,4,6)              124.0816         estimate D2E/DX2                !
 ! A19   A(4,6,7)              123.6864         estimate D2E/DX2                !
 ! A20   A(6,7,8)              115.7995         estimate D2E/DX2                !
 ! A21   A(6,7,12)             123.2603         estimate D2E/DX2                !
 ! A22   A(8,7,12)             120.6723         estimate D2E/DX2                !
 ! A23   A(7,8,9)              119.9701         estimate D2E/DX2                !
 ! A24   A(7,8,22)             120.0857         estimate D2E/DX2                !
 ! A25   A(9,8,22)             119.9393         estimate D2E/DX2                !
 ! A26   A(8,9,10)             120.0278         estimate D2E/DX2                !
 ! A27   A(8,9,23)             118.0041         estimate D2E/DX2                !
 ! A28   A(10,9,23)            121.9573         estimate D2E/DX2                !
 ! A29   A(9,10,11)            119.321          estimate D2E/DX2                !
 ! A30   A(9,10,13)            125.9106         estimate D2E/DX2                !
 ! A31   A(11,10,13)           114.7535         estimate D2E/DX2                !
 ! A32   A(10,11,12)           120.9358         estimate D2E/DX2                !
 ! A33   A(10,11,24)           119.5653         estimate D2E/DX2                !
 ! A34   A(12,11,24)           119.4967         estimate D2E/DX2                !
 ! A35   A(7,12,11)            119.0654         estimate D2E/DX2                !
 ! A36   A(7,12,25)            121.3889         estimate D2E/DX2                !
 ! A37   A(11,12,25)           119.5415         estimate D2E/DX2                !
 ! A38   A(10,13,14)           117.0319         estimate D2E/DX2                !
 ! A39   A(13,14,26)           107.7654         estimate D2E/DX2                !
 ! A40   A(13,14,27)           111.7582         estimate D2E/DX2                !
 ! A41   A(13,14,28)           110.7278         estimate D2E/DX2                !
 ! A42   A(26,14,27)           107.2794         estimate D2E/DX2                !
 ! A43   A(26,14,28)           107.9054         estimate D2E/DX2                !
 ! A44   A(27,14,28)           111.2038         estimate D2E/DX2                !
 ! A45   A(3,15,16)            112.9913         estimate D2E/DX2                !
 ! A46   A(3,15,29)            108.6052         estimate D2E/DX2                !
 ! A47   A(3,15,30)            109.0116         estimate D2E/DX2                !
 ! A48   A(16,15,29)           109.1433         estimate D2E/DX2                !
 ! A49   A(16,15,30)           110.1349         estimate D2E/DX2                !
 ! A50   A(29,15,30)           106.7521         estimate D2E/DX2                !
 ! A51   A(15,16,31)           111.6809         estimate D2E/DX2                !
 ! A52   A(15,16,32)           110.0701         estimate D2E/DX2                !
 ! A53   A(15,16,33)           111.5222         estimate D2E/DX2                !
 ! A54   A(31,16,32)           108.0665         estimate D2E/DX2                !
 ! A55   A(31,16,33)           107.4624         estimate D2E/DX2                !
 ! A56   A(32,16,33)           107.8833         estimate D2E/DX2                !
 ! D1    D(17,1,2,3)           179.0918         estimate D2E/DX2                !
 ! D2    D(17,1,2,20)           56.6078         estimate D2E/DX2                !
 ! D3    D(17,1,2,21)          -59.9584         estimate D2E/DX2                !
 ! D4    D(18,1,2,3)            58.9611         estimate D2E/DX2                !
 ! D5    D(18,1,2,20)          -63.5228         estimate D2E/DX2                !
 ! D6    D(18,1,2,21)          179.9109         estimate D2E/DX2                !
 ! D7    D(19,1,2,3)           -61.7476         estimate D2E/DX2                !
 ! D8    D(19,1,2,20)          175.7684         estimate D2E/DX2                !
 ! D9    D(19,1,2,21)           59.2022         estimate D2E/DX2                !
 ! D10   D(1,2,3,4)           -106.9502         estimate D2E/DX2                !
 ! D11   D(1,2,3,15)            73.3778         estimate D2E/DX2                !
 ! D12   D(20,2,3,4)            14.8233         estimate D2E/DX2                !
 ! D13   D(20,2,3,15)         -164.8487         estimate D2E/DX2                !
 ! D14   D(21,2,3,4)           130.8395         estimate D2E/DX2                !
 ! D15   D(21,2,3,15)          -48.8325         estimate D2E/DX2                !
 ! D16   D(2,3,4,5)              1.2123         estimate D2E/DX2                !
 ! D17   D(2,3,4,6)           -178.6687         estimate D2E/DX2                !
 ! D18   D(15,3,4,5)          -179.1273         estimate D2E/DX2                !
 ! D19   D(15,3,4,6)             0.9918         estimate D2E/DX2                !
 ! D20   D(2,3,15,16)         -101.3343         estimate D2E/DX2                !
 ! D21   D(2,3,15,29)          137.4201         estimate D2E/DX2                !
 ! D22   D(2,3,15,30)           21.4653         estimate D2E/DX2                !
 ! D23   D(4,3,15,16)           79.0018         estimate D2E/DX2                !
 ! D24   D(4,3,15,29)          -42.2438         estimate D2E/DX2                !
 ! D25   D(4,3,15,30)         -158.1986         estimate D2E/DX2                !
 ! D26   D(3,4,6,7)            173.7908         estimate D2E/DX2                !
 ! D27   D(5,4,6,7)             -6.0901         estimate D2E/DX2                !
 ! D28   D(4,6,7,8)            147.1981         estimate D2E/DX2                !
 ! D29   D(4,6,7,12)           -38.7229         estimate D2E/DX2                !
 ! D30   D(6,7,8,9)            175.3068         estimate D2E/DX2                !
 ! D31   D(6,7,8,22)            -3.8906         estimate D2E/DX2                !
 ! D32   D(12,7,8,9)             1.0626         estimate D2E/DX2                !
 ! D33   D(12,7,8,22)         -178.1347         estimate D2E/DX2                !
 ! D34   D(6,7,12,11)         -174.6661         estimate D2E/DX2                !
 ! D35   D(6,7,12,25)            4.5793         estimate D2E/DX2                !
 ! D36   D(8,7,12,11)           -0.8651         estimate D2E/DX2                !
 ! D37   D(8,7,12,25)          178.3804         estimate D2E/DX2                !
 ! D38   D(7,8,9,10)            -0.7787         estimate D2E/DX2                !
 ! D39   D(7,8,9,23)          -179.608          estimate D2E/DX2                !
 ! D40   D(22,8,9,10)          178.4199         estimate D2E/DX2                !
 ! D41   D(22,8,9,23)           -0.4094         estimate D2E/DX2                !
 ! D42   D(8,9,10,11)            0.3128         estimate D2E/DX2                !
 ! D43   D(8,9,10,13)         -178.2076         estimate D2E/DX2                !
 ! D44   D(23,9,10,11)         179.0945         estimate D2E/DX2                !
 ! D45   D(23,9,10,13)           0.5741         estimate D2E/DX2                !
 ! D46   D(9,10,11,12)          -0.1235         estimate D2E/DX2                !
 ! D47   D(9,10,11,24)        -179.5751         estimate D2E/DX2                !
 ! D48   D(13,10,11,12)        178.5569         estimate D2E/DX2                !
 ! D49   D(13,10,11,24)         -0.8947         estimate D2E/DX2                !
 ! D50   D(9,10,13,14)          -8.5858         estimate D2E/DX2                !
 ! D51   D(11,10,13,14)        172.8348         estimate D2E/DX2                !
 ! D52   D(10,11,12,7)           0.3957         estimate D2E/DX2                !
 ! D53   D(10,11,12,25)       -178.8638         estimate D2E/DX2                !
 ! D54   D(24,11,12,7)         179.8477         estimate D2E/DX2                !
 ! D55   D(24,11,12,25)          0.5881         estimate D2E/DX2                !
 ! D56   D(10,13,14,26)        177.5748         estimate D2E/DX2                !
 ! D57   D(10,13,14,27)         59.948          estimate D2E/DX2                !
 ! D58   D(10,13,14,28)        -64.6224         estimate D2E/DX2                !
 ! D59   D(3,15,16,31)         -57.9023         estimate D2E/DX2                !
 ! D60   D(3,15,16,32)        -177.9393         estimate D2E/DX2                !
 ! D61   D(3,15,16,33)          62.3568         estimate D2E/DX2                !
 ! D62   D(29,15,16,31)         63.0382         estimate D2E/DX2                !
 ! D63   D(29,15,16,32)        -56.9988         estimate D2E/DX2                !
 ! D64   D(29,15,16,33)       -176.7027         estimate D2E/DX2                !
 ! D65   D(30,15,16,31)        179.9253         estimate D2E/DX2                !
 ! D66   D(30,15,16,32)         59.8883         estimate D2E/DX2                !
 ! D67   D(30,15,16,33)        -59.8156         estimate D2E/DX2                !
 --------------------------------------------------------------------------------
 Trust Radius=3.00D-01 FncErr=1.00D-07 GrdErr=1.00D-06
 Number of steps in this run= 166 maximum allowed number of steps= 198.
 GradGradGradGradGradGradGradGradGradGradGradGradGradGradGradGradGradGrad

 Leave Link  103 at Wed Sep 29 17:43:32 2021, MaxMem= 1342177280 cpu:       0.0
 (Enter /sw/target/amd/app/gaussian/Gaussian09RevA.02_gcc-4.9.2/g09/l202.exe)
                          Input orientation:                          
 ---------------------------------------------------------------------
 Center     Atomic      Atomic             Coordinates (Angstroms)
 Number     Number       Type             X           Y           Z
 ---------------------------------------------------------------------
      1          6           0        3.352461    2.243918   -1.229556
      2          6           0        2.831149    0.872822   -0.831611
      3          7           0        1.673472    0.931770    0.057193
      4          6           0        1.822888    0.604798    1.404231
      5          8           0        2.886108    0.282395    1.918564
      6          8           0        0.610375    0.687077    2.096592
      7          6           0        0.447965    0.288956    3.440541
      8          6           0       -0.480305    1.019037    4.181780
      9          6           0       -0.782560    0.637804    5.492720
     10          6           0       -0.167466   -0.482843    6.053829
     11          6           0        0.755101   -1.211239    5.293459
     12          6           0        1.064720   -0.833064    3.983519
     13          8           0       -0.398217   -0.981868    7.306558
     14          6           0       -1.204277   -0.196996    8.176646
     15          6           0        0.382023    1.329018   -0.503804
     16          6           0        0.023416    2.777165   -0.203042
     17          1           0        4.226713    2.141285   -1.880324
     18          1           0        3.643940    2.825861   -0.349662
     19          1           0        2.599036    2.814031   -1.780717
     20          1           0        3.642642    0.314778   -0.351767
     21          1           0        2.542826    0.305073   -1.723328
     22          1           0       -0.978713    1.875840    3.737858
     23          1           0       -1.513883    1.224357    6.037787
     24          1           0        1.231467   -2.089021    5.724235
     25          1           0        1.769423   -1.424898    3.408034
     26          1           0       -1.325669   -0.752950    9.111568
     27          1           0       -2.204914   -0.031955    7.764162
     28          1           0       -0.711034    0.752046    8.410955
     29          1           0       -0.394099    0.673827   -0.092739
     30          1           0        0.396300    1.160973   -1.586759
     31          1           0        0.000612    2.972838    0.873462
     32          1           0       -0.964493    3.012214   -0.611810
     33          1           0        0.743748    3.469214   -0.647052
 ---------------------------------------------------------------------
                    Distance matrix (angstroms):
                    1          2          3          4          5
     1  C    0.000000
     2  C    1.519879   0.000000
     3  N    2.489269   1.460706   0.000000
     4  C    3.458778   2.467269   1.394184   0.000000
     5  O    3.738411   2.813377   2.314493   1.224304   0.000000
     6  O    4.583236   3.679771   2.312834   1.398686   2.318281
     7  C    5.836761   4.926637   3.655424   2.477242   2.874195
     8  C    6.743366   6.010091   4.653880   3.631951   4.122806
     9  C    8.054005   7.287750   5.971890   4.848215   5.134203
    10  C    8.536558   7.631436   6.430384   5.173320   5.197146
    11  C    7.825223   6.794834   5.731874   4.423150   4.261696
    12  C    6.471301   5.405164   4.347557   3.048769   2.970815
    13  O    9.866029   8.949776   7.778638   6.502944   6.435498
    14  C   10.733060   9.928639   8.687985   7.461381   7.491639
    15  C    3.191749   2.512725   1.462998   2.498236   3.637819
    16  C    3.524291   3.450360   2.489154   3.246629   4.349723
    17  H    1.094691   2.157868   3.425775   4.350570   4.436692
    18  H    1.094454   2.169623   2.763304   3.365336   3.491186
    19  H    1.093827   2.173240   2.788814   3.953101   4.491801
    20  H    2.139229   1.095529   2.103700   2.545416   2.393281
    21  H    2.158343   1.095732   2.078167   3.223317   3.658106
    22  H    6.600739   6.033336   4.633860   3.861390   4.559138
    23  H    8.805401   8.135817   6.783240   5.743495   6.100427
    24  H    8.463344   7.369574   6.437074   5.125317   4.779601
    25  H    6.121557   4.937749   4.097710   2.852674   2.525937
    26  H   11.739036  10.899040   9.685806   8.435634   8.399423
    27  H   10.814388  10.003393   8.681476   7.554956   7.758114
    28  H   10.567740   9.898822   8.689276   7.452290   7.437147
    29  H    4.218324   3.314779   2.088987   2.675952   3.867599
    30  H    3.168478   2.565496   2.094345   3.360135   4.388432
    31  H    4.023544   3.915263   2.762375   3.034801   4.081276
    32  H    4.428090   4.362592   3.425591   4.198758   5.355542
    33  H    2.940416   3.336549   2.792664   3.684723   4.618215
                    6          7          8          9         10
     6  O    0.000000
     7  C    1.411055   0.000000
     8  C    2.376508   1.394323   0.000000
     9  C    3.671019   2.418125   1.398306   0.000000
    10  C    4.199223   2.793511   2.420346   1.396078   0.000000
    11  C    3.720821   2.403794   2.781400   2.413104   1.399948
    12  C    2.465309   1.390734   2.420059   2.802425   2.434568
    13  O    5.562947   4.156574   3.711414   2.461923   1.368065
    14  C    6.406372   5.039519   4.238139   2.842217   2.379714
    15  C    2.688177   4.079698   4.774348   6.147547   6.825492
    16  C    3.162484   4.432507   4.750938   6.137439   7.057798
    17  H    5.568526   6.783926   7.756582   9.039637   9.441697
    18  H    4.445343   5.569181   6.388112   7.649505   8.153468
    19  H    4.848942   6.185842   6.946634   8.311080   8.938849
    20  H    3.915062   4.958652   6.168283   7.337901   7.495651
    21  H    4.297916   5.572634   6.672284   7.952374   8.273492
    22  H    2.575289   2.154532   1.086089   2.156559   3.403708
    23  H    4.509341   3.386666   2.134292   1.084424   2.174311
    24  H    4.610018   3.388792   3.869024   3.397864   2.155331
    25  H    2.742938   2.164395   3.410685   3.887580   3.411633
    26  H    7.418344   6.032569   5.306353   3.914744   3.280877
    27  H    6.369004   5.082760   4.112459   2.762448   2.698098
    28  H    6.451475   5.124719   4.243871   2.921346   2.715964
    29  H    2.408799   3.652570   4.289302   5.599067   6.258558
    30  H    3.719877   5.102630   5.836491   7.196002   7.835723
    31  H    2.663186   3.740754   3.872155   5.234814   6.229460
    32  H    3.901527   5.082590   5.213991   6.552573   7.568449
    33  H    3.909688   5.187479   5.551513   6.931327   7.832680
                   11         12         13         14         15
    11  C    0.000000
    12  C    1.398150   0.000000
    13  O    2.331378   3.633857   0.000000
    14  C    3.630512   4.809911   1.422255   0.000000
    15  C    6.340375   5.027598   8.182343   8.955182   0.000000
    16  C    6.830392   5.625420   8.408460   8.976192   1.521903
    17  H    8.646078   7.295862  10.749086  11.666441   4.163678
    18  H    7.515875   6.230294   9.458094  10.263567   3.592269
    19  H    8.345470   6.991555  10.294219  11.076126   2.958194
    20  H    6.521902   5.172807   8.755557   9.822849   3.418103
    21  H    7.398004   6.004020   9.583570  10.597280   2.684170
    22  H    3.867307   3.402077   4.608589   4.904117   4.488020
    23  H    3.410930   3.886154   2.778834   2.586662   6.811595
    24  H    1.087655   2.152981   2.526936   3.940422   7.154930
    25  H    2.151587   1.085383   4.482570   5.752417   4.981105
    26  H    4.372366   5.658380   2.042212   1.094486   9.985298
    27  H    4.031969   5.062168   2.091863   1.094832   8.769479
    28  H    3.965201   5.026736   2.079424   1.094929   9.000034
    29  H    5.821105   4.584185   7.582278   8.354487   1.095726
    30  H    7.286531   5.954071   9.182272   9.986492   1.096008
    31  H    6.132873   5.028883   7.561976   8.052086   2.178184
    32  H    7.461017   6.326209   8.886727   9.359140   2.158222
    33  H    7.562833   6.328886   9.185648   9.751592   2.175271
                   16         17         18         19         20
    16  C    0.000000
    17  H    4.570046   0.000000
    18  H    3.623818   1.775160   0.000000
    19  H    3.020635   1.764041   1.771972   0.000000
    20  H    4.379984   2.452295   2.511084   3.062234   0.000000
    21  H    3.843167   2.496357   3.074700   2.510243   1.758087
    22  H    4.165014   7.663608   6.243339   6.643431   6.365444
    23  H    6.612295   9.823017   8.364655   8.976200   8.260961
    24  H    7.763489   9.203059   8.177305   9.068323   6.964899
    25  H    5.809108   6.835398   5.975202   6.751290   4.546595
    26  H   10.052049  12.650186  11.270305  12.114806  10.741455
    27  H    8.736872  11.794274  10.402420  11.058132  10.009118
    28  H    8.879272  11.498772  10.000746  10.912311   9.794437
    29  H    2.147211   5.167281   4.582905   4.048284   4.060947
    30  H    2.160044   3.964751   3.853495   2.760845   3.574911
    31  H    1.094381   5.112216   3.845969   3.717755   4.672350
    32  H    1.094671   5.414449   4.619643   3.755577   5.345041
    33  H    1.093140   3.926245   2.985541   2.270805   4.294327
                   21         22         23         24         25
    21  H    0.000000
    22  H    6.685290   0.000000
    23  H    8.805503   2.449593   0.000000
    24  H    7.932059   4.954867   4.314364   0.000000
    25  H    5.470085   4.307657   4.971343   2.468855   0.000000
    26  H   11.553339   5.992300   3.659685   4.449500   6.523910
    27  H   10.614476   4.621079   2.244151   4.494612   6.059001
    28  H   10.653220   4.813772   2.549426   4.366169   5.993411
    29  H    3.379398   4.057103   6.256225   6.641761   4.619620
    30  H    2.314906   5.545561   7.860440   8.044291   5.789660
    31  H    4.508120   3.219821   5.658721   7.118105   5.375205
    32  H    4.567862   4.495683   6.907634   8.425575   6.581900
    33  H    3.795634   4.973244   7.404279   8.469070   6.438017
                   26         27         28         29         30
    26  H    0.000000
    27  H    1.763068   0.000000
    28  H    1.770211   1.806842   0.000000
    29  H    9.360704   8.093706   8.509958   0.000000
    30  H   11.003748   9.779014  10.067160   1.759017   0.000000
    31  H    9.138211   7.834211   7.890004   2.524835   3.080927
    32  H   10.433168   8.997918   9.304994   2.462283   2.495871
    33  H   10.832350   9.576080   9.568014   3.068574   2.516296
                   31         32         33
    31  H    0.000000
    32  H    1.771726   0.000000
    33  H    1.763691   1.768666   0.000000
 Stoichiometry    C12H17NO3
 Framework group  C1[X(C12H17NO3)]
 Deg. of freedom    93
 Full point group                 C1      NOp   1
 Largest Abelian subgroup         C1      NOp   1
 Largest concise Abelian subgroup C1      NOp   1
                         Standard orientation:                         
 ---------------------------------------------------------------------
 Center     Atomic      Atomic             Coordinates (Angstroms)
 Number     Number       Type             X           Y           Z
 ---------------------------------------------------------------------
      1          6           0        4.931866   -0.565281    1.016965
      2          6           0        4.059094   -1.008384   -0.145774
      3          7           0        2.893100   -0.152664   -0.350383
      4          6           0        1.626847   -0.620138   -0.001357
      5          8           0        1.413678   -1.717729    0.497414
      6          8           0        0.628917    0.315655   -0.292476
      7          6           0       -0.751418    0.054888   -0.159239
      8          6           0       -1.541578    1.142621    0.210382
      9          6           0       -2.931942    1.007117    0.271923
     10          6           0       -3.530094   -0.211967   -0.052243
     11          6           0       -2.723829   -1.291962   -0.430925
     12          6           0       -1.332805   -1.164254   -0.490637
     13          8           0       -4.873981   -0.467629   -0.066718
     14          6           0       -5.729424    0.540406    0.457582
     15          6           0        3.095146    1.176565   -0.927178
     16          6           0        3.068575    2.286541    0.113704
     17          1           0        5.779162   -1.248305    1.134928
     18          1           0        4.365465   -0.553479    1.953384
     19          1           0        5.339168    0.436488    0.852588
     20          1           0        3.738489   -2.041099    0.029994
     21          1           0        4.640863   -1.012929   -1.074296
     22          1           0       -1.079550    2.098818    0.437992
     23          1           0       -3.516030    1.875275    0.556732
     24          1           0       -3.186091   -2.241521   -0.691011
     25          1           0       -0.730680   -2.010837   -0.804959
     26          1           0       -6.762161    0.200279    0.332410
     27          1           0       -5.628895    1.483128   -0.089981
     28          1           0       -5.549420    0.683109    1.528144
     29          1           0        2.308576    1.359534   -1.667749
     30          1           0        4.048014    1.189767   -1.468566
     31          1           0        2.125811    2.297258    0.669357
     32          1           0        3.187274    3.260202   -0.372300
     33          1           0        3.876768    2.173673    0.841055
 ---------------------------------------------------------------------
 Rotational constants (GHZ):      1.5368710      0.2074659      0.1906520
 Leave Link  202 at Wed Sep 29 17:43:33 2021, MaxMem= 1342177280 cpu:       0.1
 (Enter /sw/target/amd/app/gaussian/Gaussian09RevA.02_gcc-4.9.2/g09/l301.exe)
 Standard basis: 6-31G(d) (6D, 7F)
 Ernie: Thresh=  0.10000D-02 Tol=  0.10000D-05 Strict=F.
 There are   274 symmetry adapted basis functions of A   symmetry.
 Integral buffers will be    131072 words long.
 Raffenetti 2 integral format.
 Two-electron integral symmetry is turned on.
   274 basis functions,   516 primitive gaussians,   274 cartesian basis functions
    60 alpha electrons       60 beta electrons
       nuclear repulsion energy      1088.6764949988 Hartrees.
 IExCor=  402 DFT=T Ex+Corr=B3LYP ExCW=0 ScaHFX=  0.200000
 ScaDFX=  0.800000  0.720000  1.000000  0.810000 ScalE2=  1.000000  1.000000
 IRadAn=      0 IRanWt=     -1 IRanGd=            0 ICorTp=0
 NAtoms=   33 NActive=   33 NUniq=   33 SFac= 7.50D-01 NAtFMM=   80 NAOKFM=F Big=F
 Leave Link  301 at Wed Sep 29 17:43:33 2021, MaxMem= 1342177280 cpu:       0.1
 (Enter /sw/target/amd/app/gaussian/Gaussian09RevA.02_gcc-4.9.2/g09/l302.exe)
 NPDir=0 NMtPBC=     1 NCelOv=     1 NCel=       1 NClECP=     1 NCelD=      1
         NCelK=      1 NCelE2=     1 NClLst=     1 CellRange=     0.0.
 One-electron integrals computed using PRISM.
 NBasis=   274 RedAO= T  NBF=   274
 NBsUse=   274 1.00D-06 NBFU=   274
 Precomputing XC quadrature grid using
 IXCGrd= 2 IRadAn=           0 IRanWt=          -1 IRanGd=           0 AccXCQ= 1.00D-10.
 NRdTot=    2110 NPtTot=      269052 NUsed=      284264 NTot=      284296
 NSgBfM=   270   270   270   270   270 NAtAll=    33    33.
 Leave Link  302 at Wed Sep 29 17:43:39 2021, MaxMem= 1342177280 cpu:       2.9
 (Enter /sw/target/amd/app/gaussian/Gaussian09RevA.02_gcc-4.9.2/g09/l303.exe)
 DipDrv:  MaxL=1.
 Leave Link  303 at Wed Sep 29 17:43:40 2021, MaxMem= 1342177280 cpu:       0.2
 (Enter /sw/target/amd/app/gaussian/Gaussian09RevA.02_gcc-4.9.2/g09/l401.exe)
 Harris functional with IExCor=  402 diagonalized for initial guess.
 ExpMin= 1.61D-01 ExpMax= 5.48D+03 ExpMxC= 8.25D+02 IAcc=1 IRadAn=         1 AccDes= 0.00D+00
 HarFok:  IExCor=  402 AccDes= 0.00D+00 IRadAn=         1 IDoV= 1
 ScaDFX=  1.000000  1.000000  1.000000  1.000000
 FoFCou: FMM=F IPFlag=           0 FMFlag=      100000 FMFlg1=           0
         NFxFlg=           0 DoJE=T BraDBF=F KetDBF=T FulRan=T
         Omega=  0.000000  0.000000  1.000000  0.000000  0.000000 ICntrl=     500 IOpCl=  0
         NMat0=    1 NMatS0=    1 NMatT0=    0 NMatD0=    1 NMtDS0=    0 NMtDT0=    0
         I1Cent=           4 NGrid=           0.
 Petite list used in FoFCou.
 Harris En= -748.057547393892    
 Initial guess orbital symmetries:
       Occupied  (A) (A) (A) (A) (A) (A) (A) (A) (A) (A) (A) (A)
                 (A) (A) (A) (A) (A) (A) (A) (A) (A) (A) (A) (A)
                 (A) (A) (A) (A) (A) (A) (A) (A) (A) (A) (A) (A)
                 (A) (A) (A) (A) (A) (A) (A) (A) (A) (A) (A) (A)
                 (A) (A) (A) (A) (A) (A) (A) (A) (A) (A) (A) (A)
       Virtual   (A) (A) (A) (A) (A) (A) (A) (A) (A) (A) (A) (A)
                 (A) (A) (A) (A) (A) (A) (A) (A) (A) (A) (A) (A)
                 (A) (A) (A) (A) (A) (A) (A) (A) (A) (A) (A) (A)
                 (A) (A) (A) (A) (A) (A) (A) (A) (A) (A) (A) (A)
                 (A) (A) (A) (A) (A) (A) (A) (A) (A) (A) (A) (A)
                 (A) (A) (A) (A) (A) (A) (A) (A) (A) (A) (A) (A)
                 (A) (A) (A) (A) (A) (A) (A) (A) (A) (A) (A) (A)
                 (A) (A) (A) (A) (A) (A) (A) (A) (A) (A) (A) (A)
                 (A) (A) (A) (A) (A) (A) (A) (A) (A) (A) (A) (A)
                 (A) (A) (A) (A) (A) (A) (A) (A) (A) (A) (A) (A)
                 (A) (A) (A) (A) (A) (A) (A) (A) (A) (A) (A) (A)
                 (A) (A) (A) (A) (A) (A) (A) (A) (A) (A) (A) (A)
                 (A) (A) (A) (A) (A) (A) (A) (A) (A) (A) (A) (A)
                 (A) (A) (A) (A) (A) (A) (A) (A) (A) (A) (A) (A)
                 (A) (A) (A) (A) (A) (A) (A) (A) (A) (A) (A) (A)
                 (A) (A) (A) (A) (A) (A) (A) (A) (A) (A) (A) (A)
                 (A) (A) (A) (A) (A) (A) (A) (A) (A) (A) (A) (A)
                 (A) (A) (A) (A) (A) (A) (A) (A) (A) (A)
 The electronic state of the initial guess is 1-A.
 Leave Link  401 at Wed Sep 29 17:43:56 2021, MaxMem= 1342177280 cpu:      12.4
 (Enter /sw/target/amd/app/gaussian/Gaussian09RevA.02_gcc-4.9.2/g09/l502.exe)
 Closed shell SCF:
 Requested convergence on RMS density matrix=1.00D-08 within  64 cycles.
 Requested convergence on MAX density matrix=1.00D-06.
 Requested convergence on             energy=1.00D-06.
 No special actions if energy rises.
 Using DIIS extrapolation, IDIIS=  1040.
 Integral symmetry usage will be decided dynamically.
       283954 words used for storage of precomputed grid.
 Keep R1 ints in memory in canonical form, NReq=720638410.
 IEnd=      518446 IEndB=      518446 NGot=  1342177280 MDV=   632016731
 LenX=   632016731 LenY=   631941214
 Symmetry not used in FoFDir.
 MinBra= 0 MaxBra= 2 Meth= 1.
 IRaf=       0 NMat=   1 IRICut=       1 DoRegI=T DoRafI=F ISym2E= 0 JSym2E=0.
 Integral accuracy reduced to 1.0D-05 until final iterations.

 Cycle   1  Pass 0  IDiag  1:
 E= -747.484949234039    
 DIIS: error= 3.46D-02 at cycle   1 NSaved=   1.
 NSaved= 1 IEnMin= 1 EnMin= -747.484949234039     IErMin= 1 ErrMin= 3.46D-02
 ErrMax= 3.46D-02 EMaxC= 1.00D-01 BMatC= 4.73D-01 BMatP= 4.73D-01
 IDIUse=3 WtCom= 6.54D-01 WtEn= 3.46D-01
 Coeff-Com:  0.100D+01
 Coeff-En:   0.100D+01
 Coeff:      0.100D+01
 Gap=     0.250 Goal=   None    Shift=    0.000
 GapD=    0.250 DampG=1.000 DampE=0.500 DampFc=0.5000 IDamp=-1.
 Damping current iteration by 5.00D-01
 RMSDP=5.33D-03 MaxDP=2.16D-01              OVMax= 1.87D-01

 Cycle   2  Pass 0  IDiag  1:
 E= -747.648320169104     Delta-E=       -0.163370935065 Rises=F Damp=T
 DIIS: error= 1.10D-02 at cycle   2 NSaved=   2.
 NSaved= 2 IEnMin= 2 EnMin= -747.648320169104     IErMin= 2 ErrMin= 1.10D-02
 ErrMax= 1.10D-02 EMaxC= 1.00D-01 BMatC= 5.62D-02 BMatP= 4.73D-01
 IDIUse=3 WtCom= 8.90D-01 WtEn= 1.10D-01
 Coeff-Com:  0.170D+00 0.830D+00
 Coeff-En:   0.253D+00 0.747D+00
 Coeff:      0.180D+00 0.820D+00
 Gap=     0.270 Goal=   None    Shift=    0.000
 RMSDP=1.55D-03 MaxDP=7.28D-02 DE=-1.63D-01 OVMax= 1.49D-01

 Cycle   3  Pass 0  IDiag  1:
 E= -747.884412236644     Delta-E=       -0.236092067539 Rises=F Damp=F
 DIIS: error= 1.65D-02 at cycle   3 NSaved=   3.
 NSaved= 3 IEnMin= 3 EnMin= -747.884412236644     IErMin= 2 ErrMin= 1.10D-02
 ErrMax= 1.65D-02 EMaxC= 1.00D-01 BMatC= 7.02D-02 BMatP= 5.62D-02
 IDIUse=2 WtCom= 0.00D+00 WtEn= 1.00D+00
 Coeff-En:   0.000D+00 0.000D+00 0.100D+01
 Coeff:      0.000D+00 0.000D+00 0.100D+01
 Gap=     0.227 Goal=   None    Shift=    0.000
 RMSDP=2.81D-03 MaxDP=1.63D-01 DE=-2.36D-01 OVMax= 2.48D-01

 Cycle   4  Pass 0  IDiag  1:
 E= -747.601300526784     Delta-E=        0.283111709860 Rises=F Damp=F
 DIIS: error= 3.92D-02 at cycle   4 NSaved=   4.
 NSaved= 4 IEnMin= 3 EnMin= -747.884412236644     IErMin= 2 ErrMin= 1.10D-02
 ErrMax= 3.92D-02 EMaxC= 1.00D-01 BMatC= 4.35D-01 BMatP= 5.62D-02
 IDIUse=2 WtCom= 0.00D+00 WtEn= 1.00D+00
 Coeff-En:   0.000D+00 0.000D+00 0.802D+00 0.198D+00
 Coeff:      0.000D+00 0.000D+00 0.802D+00 0.198D+00
 Gap=     0.238 Goal=   None    Shift=    0.000
 RMSDP=1.51D-03 MaxDP=8.57D-02 DE= 2.83D-01 OVMax= 1.38D-01

 Cycle   5  Pass 0  IDiag  1:
 E= -747.917480241955     Delta-E=       -0.316179715171 Rises=F Damp=F
 DIIS: error= 1.08D-02 at cycle   5 NSaved=   5.
 NSaved= 5 IEnMin= 5 EnMin= -747.917480241955     IErMin= 5 ErrMin= 1.08D-02
 ErrMax= 1.08D-02 EMaxC= 1.00D-01 BMatC= 3.10D-02 BMatP= 5.62D-02
 IDIUse=3 WtCom= 8.92D-01 WtEn= 1.08D-01
 Coeff-Com: -0.719D-02 0.425D-01 0.302D+00-0.959D-01 0.758D+00
 Coeff-En:   0.000D+00 0.000D+00 0.342D+00 0.000D+00 0.658D+00
 Coeff:     -0.642D-02 0.379D-01 0.306D+00-0.856D-01 0.748D+00
 Gap=     0.207 Goal=   None    Shift=    0.000
 RMSDP=5.51D-04 MaxDP=3.04D-02 DE=-3.16D-01 OVMax= 3.64D-02

 Cycle   6  Pass 0  IDiag  1:
 E= -747.941905518861     Delta-E=       -0.024425276906 Rises=F Damp=F
 DIIS: error= 4.60D-04 at cycle   6 NSaved=   6.
 NSaved= 6 IEnMin= 6 EnMin= -747.941905518861     IErMin= 6 ErrMin= 4.60D-04
 ErrMax= 4.60D-04 EMaxC= 1.00D-01 BMatC= 1.54D-04 BMatP= 3.10D-02
 IDIUse=3 WtCom= 9.95D-01 WtEn= 4.60D-03
 Coeff-Com: -0.535D-02 0.191D-01 0.156D+00-0.604D-01 0.444D+00 0.447D+00
 Coeff-En:   0.000D+00 0.000D+00 0.000D+00 0.000D+00 0.000D+00 0.100D+01
 Coeff:     -0.533D-02 0.190D-01 0.156D+00-0.602D-01 0.442D+00 0.449D+00
 Gap=     0.207 Goal=   None    Shift=    0.000
 RMSDP=4.71D-05 MaxDP=3.03D-03 DE=-2.44D-02 OVMax= 3.43D-03

 Cycle   7  Pass 0  IDiag  1:
 E= -747.942018268949     Delta-E=       -0.000112750089 Rises=F Damp=F
 DIIS: error= 1.27D-04 at cycle   7 NSaved=   7.
 NSaved= 7 IEnMin= 7 EnMin= -747.942018268949     IErMin= 7 ErrMin= 1.27D-04
 ErrMax= 1.27D-04 EMaxC= 1.00D-01 BMatC= 1.19D-05 BMatP= 1.54D-04
 IDIUse=3 WtCom= 9.99D-01 WtEn= 1.27D-03
 Coeff-Com: -0.102D-02 0.217D-02 0.343D-01-0.148D-01 0.100D+00 0.219D+00
 Coeff-Com:  0.660D+00
 Coeff-En:   0.000D+00 0.000D+00 0.000D+00 0.000D+00 0.000D+00 0.421D-01
 Coeff-En:   0.958D+00
 Coeff:     -0.102D-02 0.216D-02 0.343D-01-0.148D-01 0.100D+00 0.219D+00
 Coeff:      0.660D+00
 Gap=     0.207 Goal=   None    Shift=    0.000
 RMSDP=1.36D-05 MaxDP=5.59D-04 DE=-1.13D-04 OVMax= 1.14D-03

 Cycle   8  Pass 0  IDiag  1:
 E= -747.942027460863     Delta-E=       -0.000009191913 Rises=F Damp=F
 DIIS: error= 7.49D-05 at cycle   8 NSaved=   8.
 NSaved= 8 IEnMin= 8 EnMin= -747.942027460863     IErMin= 8 ErrMin= 7.49D-05
 ErrMax= 7.49D-05 EMaxC= 1.00D-01 BMatC= 1.10D-06 BMatP= 1.19D-05
 IDIUse=1 WtCom= 1.00D+00 WtEn= 0.00D+00
 Coeff-Com: -0.160D-03-0.266D-03 0.108D-01-0.452D-02 0.300D-01 0.102D+00
 Coeff-Com:  0.384D+00 0.479D+00
 Coeff:     -0.160D-03-0.266D-03 0.108D-01-0.452D-02 0.300D-01 0.102D+00
 Coeff:      0.384D+00 0.479D+00
 Gap=     0.207 Goal=   None    Shift=    0.000
 RMSDP=4.75D-06 MaxDP=2.35D-04 DE=-9.19D-06 OVMax= 4.80D-04

 Initial convergence to 1.0D-05 achieved.  Increase integral accuracy.
 Cycle   9  Pass 1  IDiag  1:
 E= -747.942108192657     Delta-E=       -0.000080731794 Rises=F Damp=F
 DIIS: error= 2.63D-05 at cycle   1 NSaved=   1.
 NSaved= 1 IEnMin= 1 EnMin= -747.942108192657     IErMin= 1 ErrMin= 2.63D-05
 ErrMax= 2.63D-05 EMaxC= 1.00D-01 BMatC= 2.09D-07 BMatP= 2.09D-07
 IDIUse=1 WtCom= 1.00D+00 WtEn= 0.00D+00
 Coeff-Com:  0.100D+01
 Coeff:      0.100D+01
 Gap=     0.207 Goal=   None    Shift=    0.000
 RMSDP=4.75D-06 MaxDP=2.35D-04 DE=-8.07D-05 OVMax= 3.68D-04

 Cycle  10  Pass 1  IDiag  1:
 E= -747.942108068725     Delta-E=        0.000000123932 Rises=F Damp=F
 DIIS: error= 4.39D-05 at cycle   2 NSaved=   2.
 NSaved= 2 IEnMin= 1 EnMin= -747.942108192657     IErMin= 1 ErrMin= 2.63D-05
 ErrMax= 4.39D-05 EMaxC= 1.00D-01 BMatC= 3.66D-07 BMatP= 2.09D-07
 IDIUse=1 WtCom= 1.00D+00 WtEn= 0.00D+00
 Coeff-Com:  0.586D+00 0.414D+00
 Coeff:      0.586D+00 0.414D+00
 Gap=     0.207 Goal=   None    Shift=    0.000
 RMSDP=2.97D-06 MaxDP=1.09D-04 DE= 1.24D-07 OVMax= 3.16D-04

 Cycle  11  Pass 1  IDiag  1:
 E= -747.942108428025     Delta-E=       -0.000000359299 Rises=F Damp=F
 DIIS: error= 1.16D-05 at cycle   3 NSaved=   3.
 NSaved= 3 IEnMin= 3 EnMin= -747.942108428025     IErMin= 3 ErrMin= 1.16D-05
 ErrMax= 1.16D-05 EMaxC= 1.00D-01 BMatC= 3.14D-08 BMatP= 2.09D-07
 IDIUse=1 WtCom= 1.00D+00 WtEn= 0.00D+00
 Coeff-Com:  0.244D-01 0.223D+00 0.752D+00
 Coeff:      0.244D-01 0.223D+00 0.752D+00
 Gap=     0.207 Goal=   None    Shift=    0.000
 RMSDP=8.32D-07 MaxDP=2.66D-05 DE=-3.59D-07 OVMax= 7.47D-05

 Cycle  12  Pass 1  IDiag  1:
 E= -747.942108456654     Delta-E=       -0.000000028630 Rises=F Damp=F
 DIIS: error= 2.76D-06 at cycle   4 NSaved=   4.
 NSaved= 4 IEnMin= 4 EnMin= -747.942108456654     IErMin= 4 ErrMin= 2.76D-06
 ErrMax= 2.76D-06 EMaxC= 1.00D-01 BMatC= 5.30D-09 BMatP= 3.14D-08
 IDIUse=1 WtCom= 1.00D+00 WtEn= 0.00D+00
 Coeff-Com: -0.117D-01 0.121D+00 0.471D+00 0.420D+00
 Coeff:     -0.117D-01 0.121D+00 0.471D+00 0.420D+00
 Gap=     0.207 Goal=   None    Shift=    0.000
 RMSDP=2.57D-07 MaxDP=1.34D-05 DE=-2.86D-08 OVMax= 1.69D-05

 Cycle  13  Pass 1  IDiag  1:
 E= -747.942108460743     Delta-E=       -0.000000004089 Rises=F Damp=F
 DIIS: error= 7.02D-07 at cycle   5 NSaved=   5.
 NSaved= 5 IEnMin= 5 EnMin= -747.942108460743     IErMin= 5 ErrMin= 7.02D-07
 ErrMax= 7.02D-07 EMaxC= 1.00D-01 BMatC= 3.10D-10 BMatP= 5.30D-09
 IDIUse=1 WtCom= 1.00D+00 WtEn= 0.00D+00
 Coeff-Com: -0.903D-02 0.526D-01 0.215D+00 0.245D+00 0.496D+00
 Coeff:     -0.903D-02 0.526D-01 0.215D+00 0.245D+00 0.496D+00
 Gap=     0.207 Goal=   None    Shift=    0.000
 RMSDP=6.85D-08 MaxDP=3.33D-06 DE=-4.09D-09 OVMax= 3.69D-06

 Cycle  14  Pass 1  IDiag  1:
 E= -747.942108460956     Delta-E=       -0.000000000213 Rises=F Damp=F
 DIIS: error= 2.97D-07 at cycle   6 NSaved=   6.
 NSaved= 6 IEnMin= 6 EnMin= -747.942108460956     IErMin= 6 ErrMin= 2.97D-07
 ErrMax= 2.97D-07 EMaxC= 1.00D-01 BMatC= 2.75D-11 BMatP= 3.10D-10
 IDIUse=1 WtCom= 1.00D+00 WtEn= 0.00D+00
 Coeff-Com: -0.415D-02 0.198D-01 0.823D-01 0.104D+00 0.290D+00 0.507D+00
 Coeff:     -0.415D-02 0.198D-01 0.823D-01 0.104D+00 0.290D+00 0.507D+00
 Gap=     0.207 Goal=   None    Shift=    0.000
 RMSDP=1.95D-08 MaxDP=1.09D-06 DE=-2.13D-10 OVMax= 1.40D-06

 Cycle  15  Pass 1  IDiag  1:
 E= -747.942108460975     Delta-E=       -0.000000000019 Rises=F Damp=F
 DIIS: error= 7.75D-08 at cycle   7 NSaved=   7.
 NSaved= 7 IEnMin= 7 EnMin= -747.942108460975     IErMin= 7 ErrMin= 7.75D-08
 ErrMax= 7.75D-08 EMaxC= 1.00D-01 BMatC= 2.38D-12 BMatP= 2.75D-11
 IDIUse=1 WtCom= 1.00D+00 WtEn= 0.00D+00
 Coeff-Com: -0.903D-03 0.309D-02 0.128D-01 0.201D-01 0.793D-01 0.266D+00
 Coeff-Com:  0.619D+00
 Coeff:     -0.903D-03 0.309D-02 0.128D-01 0.201D-01 0.793D-01 0.266D+00
 Coeff:      0.619D+00
 Gap=     0.207 Goal=   None    Shift=    0.000
 RMSDP=6.73D-09 MaxDP=2.54D-07 DE=-1.86D-11 OVMax= 4.95D-07

 SCF Done:  E(RB3LYP) =  -747.942108461     A.U. after   15 cycles
             Convg  =    0.6735D-08             -V/T =  2.0097
 KE= 7.407932956542D+02 PE=-3.918678255810D+03 EE= 1.341266356696D+03
 Leave Link  502 at Wed Sep 29 17:56:13 2021, MaxMem= 1342177280 cpu:     364.1
 (Enter /sw/target/amd/app/gaussian/Gaussian09RevA.02_gcc-4.9.2/g09/l508.exe)
 QCSCF skips out because SCF is already converged.
 Leave Link  508 at Wed Sep 29 17:56:17 2021, MaxMem= 1342177280 cpu:       0.0
 (Enter /sw/target/amd/app/gaussian/Gaussian09RevA.02_gcc-4.9.2/g09/l601.exe)
 Copying SCF densities to generalized density rwf, IOpCl= 0 IROHF=0.

 **********************************************************************

            Population analysis using the SCF density.

 **********************************************************************

 Orbital symmetries:
       Occupied  (A) (A) (A) (A) (A) (A) (A) (A) (A) (A) (A) (A)
                 (A) (A) (A) (A) (A) (A) (A) (A) (A) (A) (A) (A)
                 (A) (A) (A) (A) (A) (A) (A) (A) (A) (A) (A) (A)
                 (A) (A) (A) (A) (A) (A) (A) (A) (A) (A) (A) (A)
                 (A) (A) (A) (A) (A) (A) (A) (A) (A) (A) (A) (A)
       Virtual   (A) (A) (A) (A) (A) (A) (A) (A) (A) (A) (A) (A)
                 (A) (A) (A) (A) (A) (A) (A) (A) (A) (A) (A) (A)
                 (A) (A) (A) (A) (A) (A) (A) (A) (A) (A) (A) (A)
                 (A) (A) (A) (A) (A) (A) (A) (A) (A) (A) (A) (A)
                 (A) (A) (A) (A) (A) (A) (A) (A) (A) (A) (A) (A)
                 (A) (A) (A) (A) (A) (A) (A) (A) (A) (A) (A) (A)
                 (A) (A) (A) (A) (A) (A) (A) (A) (A) (A) (A) (A)
                 (A) (A) (A) (A) (A) (A) (A) (A) (A) (A) (A) (A)
                 (A) (A) (A) (A) (A) (A) (A) (A) (A) (A) (A) (A)
                 (A) (A) (A) (A) (A) (A) (A) (A) (A) (A) (A) (A)
                 (A) (A) (A) (A) (A) (A) (A) (A) (A) (A) (A) (A)
                 (A) (A) (A) (A) (A) (A) (A) (A) (A) (A) (A) (A)
                 (A) (A) (A) (A) (A) (A) (A) (A) (A) (A) (A) (A)
                 (A) (A) (A) (A) (A) (A) (A) (A) (A) (A) (A) (A)
                 (A) (A) (A) (A) (A) (A) (A) (A) (A) (A) (A) (A)
                 (A) (A) (A) (A) (A) (A) (A) (A) (A) (A) (A) (A)
                 (A) (A) (A) (A) (A) (A) (A) (A) (A) (A) (A) (A)
                 (A) (A) (A) (A) (A) (A) (A) (A) (A) (A)
 The electronic state is 1-A.
 Alpha  occ. eigenvalues --  -19.19001 -19.17486 -19.11439 -14.36265 -10.33296
 Alpha  occ. eigenvalues --  -10.24433 -10.24334 -10.23920 -10.22313 -10.21981
 Alpha  occ. eigenvalues --  -10.19177 -10.18976 -10.18724 -10.18386 -10.17893
 Alpha  occ. eigenvalues --  -10.17746  -1.08768  -1.05955  -1.00455  -0.93318
 Alpha  occ. eigenvalues --   -0.84834  -0.77279  -0.75905  -0.74803  -0.73764
 Alpha  occ. eigenvalues --   -0.69884  -0.64989  -0.63642  -0.61573  -0.59865
 Alpha  occ. eigenvalues --   -0.55716  -0.52966  -0.52516  -0.49068  -0.48006
 Alpha  occ. eigenvalues --   -0.46842  -0.46332  -0.45671  -0.44426  -0.43614
 Alpha  occ. eigenvalues --   -0.43015  -0.42518  -0.41776  -0.41139  -0.40636
 Alpha  occ. eigenvalues --   -0.39106  -0.38333  -0.37800  -0.36985  -0.36572
 Alpha  occ. eigenvalues --   -0.36020  -0.35478  -0.34013  -0.32907  -0.32629
 Alpha  occ. eigenvalues --   -0.29389  -0.26688  -0.24798  -0.23684  -0.20805
 Alpha virt. eigenvalues --   -0.00076   0.01446   0.05412   0.08707   0.08751
 Alpha virt. eigenvalues --    0.10693   0.11135   0.12076   0.13019   0.13360
 Alpha virt. eigenvalues --    0.14545   0.15233   0.15499   0.15792   0.16217
 Alpha virt. eigenvalues --    0.16656   0.17111   0.17464   0.17808   0.18391
 Alpha virt. eigenvalues --    0.18975   0.20782   0.21860   0.22095   0.23934
 Alpha virt. eigenvalues --    0.24690   0.24876   0.25421   0.27487   0.31300
 Alpha virt. eigenvalues --    0.34008   0.34133   0.36151   0.37164   0.39316
 Alpha virt. eigenvalues --    0.47945   0.48370   0.49441   0.50170   0.51409
 Alpha virt. eigenvalues --    0.52054   0.52822   0.52915   0.53828   0.55299
 Alpha virt. eigenvalues --    0.55531   0.56018   0.57499   0.58017   0.59126
 Alpha virt. eigenvalues --    0.59787   0.60161   0.60971   0.61785   0.62568
 Alpha virt. eigenvalues --    0.63803   0.64322   0.65760   0.66136   0.67282
 Alpha virt. eigenvalues --    0.67598   0.70161   0.70919   0.73731   0.74706
 Alpha virt. eigenvalues --    0.76873   0.78828   0.81261   0.81476   0.82527
 Alpha virt. eigenvalues --    0.83900   0.84377   0.85550   0.85868   0.86398
 Alpha virt. eigenvalues --    0.87164   0.87789   0.88429   0.89144   0.89953
 Alpha virt. eigenvalues --    0.91027   0.91643   0.92737   0.93671   0.94053
 Alpha virt. eigenvalues --    0.95124   0.97093   0.98044   0.98531   0.99205
 Alpha virt. eigenvalues --    0.99538   1.00809   1.02935   1.03179   1.04849
 Alpha virt. eigenvalues --    1.06685   1.09127   1.10766   1.12611   1.14757
 Alpha virt. eigenvalues --    1.16738   1.17430   1.19484   1.19992   1.23164
 Alpha virt. eigenvalues --    1.25770   1.28005   1.28619   1.30213   1.36221
 Alpha virt. eigenvalues --    1.37297   1.38108   1.39202   1.42223   1.42789
 Alpha virt. eigenvalues --    1.44783   1.45695   1.47241   1.50598   1.51379
 Alpha virt. eigenvalues --    1.52940   1.54193   1.62604   1.64615   1.66312
 Alpha virt. eigenvalues --    1.67868   1.69124   1.74042   1.76650   1.77326
 Alpha virt. eigenvalues --    1.79032   1.79818   1.81193   1.82015   1.82891
 Alpha virt. eigenvalues --    1.84928   1.86124   1.88738   1.89809   1.92507
 Alpha virt. eigenvalues --    1.92759   1.94033   1.95627   1.98020   1.98585
 Alpha virt. eigenvalues --    2.00296   2.01461   2.03356   2.03560   2.04324
 Alpha virt. eigenvalues --    2.05042   2.07461   2.09537   2.10320   2.11177
 Alpha virt. eigenvalues --    2.11580   2.14500   2.15893   2.17148   2.21966
 Alpha virt. eigenvalues --    2.23733   2.24547   2.26995   2.30305   2.30604
 Alpha virt. eigenvalues --    2.31351   2.32547   2.33886   2.35237   2.36549
 Alpha virt. eigenvalues --    2.37534   2.40588   2.41225   2.45461   2.48794
 Alpha virt. eigenvalues --    2.51063   2.53540   2.56672   2.59238   2.61438
 Alpha virt. eigenvalues --    2.62691   2.65380   2.66591   2.67873   2.69074
 Alpha virt. eigenvalues --    2.71882   2.73913   2.76353   2.79025   2.82844
 Alpha virt. eigenvalues --    2.90457   2.93039   2.98761   2.99324   3.13944
 Alpha virt. eigenvalues --    3.19555   3.28808   3.44547   4.00717   4.05349
 Alpha virt. eigenvalues --    4.09655   4.11964   4.12806   4.18776   4.23283
 Alpha virt. eigenvalues --    4.25093   4.31277   4.34388   4.41421   4.41936
 Alpha virt. eigenvalues --    4.46539   4.51711   4.56161   4.81860
          Condensed to atoms (all electrons):
              1          2          3          4          5          6
     1  C    5.120149   0.373771  -0.066241  -0.002001  -0.000431  -0.000059
     2  C    0.373771   4.871581   0.303439  -0.026650  -0.003064   0.002239
     3  N   -0.066241   0.303439   6.988567   0.322023  -0.086331  -0.086745
     4  C   -0.002001  -0.026650   0.322023   4.162128   0.549443   0.247511
     5  O   -0.000431  -0.003064  -0.086331   0.549443   8.092780  -0.070532
     6  O   -0.000059   0.002239  -0.086745   0.247511  -0.070532   8.363386
     7  C    0.000001  -0.000016   0.001913  -0.008647  -0.000088   0.201512
     8  C   -0.000000   0.000002  -0.000244   0.000589   0.000142  -0.048389
     9  C    0.000000  -0.000000   0.000002  -0.000023   0.000001   0.003552
    10  C    0.000000   0.000000   0.000000   0.000014   0.000001   0.000135
    11  C   -0.000000  -0.000000   0.000000   0.000222   0.000109   0.003454
    12  C   -0.000000  -0.000005   0.000177  -0.001193   0.001098  -0.046994
    13  O    0.000000  -0.000000   0.000000   0.000000   0.000000   0.000000
    14  C   -0.000000   0.000000  -0.000000  -0.000000  -0.000000  -0.000000
    15  C    0.002179  -0.040320   0.281094  -0.028802   0.002457   0.000034
    16  C   -0.001301   0.002266  -0.063791  -0.000975  -0.000066  -0.004421
    17  H    0.359030  -0.027371   0.004730   0.000000  -0.000022   0.000000
    18  H    0.376265  -0.030997  -0.001310   0.002126   0.000586  -0.000020
    19  H    0.376202  -0.033529  -0.003834  -0.000176  -0.000013  -0.000000
    20  H   -0.039426   0.376283  -0.033824  -0.002330   0.015316   0.000301
    21  H   -0.054174   0.377174  -0.046674   0.004016   0.000585  -0.000029
    22  H   -0.000000   0.000000  -0.000022   0.000045   0.000013  -0.001531
    23  H   -0.000000   0.000000  -0.000000   0.000000  -0.000000  -0.000055
    24  H    0.000000   0.000000  -0.000000  -0.000009  -0.000002  -0.000043
    25  H   -0.000000   0.000004  -0.000193   0.001736   0.009483  -0.006548
    26  H    0.000000   0.000000  -0.000000  -0.000000   0.000000  -0.000000
    27  H   -0.000000  -0.000000   0.000000  -0.000000   0.000000   0.000000
    28  H    0.000000   0.000000  -0.000000   0.000000  -0.000000   0.000000
    29  H   -0.000118   0.002671  -0.036132  -0.005305   0.000101   0.008791
    30  H   -0.001468  -0.004496  -0.036457   0.003040  -0.000073   0.000347
    31  H    0.000103  -0.000040  -0.004390   0.002086  -0.000058   0.006726
    32  H   -0.000022  -0.000125   0.004858   0.000005  -0.000000   0.000024
    33  H    0.001044  -0.000247  -0.000596   0.000104  -0.000004   0.000084
              7          8          9         10         11         12
     1  C    0.000001  -0.000000   0.000000   0.000000  -0.000000  -0.000000
     2  C   -0.000016   0.000002  -0.000000   0.000000  -0.000000  -0.000005
     3  N    0.001913  -0.000244   0.000002   0.000000   0.000000   0.000177
     4  C   -0.008647   0.000589  -0.000023   0.000014   0.000222  -0.001193
     5  O   -0.000088   0.000142   0.000001   0.000001   0.000109   0.001098
     6  O    0.201512  -0.048389   0.003552   0.000135   0.003454  -0.046994
     7  C    4.521490   0.544870  -0.017625  -0.037431  -0.013475   0.512687
     8  C    0.544870   4.996372   0.478104  -0.004081  -0.035504  -0.069297
     9  C   -0.017625   0.478104   5.105370   0.467990  -0.065360  -0.035881
    10  C   -0.037431  -0.004081   0.467990   4.514516   0.539308  -0.018120
    11  C   -0.013475  -0.035504  -0.065360   0.539308   5.005939   0.494252
    12  C    0.512687  -0.069297  -0.035881  -0.018120   0.494252   4.986614
    13  O    0.000134   0.003697  -0.061911   0.278894  -0.055176   0.003232
    14  C   -0.000009   0.000363  -0.006613  -0.043219   0.004240  -0.000130
    15  C    0.000186  -0.000039   0.000000   0.000000  -0.000001   0.000014
    16  C    0.000024   0.000009   0.000000   0.000000  -0.000000  -0.000010
    17  H   -0.000000   0.000000  -0.000000  -0.000000   0.000000   0.000000
    18  H   -0.000000   0.000000  -0.000000  -0.000000   0.000000   0.000000
    19  H    0.000000  -0.000000  -0.000000   0.000000  -0.000000  -0.000000
    20  H   -0.000006   0.000000  -0.000000   0.000000   0.000000  -0.000002
    21  H    0.000000  -0.000000  -0.000000  -0.000000   0.000000   0.000000
    22  H   -0.034315   0.346096  -0.038237   0.003264   0.000284   0.006501
    23  H    0.003728  -0.037433   0.353697  -0.044923   0.004691   0.000438
    24  H    0.003755   0.000138   0.007356  -0.035574   0.346371  -0.039186
    25  H   -0.033320   0.005765   0.000119   0.004033  -0.038381   0.350501
    26  H    0.000000   0.000001   0.000132   0.003263  -0.000108   0.000003
    27  H   -0.000007  -0.000130   0.004925  -0.006588  -0.000030   0.000006
    28  H   -0.000002  -0.000160   0.004741  -0.002965   0.000176  -0.000006
    29  H    0.000071  -0.000028  -0.000001   0.000000   0.000001  -0.000005
    30  H   -0.000000  -0.000000   0.000000  -0.000000   0.000000   0.000001
    31  H   -0.000053  -0.000045   0.000008   0.000000  -0.000000   0.000029
    32  H   -0.000004  -0.000000  -0.000000  -0.000000   0.000000   0.000000
    33  H    0.000001  -0.000000  -0.000000  -0.000000   0.000000   0.000000
             13         14         15         16         17         18
     1  C    0.000000  -0.000000   0.002179  -0.001301   0.359030   0.376265
     2  C   -0.000000   0.000000  -0.040320   0.002266  -0.027371  -0.030997
     3  N    0.000000  -0.000000   0.281094  -0.063791   0.004730  -0.001310
     4  C    0.000000  -0.000000  -0.028802  -0.000975   0.000000   0.002126
     5  O    0.000000  -0.000000   0.002457  -0.000066  -0.000022   0.000586
     6  O    0.000000  -0.000000   0.000034  -0.004421   0.000000  -0.000020
     7  C    0.000134  -0.000009   0.000186   0.000024  -0.000000  -0.000000
     8  C    0.003697   0.000363  -0.000039   0.000009   0.000000   0.000000
     9  C   -0.061911  -0.006613   0.000000   0.000000  -0.000000  -0.000000
    10  C    0.278894  -0.043219   0.000000   0.000000  -0.000000  -0.000000
    11  C   -0.055176   0.004240  -0.000001  -0.000000   0.000000   0.000000
    12  C    0.003232  -0.000130   0.000014  -0.000010   0.000000   0.000000
    13  O    8.201547   0.249965  -0.000000   0.000000   0.000000   0.000000
    14  C    0.249965   4.894908   0.000000  -0.000000   0.000000   0.000000
    15  C   -0.000000   0.000000   4.886482   0.372679  -0.000276  -0.000749
    16  C    0.000000  -0.000000   0.372679   5.132077   0.000060   0.000234
    17  H    0.000000   0.000000  -0.000276   0.000060   0.573230  -0.025705
    18  H    0.000000   0.000000  -0.000749   0.000234  -0.025705   0.546206
    19  H    0.000000  -0.000000   0.003819  -0.002179  -0.029455  -0.033074
    20  H   -0.000000   0.000000   0.004103  -0.000242  -0.001927  -0.003825
    21  H   -0.000000  -0.000000  -0.007415  -0.000465   0.000662   0.005327
    22  H   -0.000042  -0.000006   0.000007   0.000009   0.000000  -0.000000
    23  H   -0.007087   0.005235  -0.000000   0.000000   0.000000   0.000000
    24  H   -0.000217  -0.000187   0.000000  -0.000000  -0.000000  -0.000000
    25  H   -0.000050   0.000003  -0.000010  -0.000000   0.000000   0.000000
    26  H   -0.031174   0.384087  -0.000000   0.000000   0.000000  -0.000000
    27  H   -0.034903   0.361716   0.000000  -0.000000   0.000000   0.000000
    28  H   -0.037354   0.365855  -0.000000   0.000000  -0.000000  -0.000000
    29  H   -0.000000  -0.000000   0.379162  -0.046033   0.000007   0.000000
    30  H   -0.000000  -0.000000   0.373235  -0.046495  -0.000001   0.000066
    31  H   -0.000000   0.000000  -0.030628   0.377177  -0.000003  -0.000028
    32  H   -0.000000  -0.000000  -0.027556   0.353973   0.000000   0.000011
    33  H   -0.000000  -0.000000  -0.035231   0.374234   0.000064   0.000368
             19         20         21         22         23         24
     1  C    0.376202  -0.039426  -0.054174  -0.000000  -0.000000   0.000000
     2  C   -0.033529   0.376283   0.377174   0.000000   0.000000   0.000000
     3  N   -0.003834  -0.033824  -0.046674  -0.000022  -0.000000  -0.000000
     4  C   -0.000176  -0.002330   0.004016   0.000045   0.000000  -0.000009
     5  O   -0.000013   0.015316   0.000585   0.000013  -0.000000  -0.000002
     6  O   -0.000000   0.000301  -0.000029  -0.001531  -0.000055  -0.000043
     7  C    0.000000  -0.000006   0.000000  -0.034315   0.003728   0.003755
     8  C   -0.000000   0.000000  -0.000000   0.346096  -0.037433   0.000138
     9  C   -0.000000  -0.000000  -0.000000  -0.038237   0.353697   0.007356
    10  C    0.000000   0.000000  -0.000000   0.003264  -0.044923  -0.035574
    11  C   -0.000000   0.000000   0.000000   0.000284   0.004691   0.346371
    12  C   -0.000000  -0.000002   0.000000   0.006501   0.000438  -0.039186
    13  O    0.000000  -0.000000  -0.000000  -0.000042  -0.007087  -0.000217
    14  C   -0.000000   0.000000  -0.000000  -0.000006   0.005235  -0.000187
    15  C    0.003819   0.004103  -0.007415   0.000007  -0.000000   0.000000
    16  C   -0.002179  -0.000242  -0.000465   0.000009   0.000000  -0.000000
    17  H   -0.029455  -0.001927   0.000662   0.000000   0.000000  -0.000000
    18  H   -0.033074  -0.003825   0.005327  -0.000000   0.000000  -0.000000
    19  H    0.571640   0.004577  -0.005579  -0.000000   0.000000  -0.000000
    20  H    0.004577   0.523380  -0.029701  -0.000000   0.000000   0.000000
    21  H   -0.005579  -0.029701   0.606979  -0.000000  -0.000000  -0.000000
    22  H   -0.000000  -0.000000  -0.000000   0.582755  -0.006266   0.000013
    23  H    0.000000   0.000000  -0.000000  -0.006266   0.590490  -0.000167
    24  H   -0.000000   0.000000  -0.000000   0.000013  -0.000167   0.580454
    25  H   -0.000000   0.000008   0.000001  -0.000155   0.000011  -0.006165
    26  H   -0.000000  -0.000000  -0.000000  -0.000000  -0.000140  -0.000027
    27  H    0.000000  -0.000000   0.000000   0.000006   0.002695   0.000029
    28  H   -0.000000   0.000000  -0.000000  -0.000000   0.001203   0.000028
    29  H   -0.000014  -0.000196   0.000609   0.000019   0.000000   0.000000
    30  H    0.000833   0.000216   0.005566   0.000001  -0.000000   0.000000
    31  H    0.000012   0.000008  -0.000008   0.001017  -0.000000   0.000000
    32  H    0.000089   0.000005   0.000033   0.000000  -0.000000   0.000000
    33  H    0.003754  -0.000027   0.000099  -0.000002   0.000000   0.000000
             25         26         27         28         29         30
     1  C   -0.000000   0.000000  -0.000000   0.000000  -0.000118  -0.001468
     2  C    0.000004   0.000000  -0.000000   0.000000   0.002671  -0.004496
     3  N   -0.000193  -0.000000   0.000000  -0.000000  -0.036132  -0.036457
     4  C    0.001736  -0.000000  -0.000000   0.000000  -0.005305   0.003040
     5  O    0.009483   0.000000   0.000000  -0.000000   0.000101  -0.000073
     6  O   -0.006548  -0.000000   0.000000   0.000000   0.008791   0.000347
     7  C   -0.033320   0.000000  -0.000007  -0.000002   0.000071  -0.000000
     8  C    0.005765   0.000001  -0.000130  -0.000160  -0.000028  -0.000000
     9  C    0.000119   0.000132   0.004925   0.004741  -0.000001   0.000000
    10  C    0.004033   0.003263  -0.006588  -0.002965   0.000000  -0.000000
    11  C   -0.038381  -0.000108  -0.000030   0.000176   0.000001   0.000000
    12  C    0.350501   0.000003   0.000006  -0.000006  -0.000005   0.000001
    13  O   -0.000050  -0.031174  -0.034903  -0.037354  -0.000000  -0.000000
    14  C    0.000003   0.384087   0.361716   0.365855  -0.000000  -0.000000
    15  C   -0.000010  -0.000000   0.000000  -0.000000   0.379162   0.373235
    16  C   -0.000000   0.000000  -0.000000   0.000000  -0.046033  -0.046495
    17  H    0.000000   0.000000   0.000000  -0.000000   0.000007  -0.000001
    18  H    0.000000  -0.000000   0.000000  -0.000000   0.000000   0.000066
    19  H   -0.000000  -0.000000   0.000000  -0.000000  -0.000014   0.000833
    20  H    0.000008  -0.000000  -0.000000   0.000000  -0.000196   0.000216
    21  H    0.000001  -0.000000   0.000000  -0.000000   0.000609   0.005566
    22  H   -0.000155  -0.000000   0.000006  -0.000000   0.000019   0.000001
    23  H    0.000011  -0.000140   0.002695   0.001203   0.000000  -0.000000
    24  H   -0.006165  -0.000027   0.000029   0.000028   0.000000   0.000000
    25  H    0.550446  -0.000000  -0.000000   0.000000   0.000010   0.000000
    26  H   -0.000000   0.544184  -0.034457  -0.033739  -0.000000  -0.000000
    27  H   -0.000000  -0.034457   0.603019  -0.046758   0.000000   0.000000
    28  H    0.000000  -0.033739  -0.046758   0.595218  -0.000000  -0.000000
    29  H    0.000010  -0.000000   0.000000  -0.000000   0.557827  -0.030767
    30  H    0.000000  -0.000000   0.000000  -0.000000  -0.030767   0.590158
    31  H    0.000001  -0.000000   0.000000   0.000000  -0.004684   0.004787
    32  H    0.000000  -0.000000   0.000000  -0.000000  -0.000370  -0.000141
    33  H    0.000000  -0.000000  -0.000000   0.000000   0.004895  -0.004542
             31         32         33
     1  C    0.000103  -0.000022   0.001044
     2  C   -0.000040  -0.000125  -0.000247
     3  N   -0.004390   0.004858  -0.000596
     4  C    0.002086   0.000005   0.000104
     5  O   -0.000058  -0.000000  -0.000004
     6  O    0.006726   0.000024   0.000084
     7  C   -0.000053  -0.000004   0.000001
     8  C   -0.000045  -0.000000  -0.000000
     9  C    0.000008  -0.000000  -0.000000
    10  C    0.000000  -0.000000  -0.000000
    11  C   -0.000000   0.000000   0.000000
    12  C    0.000029   0.000000   0.000000
    13  O   -0.000000  -0.000000  -0.000000
    14  C    0.000000  -0.000000  -0.000000
    15  C   -0.030628  -0.027556  -0.035231
    16  C    0.377177   0.353973   0.374234
    17  H   -0.000003   0.000000   0.000064
    18  H   -0.000028   0.000011   0.000368
    19  H    0.000012   0.000089   0.003754
    20  H    0.000008   0.000005  -0.000027
    21  H   -0.000008   0.000033   0.000099
    22  H    0.001017   0.000000  -0.000002
    23  H   -0.000000  -0.000000   0.000000
    24  H    0.000000   0.000000   0.000000
    25  H    0.000001   0.000000   0.000000
    26  H   -0.000000  -0.000000  -0.000000
    27  H    0.000000   0.000000  -0.000000
    28  H    0.000000  -0.000000   0.000000
    29  H   -0.004684  -0.000370   0.004895
    30  H    0.004787  -0.000141  -0.004542
    31  H    0.538584  -0.026904  -0.030294
    32  H   -0.026904   0.582432  -0.027650
    33  H   -0.030294  -0.027650   0.562128
 Mulliken atomic charges:
              1
     1  C   -0.443498
     2  C   -0.142569
     3  N   -0.440018
     4  C    0.781024
     5  O   -0.511430
     6  O   -0.572730
     7  C    0.354625
     8  C   -0.180800
     9  C   -0.200346
    10  C    0.381484
    11  C   -0.191013
    12  C   -0.144726
    13  O   -0.509554
    14  C   -0.216208
    15  C   -0.134425
    16  C   -0.446765
    17  H    0.146977
    18  H    0.164519
    19  H    0.146930
    20  H    0.187308
    21  H    0.142993
    22  H    0.140546
    23  H    0.133882
    24  H    0.143434
    25  H    0.162703
    26  H    0.167975
    27  H    0.150478
    28  H    0.153763
    29  H    0.169490
    30  H    0.146193
    31  H    0.166597
    32  H    0.141342
    33  H    0.151820
 Sum of Mulliken atomic charges =  -0.00000
 Mulliken charges with hydrogens summed into heavy atoms:
              1
     1  C    0.014928
     2  C    0.187732
     3  N   -0.440018
     4  C    0.781024
     5  O   -0.511430
     6  O   -0.572730
     7  C    0.354625
     8  C   -0.040254
     9  C   -0.066464
    10  C    0.381484
    11  C   -0.047578
    12  C    0.017977
    13  O   -0.509554
    14  C    0.256007
    15  C    0.181258
    16  C    0.012994
 Sum of Mulliken charges with hydrogens summed into heavy atoms =  -0.00000
 Electronic spatial extent (au):  <R**2>=           5684.8050
 Charge=              0.0000 electrons
 Dipole moment (field-independent basis, Debye):
    X=              0.5415    Y=              2.8833    Z=             -0.5921  Tot=              2.9929
 Quadrupole moment (field-independent basis, Debye-Ang):
   XX=            -72.2826   YY=            -94.1031   ZZ=            -96.0699
   XY=             -3.9700   XZ=             -5.7918   YZ=              3.2215
 Traceless Quadrupole moment (field-independent basis, Debye-Ang):
   XX=             15.2026   YY=             -6.6179   ZZ=             -8.5847
   XY=             -3.9700   XZ=             -5.7918   YZ=              3.2215
 Octapole moment (field-independent basis, Debye-Ang**2):
  XXX=            -29.8464  YYY=              1.5020  ZZZ=              0.5040  XYY=             -8.1193
  XXY=             28.7964  XXZ=             12.8856  XZZ=              3.7718  YZZ=             -0.7744
  YYZ=             -6.3610  XYZ=             -5.2542
 Hexadecapole moment (field-independent basis, Debye-Ang**3):
 XXXX=          -5603.7724 YYYY=           -836.1526 ZZZZ=           -266.4581 XXXY=           -216.3556
 XXXZ=           -136.4893 YYYX=              7.1619 YYYZ=              9.9100 ZZZX=             -9.6800
 ZZZY=             -5.5013 XXYY=          -1170.5763 XXZZ=          -1110.3318 YYZZ=           -187.2046
 XXYZ=              3.8146 YYXZ=             -6.1138 ZZXY=              2.0273
 N-N= 1.088676494999D+03 E-N=-3.918678270630D+03  KE= 7.407932956542D+02
 No NMR shielding tensors so no spin-rotation constants.
 Leave Link  601 at Wed Sep 29 17:56:20 2021, MaxMem= 1342177280 cpu:       1.8
 (Enter /sw/target/amd/app/gaussian/Gaussian09RevA.02_gcc-4.9.2/g09/l701.exe)
 Compute integral first derivatives.
 ... and contract with generalized density number  0.
 Leave Link  701 at Wed Sep 29 17:56:24 2021, MaxMem= 1342177280 cpu:       1.6
 (Enter /sw/target/amd/app/gaussian/Gaussian09RevA.02_gcc-4.9.2/g09/l702.exe)
 L702 exits ... SP integral derivatives will be done elsewhere.
 Leave Link  702 at Wed Sep 29 17:56:24 2021, MaxMem= 1342177280 cpu:       0.1
 (Enter /sw/target/amd/app/gaussian/Gaussian09RevA.02_gcc-4.9.2/g09/l703.exe)
 Compute integral first derivatives, UseDBF=F ICtDFT=           0.
 Integral derivatives from FoFDir, PRISM(SPDF).
 Calling FoFJK, ICntrl=      2127 FMM=F ISym2X=0 I1Cent= 0 IOpClX= 0 NMat=1 NMatS=1 NMatT=0.
 FoFCou: FMM=F IPFlag=           0 FMFlag=      100000 FMFlg1=         800
         NFxFlg=           0 DoJE=F BraDBF=F KetDBF=F FulRan=T
         Omega=  0.000000  0.000000  1.000000  0.000000  0.000000 ICntrl=    2127 IOpCl=  0
         NMat0=    1 NMatS0=    1 NMatT0=    0 NMatD0=    1 NMtDS0=    0 NMtDT0=    0
         I1Cent=           0 NGrid=           0.
 Symmetry not used in FoFCou.
 Leave Link  703 at Wed Sep 29 17:58:26 2021, MaxMem= 1342177280 cpu:     112.2
 (Enter /sw/target/amd/app/gaussian/Gaussian09RevA.02_gcc-4.9.2/g09/l716.exe)
 Dipole        = 2.13061063D-01 1.13439246D+00-2.32951699D-01
 ***** Axes restored to original set *****
 -------------------------------------------------------------------
 Center     Atomic                   Forces (Hartrees/Bohr)
 Number     Number              X              Y              Z
 -------------------------------------------------------------------
      1        6           0.001136811    0.005445155   -0.003353636
      2        6           0.005869744   -0.003611597    0.002925578
      3        7          -0.004902060   -0.009581349    0.022402807
      4        6           0.008346308   -0.002200458   -0.001588934
      5        8          -0.013559066    0.003179540   -0.004015390
      6        8           0.005565442    0.000867463   -0.008721987
      7        6           0.002429528    0.006060191   -0.013979302
      8        6           0.003332874   -0.002057850   -0.000089751
      9        6          -0.003180197    0.003897171   -0.001603906
     10        6           0.003990579   -0.006215593    0.000256186
     11        6           0.004071567    0.000303874   -0.009055083
     12        6           0.000944791   -0.007412698    0.007466871
     13        8          -0.004573019    0.004168593    0.004502378
     14        6           0.000884632   -0.004530224    0.003538885
     15        6          -0.005309815   -0.001715212    0.006125255
     16        6          -0.002554956    0.007193708   -0.000774947
     17        1           0.001226741   -0.000126929   -0.000435281
     18        1           0.000281948   -0.000489924    0.000533927
     19        1          -0.000060411    0.001326059   -0.000800506
     20        1          -0.005970051   -0.000122775    0.003794904
     21        1          -0.001140610   -0.000422153   -0.001578175
     22        1           0.001518104   -0.000362177   -0.000564793
     23        1           0.000763720   -0.000910309    0.001382780
     24        1          -0.001849375    0.001720176    0.001098317
     25        1          -0.000678099    0.003385012    0.000111756
     26        1           0.003149876   -0.002689973   -0.002485852
     27        1          -0.000626997    0.002873166   -0.001648721
     28        1          -0.001947125    0.003638311   -0.001895838
     29        1           0.000941994   -0.000071328   -0.000844192
     30        1           0.003573917   -0.000815229    0.000670639
     31        1          -0.000465528   -0.002316570   -0.000182117
     32        1          -0.001548007    0.000776600   -0.000359041
     33        1           0.000336741    0.000817328   -0.000832831
 -------------------------------------------------------------------
 Cartesian Forces:  Max     0.022402807 RMS     0.004541983
[...]
     3    C    1  S      Ryd( 3S)     0.00040
     4    C    1  S      Ryd( 4S)     0.00001
     5    C    1  px     Val( 2p)     1.24037
     6    C    1  px     Ryd( 3p)     0.00124
     7    C    1  py     Val( 2p)     1.23814
     8    C    1  py     Ryd( 3p)     0.00152
     9    C    1  pz     Val( 2p)     1.09177
    10    C    1  pz     Ryd( 3p)     0.00095
    11    C    1  dxy    Ryd( 3d)     0.00088
    12    C    1  dxz    Ryd( 3d)     0.00071
    13    C    1  dyz    Ryd( 3d)     0.00040
    14    C    1  dx2y2  Ryd( 3d)     0.00051
    15    C    1  dz2    Ryd( 3d)     0.00072

    16    C    2  S      Cor( 1S)     1.99935
    17    C    2  S      Val( 2S)     1.01805
    18    C    2  S      Ryd( 3S)     0.00128
    19    C    2  S      Ryd( 4S)     0.00003
    20    C    2  px     Val( 2p)     1.01261
    21    C    2  px     Ryd( 3p)     0.00381
    22    C    2  py     Val( 2p)     1.11494
    23    C    2  py     Ryd( 3p)     0.00378
    24    C    2  pz     Val( 2p)     1.09231
    25    C    2  pz     Ryd( 3p)     0.00178
    26    C    2  dxy    Ryd( 3d)     0.00114
    27    C    2  dxz    Ryd( 3d)     0.00134
    28    C    2  dyz    Ryd( 3d)     0.00075
    29    C    2  dx2y2  Ryd( 3d)     0.00081
    30    C    2  dz2    Ryd( 3d)     0.00088

    31    N    3  S      Cor( 1S)     1.99930
    32    N    3  S      Val( 2S)     1.20719
    33    N    3  S      Ryd( 3S)     0.00156
    34    N    3  S      Ryd( 4S)     0.00005
    35    N    3  px     Val( 2p)     1.29871
    36    N    3  px     Ryd( 3p)     0.00132
    37    N    3  py     Val( 2p)     1.34665
    38    N    3  py     Ryd( 3p)     0.00224
    39    N    3  pz     Val( 2p)     1.63053
    40    N    3  pz     Ryd( 3p)     0.00499
    41    N    3  dxy    Ryd( 3d)     0.00058
    42    N    3  dxz    Ryd( 3d)     0.00065
    43    N    3  dyz    Ryd( 3d)     0.00047
    44    N    3  dx2y2  Ryd( 3d)     0.00079
    45    N    3  dz2    Ryd( 3d)     0.00051

    46    C    4  S      Cor( 1S)     1.99937
    47    C    4  S      Val( 2S)     0.69590
    48    C    4  S      Ryd( 3S)     0.00276
    49    C    4  S      Ryd( 4S)     0.00055
    50    C    4  px     Val( 2p)     0.77153
    51    C    4  px     Ryd( 3p)     0.00632
    52    C    4  py     Val( 2p)     0.73254
    53    C    4  py     Ryd( 3p)     0.01958
    54    C    4  pz     Val( 2p)     0.81561
    55    C    4  pz     Ryd( 3p)     0.00479
    56    C    4  dxy    Ryd( 3d)     0.00379
    57    C    4  dxz    Ryd( 3d)     0.00253
    58    C    4  dyz    Ryd( 3d)     0.00177
    59    C    4  dx2y2  Ryd( 3d)     0.00220
    60    C    4  dz2    Ryd( 3d)     0.00135

    61    O    5  S      Cor( 1S)     1.99978
    62    O    5  S      Val( 2S)     1.70411
    63    O    5  S      Ryd( 3S)     0.00046
    64    O    5  S      Ryd( 4S)     0.00014
    65    O    5  px     Val( 2p)     1.80442
    66    O    5  px     Ryd( 3p)     0.00084
    67    O    5  py     Val( 2p)     1.57248
    68    O    5  py     Ryd( 3p)     0.00048
    69    O    5  pz     Val( 2p)     1.53643
    70    O    5  pz     Ryd( 3p)     0.00082
    71    O    5  dxy    Ryd( 3d)     0.00423
    72    O    5  dxz    Ryd( 3d)     0.00111
    73    O    5  dyz    Ryd( 3d)     0.00448
    74    O    5  dx2y2  Ryd( 3d)     0.00414
    75    O    5  dz2    Ryd( 3d)     0.00239

    76    O    6  S      Cor( 1S)     1.99969
    77    O    6  S      Val( 2S)     1.59879
    78    O    6  S      Ryd( 3S)     0.00089
    79    O    6  S      Ryd( 4S)     0.00014
    80    O    6  px     Val( 2p)     1.43066
    81    O    6  px     Ryd( 3p)     0.00071
    82    O    6  py     Val( 2p)     1.74212
    83    O    6  py     Ryd( 3p)     0.00191
    84    O    6  pz     Val( 2p)     1.75126
    85    O    6  pz     Ryd( 3p)     0.00158
    86    O    6  dxy    Ryd( 3d)     0.00120
    87    O    6  dxz    Ryd( 3d)     0.00054
    88    O    6  dyz    Ryd( 3d)     0.00134
    89    O    6  dx2y2  Ryd( 3d)     0.00117
    90    O    6  dz2    Ryd( 3d)     0.00092

    91    C    7  S      Cor( 1S)     1.99869
    92    C    7  S      Val( 2S)     0.84577
    93    C    7  S      Ryd( 3S)     0.00132
    94    C    7  S      Ryd( 4S)     0.00011
    95    C    7  px     Val( 2p)     0.73561
    96    C    7  px     Ryd( 3p)     0.00650
    97    C    7  py     Val( 2p)     1.06183
    98    C    7  py     Ryd( 3p)     0.00616
    99    C    7  pz     Val( 2p)     0.97965
   100    C    7  pz     Ryd( 3p)     0.00252
   101    C    7  dxy    Ryd( 3d)     0.00131
   102    C    7  dxz    Ryd( 3d)     0.00135
   103    C    7  dyz    Ryd( 3d)     0.00076
   104    C    7  dx2y2  Ryd( 3d)     0.00170
   105    C    7  dz2    Ryd( 3d)     0.00111

   106    C    8  S      Cor( 1S)     1.99904
   107    C    8  S      Val( 2S)     0.95611
   108    C    8  S      Ryd( 3S)     0.00087
   109    C    8  S      Ryd( 4S)     0.00005
   110    C    8  px     Val( 2p)     1.07979
   111    C    8  px     Ryd( 3p)     0.00529
   112    C    8  py     Val( 2p)     1.15833
   113    C    8  py     Ryd( 3p)     0.00504
   114    C    8  pz     Val( 2p)     1.10620
   115    C    8  pz     Ryd( 3p)     0.00627
   116    C    8  dxy    Ryd( 3d)     0.00076
   117    C    8  dxz    Ryd( 3d)     0.00061
   118    C    8  dyz    Ryd( 3d)     0.00050
   119    C    8  dx2y2  Ryd( 3d)     0.00051
   120    C    8  dz2    Ryd( 3d)     0.00048

   121    C    9  S      Cor( 1S)     1.99905
   122    C    9  S      Val( 2S)     0.95610
   123    C    9  S      Ryd( 3S)     0.00059
   124    C    9  S      Ryd( 4S)     0.00005
   125    C    9  px     Val( 2p)     1.10384
   126    C    9  px     Ryd( 3p)     0.00392
   127    C    9  py     Val( 2p)     1.13419
   128    C    9  py     Ryd( 3p)     0.00442
   129    C    9  pz     Val( 2p)     1.13387
   130    C    9  pz     Ryd( 3p)     0.00543
   131    C    9  dxy    Ryd( 3d)     0.00072
   132    C    9  dxz    Ryd( 3d)     0.00069
   133    C    9  dyz    Ryd( 3d)     0.00054
   134    C    9  dx2y2  Ryd( 3d)     0.00053
   135    C    9  dz2    Ryd( 3d)     0.00041

   136    C   10  S      Cor( 1S)     1.99879
   137    C   10  S      Val( 2S)     0.84247
   138    C   10  S      Ryd( 3S)     0.00152
   139    C   10  S      Ryd( 4S)     0.00012
   140    C   10  px     Val( 2p)     0.74918
   141    C   10  px     Ryd( 3p)     0.00652
   142    C   10  py     Val( 2p)     1.05766
   143    C   10  py     Ryd( 3p)     0.00559
   144    C   10  pz     Val( 2p)     0.99520
   145    C   10  pz     Ryd( 3p)     0.00250
   146    C   10  dxy    Ryd( 3d)     0.00148
   147    C   10  dxz    Ryd( 3d)     0.00152
   148    C   10  dyz    Ryd( 3d)     0.00080
   149    C   10  dx2y2  Ryd( 3d)     0.00177
   150    C   10  dz2    Ryd( 3d)     0.00116

   151    C   11  S      Cor( 1S)     1.99907
   152    C   11  S      Val( 2S)     0.95665
   153    C   11  S      Ryd( 3S)     0.00085
   154    C   11  S      Ryd( 4S)     0.00005
   155    C   11  px     Val( 2p)     1.08379
   156    C   11  px     Ryd( 3p)     0.00553
   157    C   11  py     Val( 2p)     1.14950
   158    C   11  py     Ryd( 3p)     0.00486
   159    C   11  pz     Val( 2p)     1.11227
   160    C   11  pz     Ryd( 3p)     0.00628
   161    C   11  dxy    Ryd( 3d)     0.00080
   162    C   11  dxz    Ryd( 3d)     0.00064
   163    C   11  dyz    Ryd( 3d)     0.00050
   164    C   11  dx2y2  Ryd( 3d)     0.00048
   165    C   11  dz2    Ryd( 3d)     0.00045

   166    C   12  S      Cor( 1S)     1.99903
   167    C   12  S      Val( 2S)     0.95866
   168    C   12  S      Ryd( 3S)     0.00072
   169    C   12  S      Ryd( 4S)     0.00005
   170    C   12  px     Val( 2p)     1.10308
   171    C   12  px     Ryd( 3p)     0.00438
   172    C   12  py     Val( 2p)     1.12853
   173    C   12  py     Ryd( 3p)     0.00490
   174    C   12  pz     Val( 2p)     1.11010
   175    C   12  pz     Ryd( 3p)     0.00530
   176    C   12  dxy    Ryd( 3d)     0.00068
   177    C   12  dxz    Ryd( 3d)     0.00072
   178    C   12  dyz    Ryd( 3d)     0.00055
   179    C   12  dx2y2  Ryd( 3d)     0.00058
   180    C   12  dz2    Ryd( 3d)     0.00041

   181    O   13  S      Cor( 1S)     1.99975
   182    O   13  S      Val( 2S)     1.59805
   183    O   13  S      Ryd( 3S)     0.00077
   184    O   13  S      Ryd( 4S)     0.00006
   185    O   13  px     Val( 2p)     1.43906
   186    O   13  px     Ryd( 3p)     0.00111
   187    O   13  py     Val( 2p)     1.69693
   188    O   13  py     Ryd( 3p)     0.00217
   189    O   13  pz     Val( 2p)     1.68421
   190    O   13  pz     Ryd( 3p)     0.00208
   191    O   13  dxy    Ryd( 3d)     0.00120
   192    O   13  dxz    Ryd( 3d)     0.00080
   193    O   13  dyz    Ryd( 3d)     0.00129
   194    O   13  dx2y2  Ryd( 3d)     0.00129
   195    O   13  dz2    Ryd( 3d)     0.00092

   196    C   14  S      Cor( 1S)     1.99942
   197    C   14  S      Val( 2S)     1.10346
   198    C   14  S      Ryd( 3S)     0.00149
   199    C   14  S      Ryd( 4S)     0.00003
   200    C   14  px     Val( 2p)     1.05083
   201    C   14  px     Ryd( 3p)     0.00233
   202    C   14  py     Val( 2p)     1.01993
   203    C   14  py     Ryd( 3p)     0.00277
   204    C   14  pz     Val( 2p)     1.13713
   205    C   14  pz     Ryd( 3p)     0.00100
   206    C   14  dxy    Ryd( 3d)     0.00144
   207    C   14  dxz    Ryd( 3d)     0.00090
   208    C   14  dyz    Ryd( 3d)     0.00125
   209    C   14  dx2y2  Ryd( 3d)     0.00142
   210    C   14  dz2    Ryd( 3d)     0.00150

   211    C   15  S      Cor( 1S)     1.99934
   212    C   15  S      Val( 2S)     1.01729
   213    C   15  S      Ryd( 3S)     0.00141
   214    C   15  S      Ryd( 4S)     0.00003
   215    C   15  px     Val( 2p)     1.24111
   216    C   15  px     Ryd( 3p)     0.00566
   217    C   15  py     Val( 2p)     0.87194
   218    C   15  py     Ryd( 3p)     0.00216
   219    C   15  pz     Val( 2p)     1.11298
   220    C   15  pz     Ryd( 3p)     0.00108
   221    C   15  dxy    Ryd( 3d)     0.00046
   222    C   15  dxz    Ryd( 3d)     0.00130
   223    C   15  dyz    Ryd( 3d)     0.00119
   224    C   15  dx2y2  Ryd( 3d)     0.00136
   225    C   15  dz2    Ryd( 3d)     0.00057

   226    C   16  S      Cor( 1S)     1.99945
   227    C   16  S      Val( 2S)     1.11120
   228    C   16  S      Ryd( 3S)     0.00043
   229    C   16  S      Ryd( 4S)     0.00001
   230    C   16  px     Val( 2p)     1.24664
   231    C   16  px     Ryd( 3p)     0.00146
   232    C   16  py     Val( 2p)     1.15286
   233    C   16  py     Ryd( 3p)     0.00117
   234    C   16  pz     Val( 2p)     1.16906
   235    C   16  pz     Ryd( 3p)     0.00104
   236    C   16  dxy    Ryd( 3d)     0.00020
   237    C   16  dxz    Ryd( 3d)     0.00116
   238    C   16  dyz    Ryd( 3d)     0.00077
   239    C   16  dx2y2  Ryd( 3d)     0.00091
   240    C   16  dz2    Ryd( 3d)     0.00018

   241    H   17  S      Val( 1S)     0.76483
   242    H   17  S      Ryd( 2S)     0.00088

   243    H   18  S      Val( 1S)     0.75188
   244    H   18  S      Ryd( 2S)     0.00130

   245    H   19  S      Val( 1S)     0.77699
   246    H   19  S      Ryd( 2S)     0.00102

   247    H   20  S      Val( 1S)     0.74421
   248    H   20  S      Ryd( 2S)     0.00206

   249    H   21  S      Val( 1S)     0.77181
   250    H   21  S      Ryd( 2S)     0.00134

   251    H   22  S      Val( 1S)     0.76297
   252    H   22  S      Ryd( 2S)     0.00124

   253    H   23  S      Val( 1S)     0.77087
   254    H   23  S      Ryd( 2S)     0.00095

   255    H   24  S      Val( 1S)     0.76025
   256    H   24  S      Ryd( 2S)     0.00120

   257    H   25  S      Val( 1S)     0.75133
   258    H   25  S      Ryd( 2S)     0.00110

   259    H   26  S      Val( 1S)     0.76828
   260    H   26  S      Ryd( 2S)     0.00054

   261    H   27  S      Val( 1S)     0.78204
   262    H   27  S      Ryd( 2S)     0.00206

   263    H   28  S      Val( 1S)     0.78100
   264    H   28  S      Ryd( 2S)     0.00204

   265    H   29  S      Val( 1S)     0.74666
   266    H   29  S      Ryd( 2S)     0.00153

   267    H   30  S      Val( 1S)     0.76769
   268    H   30  S      Ryd( 2S)     0.00148

   269    H   31  S      Val( 1S)     0.76045
   270    H   31  S      Ryd( 2S)     0.00142

   271    H   32  S      Val( 1S)     0.76441
   272    H   32  S      Ryd( 2S)     0.00095

   273    H   33  S      Val( 1S)     0.77293
   274    H   33  S      Ryd( 2S)     0.00099

 WARNING:  1 low occupancy (<1.9990e) core orbital  found on  C    7
           1 low occupancy (<1.9990e) core orbital  found on  C   10


 Summary of Natural Population Analysis:                  
                                                          
                                       Natural Population 
                Natural  -----------------------------------------------
    Atom  No    Charge         Core      Valence    Rydberg      Total
 -----------------------------------------------------------------------
      C    1   -0.68773      1.99945     4.68094    0.00734     6.68773
      C    2   -0.25285      1.99935     4.23792    0.01558     6.25285
      N    3   -0.49555      1.99930     5.48308    0.01317     7.49555
      C    4    0.93939      1.99937     3.01559    0.04565     5.06061
      O    5   -0.63631      1.99978     6.61744    0.01909     8.63631
      O    6   -0.53292      1.99969     6.52282    0.01041     8.53292
      C    7    0.35561      1.99869     3.62286    0.02284     5.64439
      C    8   -0.31987      1.99904     4.30044    0.02039     6.31987
      C    9   -0.34436      1.99905     4.32801    0.01729     6.34436
      C   10    0.33372      1.99879     3.64451    0.02298     5.66628
      C   11   -0.32171      1.99907     4.30220    0.02044     6.32171
      C   12   -0.31769      1.99903     4.30037    0.01829     6.31769
      O   13   -0.42970      1.99975     6.41825    0.01169     8.42970
      C   14   -0.32491      1.99942     4.31136    0.01413     6.32491
      C   15   -0.25789      1.99934     4.24332    0.01523     6.25789
      C   16   -0.68653      1.99945     4.67976    0.00733     6.68653
      H   17    0.23429      0.00000     0.76483    0.00088     0.76571
      H   18    0.24682      0.00000     0.75188    0.00130     0.75318
      H   19    0.22199      0.00000     0.77699    0.00102     0.77801
      H   20    0.25373      0.00000     0.74421    0.00206     0.74627
      H   21    0.22685      0.00000     0.77181    0.00134     0.77315
      H   22    0.23579      0.00000     0.76297    0.00124     0.76421
      H   23    0.22819      0.00000     0.77087    0.00095     0.77181
      H   24    0.23855      0.00000     0.76025    0.00120     0.76145
      H   25    0.24756      0.00000     0.75133    0.00110     0.75244
      H   26    0.23118      0.00000     0.76828    0.00054     0.76882
      H   27    0.21590      0.00000     0.78204    0.00206     0.78410
      H   28    0.21695      0.00000     0.78100    0.00204     0.78305
      H   29    0.25181      0.00000     0.74666    0.00153     0.74819
      H   30    0.23083      0.00000     0.76769    0.00148     0.76917
      H   31    0.23813      0.00000     0.76045    0.00142     0.76187
      H   32    0.23464      0.00000     0.76441    0.00095     0.76536
      H   33    0.22608      0.00000     0.77293    0.00099     0.77392
 =======================================================================
   * Total *    0.00000     31.98857    87.70747    0.30396   120.00000

                                 Natural Population      
 --------------------------------------------------------
   Core                      31.98857 ( 99.9643% of  32)
   Valence                   87.70747 ( 99.6676% of  88)
   Natural Minimal Basis    119.69604 ( 99.7467% of 120)
   Natural Rydberg Basis      0.30396 (  0.2533% of 120)
 --------------------------------------------------------

    Atom  No          Natural Electron Configuration
 ----------------------------------------------------------------------------
      C    1      [core]2S( 1.11)2p( 3.57)
      C    2      [core]2S( 1.02)2p( 3.22)3p( 0.01)
      N    3      [core]2S( 1.21)2p( 4.28)3p( 0.01)
      C    4      [core]2S( 0.70)2p( 2.32)3p( 0.03)3d( 0.01)
      O    5      [core]2S( 1.70)2p( 4.91)3d( 0.02)
      O    6      [core]2S( 1.60)2p( 4.92)3d( 0.01)
      C    7      [core]2S( 0.85)2p( 2.78)3p( 0.02)3d( 0.01)
      C    8      [core]2S( 0.96)2p( 3.34)3p( 0.02)
      C    9      [core]2S( 0.96)2p( 3.37)3p( 0.01)
      C   10      [core]2S( 0.84)2p( 2.80)3p( 0.01)3d( 0.01)
      C   11      [core]2S( 0.96)2p( 3.35)3p( 0.02)
      C   12      [core]2S( 0.96)2p( 3.34)3p( 0.01)
      O   13      [core]2S( 1.60)2p( 4.82)3p( 0.01)3d( 0.01)
      C   14      [core]2S( 1.10)2p( 3.21)3p( 0.01)3d( 0.01)
      C   15      [core]2S( 1.02)2p( 3.23)3p( 0.01)
      C   16      [core]2S( 1.11)2p( 3.57)
      H   17            1S( 0.76)
      H   18            1S( 0.75)
      H   19            1S( 0.78)
      H   20            1S( 0.74)
      H   21            1S( 0.77)
      H   22            1S( 0.76)
      H   23            1S( 0.77)
      H   24            1S( 0.76)
      H   25            1S( 0.75)
      H   26            1S( 0.77)
      H   27            1S( 0.78)
      H   28            1S( 0.78)
      H   29            1S( 0.75)
      H   30            1S( 0.77)
      H   31            1S( 0.76)
      H   32            1S( 0.76)
      H   33            1S( 0.77)


 NBO analysis skipped by request.
 Leave Link  607 at Thu Sep 30 06:29:42 2021, MaxMem= 1342177280 cpu:      21.3
 (Enter /sw/target/amd/app/gaussian/Gaussian09RevA.02_gcc-4.9.2/g09/l9999.exe)
 1\1\GINC-HERMITE\SP\RTD-B3LYP-FC\6-31G(d)\C12H17N1O3\JSCHLEINITZ\30-Se
 p-2021\0\\#p TD(NStates=10, Root=1) b3lyp/6-31G* volume pop=NPA densit
 y=current Geom=AllCheck Guess=Read\\CCN(C(=O)Oc1ccc(cc1)OC)CC_conf_0\\
 0,1\C,0,3.5338657284,2.2990559169,-0.5873097087\C,0,2.7829139868,0.975
 7708287,-0.7633391442\N,0,1.5380754848,0.8791816153,0.0096272967\C,0,1
 .663930676,0.5665960198,1.331710087\O,0,2.7146552876,0.3277953116,1.89
 80872949\O,0,0.4295955761,0.5490256579,1.948384889\C,0,0.3450698529,0.
 2112284927,3.2994327417\C,0,-0.4273425815,1.0378419642,4.1049912416\C,
 0,-0.6384867521,0.7168756568,5.4494094302\C,0,-0.0611776202,-0.4401350
 936,5.9824202066\C,0,0.7186490294,-1.2670926335,5.1598064826\C,0,0.920
 3882748,-0.9502000055,3.8229999956\O,0,-0.1967122348,-0.8529030752,7.2
 788920551\C,0,-0.9705603012,-0.0535021602,8.1565603407\C,0,0.249495717
 1,1.1936464696,-0.6179534372\C,0,-0.191607247,2.653289081,-0.466339821
 1\H,0,4.4587465229,2.2862063,-1.1760638242\H,0,3.8006293248,2.44231260
 8,0.4635870849\H,0,2.9335442343,3.1535941216,-0.9172528975\H,0,3.42876
 59139,0.1492727266,-0.4547939605\H,0,2.5205040821,0.8198444473,-1.8151
 523387\H,0,-0.8696623346,1.9324296607,3.6775982541\H,0,-1.2468761072,1
 .3738340183,6.0600815127\H,0,1.1587674773,-2.1600954546,5.5920980601\H
 ,0,1.5298005219,-1.5866916297,3.1936486561\H,0,-0.9468886812,-0.559632
 596,9.1235346754\H,0,-2.0120626132,0.0290714675,7.8170646908\H,0,-0.54
 7829482,0.9544742032,8.2656420652\H,0,-0.5091984789,0.5333155145,-0.19
 27699098\H,0,0.3424132111,0.937059281,-1.6791158579\H,0,-0.2920139141,
 2.9148745702,0.591459483\H,0,-1.164164152,2.8044339715,-0.9497603634\H
 ,0,0.5255270406,3.341483673,-0.9256632881\\Version=AM64L-G09RevA.02\St
 ate=1-A\HF=-747.9473152\RMSD=7.611e-09\Dipole=-0.9577537,0.6337513,-0.
 2424626\Quadrupole=-7.7447743,-7.2377717,14.982546,-0.7973444,-7.37302
 71,-0.1927368\PG=C01 [X(C12H17N1O3)]\\@


 WHEN HAVING A MEETING OF THE MINDS,
 MAKE SURE YOU HAVE THE EQUIPMENT FOR IT.
 Job cpu time:  0 days  4 hours 38 minutes 45.2 seconds.
 File lengths (MBytes):  RWF=    256 Int=      0 D2E=      0 Chk=     35 Scr=      1
 Normal termination of Gaussian 09 at Thu Sep 30 06:29:49 2021.
