 Entering Gaussian System, Link 0=g09
 Input=C12H13N3O3_5bd4_conf_0.com
 Output=C12H13N3O3_5bd4_conf_0.log
 Initial command:
 /sw/target/amd/app/gaussian/Gaussian09RevA.02_gcc-4.9.2/g09/l1.exe /home/jschleinitz/gaussian/Gau-3298693.inp -scrdir=/home/jschleinitz/gaussian/
 Entering Link 1 = /sw/target/amd/app/gaussian/Gaussian09RevA.02_gcc-4.9.2/g09/l1.exe PID=   3298701.
  
 Copyright (c) 1988,1990,1992,1993,1995,1998,2003,2009, Gaussian, Inc.
                  All Rights Reserved.
  
 This is part of the Gaussian(R) 09 program.  It is based on
 the Gaussian(R) 03 system (copyright 2003, Gaussian, Inc.),
 the Gaussian(R) 98 system (copyright 1998, Gaussian, Inc.),
 the Gaussian(R) 94 system (copyright 1995, Gaussian, Inc.),
 the Gaussian 92(TM) system (copyright 1992, Gaussian, Inc.),
 the Gaussian 90(TM) system (copyright 1990, Gaussian, Inc.),
 the Gaussian 88(TM) system (copyright 1988, Gaussian, Inc.),
 the Gaussian 86(TM) system (copyright 1986, Carnegie Mellon
 University), and the Gaussian 82(TM) system (copyright 1983,
 Carnegie Mellon University). Gaussian is a federally registered
 trademark of Gaussian, Inc.
  
 This software contains proprietary and confidential information,
 including trade secrets, belonging to Gaussian, Inc.
  
 This software is provided under written license and may be
 used, copied, transmitted, or stored only in accord with that
 written license.
  
 The following legend is applicable only to US Government
 contracts under FAR:
  
                    RESTRICTED RIGHTS LEGEND
  
 Use, reproduction and disclosure by the US Government is
 subject to restrictions as set forth in subparagraphs (a)
 and (c) of the Commercial Computer Software - Restricted
 Rights clause in FAR 52.227-19.
  
 Gaussian, Inc.
 340 Quinnipiac St., Bldg. 40, Wallingford CT 06492
  
  
 ---------------------------------------------------------------
 Warning -- This program may not be used in any manner that
 competes with the business of Gaussian, Inc. or will provide
 assistance to any competitor of Gaussian, Inc.  The licensee
 of this program is prohibited from giving any competitor of
 Gaussian, Inc. access to this program.  By using this program,
 the user acknowledges that Gaussian, Inc. is engaged in the
 business of creating and licensing software in the field of
 computational chemistry and represents and warrants to the
 licensee that it is not a competitor of Gaussian, Inc. and that
 it will not use this program in any manner prohibited above.
 ---------------------------------------------------------------
  

 Cite this work as:
 Gaussian 09, Revision A.02,
 M. J. Frisch, G. W. Trucks, H. B. Schlegel, G. E. Scuseria, 
 M. A. Robb, J. R. Cheeseman, G. Scalmani, V. Barone, B. Mennucci, 
 G. A. Petersson, H. Nakatsuji, M. Caricato, X. Li, H. P. Hratchian, 
 A. F. Izmaylov, J. Bloino, G. Zheng, J. L. Sonnenberg, M. Hada, 
 M. Ehara, K. Toyota, R. Fukuda, J. Hasegawa, M. Ishida, T. Nakajima, 
 Y. Honda, O. Kitao, H. Nakai, T. Vreven, J. A. Montgomery, Jr., 
 J. E. Peralta, F. Ogliaro, M. Bearpark, J. J. Heyd, E. Brothers, 
 K. N. Kudin, V. N. Staroverov, R. Kobayashi, J. Normand, 
 K. Raghavachari, A. Rendell, J. C. Burant, S. S. Iyengar, J. Tomasi, 
 M. Cossi, N. Rega, J. M. Millam, M. Klene, J. E. Knox, J. B. Cross, 
 V. Bakken, C. Adamo, J. Jaramillo, R. Gomperts, R. E. Stratmann, 
 O. Yazyev, A. J. Austin, R. Cammi, C. Pomelli, J. W. Ochterski, 
 R. L. Martin, K. Morokuma, V. G. Zakrzewski, G. A. Voth, 
 P. Salvador, J. J. Dannenberg, S. Dapprich, A. D. Daniels, 
 O. Farkas, J. B. Foresman, J. V. Ortiz, J. Cioslowski, 
 and D. J. Fox, Gaussian, Inc., Wallingford CT, 2009.
 
 ******************************************
 Gaussian 09:  AM64L-G09RevA.02 11-Jun-2009
                28-Sep-2021 
 ******************************************
 %nproc=5
 Will use up to    5 processors via shared memory.
 %mem=10gb
 %chk=C12H13N3O3_5bd4_conf_0.chk
 -----------------------------------
 #p opt b3lyp/6-31G* scf=(xqc,tight)
 -----------------------------------
 1/14=-1,18=20,19=15,26=3,38=1/1,3;
 2/9=110,12=2,17=6,18=5,40=1/2;
 3/5=1,6=6,7=1,11=2,16=1,25=1,30=1,71=1,74=-5/1,2,3;
 4//1;
 5/5=2,8=3,13=1,32=2,38=5/2,8;
 6/7=2,8=2,9=2,10=2,28=1/1;
 7//1,2,3,16;
 1/14=-1,18=20,19=15/3(2);
 2/9=110/2;
 99//99;
 2/9=110/2;
 3/5=1,6=6,7=1,11=2,16=1,25=1,30=1,71=1,74=-5/1,2,3;
 4/5=5,16=3/1;
 5/5=2,8=3,13=1,32=2,38=5/2,8;
 7//1,2,3,16;
 1/14=-1,18=20,19=15/3(-5);
 2/9=110/2;
 6/7=2,8=2,9=2,10=2,19=2,28=1/1;
 99/9=1/99;
 Leave Link    1 at Tue Sep 28 15:18:13 2021, MaxMem= 1342177280 cpu:       0.1
 (Enter /sw/target/amd/app/gaussian/Gaussian09RevA.02_gcc-4.9.2/g09/l101.exe)
 ---------------------------------
 COc1nc(nc(n1)OC)Oc1ccccc1C_conf_0
 ---------------------------------
 Symbolic Z-matrix:
 Charge =  0 Multiplicity = 1
 C                     1.3916   -1.30711   0.55294 
 O                     1.2567   -0.17515  -0.29677 
 C                     2.02193  -0.28489  -1.43785 
 N                     2.43546   0.87177  -1.93528 
 C                     3.16673   0.75484  -3.03302 
 N                     3.42411  -0.38007  -3.67901 
 C                     2.94247  -1.46298  -3.08447 
 N                     2.25274  -1.48695  -1.95219 
 O                     3.22671  -2.70043  -3.61972 
 C                     3.59073  -2.62614  -4.99353 
 O                     3.65807   1.94712  -3.5446 
 C                     4.87497   1.92877  -4.19655 
 C                     5.95967   1.15703  -3.757 
 C                     7.18593   1.22297  -4.41839 
 C                     7.34668   2.08651  -5.49827 
 C                     6.28046   2.87914  -5.92317 
 C                     5.03358   2.80555  -5.28347 
 C                     3.90446   3.68224  -5.74524 
 H                     0.91578  -1.06378   1.50795 
 H                     2.44483  -1.53251   0.75629 
 H                     0.87805  -2.1806    0.13736 
 H                     3.79882  -3.64135  -5.34326 
 H                     4.50251  -2.03591  -5.14637 
 H                     2.76378  -2.22676  -5.59129 
 H                     5.86809   0.4992   -2.89726 
 H                     8.01778   0.60984  -4.08193 
 H                     8.30752   2.15161  -6.0032 
 H                     6.43046   3.56177  -6.75727 
 H                     4.1421    4.16957  -6.69738 
 H                     3.7062    4.46281  -5.00435 
 H                     2.99745   3.08985  -5.90273 
 
 NAtoms=     31 NQM=     31 NQMF=      0 NMic=      0 NMicF=      0 NTot=     31.
                    Isotopes and Nuclear Properties:
 (Nuclear quadrupole moments (NQMom) in fm**2, nuclear magnetic moments (NMagM)
  in nuclear magnetons)

  Atom         1           2           3           4           5           6           7           8           9          10
 IAtWgt=          12          16          12          14          12          14          12          14          16          12
 AtmWgt=  12.0000000  15.9949146  12.0000000  14.0030740  12.0000000  14.0030740  12.0000000  14.0030740  15.9949146  12.0000000
 NucSpn=           0           0           0           2           0           2           0           2           0           0
 AtZEff=   0.0000000   0.0000000   0.0000000   0.0000000   0.0000000   0.0000000   0.0000000   0.0000000   0.0000000   0.0000000
 NQMom=    0.0000000   0.0000000   0.0000000   2.0440000   0.0000000   2.0440000   0.0000000   2.0440000   0.0000000   0.0000000
 NMagM=    0.0000000   0.0000000   0.0000000   0.4037610   0.0000000   0.4037610   0.0000000   0.4037610   0.0000000   0.0000000

  Atom        11          12          13          14          15          16          17          18          19          20
 IAtWgt=          16          12          12          12          12          12          12          12           1           1
 AtmWgt=  15.9949146  12.0000000  12.0000000  12.0000000  12.0000000  12.0000000  12.0000000  12.0000000   1.0078250   1.0078250
 NucSpn=           0           0           0           0           0           0           0           0           1           1
 AtZEff=   0.0000000   0.0000000   0.0000000   0.0000000   0.0000000   0.0000000   0.0000000   0.0000000   0.0000000   0.0000000
 NQMom=    0.0000000   0.0000000   0.0000000   0.0000000   0.0000000   0.0000000   0.0000000   0.0000000   0.0000000   0.0000000
 NMagM=    0.0000000   0.0000000   0.0000000   0.0000000   0.0000000   0.0000000   0.0000000   0.0000000   2.7928460   2.7928460

  Atom        21          22          23          24          25          26          27          28          29          30
 IAtWgt=           1           1           1           1           1           1           1           1           1           1
 AtmWgt=   1.0078250   1.0078250   1.0078250   1.0078250   1.0078250   1.0078250   1.0078250   1.0078250   1.0078250   1.0078250
 NucSpn=           1           1           1           1           1           1           1           1           1           1
 AtZEff=   0.0000000   0.0000000   0.0000000   0.0000000   0.0000000   0.0000000   0.0000000   0.0000000   0.0000000   0.0000000
 NQMom=    0.0000000   0.0000000   0.0000000   0.0000000   0.0000000   0.0000000   0.0000000   0.0000000   0.0000000   0.0000000
 NMagM=    2.7928460   2.7928460   2.7928460   2.7928460   2.7928460   2.7928460   2.7928460   2.7928460   2.7928460   2.7928460

  Atom        31
 IAtWgt=           1
 AtmWgt=   1.0078250
 NucSpn=           1
 AtZEff=   0.0000000
 NQMom=    0.0000000
 NMagM=    2.7928460
 Leave Link  101 at Tue Sep 28 15:18:14 2021, MaxMem= 1342177280 cpu:       0.2
 (Enter /sw/target/amd/app/gaussian/Gaussian09RevA.02_gcc-4.9.2/g09/l103.exe)

 GradGradGradGradGradGradGradGradGradGradGradGradGradGradGradGradGradGrad
 Berny optimization.
 Initialization pass.
                           ----------------------------
                           !    Initial Parameters    !
                           ! (Angstroms and Degrees)  !
 --------------------------                            --------------------------
 ! Name  Definition              Value          Derivative Info.                !
 --------------------------------------------------------------------------------
 ! R1    R(1,2)                  1.4218         estimate D2E/DX2                !
 ! R2    R(1,19)                 1.0944         estimate D2E/DX2                !
 ! R3    R(1,20)                 1.0961         estimate D2E/DX2                !
 ! R4    R(1,21)                 1.0952         estimate D2E/DX2                !
 ! R5    R(2,3)                  1.3783         estimate D2E/DX2                !
 ! R6    R(3,4)                  1.3253         estimate D2E/DX2                !
 ! R7    R(3,8)                  1.3277         estimate D2E/DX2                !
 ! R8    R(4,5)                  1.3242         estimate D2E/DX2                !
 ! R9    R(5,6)                  1.331          estimate D2E/DX2                !
 ! R10   R(5,11)                 1.3873         estimate D2E/DX2                !
 ! R11   R(6,7)                  1.326          estimate D2E/DX2                !
 ! R12   R(7,8)                  1.326          estimate D2E/DX2                !
 ! R13   R(7,9)                  1.3779         estimate D2E/DX2                !
 ! R14   R(9,10)                 1.4232         estimate D2E/DX2                !
 ! R15   R(10,22)                1.0937         estimate D2E/DX2                !
 ! R16   R(10,23)                1.0968         estimate D2E/DX2                !
 ! R17   R(10,24)                1.0957         estimate D2E/DX2                !
 ! R18   R(11,12)                1.3807         estimate D2E/DX2                !
 ! R19   R(12,13)                1.4019         estimate D2E/DX2                !
 ! R20   R(12,17)                1.4055         estimate D2E/DX2                !
 ! R21   R(13,14)                1.3948         estimate D2E/DX2                !
 ! R22   R(13,25)                1.0864         estimate D2E/DX2                !
 ! R23   R(14,15)                1.392          estimate D2E/DX2                !
 ! R24   R(14,26)                1.0868         estimate D2E/DX2                !
 ! R25   R(15,16)                1.3949         estimate D2E/DX2                !
 ! R26   R(15,27)                1.0874         estimate D2E/DX2                !
 ! R27   R(16,17)                1.4033         estimate D2E/DX2                !
 ! R28   R(16,28)                1.0882         estimate D2E/DX2                !
 ! R29   R(17,18)                1.5022         estimate D2E/DX2                !
 ! R30   R(18,29)                1.0957         estimate D2E/DX2                !
 ! R31   R(18,30)                1.0943         estimate D2E/DX2                !
 ! R32   R(18,31)                1.0947         estimate D2E/DX2                !
 ! A1    A(2,1,19)             107.6529         estimate D2E/DX2                !
 ! A2    A(2,1,20)             111.454          estimate D2E/DX2                !
 ! A3    A(2,1,21)             111.3286         estimate D2E/DX2                !
 ! A4    A(19,1,20)            107.554          estimate D2E/DX2                !
 ! A5    A(19,1,21)            107.734          estimate D2E/DX2                !
 ! A6    A(20,1,21)            110.9138         estimate D2E/DX2                !
 ! A7    A(1,2,3)              112.2535         estimate D2E/DX2                !
 ! A8    A(2,3,4)              114.4877         estimate D2E/DX2                !
 ! A9    A(2,3,8)              119.2962         estimate D2E/DX2                !
 ! A10   A(4,3,8)              126.1958         estimate D2E/DX2                !
 ! A11   A(3,4,5)              113.9793         estimate D2E/DX2                !
 ! A12   A(4,5,6)              125.7628         estimate D2E/DX2                !
 ! A13   A(4,5,11)             115.1753         estimate D2E/DX2                !
 ! A14   A(6,5,11)             119.0346         estimate D2E/DX2                !
 ! A15   A(5,6,7)              114.1117         estimate D2E/DX2                !
 ! A16   A(6,7,8)              125.9143         estimate D2E/DX2                !
 ! A17   A(6,7,9)              118.9699         estimate D2E/DX2                !
 ! A18   A(8,7,9)              115.0093         estimate D2E/DX2                !
 ! A19   A(3,8,7)              113.8815         estimate D2E/DX2                !
 ! A20   A(7,9,10)             112.3875         estimate D2E/DX2                !
 ! A21   A(9,10,22)            107.9913         estimate D2E/DX2                !
 ! A22   A(9,10,23)            112.0387         estimate D2E/DX2                !
 ! A23   A(9,10,24)            110.6466         estimate D2E/DX2                !
 ! A24   A(22,10,23)           107.2631         estimate D2E/DX2                !
 ! A25   A(22,10,24)           107.9062         estimate D2E/DX2                !
 ! A26   A(23,10,24)           110.8064         estimate D2E/DX2                !
 ! A27   A(5,11,12)            118.3504         estimate D2E/DX2                !
 ! A28   A(11,12,13)           122.7668         estimate D2E/DX2                !
 ! A29   A(11,12,17)           117.1523         estimate D2E/DX2                !
 ! A30   A(13,12,17)           119.906          estimate D2E/DX2                !
 ! A31   A(12,13,14)           120.3669         estimate D2E/DX2                !
 ! A32   A(12,13,25)           121.0793         estimate D2E/DX2                !
 ! A33   A(14,13,25)           118.5536         estimate D2E/DX2                !
 ! A34   A(13,14,15)           119.9142         estimate D2E/DX2                !
 ! A35   A(13,14,26)           119.9643         estimate D2E/DX2                !
 ! A36   A(15,14,26)           120.1168         estimate D2E/DX2                !
 ! A37   A(14,15,16)           120.0375         estimate D2E/DX2                !
 ! A38   A(14,15,27)           119.9615         estimate D2E/DX2                !
 ! A39   A(16,15,27)           119.9971         estimate D2E/DX2                !
 ! A40   A(15,16,17)           120.698          estimate D2E/DX2                !
 ! A41   A(15,16,28)           118.9853         estimate D2E/DX2                !
 ! A42   A(17,16,28)           120.3159         estimate D2E/DX2                !
 ! A43   A(12,17,16)           119.0462         estimate D2E/DX2                !
 ! A44   A(12,17,18)           121.1289         estimate D2E/DX2                !
 ! A45   A(16,17,18)           119.8087         estimate D2E/DX2                !
 ! A46   A(17,18,29)           111.3249         estimate D2E/DX2                !
 ! A47   A(17,18,30)           110.1412         estimate D2E/DX2                !
 ! A48   A(17,18,31)           110.5585         estimate D2E/DX2                !
 ! A49   A(29,18,30)           108.0822         estimate D2E/DX2                !
 ! A50   A(29,18,31)           107.1796         estimate D2E/DX2                !
 ! A51   A(30,18,31)           109.4684         estimate D2E/DX2                !
 ! D1    D(19,1,2,3)           169.3417         estimate D2E/DX2                !
 ! D2    D(20,1,2,3)            51.6229         estimate D2E/DX2                !
 ! D3    D(21,1,2,3)           -72.792          estimate D2E/DX2                !
 ! D4    D(1,2,3,4)           -150.4346         estimate D2E/DX2                !
 ! D5    D(1,2,3,8)             31.1052         estimate D2E/DX2                !
 ! D6    D(2,3,4,5)           -179.8376         estimate D2E/DX2                !
 ! D7    D(8,3,4,5)             -1.5015         estimate D2E/DX2                !
 ! D8    D(2,3,8,7)            176.7754         estimate D2E/DX2                !
 ! D9    D(4,3,8,7)             -1.4882         estimate D2E/DX2                !
 ! D10   D(3,4,5,6)              4.421          estimate D2E/DX2                !
 ! D11   D(3,4,5,11)          -177.5098         estimate D2E/DX2                !
 ! D12   D(4,5,6,7)             -3.8904         estimate D2E/DX2                !
 ! D13   D(11,5,6,7)           178.1082         estimate D2E/DX2                !
 ! D14   D(4,5,11,12)          148.2621         estimate D2E/DX2                !
 ! D15   D(6,5,11,12)          -33.5298         estimate D2E/DX2                !
 ! D16   D(5,6,7,8)              0.3168         estimate D2E/DX2                !
 ! D17   D(5,6,7,9)           -175.7321         estimate D2E/DX2                !
 ! D18   D(6,7,8,3)              2.1253         estimate D2E/DX2                !
 ! D19   D(9,7,8,3)            178.3112         estimate D2E/DX2                !
 ! D20   D(6,7,9,10)           -21.4589         estimate D2E/DX2                !
 ! D21   D(8,7,9,10)           162.0715         estimate D2E/DX2                !
 ! D22   D(7,9,10,22)         -179.9539         estimate D2E/DX2                !
 ! D23   D(7,9,10,23)           62.1367         estimate D2E/DX2                !
 ! D24   D(7,9,10,24)          -62.0609         estimate D2E/DX2                !
 ! D25   D(5,11,12,13)         -39.4182         estimate D2E/DX2                !
 ! D26   D(5,11,12,17)         145.4002         estimate D2E/DX2                !
 ! D27   D(11,12,13,14)       -177.0501         estimate D2E/DX2                !
 ! D28   D(11,12,13,25)          2.7849         estimate D2E/DX2                !
 ! D29   D(17,12,13,14)         -1.9964         estimate D2E/DX2                !
 ! D30   D(17,12,13,25)        177.8386         estimate D2E/DX2                !
 ! D31   D(11,12,17,16)        176.1312         estimate D2E/DX2                !
 ! D32   D(11,12,17,18)         -2.402          estimate D2E/DX2                !
 ! D33   D(13,12,17,16)          0.8049         estimate D2E/DX2                !
 ! D34   D(13,12,17,18)       -177.7283         estimate D2E/DX2                !
 ! D35   D(12,13,14,15)          1.7781         estimate D2E/DX2                !
 ! D36   D(12,13,14,26)       -179.0121         estimate D2E/DX2                !
 ! D37   D(25,13,14,15)       -178.0611         estimate D2E/DX2                !
 ! D38   D(25,13,14,26)          1.1487         estimate D2E/DX2                !
 ! D39   D(13,14,15,16)         -0.3703         estimate D2E/DX2                !
 ! D40   D(13,14,15,27)        178.9049         estimate D2E/DX2                !
 ! D41   D(26,14,15,16)       -179.5789         estimate D2E/DX2                !
 ! D42   D(26,14,15,27)         -0.3037         estimate D2E/DX2                !
 ! D43   D(14,15,16,17)         -0.8191         estimate D2E/DX2                !
 ! D44   D(14,15,16,28)        178.8641         estimate D2E/DX2                !
 ! D45   D(27,15,16,17)        179.9059         estimate D2E/DX2                !
 ! D46   D(27,15,16,28)         -0.4109         estimate D2E/DX2                !
 ! D47   D(15,16,17,12)          0.595          estimate D2E/DX2                !
 ! D48   D(15,16,17,18)        179.1479         estimate D2E/DX2                !
 ! D49   D(28,16,17,12)       -179.0841         estimate D2E/DX2                !
 ! D50   D(28,16,17,18)         -0.5311         estimate D2E/DX2                !
 ! D51   D(12,17,18,29)       -170.2937         estimate D2E/DX2                !
 ! D52   D(12,17,18,30)         69.8335         estimate D2E/DX2                !
 ! D53   D(12,17,18,31)        -51.2775         estimate D2E/DX2                !
 ! D54   D(16,17,18,29)         11.1841         estimate D2E/DX2                !
 ! D55   D(16,17,18,30)       -108.6886         estimate D2E/DX2                !
 ! D56   D(16,17,18,31)        130.2004         estimate D2E/DX2                !
 --------------------------------------------------------------------------------
 Trust Radius=3.00D-01 FncErr=1.00D-07 GrdErr=1.00D-06
 Number of steps in this run= 149 maximum allowed number of steps= 186.
 GradGradGradGradGradGradGradGradGradGradGradGradGradGradGradGradGradGrad

 Leave Link  103 at Tue Sep 28 15:18:14 2021, MaxMem= 1342177280 cpu:       0.0
 (Enter /sw/target/amd/app/gaussian/Gaussian09RevA.02_gcc-4.9.2/g09/l202.exe)
                          Input orientation:                          
 ---------------------------------------------------------------------
 Center     Atomic      Atomic             Coordinates (Angstroms)
 Number     Number       Type             X           Y           Z
 ---------------------------------------------------------------------
      1          6           0        1.391603   -1.307110    0.552940
      2          8           0        1.256704   -0.175151   -0.296768
      3          6           0        2.021935   -0.284891   -1.437846
      4          7           0        2.435459    0.871772   -1.935277
      5          6           0        3.166726    0.754839   -3.033021
      6          7           0        3.424114   -0.380069   -3.679007
      7          6           0        2.942467   -1.462984   -3.084467
      8          7           0        2.252741   -1.486954   -1.952187
      9          8           0        3.226709   -2.700432   -3.619718
     10          6           0        3.590726   -2.626135   -4.993532
     11          8           0        3.658069    1.947120   -3.544602
     12          6           0        4.874972    1.928771   -4.196552
     13          6           0        5.959673    1.157030   -3.757001
     14          6           0        7.185933    1.222967   -4.418385
     15          6           0        7.346679    2.086508   -5.498266
     16          6           0        6.280458    2.879137   -5.923175
     17          6           0        5.033580    2.805553   -5.283470
     18          6           0        3.904458    3.682244   -5.745238
     19          1           0        0.915784   -1.063779    1.507955
     20          1           0        2.444828   -1.532509    0.756288
     21          1           0        0.878054   -2.180595    0.137363
     22          1           0        3.798818   -3.641353   -5.343260
     23          1           0        4.502511   -2.035914   -5.146375
     24          1           0        2.763777   -2.226760   -5.591289
     25          1           0        5.868091    0.499203   -2.897261
     26          1           0        8.017781    0.609841   -4.081931
     27          1           0        8.307517    2.151612   -6.003203
     28          1           0        6.430462    3.561773   -6.757266
     29          1           0        4.142103    4.169573   -6.697383
     30          1           0        3.706201    4.462810   -5.004351
     31          1           0        2.997445    3.089846   -5.902725
 ---------------------------------------------------------------------
                    Distance matrix (angstroms):
                    1          2          3          4          5
     1  C    0.000000
     2  O    1.421807   0.000000
     3  C    2.324969   1.378288   0.000000
     4  N    3.468197   2.273812   1.325258   0.000000
     5  C    4.501313   3.464122   2.221749   1.324186   0.000000
     6  N    4.785383   4.022337   2.645368   2.363290   1.331001
     7  C    3.957297   3.503080   2.224105   2.651184   2.229725
     8  N    2.655102   2.335237   1.327696   2.365853   2.651265
     9  O    4.766554   4.615188   3.470862   4.027910   3.505240
    10  C    6.110591   5.789177   4.537117   4.787788   3.931204
    11  O    5.702345   4.562785   3.478107   2.289340   1.387324
    12  C    6.720302   5.720722   4.544290   3.490248   2.376978
    13  C    6.746469   5.988808   4.792013   3.977453   2.913152
    14  C    8.042987   7.355149   6.150133   5.371794   4.276962
    15  C    9.143122   8.322167   7.103763   6.187937   5.032175
    16  C    9.130479   8.137765   6.947249   5.892102   4.749838
    17  C    8.015090   6.929399   5.780110   4.658340   3.571427
    18  C    8.418738   7.181637   6.151071   4.957067   4.058333
    19  H    1.094379   2.040321   3.241601   4.232211   5.384661
    20  H    1.096101   2.088776   2.559222   3.609041   4.484636
    21  H    1.095177   2.086541   2.717249   4.004784   4.889389
    22  H    6.782960   6.629026   5.447514   5.817336   5.006321
    23  H    6.533843   6.125062   4.792967   4.799843   3.746851
    24  H    6.362403   5.874719   4.644597   4.803657   3.949308
    25  H    5.933431   5.336872   4.187793   3.584297   2.716828
    26  H    8.310414   7.788185   6.613766   5.986573   4.965277
    27  H   10.137832   9.364357   8.141718   7.257209   6.099237
    28  H   10.125969   9.081321   7.907475   6.815258   5.692175
    29  H    9.493498   8.256514   7.211109   6.038690   5.102873
    30  H    8.338635   7.047840   6.172307   4.891785   4.233938
    31  H    7.974182   6.716929   5.681163   4.579992   3.703528
                    6          7          8          9         10
     6  N    0.000000
     7  C    1.325959   0.000000
     8  N    2.362037   1.326029   0.000000
     9  O    2.329500   1.377885   2.280745   0.000000
    10  C    2.607786   2.327593   3.512508   1.423163   0.000000
    11  O    2.342778   3.514629   4.037772   4.668132   4.797770
    12  C    2.775533   4.058979   4.855970   4.947629   4.799129
    13  C    2.966110   4.052197   4.897892   4.729476   4.631765
    14  C    4.155441   5.196218   6.145095   5.630843   5.298292
    15  C    4.977974   6.149992   7.161879   6.589226   6.047392
    16  C    4.880309   6.168830   7.145208   6.764827   6.197331
    17  C    3.913166   5.237249   6.103780   6.028990   5.627533
    18  C    4.582841   5.871840   6.620877   6.761341   6.360750
    19  H    5.802047   5.035587   3.733512   5.857647   7.201777
    20  H    4.686040   3.873484   2.715661   4.596174   5.964020
    21  H    4.928387   3.893193   2.595597   4.461173   5.820925
    22  H    3.680505   3.252811   4.304784   2.045297   1.093746
    23  H    2.461287   2.648293   3.945334   2.097603   1.096847
    24  H    2.739185   2.626680   3.748538   2.079847   1.095746
    25  H    2.712428   3.527676   4.231872   4.211473   4.398690
    26  H    4.716359   5.572284   6.493693   5.841740   5.558900
    27  H    5.971509   7.097048   8.143108   7.418756   6.789287
    28  H    5.835402   7.134686   8.125994   7.702172   7.033140
    29  H    5.506845   6.798381   7.621212   7.583333   7.027715
    30  H    5.028876   6.275690   6.843095   7.311577   7.089894
    31  H    4.143342   5.354798   6.091670   6.228323   5.818166
                   11         12         13         14         15
    11  O    0.000000
    12  C    1.380662   0.000000
    13  C    2.442690   1.401915   0.000000
    14  C    3.705904   2.426503   1.394809   0.000000
    15  C    4.176371   2.797978   2.412410   1.392007   0.000000
    16  C    3.661036   2.420705   2.785833   2.413954   1.394861
    17  C    2.377519   1.405451   2.430100   2.808127   2.431788
    18  C    2.813212   2.532783   3.814931   4.310065   3.802138
    19  H    6.489528   7.561211   7.621847   8.925552  10.018375
    20  H    5.663694   6.512809   6.321197   7.539760   8.731831
    21  H    6.190588   7.186450   7.220018   8.492845   9.581837
    22  H    5.872479   5.787861   5.496361   5.999129   6.739417
    23  H    4.375308   4.093852   3.774728   4.283810   5.020706
    24  H    4.733916   4.865273   5.002839   5.729903   6.294119
    25  H    2.720241   2.172121   1.086405   2.138776   3.386884
    26  H    4.591745   3.410274   2.154253   1.086782   2.153352
    27  H    5.263450   3.885359   3.398087   2.152203   1.087386
    28  H    4.540317   3.412258   3.873761   3.392803   2.144980
    29  H    3.887623   3.436924   4.585284   4.810532   4.005790
    30  H    2.908932   2.905154   4.190729   4.790457   4.375369
    31  H    2.702405   2.790023   4.136992   4.819952   4.481753
                   16         17         18         19         20
    16  C    0.000000
    17  C    1.403333   0.000000
    18  C    2.514362   1.502243   0.000000
    19  H    9.977374   8.834671   9.168735   0.000000
    20  H    8.876368   7.873950   8.461325   1.767111   0.000000
    21  H    9.566451   8.456683   8.839514   1.768396   1.804956
    22  H    7.000831   6.564359   7.335382   7.867332   6.594316
    23  H    5.284150   4.872436   5.780454   7.621664   6.271277
    24  H    6.208654   5.529099   6.020066   7.427440   6.393392
    25  H    3.871729   3.421937   4.700912   6.809859   5.403241
    26  H    3.399731   3.894907   5.396821   9.191637   7.684780
    27  H    2.155148   3.415307   4.668652  11.017892   9.676497
    28  H    1.088210   2.166847   2.723860  10.959985   9.914156
    29  H    2.614801   2.157414   1.095694  10.253032   9.536860
    30  H    3.158965   2.141575   1.094304   8.985530   8.409512
    31  H    3.289831   2.147125   1.094719   8.746662   8.124901
                   21         22         23         24         25
    21  H    0.000000
    22  H    6.379804   0.000000
    23  H    6.409018   1.763911   0.000000
    24  H    6.031214   1.770283   1.804873   0.000000
    25  H    6.425786   5.235361   3.653784   4.932081   0.000000
    26  H    8.750125   6.120723   4.526608   6.158654   2.457000
    27  H   10.567473   7.370369   5.722552   7.076218   4.281137
    28  H   10.551774   7.798076   6.135639   6.950625   4.959358
    29  H    9.883947   7.934863   6.406527   6.635985   5.558019
    30  H    8.863999   8.111776   6.548870   6.781078   4.982347
    31  H    8.291685   6.801783   5.395434   5.330844   4.897433
                   26         27         28         29         30
    26  H    0.000000
    27  H    2.480381   0.000000
    28  H    4.288461   2.465866   0.000000
    29  H    5.876492   4.680249   2.368459   0.000000
    30  H    5.855421   5.245136   3.362467   1.772669   0.000000
    31  H    5.888080   5.393259   3.569112   1.762819   1.787300
                   31
    31  H    0.000000
 Stoichiometry    C12H13N3O3
 Framework group  C1[X(C12H13N3O3)]
 Deg. of freedom    87
 Full point group                 C1      NOp   1
 Largest Abelian subgroup         C1      NOp   1
 Largest concise Abelian subgroup C1      NOp   1
                         Standard orientation:                         
 ---------------------------------------------------------------------
 Center     Atomic      Atomic             Coordinates (Angstroms)
 Number     Number       Type             X           Y           Z
 ---------------------------------------------------------------------
      1          6           0        4.772510   -1.069250    0.937700
      2          8           0        3.726741   -1.690371    0.201417
      3          6           0        2.649086   -0.851291    0.016262
      4          7           0        1.481096   -1.470142   -0.079291
      5          6           0        0.453383   -0.654981   -0.260358
      6          7           0        0.526477    0.663178   -0.429701
      7          6           0        1.753107    1.155618   -0.324588
      8          7           0        2.853507    0.456966   -0.080957
      9          8           0        1.932728    2.519988   -0.393859
     10          6           0        0.850267    3.176916   -1.043563
     11          8           0       -0.788015   -1.272364   -0.309718
     12          6           0       -1.884677   -0.578159    0.161066
     13          6           0       -1.837851    0.227372    1.307493
     14          6           0       -2.991270    0.858025    1.773747
     15          6           0       -4.204041    0.658434    1.120269
     16          6           0       -4.264158   -0.165058   -0.003957
     17          6           0       -3.107601   -0.786467   -0.499507
     18          6           0       -3.198552   -1.684669   -1.700213
     19          1           0        5.496035   -1.845382    1.205650
     20          1           0        4.399816   -0.628792    1.869651
     21          1           0        5.295093   -0.320477    0.333003
     22          1           0        1.066285    4.249000   -1.059465
     23          1           0       -0.095513    3.043407   -0.504351
     24          1           0        0.758281    2.836357   -2.080972
     25          1           0       -0.909690    0.373144    1.852967
     26          1           0       -2.944232    1.493912    2.653821
     27          1           0       -5.107051    1.135489    1.493633
     28          1           0       -5.224500   -0.323991   -0.490460
     29          1           0       -4.175875   -1.599734   -2.188241
     30          1           0       -3.057423   -2.728013   -1.401853
     31          1           0       -2.441641   -1.411895   -2.442567
 ---------------------------------------------------------------------
 Rotational constants (GHZ):      0.7497714      0.2450020      0.2128012
 Leave Link  202 at Tue Sep 28 15:18:14 2021, MaxMem= 1342177280 cpu:       0.1
 (Enter /sw/target/amd/app/gaussian/Gaussian09RevA.02_gcc-4.9.2/g09/l301.exe)
 Standard basis: 6-31G(d) (6D, 7F)
 Ernie: Thresh=  0.10000D-02 Tol=  0.10000D-05 Strict=F.
 There are   296 symmetry adapted basis functions of A   symmetry.
 Integral buffers will be    131072 words long.
 Raffenetti 2 integral format.
 Two-electron integral symmetry is turned on.
   296 basis functions,   556 primitive gaussians,   296 cartesian basis functions
    65 alpha electrons       65 beta electrons
       nuclear repulsion energy      1295.8685418899 Hartrees.
 IExCor=  402 DFT=T Ex+Corr=B3LYP ExCW=0 ScaHFX=  0.200000
 ScaDFX=  0.800000  0.720000  1.000000  0.810000 ScalE2=  1.000000  1.000000
 IRadAn=      0 IRanWt=     -1 IRanGd=            0 ICorTp=0
 NAtoms=   31 NActive=   31 NUniq=   31 SFac= 7.50D-01 NAtFMM=   80 NAOKFM=F Big=F
 Leave Link  301 at Tue Sep 28 15:18:14 2021, MaxMem= 1342177280 cpu:       0.1
 (Enter /sw/target/amd/app/gaussian/Gaussian09RevA.02_gcc-4.9.2/g09/l302.exe)
 NPDir=0 NMtPBC=     1 NCelOv=     1 NCel=       1 NClECP=     1 NCelD=      1
         NCelK=      1 NCelE2=     1 NClLst=     1 CellRange=     0.0.
 One-electron integrals computed using PRISM.
 NBasis=   296 RedAO= T  NBF=   296
 NBsUse=   296 1.00D-06 NBFU=   296
 Precomputing XC quadrature grid using
 IXCGrd= 2 IRadAn=           0 IRanWt=          -1 IRanGd=           0 AccXCQ= 1.00D-10.
 NRdTot=    1970 NPtTot=      250720 NUsed=      264926 NTot=      264958
 NSgBfM=   293   293   293   293   293 NAtAll=    31    31.
 Leave Link  302 at Tue Sep 28 15:18:17 2021, MaxMem= 1342177280 cpu:       3.2
 (Enter /sw/target/amd/app/gaussian/Gaussian09RevA.02_gcc-4.9.2/g09/l303.exe)
 DipDrv:  MaxL=1.
 Leave Link  303 at Tue Sep 28 15:18:18 2021, MaxMem= 1342177280 cpu:       0.3
 (Enter /sw/target/amd/app/gaussian/Gaussian09RevA.02_gcc-4.9.2/g09/l401.exe)
 Harris functional with IExCor=  402 diagonalized for initial guess.
 ExpMin= 1.61D-01 ExpMax= 5.48D+03 ExpMxC= 8.25D+02 IAcc=1 IRadAn=         1 AccDes= 0.00D+00
 HarFok:  IExCor=  402 AccDes= 0.00D+00 IRadAn=         1 IDoV= 1
 ScaDFX=  1.000000  1.000000  1.000000  1.000000
 FoFCou: FMM=F IPFlag=           0 FMFlag=      100000 FMFlg1=           0
         NFxFlg=           0 DoJE=T BraDBF=F KetDBF=T FulRan=T
         Omega=  0.000000  0.000000  1.000000  0.000000  0.000000 ICntrl=     500 IOpCl=  0
         NMat0=    1 NMatS0=    1 NMatT0=    0 NMatD0=    1 NMtDS0=    0 NMtDT0=    0
         I1Cent=           4 NGrid=           0.
 Petite list used in FoFCou.
 Harris En= -855.110366796751    
 Initial guess orbital symmetries:
       Occupied  (A) (A) (A) (A) (A) (A) (A) (A) (A) (A) (A) (A)
                 (A) (A) (A) (A) (A) (A) (A) (A) (A) (A) (A) (A)
                 (A) (A) (A) (A) (A) (A) (A) (A) (A) (A) (A) (A)
                 (A) (A) (A) (A) (A) (A) (A) (A) (A) (A) (A) (A)
                 (A) (A) (A) (A) (A) (A) (A) (A) (A) (A) (A) (A)
                 (A) (A) (A) (A) (A)
       Virtual   (A) (A) (A) (A) (A) (A) (A) (A) (A) (A) (A) (A)
                 (A) (A) (A) (A) (A) (A) (A) (A) (A) (A) (A) (A)
                 (A) (A) (A) (A) (A) (A) (A) (A) (A) (A) (A) (A)
                 (A) (A) (A) (A) (A) (A) (A) (A) (A) (A) (A) (A)
                 (A) (A) (A) (A) (A) (A) (A) (A) (A) (A) (A) (A)
                 (A) (A) (A) (A) (A) (A) (A) (A) (A) (A) (A) (A)
                 (A) (A) (A) (A) (A) (A) (A) (A) (A) (A) (A) (A)
                 (A) (A) (A) (A) (A) (A) (A) (A) (A) (A) (A) (A)
                 (A) (A) (A) (A) (A) (A) (A) (A) (A) (A) (A) (A)
                 (A) (A) (A) (A) (A) (A) (A) (A) (A) (A) (A) (A)
                 (A) (A) (A) (A) (A) (A) (A) (A) (A) (A) (A) (A)
                 (A) (A) (A) (A) (A) (A) (A) (A) (A) (A) (A) (A)
                 (A) (A) (A) (A) (A) (A) (A) (A) (A) (A) (A) (A)
                 (A) (A) (A) (A) (A) (A) (A) (A) (A) (A) (A) (A)
                 (A) (A) (A) (A) (A) (A) (A) (A) (A) (A) (A) (A)
                 (A) (A) (A) (A) (A) (A) (A) (A) (A) (A) (A) (A)
                 (A) (A) (A) (A) (A) (A) (A) (A) (A) (A) (A) (A)
                 (A) (A) (A) (A) (A) (A) (A) (A) (A) (A) (A) (A)
                 (A) (A) (A) (A) (A) (A) (A) (A) (A) (A) (A) (A)
                 (A) (A) (A)
 The electronic state of the initial guess is 1-A.
 Leave Link  401 at Tue Sep 28 15:18:30 2021, MaxMem= 1342177280 cpu:      12.7
 (Enter /sw/target/amd/app/gaussian/Gaussian09RevA.02_gcc-4.9.2/g09/l502.exe)
 Closed shell SCF:
 Requested convergence on RMS density matrix=1.00D-08 within  64 cycles.
 Requested convergence on MAX density matrix=1.00D-06.
 Requested convergence on             energy=1.00D-06.
 No special actions if energy rises.
 Using DIIS extrapolation, IDIIS=  1040.
 Integral symmetry usage will be decided dynamically.
       264634 words used for storage of precomputed grid.
 Keep R1 ints in memory in canonical form, NReq=979722876.
 IEnd=      537028 IEndB=      537028 NGot=  1342177280 MDV=   375645415
 LenX=   375645415 LenY=   375557358
 Symmetry not used in FoFDir.
 MinBra= 0 MaxBra= 2 Meth= 1.
 IRaf=       0 NMat=   1 IRICut=       1 DoRegI=T DoRafI=F ISym2E= 0 JSym2E=0.
 Integral accuracy reduced to 1.0D-05 until final iterations.

 Cycle   1  Pass 0  IDiag  1:
 E= -854.599676349107    
 DIIS: error= 3.32D-02 at cycle   1 NSaved=   1.
 NSaved= 1 IEnMin= 1 EnMin= -854.599676349107     IErMin= 1 ErrMin= 3.32D-02
 ErrMax= 3.32D-02 EMaxC= 1.00D-01 BMatC= 4.55D-01 BMatP= 4.55D-01
 IDIUse=3 WtCom= 6.68D-01 WtEn= 3.32D-01
 Coeff-Com:  0.100D+01
 Coeff-En:   0.100D+01
 Coeff:      0.100D+01
 Gap=     0.265 Goal=   None    Shift=    0.000
 GapD=    0.265 DampG=1.000 DampE=0.500 DampFc=0.5000 IDamp=-1.
 Damping current iteration by 5.00D-01
 RMSDP=4.67D-03 MaxDP=1.61D-01              OVMax= 2.31D-01

 Cycle   2  Pass 0  IDiag  1:
 E= -854.771532961929     Delta-E=       -0.171856612822 Rises=F Damp=T
 DIIS: error= 6.43D-03 at cycle   2 NSaved=   2.
 NSaved= 2 IEnMin= 2 EnMin= -854.771532961929     IErMin= 2 ErrMin= 6.43D-03
 ErrMax= 6.43D-03 EMaxC= 1.00D-01 BMatC= 3.45D-02 BMatP= 4.55D-01
 IDIUse=3 WtCom= 9.36D-01 WtEn= 6.43D-02
 Coeff-Com:  0.120D+00 0.880D+00
 Coeff-En:   0.197D+00 0.803D+00
 Coeff:      0.125D+00 0.875D+00
 Gap=     0.209 Goal=   None    Shift=    0.000
 RMSDP=1.21D-03 MaxDP=4.97D-02 DE=-1.72D-01 OVMax= 1.98D-01

 Cycle   3  Pass 0  IDiag  1:
 E= -855.005266676182     Delta-E=       -0.233733714253 Rises=F Damp=F
 DIIS: error= 4.81D-03 at cycle   3 NSaved=   3.
 NSaved= 3 IEnMin= 3 EnMin= -855.005266676182     IErMin= 3 ErrMin= 4.81D-03
 ErrMax= 4.81D-03 EMaxC= 1.00D-01 BMatC= 2.14D-02 BMatP= 3.45D-02
 IDIUse=3 WtCom= 9.52D-01 WtEn= 4.81D-02
 Coeff-Com:  0.193D-01 0.431D+00 0.549D+00
 Coeff-En:   0.000D+00 0.000D+00 0.100D+01
 Coeff:      0.184D-01 0.410D+00 0.571D+00
 Gap=     0.202 Goal=   None    Shift=    0.000
 RMSDP=8.13D-04 MaxDP=2.72D-02 DE=-2.34D-01 OVMax= 8.18D-02

 Cycle   4  Pass 0  IDiag  1:
 E= -855.019925573417     Delta-E=       -0.014658897235 Rises=F Damp=F
 DIIS: error= 3.85D-03 at cycle   4 NSaved=   4.
 NSaved= 4 IEnMin= 4 EnMin= -855.019925573417     IErMin= 4 ErrMin= 3.85D-03
 ErrMax= 3.85D-03 EMaxC= 1.00D-01 BMatC= 7.00D-03 BMatP= 2.14D-02
 IDIUse=3 WtCom= 9.62D-01 WtEn= 3.85D-02
 Coeff-Com: -0.248D-02 0.125D+00 0.370D+00 0.507D+00
 Coeff-En:   0.000D+00 0.000D+00 0.279D+00 0.721D+00
 Coeff:     -0.238D-02 0.120D+00 0.366D+00 0.516D+00
 Gap=     0.192 Goal=   None    Shift=    0.000
 RMSDP=3.72D-04 MaxDP=1.23D-02 DE=-1.47D-02 OVMax= 3.54D-02

 Cycle   5  Pass 0  IDiag  1:
 E= -855.026662174542     Delta-E=       -0.006736601125 Rises=F Damp=F
 DIIS: error= 1.00D-03 at cycle   5 NSaved=   5.
 NSaved= 5 IEnMin= 5 EnMin= -855.026662174542     IErMin= 5 ErrMin= 1.00D-03
 ErrMax= 1.00D-03 EMaxC= 1.00D-01 BMatC= 6.18D-04 BMatP= 7.00D-03
 IDIUse=3 WtCom= 9.90D-01 WtEn= 1.00D-02
 Coeff-Com: -0.204D-02 0.215D-01 0.147D+00 0.300D+00 0.534D+00
 Coeff-En:   0.000D+00 0.000D+00 0.000D+00 0.348D-01 0.965D+00
 Coeff:     -0.202D-02 0.213D-01 0.145D+00 0.297D+00 0.538D+00
 Gap=     0.193 Goal=   None    Shift=    0.000
 RMSDP=8.99D-05 MaxDP=3.38D-03 DE=-6.74D-03 OVMax= 6.79D-03

 Cycle   6  Pass 0  IDiag  1:
 E= -855.027233384631     Delta-E=       -0.000571210090 Rises=F Damp=F
 DIIS: error= 1.56D-04 at cycle   6 NSaved=   6.
 NSaved= 6 IEnMin= 6 EnMin= -855.027233384631     IErMin= 6 ErrMin= 1.56D-04
 ErrMax= 1.56D-04 EMaxC= 1.00D-01 BMatC= 3.00D-05 BMatP= 6.18D-04
 IDIUse=3 WtCom= 9.98D-01 WtEn= 1.56D-03
 Coeff-Com: -0.755D-03 0.201D-02 0.459D-01 0.109D+00 0.268D+00 0.576D+00
 Coeff-En:   0.000D+00 0.000D+00 0.000D+00 0.000D+00 0.000D+00 0.100D+01
 Coeff:     -0.754D-03 0.201D-02 0.458D-01 0.109D+00 0.268D+00 0.576D+00
 Gap=     0.194 Goal=   None    Shift=    0.000
 RMSDP=2.03D-05 MaxDP=1.05D-03 DE=-5.71D-04 OVMax= 1.10D-03

 Cycle   7  Pass 0  IDiag  1:
 E= -855.027256968815     Delta-E=       -0.000023584184 Rises=F Damp=F
 DIIS: error= 7.14D-05 at cycle   7 NSaved=   7.
 NSaved= 7 IEnMin= 7 EnMin= -855.027256968815     IErMin= 7 ErrMin= 7.14D-05
 ErrMax= 7.14D-05 EMaxC= 1.00D-01 BMatC= 3.40D-06 BMatP= 3.00D-05
 IDIUse=1 WtCom= 1.00D+00 WtEn= 0.00D+00
 Coeff-Com: -0.271D-03-0.442D-03 0.157D-01 0.409D-01 0.117D+00 0.333D+00
 Coeff-Com:  0.494D+00
 Coeff:     -0.271D-03-0.442D-03 0.157D-01 0.409D-01 0.117D+00 0.333D+00
 Coeff:      0.494D+00
 Gap=     0.193 Goal=   None    Shift=    0.000
 RMSDP=6.83D-06 MaxDP=3.12D-04 DE=-2.36D-05 OVMax= 3.80D-04

 Initial convergence to 1.0D-05 achieved.  Increase integral accuracy.
 Cycle   8  Pass 1  IDiag  1:
 E= -855.027319369969     Delta-E=       -0.000062401154 Rises=F Damp=F
 DIIS: error= 2.22D-05 at cycle   1 NSaved=   1.
 NSaved= 1 IEnMin= 1 EnMin= -855.027319369969     IErMin= 1 ErrMin= 2.22D-05
 ErrMax= 2.22D-05 EMaxC= 1.00D-01 BMatC= 3.81D-07 BMatP= 3.81D-07
 IDIUse=1 WtCom= 1.00D+00 WtEn= 0.00D+00
 Coeff-Com:  0.100D+01
 Coeff:      0.100D+01
 Gap=     0.193 Goal=   None    Shift=    0.000
 RMSDP=6.83D-06 MaxDP=3.12D-04 DE=-6.24D-05 OVMax= 2.87D-04

 Cycle   9  Pass 1  IDiag  1:
 E= -855.027319134508     Delta-E=        0.000000235461 Rises=F Damp=F
 DIIS: error= 3.23D-05 at cycle   2 NSaved=   2.
 NSaved= 2 IEnMin= 1 EnMin= -855.027319369969     IErMin= 1 ErrMin= 2.22D-05
 ErrMax= 3.23D-05 EMaxC= 1.00D-01 BMatC= 7.41D-07 BMatP= 3.81D-07
 IDIUse=1 WtCom= 1.00D+00 WtEn= 0.00D+00
 Coeff-Com:  0.594D+00 0.406D+00
 Coeff:      0.594D+00 0.406D+00
 Gap=     0.193 Goal=   None    Shift=    0.000
 RMSDP=3.11D-06 MaxDP=1.98D-04 DE= 2.35D-07 OVMax= 2.22D-04

 Cycle  10  Pass 1  IDiag  1:
 E= -855.027319749625     Delta-E=       -0.000000615118 Rises=F Damp=F
 DIIS: error= 7.85D-06 at cycle   3 NSaved=   3.
 NSaved= 3 IEnMin= 3 EnMin= -855.027319749625     IErMin= 3 ErrMin= 7.85D-06
 ErrMax= 7.85D-06 EMaxC= 1.00D-01 BMatC= 3.08D-08 BMatP= 3.81D-07
 IDIUse=1 WtCom= 1.00D+00 WtEn= 0.00D+00
 Coeff-Com:  0.692D-01 0.174D+00 0.756D+00
 Coeff:      0.692D-01 0.174D+00 0.756D+00
 Gap=     0.193 Goal=   None    Shift=    0.000
 RMSDP=8.18D-07 MaxDP=3.58D-05 DE=-6.15D-07 OVMax= 5.21D-05

 Cycle  11  Pass 1  IDiag  1:
 E= -855.027319769807     Delta-E=       -0.000000020182 Rises=F Damp=F
 DIIS: error= 3.32D-06 at cycle   4 NSaved=   4.
 NSaved= 4 IEnMin= 4 EnMin= -855.027319769807     IErMin= 4 ErrMin= 3.32D-06
 ErrMax= 3.32D-06 EMaxC= 1.00D-01 BMatC= 8.22D-09 BMatP= 3.08D-08
 IDIUse=1 WtCom= 1.00D+00 WtEn= 0.00D+00
 Coeff-Com: -0.106D-01 0.685D-01 0.456D+00 0.486D+00
 Coeff:     -0.106D-01 0.685D-01 0.456D+00 0.486D+00
 Gap=     0.193 Goal=   None    Shift=    0.000
 RMSDP=3.58D-07 MaxDP=1.40D-05 DE=-2.02D-08 OVMax= 2.57D-05

 Cycle  12  Pass 1  IDiag  1:
 E= -855.027319777128     Delta-E=       -0.000000007321 Rises=F Damp=F
 DIIS: error= 8.89D-07 at cycle   5 NSaved=   5.
 NSaved= 5 IEnMin= 5 EnMin= -855.027319777128     IErMin= 5 ErrMin= 8.89D-07
 ErrMax= 8.89D-07 EMaxC= 1.00D-01 BMatC= 4.78D-10 BMatP= 8.22D-09
 IDIUse=1 WtCom= 1.00D+00 WtEn= 0.00D+00
 Coeff-Com: -0.927D-02 0.346D-01 0.249D+00 0.298D+00 0.428D+00
 Coeff:     -0.927D-02 0.346D-01 0.249D+00 0.298D+00 0.428D+00
 Gap=     0.193 Goal=   None    Shift=    0.000
 RMSDP=8.87D-08 MaxDP=3.41D-06 DE=-7.32D-09 OVMax= 8.29D-06

 Cycle  13  Pass 1  IDiag  1:
 E= -855.027319777536     Delta-E=       -0.000000000408 Rises=F Damp=F
 DIIS: error= 1.63D-07 at cycle   6 NSaved=   6.
 NSaved= 6 IEnMin= 6 EnMin= -855.027319777536     IErMin= 6 ErrMin= 1.63D-07
 ErrMax= 1.63D-07 EMaxC= 1.00D-01 BMatC= 2.04D-11 BMatP= 4.78D-10
 IDIUse=1 WtCom= 1.00D+00 WtEn= 0.00D+00
 Coeff-Com: -0.320D-02 0.909D-02 0.707D-01 0.907D-01 0.210D+00 0.623D+00
 Coeff:     -0.320D-02 0.909D-02 0.707D-01 0.907D-01 0.210D+00 0.623D+00
 Gap=     0.193 Goal=   None    Shift=    0.000
 RMSDP=2.13D-08 MaxDP=7.91D-07 DE=-4.08D-10 OVMax= 2.41D-06

 Cycle  14  Pass 1  IDiag  1:
 E= -855.027319777552     Delta-E=       -0.000000000016 Rises=F Damp=F
 DIIS: error= 6.75D-08 at cycle   7 NSaved=   7.
 NSaved= 7 IEnMin= 7 EnMin= -855.027319777552     IErMin= 7 ErrMin= 6.75D-08
 ErrMax= 6.75D-08 EMaxC= 1.00D-01 BMatC= 3.35D-12 BMatP= 2.04D-11
 IDIUse=1 WtCom= 1.00D+00 WtEn= 0.00D+00
 Coeff-Com: -0.897D-03 0.164D-02 0.151D-01 0.212D-01 0.714D-01 0.351D+00
 Coeff-Com:  0.540D+00
 Coeff:     -0.897D-03 0.164D-02 0.151D-01 0.212D-01 0.714D-01 0.351D+00
 Coeff:      0.540D+00
 Gap=     0.193 Goal=   None    Shift=    0.000
 RMSDP=7.18D-09 MaxDP=2.32D-07 DE=-1.64D-11 OVMax= 7.42D-07

 SCF Done:  E(RB3LYP) =  -855.027319778     A.U. after   14 cycles
             Convg  =    0.7176D-08             -V/T =  2.0093
 KE= 8.471515269287D+02 PE=-4.582923121691D+03 EE= 1.584875733095D+03
 Leave Link  502 at Tue Sep 28 15:44:58 2021, MaxMem= 1342177280 cpu:     412.4
 (Enter /sw/target/amd/app/gaussian/Gaussian09RevA.02_gcc-4.9.2/g09/l508.exe)
 QCSCF skips out because SCF is already converged.
 Leave Link  508 at Tue Sep 28 15:45:00 2021, MaxMem= 1342177280 cpu:       0.0
 (Enter /sw/target/amd/app/gaussian/Gaussian09RevA.02_gcc-4.9.2/g09/l601.exe)
 Copying SCF densities to generalized density rwf, IOpCl= 0 IROHF=0.

 **********************************************************************

            Population analysis using the SCF density.

 **********************************************************************

 Orbital symmetries:
       Occupied  (A) (A) (A) (A) (A) (A) (A) (A) (A) (A) (A) (A)
                 (A) (A) (A) (A) (A) (A) (A) (A) (A) (A) (A) (A)
                 (A) (A) (A) (A) (A) (A) (A) (A) (A) (A) (A) (A)
                 (A) (A) (A) (A) (A) (A) (A) (A) (A) (A) (A) (A)
                 (A) (A) (A) (A) (A) (A) (A) (A) (A) (A) (A) (A)
                 (A) (A) (A) (A) (A)
       Virtual   (A) (A) (A) (A) (A) (A) (A) (A) (A) (A) (A) (A)
                 (A) (A) (A) (A) (A) (A) (A) (A) (A) (A) (A) (A)
                 (A) (A) (A) (A) (A) (A) (A) (A) (A) (A) (A) (A)
                 (A) (A) (A) (A) (A) (A) (A) (A) (A) (A) (A) (A)
                 (A) (A) (A) (A) (A) (A) (A) (A) (A) (A) (A) (A)
                 (A) (A) (A) (A) (A) (A) (A) (A) (A) (A) (A) (A)
                 (A) (A) (A) (A) (A) (A) (A) (A) (A) (A) (A) (A)
                 (A) (A) (A) (A) (A) (A) (A) (A) (A) (A) (A) (A)
                 (A) (A) (A) (A) (A) (A) (A) (A) (A) (A) (A) (A)
                 (A) (A) (A) (A) (A) (A) (A) (A) (A) (A) (A) (A)
                 (A) (A) (A) (A) (A) (A) (A) (A) (A) (A) (A) (A)
                 (A) (A) (A) (A) (A) (A) (A) (A) (A) (A) (A) (A)
                 (A) (A) (A) (A) (A) (A) (A) (A) (A) (A) (A) (A)
                 (A) (A) (A) (A) (A) (A) (A) (A) (A) (A) (A) (A)
                 (A) (A) (A) (A) (A) (A) (A) (A) (A) (A) (A) (A)
                 (A) (A) (A) (A) (A) (A) (A) (A) (A) (A) (A) (A)
                 (A) (A) (A) (A) (A) (A) (A) (A) (A) (A) (A) (A)
                 (A) (A) (A) (A) (A) (A) (A) (A) (A) (A) (A) (A)
                 (A) (A) (A) (A) (A) (A) (A) (A) (A) (A) (A) (A)
                 (A) (A) (A)
 The electronic state is 1-A.
 Alpha  occ. eigenvalues --  -19.20991 -19.20106 -19.19448 -14.35132 -14.34749
 Alpha  occ. eigenvalues --  -14.34548 -10.34036 -10.33567 -10.33238 -10.25370
 Alpha  occ. eigenvalues --  -10.24139 -10.23924 -10.20013 -10.19500 -10.19201
 Alpha  occ. eigenvalues --  -10.19081 -10.18795 -10.18160  -1.11299  -1.09504
 Alpha  occ. eigenvalues --   -1.08618  -1.01227  -0.91529  -0.91162  -0.85551
 Alpha  occ. eigenvalues --   -0.77614  -0.75426  -0.73481  -0.72410  -0.69216
 Alpha  occ. eigenvalues --   -0.67283  -0.64630  -0.61387  -0.59951  -0.58162
 Alpha  occ. eigenvalues --   -0.55983  -0.52726  -0.50820  -0.50742  -0.48777
 Alpha  occ. eigenvalues --   -0.48267  -0.47705  -0.45205  -0.44465  -0.44073
 Alpha  occ. eigenvalues --   -0.43729  -0.42867  -0.41384  -0.40561  -0.39730
 Alpha  occ. eigenvalues --   -0.39539  -0.38671  -0.37257  -0.36162  -0.35569
 Alpha  occ. eigenvalues --   -0.35343  -0.35074  -0.34412  -0.31681  -0.29197
 Alpha  occ. eigenvalues --   -0.28772  -0.28424  -0.28175  -0.24573  -0.23152
 Alpha virt. eigenvalues --   -0.03807  -0.02969  -0.00015   0.00599   0.09081
 Alpha virt. eigenvalues --    0.10682   0.11329   0.11418   0.12526   0.12590
 Alpha virt. eigenvalues --    0.13462   0.13925   0.14880   0.15334   0.15430
 Alpha virt. eigenvalues --    0.15892   0.16828   0.17298   0.17433   0.17528
 Alpha virt. eigenvalues --    0.19220   0.20839   0.22128   0.24084   0.24503
 Alpha virt. eigenvalues --    0.26353   0.28280   0.29036   0.29316   0.31391
 Alpha virt. eigenvalues --    0.32945   0.34901   0.35645   0.40486   0.41933
 Alpha virt. eigenvalues --    0.47630   0.48374   0.49599   0.49659   0.51570
 Alpha virt. eigenvalues --    0.51637   0.52316   0.53174   0.53500   0.54321
 Alpha virt. eigenvalues --    0.54615   0.55545   0.55613   0.56987   0.57342
 Alpha virt. eigenvalues --    0.57829   0.59445   0.59886   0.60870   0.61056
 Alpha virt. eigenvalues --    0.61221   0.62357   0.62820   0.63176   0.64417
 Alpha virt. eigenvalues --    0.65427   0.65664   0.67227   0.68910   0.69494
 Alpha virt. eigenvalues --    0.70654   0.71404   0.74833   0.76505   0.77968
 Alpha virt. eigenvalues --    0.79631   0.81189   0.82509   0.83095   0.83534
 Alpha virt. eigenvalues --    0.83674   0.84324   0.84948   0.85414   0.86908
 Alpha virt. eigenvalues --    0.88053   0.88484   0.89720   0.90169   0.91113
 Alpha virt. eigenvalues --    0.91785   0.92296   0.93915   0.94487   0.95530
 Alpha virt. eigenvalues --    0.96347   0.96770   0.99767   0.99809   1.01904
 Alpha virt. eigenvalues --    1.02527   1.03376   1.04369   1.05453   1.06083
 Alpha virt. eigenvalues --    1.08491   1.10348   1.12137   1.13041   1.15806
 Alpha virt. eigenvalues --    1.16725   1.19403   1.19934   1.22233   1.25469
 Alpha virt. eigenvalues --    1.27061   1.29348   1.31176   1.34619   1.36648
 Alpha virt. eigenvalues --    1.37713   1.39138   1.39763   1.41465   1.43949
 Alpha virt. eigenvalues --    1.44378   1.45450   1.46249   1.47291   1.48584
 Alpha virt. eigenvalues --    1.49131   1.50134   1.51870   1.53388   1.54501
 Alpha virt. eigenvalues --    1.55126   1.56897   1.61133   1.67144   1.70000
 Alpha virt. eigenvalues --    1.73688   1.75603   1.77282   1.77320   1.79920
 Alpha virt. eigenvalues --    1.81153   1.81546   1.82503   1.83160   1.85573
 Alpha virt. eigenvalues --    1.88187   1.88940   1.90311   1.91763   1.93199
 Alpha virt. eigenvalues --    1.93515   1.96236   1.98074   1.99749   2.01379
 Alpha virt. eigenvalues --    2.03877   2.04294   2.07121   2.07564   2.09075
 Alpha virt. eigenvalues --    2.10528   2.11061   2.11558   2.15136   2.17785
 Alpha virt. eigenvalues --    2.18271   2.19802   2.20876   2.23393   2.24885
 Alpha virt. eigenvalues --    2.26529   2.28099   2.29575   2.30523   2.31403
 Alpha virt. eigenvalues --    2.32420   2.33331   2.34871   2.37917   2.38663
 Alpha virt. eigenvalues --    2.39247   2.44141   2.44649   2.45108   2.49000
 Alpha virt. eigenvalues --    2.50864   2.52336   2.53995   2.55735   2.58984
 Alpha virt. eigenvalues --    2.60018   2.63668   2.64867   2.67041   2.69008
 Alpha virt. eigenvalues --    2.70254   2.70956   2.74396   2.75069   2.78081
 Alpha virt. eigenvalues --    2.79807   2.81023   2.81859   2.86601   2.90026
 Alpha virt. eigenvalues --    2.93690   3.00337   3.10540   3.18610   3.22787
 Alpha virt. eigenvalues --    3.31615   3.40908   3.46710   4.01358   4.05651
 Alpha virt. eigenvalues --    4.08814   4.09378   4.12013   4.13338   4.14570
 Alpha virt. eigenvalues --    4.22445   4.24062   4.26226   4.27123   4.31689
 Alpha virt. eigenvalues --    4.39695   4.42436   4.54214   4.63616   4.71119
 Alpha virt. eigenvalues --    4.84940
          Condensed to atoms (all electrons):
              1          2          3          4          5          6
     1  C    4.901070   0.229010  -0.031024   0.003728  -0.000093   0.000086
     2  O    0.229010   8.178687   0.310336  -0.082519   0.001440  -0.000205
     3  C   -0.031024   0.310336   4.355891   0.442540  -0.043902  -0.030465
     4  N    0.003728  -0.082519   0.442540   6.918261   0.445240  -0.076755
     5  C   -0.000093   0.001440  -0.043902   0.445240   4.357922   0.404943
     6  N    0.000086  -0.000205  -0.030465  -0.076755   0.404943   7.022993
     7  C    0.000377   0.001778  -0.043489  -0.032515  -0.042127   0.390350
     8  N   -0.008465  -0.080245   0.383493  -0.075610  -0.031772  -0.076092
     9  O   -0.000009  -0.000011   0.001244  -0.000197   0.001256  -0.083006
    10  C    0.000000   0.000001  -0.000078   0.000071   0.000710  -0.009979
    11  O    0.000001  -0.000006   0.001944  -0.080119   0.283405  -0.077690
    12  C    0.000000  -0.000001   0.000053   0.000859  -0.019129  -0.002154
    13  C   -0.000000   0.000000   0.000098   0.000022  -0.002933  -0.000037
    14  C    0.000000   0.000000  -0.000001  -0.000007  -0.000154  -0.000532
    15  C   -0.000000  -0.000000   0.000000   0.000000   0.000032   0.000025
    16  C   -0.000000   0.000000  -0.000000   0.000002   0.000060  -0.000041
    17  C    0.000000  -0.000000   0.000002  -0.000219   0.000095  -0.000816
    18  C   -0.000000   0.000000   0.000000  -0.000028  -0.000111   0.000012
    19  H    0.377047  -0.030624   0.004174   0.000011   0.000002   0.000001
    20  H    0.370400  -0.033782  -0.004472   0.000500   0.000057  -0.000031
    21  H    0.374852  -0.031917  -0.009074  -0.000300   0.000051   0.000002
    22  H   -0.000000  -0.000000   0.000003   0.000001  -0.000009   0.000852
    23  H   -0.000000   0.000000   0.000061  -0.000002  -0.000176   0.009866
    24  H   -0.000000   0.000000   0.000037  -0.000022   0.000018   0.003336
    25  H    0.000000  -0.000000   0.000118  -0.000343   0.006155   0.001396
    26  H    0.000000  -0.000000   0.000000  -0.000000  -0.000014  -0.000006
    27  H   -0.000000   0.000000  -0.000000   0.000000   0.000000   0.000000
    28  H    0.000000  -0.000000   0.000000  -0.000000   0.000000  -0.000000
    29  H   -0.000000   0.000000   0.000000  -0.000000  -0.000005   0.000001
    30  H    0.000000   0.000000   0.000000   0.000001  -0.000031   0.000008
    31  H   -0.000000   0.000000  -0.000001   0.000011   0.000670  -0.000059
              7          8          9         10         11         12
     1  C    0.000377  -0.008465  -0.000009   0.000000   0.000001   0.000000
     2  O    0.001778  -0.080245  -0.000011   0.000001  -0.000006  -0.000001
     3  C   -0.043489   0.383493   0.001244  -0.000078   0.001944   0.000053
     4  N   -0.032515  -0.075610  -0.000197   0.000071  -0.080119   0.000859
     5  C   -0.042127  -0.031772   0.001256   0.000710   0.283405  -0.019129
     6  N    0.390350  -0.076092  -0.083006  -0.009979  -0.077690  -0.002154
     7  C    4.322669   0.460186   0.305660  -0.031990   0.001317   0.000556
     8  N    0.460186   6.975593  -0.080211   0.004080  -0.000182   0.000057
     9  O    0.305660  -0.080211   8.187085   0.227548  -0.000014   0.000003
    10  C   -0.031990   0.004080   0.227548   4.909997  -0.000004  -0.000042
    11  O    0.001317  -0.000182  -0.000014  -0.000004   8.291437   0.238621
    12  C    0.000556   0.000057   0.000003  -0.000042   0.238621   4.632218
    13  C   -0.000123  -0.000029   0.000017  -0.000202  -0.060978   0.471854
    14  C    0.000009  -0.000000   0.000000  -0.000026   0.003981  -0.007323
    15  C    0.000000   0.000000  -0.000000  -0.000000  -0.000035  -0.047258
    16  C    0.000000  -0.000000  -0.000000   0.000001   0.003531  -0.004557
    17  C   -0.000001  -0.000000   0.000000   0.000004  -0.066219   0.523273
    18  C   -0.000002  -0.000000   0.000000   0.000000  -0.003961  -0.063448
    19  H   -0.000001   0.000687  -0.000000   0.000000  -0.000000  -0.000000
    20  H    0.000173   0.003842  -0.000001   0.000000   0.000000   0.000000
    21  H   -0.000189   0.008292  -0.000002  -0.000000   0.000000   0.000000
    22  H    0.004179  -0.000009  -0.029936   0.375386  -0.000000   0.000000
    23  H   -0.010742  -0.000225  -0.029575   0.372089  -0.000013   0.000123
    24  H   -0.004726   0.000180  -0.034417   0.373656  -0.000001   0.000008
    25  H    0.000107  -0.000038  -0.000020  -0.000013  -0.006538  -0.037954
    26  H   -0.000001  -0.000000   0.000000  -0.000000  -0.000046   0.003321
    27  H   -0.000000   0.000000  -0.000000   0.000000   0.000002   0.000956
    28  H   -0.000000  -0.000000  -0.000000  -0.000000  -0.000046   0.005162
    29  H   -0.000000   0.000000   0.000000  -0.000000   0.000299   0.004044
    30  H   -0.000000  -0.000000   0.000000   0.000000   0.001598  -0.004968
    31  H    0.000002   0.000000  -0.000000  -0.000000   0.004007  -0.004121
             13         14         15         16         17         18
     1  C   -0.000000   0.000000  -0.000000  -0.000000   0.000000  -0.000000
     2  O    0.000000   0.000000  -0.000000   0.000000  -0.000000   0.000000
     3  C    0.000098  -0.000001   0.000000  -0.000000   0.000002   0.000000
     4  N    0.000022  -0.000007   0.000000   0.000002  -0.000219  -0.000028
     5  C   -0.002933  -0.000154   0.000032   0.000060   0.000095  -0.000111
     6  N   -0.000037  -0.000532   0.000025  -0.000041  -0.000816   0.000012
     7  C   -0.000123   0.000009   0.000000   0.000000  -0.000001  -0.000002
     8  N   -0.000029  -0.000000   0.000000  -0.000000  -0.000000  -0.000000
     9  O    0.000017   0.000000  -0.000000  -0.000000   0.000000   0.000000
    10  C   -0.000202  -0.000026  -0.000000   0.000001   0.000004   0.000000
    11  O   -0.060978   0.003981  -0.000035   0.003531  -0.066219  -0.003961
    12  C    0.471854  -0.007323  -0.047258  -0.004557   0.523273  -0.063448
    13  C    5.040695   0.515046  -0.026417  -0.054018  -0.061897   0.009485
    14  C    0.515046   4.862260   0.547315  -0.029063  -0.031857  -0.000125
    15  C   -0.026417   0.547315   4.874345   0.520413  -0.025042   0.008085
    16  C   -0.054018  -0.029063   0.520413   4.948092   0.546504  -0.064772
    17  C   -0.061897  -0.031857  -0.025042   0.546504   4.769981   0.342069
    18  C    0.009485  -0.000125   0.008085  -0.064772   0.342069   5.206743
    19  H    0.000000   0.000000  -0.000000   0.000000  -0.000000  -0.000000
    20  H   -0.000000  -0.000000   0.000000  -0.000000  -0.000000   0.000000
    21  H    0.000000   0.000000  -0.000000   0.000000   0.000000   0.000000
    22  H    0.000001  -0.000000  -0.000000   0.000000  -0.000000  -0.000000
    23  H    0.000861   0.000136   0.000000  -0.000006  -0.000011  -0.000000
    24  H    0.000005   0.000000  -0.000000  -0.000000   0.000000  -0.000000
    25  H    0.347653  -0.038465   0.004617   0.000710   0.004089  -0.000157
    26  H   -0.038675   0.357902  -0.040821   0.004525   0.000830   0.000008
    27  H    0.004985  -0.042874   0.355250  -0.039244   0.003898  -0.000191
    28  H    0.000176   0.005136  -0.046192   0.357261  -0.040560  -0.011087
    29  H   -0.000137   0.000005   0.000213  -0.003775  -0.029147   0.362890
    30  H   -0.000159   0.000044  -0.000209  -0.000159  -0.025967   0.366086
    31  H    0.000086   0.000006  -0.000194   0.002038  -0.028292   0.364109
             19         20         21         22         23         24
     1  C    0.377047   0.370400   0.374852  -0.000000  -0.000000  -0.000000
     2  O   -0.030624  -0.033782  -0.031917  -0.000000   0.000000   0.000000
     3  C    0.004174  -0.004472  -0.009074   0.000003   0.000061   0.000037
     4  N    0.000011   0.000500  -0.000300   0.000001  -0.000002  -0.000022
     5  C    0.000002   0.000057   0.000051  -0.000009  -0.000176   0.000018
     6  N    0.000001  -0.000031   0.000002   0.000852   0.009866   0.003336
     7  C   -0.000001   0.000173  -0.000189   0.004179  -0.010742  -0.004726
     8  N    0.000687   0.003842   0.008292  -0.000009  -0.000225   0.000180
     9  O   -0.000000  -0.000001  -0.000002  -0.029936  -0.029575  -0.034417
    10  C    0.000000   0.000000  -0.000000   0.375386   0.372089   0.373656
    11  O   -0.000000   0.000000   0.000000  -0.000000  -0.000013  -0.000001
    12  C   -0.000000   0.000000   0.000000   0.000000   0.000123   0.000008
    13  C    0.000000  -0.000000   0.000000   0.000001   0.000861   0.000005
    14  C    0.000000  -0.000000   0.000000  -0.000000   0.000136   0.000000
    15  C   -0.000000   0.000000  -0.000000  -0.000000   0.000000  -0.000000
    16  C    0.000000  -0.000000   0.000000   0.000000  -0.000006  -0.000000
    17  C   -0.000000  -0.000000   0.000000  -0.000000  -0.000011   0.000000
    18  C   -0.000000   0.000000   0.000000  -0.000000  -0.000000  -0.000000
    19  H    0.549563  -0.032823  -0.034825  -0.000000  -0.000000  -0.000000
    20  H   -0.032823   0.574360  -0.037105   0.000000  -0.000000  -0.000000
    21  H   -0.034825  -0.037105   0.554560  -0.000000  -0.000000   0.000000
    22  H   -0.000000   0.000000  -0.000000   0.550577  -0.033401  -0.033675
    23  H   -0.000000  -0.000000  -0.000000  -0.033401   0.545265  -0.036104
    24  H   -0.000000  -0.000000   0.000000  -0.033675  -0.036104   0.570467
    25  H   -0.000000   0.000000  -0.000000  -0.000000   0.000068   0.000001
    26  H   -0.000000   0.000000   0.000000  -0.000000   0.000001  -0.000000
    27  H   -0.000000  -0.000000   0.000000   0.000000   0.000000  -0.000000
    28  H    0.000000   0.000000  -0.000000  -0.000000   0.000000   0.000000
    29  H   -0.000000   0.000000   0.000000   0.000000   0.000000  -0.000000
    30  H    0.000000  -0.000000  -0.000000   0.000000  -0.000000  -0.000000
    31  H   -0.000000   0.000000  -0.000000  -0.000000   0.000000   0.000000
             25         26         27         28         29         30
     1  C    0.000000   0.000000  -0.000000   0.000000  -0.000000   0.000000
     2  O   -0.000000  -0.000000   0.000000  -0.000000   0.000000   0.000000
     3  C    0.000118   0.000000  -0.000000   0.000000   0.000000   0.000000
     4  N   -0.000343  -0.000000   0.000000  -0.000000  -0.000000   0.000001
     5  C    0.006155  -0.000014   0.000000   0.000000  -0.000005  -0.000031
     6  N    0.001396  -0.000006   0.000000  -0.000000   0.000001   0.000008
     7  C    0.000107  -0.000001  -0.000000  -0.000000  -0.000000  -0.000000
     8  N   -0.000038  -0.000000   0.000000  -0.000000   0.000000  -0.000000
     9  O   -0.000020   0.000000  -0.000000  -0.000000   0.000000   0.000000
    10  C   -0.000013  -0.000000   0.000000  -0.000000  -0.000000   0.000000
    11  O   -0.006538  -0.000046   0.000002  -0.000046   0.000299   0.001598
    12  C   -0.037954   0.003321   0.000956   0.005162   0.004044  -0.004968
    13  C    0.347653  -0.038675   0.004985   0.000176  -0.000137  -0.000159
    14  C   -0.038465   0.357902  -0.042874   0.005136   0.000005   0.000044
    15  C    0.004617  -0.040821   0.355250  -0.046192   0.000213  -0.000209
    16  C    0.000710   0.004525  -0.039244   0.357261  -0.003775  -0.000159
    17  C    0.004089   0.000830   0.003898  -0.040560  -0.029147  -0.025967
    18  C   -0.000157   0.000008  -0.000191  -0.011087   0.362890   0.366086
    19  H   -0.000000  -0.000000  -0.000000   0.000000  -0.000000   0.000000
    20  H    0.000000   0.000000  -0.000000   0.000000   0.000000  -0.000000
    21  H   -0.000000   0.000000   0.000000  -0.000000   0.000000  -0.000000
    22  H   -0.000000  -0.000000   0.000000  -0.000000   0.000000   0.000000
    23  H    0.000068   0.000001   0.000000   0.000000   0.000000  -0.000000
    24  H    0.000001  -0.000000  -0.000000   0.000000  -0.000000  -0.000000
    25  H    0.587852  -0.005819  -0.000190   0.000015   0.000002   0.000001
    26  H   -0.005819   0.591705  -0.005402  -0.000204  -0.000000  -0.000000
    27  H   -0.000190  -0.005402   0.600839  -0.005445  -0.000013   0.000003
    28  H    0.000015  -0.000204  -0.005445   0.599983   0.006376   0.000294
    29  H    0.000002  -0.000000  -0.000013   0.006376   0.565731  -0.028739
    30  H    0.000001  -0.000000   0.000003   0.000294  -0.028739   0.546359
    31  H   -0.000000  -0.000000   0.000003   0.000103  -0.029179  -0.028113
             31
     1  C   -0.000000
     2  O    0.000000
     3  C   -0.000001
     4  N    0.000011
     5  C    0.000670
     6  N   -0.000059
     7  C    0.000002
     8  N    0.000000
     9  O   -0.000000
    10  C   -0.000000
    11  O    0.004007
    12  C   -0.004121
    13  C    0.000086
    14  C    0.000006
    15  C   -0.000194
    16  C    0.002038
    17  C   -0.028292
    18  C    0.364109
    19  H   -0.000000
    20  H    0.000000
    21  H   -0.000000
    22  H   -0.000000
    23  H    0.000000
    24  H    0.000000
    25  H   -0.000000
    26  H   -0.000000
    27  H    0.000003
    28  H    0.000103
    29  H   -0.029179
    30  H   -0.028113
    31  H    0.553175
 Mulliken atomic charges:
              1
     1  C   -0.216979
     2  O   -0.461943
     3  C    0.662510
     4  N   -0.462609
     5  C    0.638401
     6  N   -0.476000
     7  C    0.678545
     8  N   -0.483530
     9  O   -0.465416
    10  C   -0.221206
    11  O   -0.534287
    12  C    0.309845
    13  C   -0.145377
    14  C   -0.141411
    15  C   -0.124126
    16  C   -0.187500
    17  C    0.119284
    18  C   -0.515606
    19  H    0.166787
    20  H    0.158881
    21  H    0.175655
    22  H    0.166031
    23  H    0.181786
    24  H    0.161236
    25  H    0.136751
    26  H    0.132695
    27  H    0.127422
    28  H    0.129028
    29  H    0.151435
    30  H    0.173951
    31  H    0.165750
 Sum of Mulliken atomic charges =  -0.00000
 Mulliken charges with hydrogens summed into heavy atoms:
              1
     1  C    0.284344
     2  O   -0.461943
     3  C    0.662510
     4  N   -0.462609
     5  C    0.638401
     6  N   -0.476000
     7  C    0.678545
     8  N   -0.483530
     9  O   -0.465416
    10  C    0.287846
    11  O   -0.534287
    12  C    0.309845
    13  C   -0.008626
    14  C   -0.008716
    15  C    0.003296
    16  C   -0.058472
    17  C    0.119284
    18  C   -0.024470
 Sum of Mulliken charges with hydrogens summed into heavy atoms =  -0.00000
 Electronic spatial extent (au):  <R**2>=           5255.4381
 Charge=             -0.0000 electrons
 Dipole moment (field-independent basis, Debye):
    X=             -0.8367    Y=              2.2136    Z=              0.2744  Tot=              2.3823
 Quadrupole moment (field-independent basis, Debye-Ang):
   XX=            -92.2464   YY=           -105.5731   ZZ=            -97.1175
   XY=             -1.8036   XZ=              4.5698   YZ=             -0.5515
 Traceless Quadrupole moment (field-independent basis, Debye-Ang):
   XX=              6.0659   YY=             -7.2608   ZZ=              1.1949
   XY=             -1.8036   XZ=              4.5698   YZ=             -0.5515
 Octapole moment (field-independent basis, Debye-Ang**2):
  XXX=             35.6216  YYY=             36.3683  ZZZ=             -2.3129  XYY=             -6.1332
  XXY=            -18.2832  XXZ=             16.1263  XZZ=             14.5470  YZZ=              7.2395
  YYZ=             -9.5136  XYZ=            -17.9378
 Hexadecapole moment (field-independent basis, Debye-Ang**3):
 XXXX=          -4420.8316 YYYY=          -1268.4558 ZZZZ=           -600.4396 XXXY=           -131.7940
 XXXZ=            139.1428 YYYX=             28.6756 YYYZ=            -40.8746 ZZZX=              9.1916
 ZZZY=              1.0866 XXYY=          -1098.8619 XXZZ=           -891.2627 YYZZ=           -308.3106
 XXYZ=             12.5286 YYXZ=             -1.3024 ZZXY=            -18.5609
 N-N= 1.295868541890D+03 E-N=-4.582923104682D+03  KE= 8.471515269287D+02
 No NMR shielding tensors so no spin-rotation constants.
 Leave Link  601 at Tue Sep 28 15:45:06 2021, MaxMem= 1342177280 cpu:       1.9
 (Enter /sw/target/amd/app/gaussian/Gaussian09RevA.02_gcc-4.9.2/g09/l701.exe)
 Compute integral first derivatives.
 ... and contract with generalized density number  0.
 Leave Link  701 at Tue Sep 28 15:45:08 2021, MaxMem= 1342177280 cpu:       1.7
 (Enter /sw/target/amd/app/gaussian/Gaussian09RevA.02_gcc-4.9.2/g09/l702.exe)
 L702 exits ... SP integral derivatives will be done elsewhere.
 Leave Link  702 at Tue Sep 28 15:45:08 2021, MaxMem= 1342177280 cpu:       0.1
 (Enter /sw/target/amd/app/gaussian/Gaussian09RevA.02_gcc-4.9.2/g09/l703.exe)
 Compute integral first derivatives, UseDBF=F ICtDFT=           0.
 Integral derivatives from FoFDir, PRISM(SPDF).
 Calling FoFJK, ICntrl=      2127 FMM=F ISym2X=0 I1Cent= 0 IOpClX= 0 NMat=1 NMatS=1 NMatT=0.
 FoFCou: FMM=F IPFlag=           0 FMFlag=      100000 FMFlg1=         800
         NFxFlg=           0 DoJE=F BraDBF=F KetDBF=F FulRan=T
         Omega=  0.000000  0.000000  1.000000  0.000000  0.000000 ICntrl=    2127 IOpCl=  0
         NMat0=    1 NMatS0=    1 NMatT0=    0 NMatD0=    1 NMtDS0=    0 NMtDT0=    0
         I1Cent=           0 NGrid=           0.
 Symmetry not used in FoFCou.
 Leave Link  703 at Tue Sep 28 15:46:40 2021, MaxMem= 1342177280 cpu:     154.8
 (Enter /sw/target/amd/app/gaussian/Gaussian09RevA.02_gcc-4.9.2/g09/l716.exe)
 Dipole        =-3.29165627D-01 8.70908810D-01 1.07975565D-01
 ***** Axes restored to original set *****
 -------------------------------------------------------------------
 Center     Atomic                   Forces (Hartrees/Bohr)
 Number     Number              X              Y              Z
 -------------------------------------------------------------------
      1        6          -0.009475422   -0.011071850    0.013697820
      2        8           0.026138746   -0.000999665   -0.023975706
      3        6          -0.022075974    0.003860671    0.016091805
      4        7           0.003482315    0.015963125   -0.001276254
      5        6          -0.000278552    0.014509064   -0.006802725
      6        7           0.003823079    0.005173159   -0.007180553
      7        6           0.012442883   -0.026151700   -0.001510403
      8        7          -0.002724554   -0.007684416    0.007342184
      9        8          -0.012998465    0.030746664    0.009399940
     10        6           0.010507344   -0.008192435   -0.015333456
     11        8          -0.013017023   -0.024081807    0.015449462
     12        6           0.019838470    0.001027570   -0.010585178
     13        6          -0.000846694   -0.001651855    0.002740509
     14        6          -0.002112228    0.001655562    0.000494447
     15        6           0.002846726    0.001565467   -0.003097326
     16        6           0.002258875   -0.006082200    0.006440384
     17        6           0.000890532    0.003335294   -0.004640827
     18        6          -0.001992375   -0.001426483   -0.002798080
     19        1          -0.001134085    0.005135005   -0.002633644
     20        1          -0.001050123   -0.001683477   -0.003389363
     21        1           0.004297251   -0.000500629   -0.000957414
     22        1          -0.002690696   -0.002249118    0.006060482
     23        1          -0.004908370    0.001936296    0.000807541
     24        1           0.002308548    0.002932782    0.000381970
     25        1          -0.002705712    0.000985915   -0.000854358
     26        1          -0.000903540    0.000087595    0.000995730
     27        1          -0.000535600   -0.000125366   -0.000264756
     28        1          -0.003292389   -0.000165760    0.000874255
     29        1           0.001505682   -0.000057155    0.001498875
     30        1          -0.004810258    0.000592792    0.000187335
     31        1          -0.002788390    0.002616956    0.002837305
 -------------------------------------------------------------------
 Cartesian Forces:  Max     0.030746664 RMS     0.008988827
 Leave Link  716 at Tue Sep 28 15:46:40 2021, MaxMem= 1342177280 cpu:       0.1
 (Enter /sw/target/amd/app/gaussian/Gaussian09RevA.02_gcc-4.9.2/g09/l103.exe)

 GradGradGradGradGradGradGradGradGradGradGradGradGradGradGradGradGradGrad
 Berny optimization.
 Internal  Forces:  Max     0.025952061 RMS     0.005826609
 Search for a local minimum.
 Step number   1 out of a maximum of  149
 All quantities printed in internal units (Hartrees-Bohrs-Radians)
 RMS Force = .58266D-02 SwitMx=.10000D-02 MixMth= 1
 Mixed Optimization -- RFO/linear search
 Second derivative matrix not updated -- first step.
     Eigenvalues ---    0.00736   0.01385   0.01403   0.01512   0.01859
     Eigenvalues ---    0.01948   0.01979   0.01984   0.02036   0.02044
     Eigenvalues ---    0.02099   0.02104   0.02109   0.02168   0.02170
     Eigenvalues ---    0.02180   0.02439   0.02486   0.02504   0.02645
     Eigenvalues ---    0.02665   0.02683   0.07273   0.07294   0.09944
     Eigenvalues ---    0.09946   0.10500   0.10537   0.15998   0.15999
     Eigenvalues ---    0.16000   0.16000   0.16000   0.16000   0.16000
     Eigenvalues ---    0.16000   0.16000   0.16000   0.16000   0.16000
     Eigenvalues ---    0.16000   0.21997   0.22484   0.24461   0.24909
     Eigenvalues ---    0.24969   0.24981   0.24986   0.24992   0.24993
     Eigenvalues ---    0.24997   0.24997   0.25000   0.25000   0.25000
     Eigenvalues ---    0.32143   0.34033   0.34117   0.34157   0.34163
     Eigenvalues ---    0.34221   0.34273   0.34311   0.34320   0.34383
     Eigenvalues ---    0.35020   0.35116   0.35187   0.35231   0.41600
     Eigenvalues ---    0.41740   0.41988   0.42189   0.45030   0.45914
     Eigenvalues ---    0.46000   0.46704   0.47787   0.48982   0.49416
     Eigenvalues ---    0.49491   0.54359   0.54943   0.59619   0.60338
     Eigenvalues ---    0.60562   0.607181000.000001000.000001000.00000
     Eigenvalues --- 1000.000001000.000001000.000001000.000001000.00000
     Eigenvalues --- 1000.000001000.000001000.000001000.000001000.00000
     Eigenvalues --- 1000.000001000.000001000.000001000.000001000.00000
     Eigenvalues --- 1000.000001000.000001000.000001000.000001000.00000
     Eigenvalues --- 1000.000001000.000001000.000001000.000001000.00000
     Eigenvalues --- 1000.000001000.000001000.000001000.000001000.00000
     Eigenvalues --- 1000.000001000.000001000.000001000.000001000.00000
     Eigenvalues --- 1000.000001000.000001000.000001000.000001000.00000
     Eigenvalues --- 1000.000001000.000001000.000001000.000001000.00000
     Eigenvalues --- 1000.000001000.000001000.000001000.00000
 RFO step:  Lambda=-1.78534612D-02 EMin= 7.36280975D-03
 Linear search not attempted -- first point.
 Maximum step size (   0.300) exceeded in Quadratic search.
    -- Step size scaled by   0.761
 Iteration  1 RMS(Cart)=  0.13441709 RMS(Int)=  0.00696500
 Iteration  2 RMS(Cart)=  0.02061206 RMS(Int)=  0.00016926
 Iteration  3 RMS(Cart)=  0.00025590 RMS(Int)=  0.00011727
 Iteration  4 RMS(Cart)=  0.00000005 RMS(Int)=  0.00011727
 Variable       Old X    -DE/DX   Delta X   Delta X   Delta X     New X
                                 (Linear)    (Quad)   (Total)
    R1        2.68683   0.00978   0.00000   0.01692   0.01692   2.70374
    R2        2.06808  -0.00066   0.00000  -0.00140  -0.00140   2.06668
    R3        2.07133  -0.00129   0.00000  -0.00273  -0.00273   2.06860
    R4        2.06958  -0.00125   0.00000  -0.00265  -0.00265   2.06694
    R5        2.60459  -0.02544   0.00000  -0.03779  -0.03779   2.56680
    R6        2.50437   0.00923   0.00000   0.01137   0.01130   2.51568
    R7        2.50898   0.00313   0.00000   0.00413   0.00410   2.51309
    R8        2.50235  -0.00044   0.00000  -0.00072  -0.00076   2.50159
    R9        2.51523   0.00140   0.00000   0.00146   0.00148   2.51670
   R10        2.62166  -0.02410   0.00000  -0.03697  -0.03697   2.58469
   R11        2.50570   0.00567   0.00000   0.00683   0.00690   2.51260
   R12        2.50583   0.00652   0.00000   0.00814   0.00818   2.51401
   R13        2.60382  -0.02473   0.00000  -0.03668  -0.03668   2.56715
   R14        2.68939   0.00884   0.00000   0.01537   0.01537   2.70475
   R15        2.06688  -0.00036   0.00000  -0.00076  -0.00076   2.06612
   R16        2.07274  -0.00315   0.00000  -0.00669  -0.00669   2.06605
   R17        2.07066  -0.00088   0.00000  -0.00186  -0.00186   2.06879
   R18        2.60907   0.00937   0.00000   0.01403   0.01403   2.62310
   R19        2.64924  -0.00512   0.00000  -0.00848  -0.00847   2.64077
   R20        2.65592  -0.00376   0.00000  -0.00663  -0.00661   2.64931
[...]
    21    O    2  px     Ryd( 3p)     0.00089
    22    O    2  py     Val( 2p)     1.73893
    23    O    2  py     Ryd( 3p)     0.00184
    24    O    2  pz     Val( 2p)     1.79505
    25    O    2  pz     Ryd( 3p)     0.00213
    26    O    2  dxy    Ryd( 3d)     0.00134
    27    O    2  dxz    Ryd( 3d)     0.00032
    28    O    2  dyz    Ryd( 3d)     0.00193
    29    O    2  dx2y2  Ryd( 3d)     0.00132
    30    O    2  dz2    Ryd( 3d)     0.00078

    31    C    3  S      Cor( 1S)     1.99921
    32    C    3  S      Val( 2S)     0.74588
    33    C    3  S      Ryd( 3S)     0.00248
    34    C    3  S      Ryd( 4S)     0.00038
    35    C    3  px     Val( 2p)     0.76840
    36    C    3  px     Ryd( 3p)     0.00659
    37    C    3  py     Val( 2p)     0.83255
    38    C    3  py     Ryd( 3p)     0.01730
    39    C    3  pz     Val( 2p)     0.85029
    40    C    3  pz     Ryd( 3p)     0.00103
    41    C    3  dxy    Ryd( 3d)     0.00276
    42    C    3  dxz    Ryd( 3d)     0.00241
    43    C    3  dyz    Ryd( 3d)     0.00211
    44    C    3  dx2y2  Ryd( 3d)     0.00212
    45    C    3  dz2    Ryd( 3d)     0.00046

    46    N    4  S      Cor( 1S)     1.99924
    47    N    4  S      Val( 2S)     1.37853
    48    N    4  S      Ryd( 3S)     0.00079
    49    N    4  S      Ryd( 4S)     0.00002
    50    N    4  px     Val( 2p)     1.20435
    51    N    4  px     Ryd( 3p)     0.00281
    52    N    4  py     Val( 2p)     1.62071
    53    N    4  py     Ryd( 3p)     0.00297
    54    N    4  pz     Val( 2p)     1.37030
    55    N    4  pz     Ryd( 3p)     0.00306
    56    N    4  dxy    Ryd( 3d)     0.00370
    57    N    4  dxz    Ryd( 3d)     0.00031
    58    N    4  dyz    Ryd( 3d)     0.00392
    59    N    4  dx2y2  Ryd( 3d)     0.00317
    60    N    4  dz2    Ryd( 3d)     0.00235

    61    C    5  S      Cor( 1S)     1.99916
    62    C    5  S      Val( 2S)     0.73073
    63    C    5  S      Ryd( 3S)     0.00220
    64    C    5  S      Ryd( 4S)     0.00039
    65    C    5  px     Val( 2p)     0.75704
    66    C    5  px     Ryd( 3p)     0.00537
    67    C    5  py     Val( 2p)     0.81953
    68    C    5  py     Ryd( 3p)     0.01630
    69    C    5  pz     Val( 2p)     1.00180
    70    C    5  pz     Ryd( 3p)     0.00371
    71    C    5  dxy    Ryd( 3d)     0.00258
    72    C    5  dxz    Ryd( 3d)     0.00219
    73    C    5  dyz    Ryd( 3d)     0.00175
    74    C    5  dx2y2  Ryd( 3d)     0.00190
    75    C    5  dz2    Ryd( 3d)     0.00046

    76    N    6  S      Cor( 1S)     1.99922
    77    N    6  S      Val( 2S)     1.38307
    78    N    6  S      Ryd( 3S)     0.00083
    79    N    6  S      Ryd( 4S)     0.00008
    80    N    6  px     Val( 2p)     1.53312
    81    N    6  px     Ryd( 3p)     0.00201
    82    N    6  py     Val( 2p)     1.31967
    83    N    6  py     Ryd( 3p)     0.00204
    84    N    6  pz     Val( 2p)     1.36072
    85    N    6  pz     Ryd( 3p)     0.00075
    86    N    6  dxy    Ryd( 3d)     0.00268
    87    N    6  dxz    Ryd( 3d)     0.00271
    88    N    6  dyz    Ryd( 3d)     0.00150
    89    N    6  dx2y2  Ryd( 3d)     0.00330
    90    N    6  dz2    Ryd( 3d)     0.00210

    91    C    7  S      Cor( 1S)     1.99923
    92    C    7  S      Val( 2S)     0.72646
    93    C    7  S      Ryd( 3S)     0.00217
    94    C    7  S      Ryd( 4S)     0.00035
    95    C    7  px     Val( 2p)     0.86060
    96    C    7  px     Ryd( 3p)     0.01586
    97    C    7  py     Val( 2p)     0.72786
    98    C    7  py     Ryd( 3p)     0.00578
    99    C    7  pz     Val( 2p)     0.95485
   100    C    7  pz     Ryd( 3p)     0.00310
   101    C    7  dxy    Ryd( 3d)     0.00179
   102    C    7  dxz    Ryd( 3d)     0.00166
   103    C    7  dyz    Ryd( 3d)     0.00238
   104    C    7  dx2y2  Ryd( 3d)     0.00282
   105    C    7  dz2    Ryd( 3d)     0.00044

   106    N    8  S      Cor( 1S)     1.99926
   107    N    8  S      Val( 2S)     1.38691
   108    N    8  S      Ryd( 3S)     0.00087
   109    N    8  S      Ryd( 4S)     0.00005
   110    N    8  px     Val( 2p)     1.53463
   111    N    8  px     Ryd( 3p)     0.00289
   112    N    8  py     Val( 2p)     1.32689
   113    N    8  py     Ryd( 3p)     0.00259
   114    N    8  pz     Val( 2p)     1.38144
   115    N    8  pz     Ryd( 3p)     0.00259
   116    N    8  dxy    Ryd( 3d)     0.00339
   117    N    8  dxz    Ryd( 3d)     0.00262
   118    N    8  dyz    Ryd( 3d)     0.00142
   119    N    8  dx2y2  Ryd( 3d)     0.00351
   120    N    8  dz2    Ryd( 3d)     0.00232

   121    O    9  S      Cor( 1S)     1.99972
   122    O    9  S      Val( 2S)     1.59438
   123    O    9  S      Ryd( 3S)     0.00126
   124    O    9  S      Ryd( 4S)     0.00006
   125    O    9  px     Val( 2p)     1.62399
   126    O    9  px     Ryd( 3p)     0.00140
   127    O    9  py     Val( 2p)     1.47267
   128    O    9  py     Ryd( 3p)     0.00130
   129    O    9  pz     Val( 2p)     1.81172
   130    O    9  pz     Ryd( 3p)     0.00242
   131    O    9  dxy    Ryd( 3d)     0.00127
   132    O    9  dxz    Ryd( 3d)     0.00121
   133    O    9  dyz    Ryd( 3d)     0.00103
   134    O    9  dx2y2  Ryd( 3d)     0.00138
   135    O    9  dz2    Ryd( 3d)     0.00080

   136    C   10  S      Cor( 1S)     1.99942
   137    C   10  S      Val( 2S)     1.10543
   138    C   10  S      Ryd( 3S)     0.00143
   139    C   10  S      Ryd( 4S)     0.00003
   140    C   10  px     Val( 2p)     0.86568
   141    C   10  px     Ryd( 3p)     0.00293
   142    C   10  py     Val( 2p)     1.09921
   143    C   10  py     Ryd( 3p)     0.00250
   144    C   10  pz     Val( 2p)     1.23219
   145    C   10  pz     Ryd( 3p)     0.00030
   146    C   10  dxy    Ryd( 3d)     0.00146
   147    C   10  dxz    Ryd( 3d)     0.00183
   148    C   10  dyz    Ryd( 3d)     0.00048
   149    C   10  dx2y2  Ryd( 3d)     0.00154
   150    C   10  dz2    Ryd( 3d)     0.00109

   151    O   11  S      Cor( 1S)     1.99966
   152    O   11  S      Val( 2S)     1.56675
   153    O   11  S      Ryd( 3S)     0.00090
   154    O   11  S      Ryd( 4S)     0.00010
   155    O   11  px     Val( 2p)     1.37358
   156    O   11  px     Ryd( 3p)     0.00066
   157    O   11  py     Val( 2p)     1.69689
   158    O   11  py     Ryd( 3p)     0.00173
   159    O   11  pz     Val( 2p)     1.86044
   160    O   11  pz     Ryd( 3p)     0.00289
   161    O   11  dxy    Ryd( 3d)     0.00129
   162    O   11  dxz    Ryd( 3d)     0.00041
   163    O   11  dyz    Ryd( 3d)     0.00169
   164    O   11  dx2y2  Ryd( 3d)     0.00139
   165    O   11  dz2    Ryd( 3d)     0.00084

   166    C   12  S      Cor( 1S)     1.99863
   167    C   12  S      Val( 2S)     0.84969
   168    C   12  S      Ryd( 3S)     0.00134
   169    C   12  S      Ryd( 4S)     0.00012
   170    C   12  px     Val( 2p)     0.79600
   171    C   12  px     Ryd( 3p)     0.00714
   172    C   12  py     Val( 2p)     0.85265
   173    C   12  py     Ryd( 3p)     0.00465
   174    C   12  pz     Val( 2p)     1.07404
   175    C   12  pz     Ryd( 3p)     0.00448
   176    C   12  dxy    Ryd( 3d)     0.00128
   177    C   12  dxz    Ryd( 3d)     0.00150
   178    C   12  dyz    Ryd( 3d)     0.00116
   179    C   12  dx2y2  Ryd( 3d)     0.00121
   180    C   12  dz2    Ryd( 3d)     0.00105

   181    C   13  S      Cor( 1S)     1.99900
   182    C   13  S      Val( 2S)     0.97537
   183    C   13  S      Ryd( 3S)     0.00090
   184    C   13  S      Ryd( 4S)     0.00006
   185    C   13  px     Val( 2p)     1.08987
   186    C   13  px     Ryd( 3p)     0.00482
   187    C   13  py     Val( 2p)     1.01451
   188    C   13  py     Ryd( 3p)     0.00397
   189    C   13  pz     Val( 2p)     1.16648
   190    C   13  pz     Ryd( 3p)     0.00483
   191    C   13  dxy    Ryd( 3d)     0.00045
   192    C   13  dxz    Ryd( 3d)     0.00075
   193    C   13  dyz    Ryd( 3d)     0.00053
   194    C   13  dx2y2  Ryd( 3d)     0.00047
   195    C   13  dz2    Ryd( 3d)     0.00065

   196    C   14  S      Cor( 1S)     1.99913
   197    C   14  S      Val( 2S)     0.97578
   198    C   14  S      Ryd( 3S)     0.00053
   199    C   14  S      Ryd( 4S)     0.00004
   200    C   14  px     Val( 2p)     1.06345
   201    C   14  px     Ryd( 3p)     0.00453
   202    C   14  py     Val( 2p)     0.98129
   203    C   14  py     Ryd( 3p)     0.00288
   204    C   14  pz     Val( 2p)     1.16577
   205    C   14  pz     Ryd( 3p)     0.00485
   206    C   14  dxy    Ryd( 3d)     0.00051
   207    C   14  dxz    Ryd( 3d)     0.00076
   208    C   14  dyz    Ryd( 3d)     0.00051
   209    C   14  dx2y2  Ryd( 3d)     0.00051
   210    C   14  dz2    Ryd( 3d)     0.00072

   211    C   15  S      Cor( 1S)     1.99912
   212    C   15  S      Val( 2S)     0.97747
   213    C   15  S      Ryd( 3S)     0.00054
   214    C   15  S      Ryd( 4S)     0.00003
   215    C   15  px     Val( 2p)     1.15489
   216    C   15  px     Ryd( 3p)     0.00443
   217    C   15  py     Val( 2p)     0.95266
   218    C   15  py     Ryd( 3p)     0.00266
   219    C   15  pz     Val( 2p)     1.05426
   220    C   15  pz     Ryd( 3p)     0.00467
   221    C   15  dxy    Ryd( 3d)     0.00052
   222    C   15  dxz    Ryd( 3d)     0.00069
   223    C   15  dyz    Ryd( 3d)     0.00070
   224    C   15  dx2y2  Ryd( 3d)     0.00052
   225    C   15  dz2    Ryd( 3d)     0.00066

   226    C   16  S      Cor( 1S)     1.99908
   227    C   16  S      Val( 2S)     0.96178
   228    C   16  S      Ryd( 3S)     0.00059
   229    C   16  S      Ryd( 4S)     0.00005
   230    C   16  px     Val( 2p)     1.08068
   231    C   16  px     Ryd( 3p)     0.00440
   232    C   16  py     Val( 2p)     1.03092
   233    C   16  py     Ryd( 3p)     0.00324
   234    C   16  pz     Val( 2p)     1.16337
   235    C   16  pz     Ryd( 3p)     0.00457
   236    C   16  dxy    Ryd( 3d)     0.00044
   237    C   16  dxz    Ryd( 3d)     0.00077
   238    C   16  dyz    Ryd( 3d)     0.00046
   239    C   16  dx2y2  Ryd( 3d)     0.00047
   240    C   16  dz2    Ryd( 3d)     0.00069

   241    C   17  S      Cor( 1S)     1.99893
   242    C   17  S      Val( 2S)     0.90307
   243    C   17  S      Ryd( 3S)     0.00068
   244    C   17  S      Ryd( 4S)     0.00006
   245    C   17  px     Val( 2p)     1.05708
   246    C   17  px     Ryd( 3p)     0.00404
   247    C   17  py     Val( 2p)     0.94152
   248    C   17  py     Ryd( 3p)     0.00313
   249    C   17  pz     Val( 2p)     1.07704
   250    C   17  pz     Ryd( 3p)     0.00449
   251    C   17  dxy    Ryd( 3d)     0.00058
   252    C   17  dxz    Ryd( 3d)     0.00077
   253    C   17  dyz    Ryd( 3d)     0.00064
   254    C   17  dx2y2  Ryd( 3d)     0.00058
   255    C   17  dz2    Ryd( 3d)     0.00071

   256    C   18  S      Cor( 1S)     1.99939
   257    C   18  S      Val( 2S)     1.10251
   258    C   18  S      Ryd( 3S)     0.00033
   259    C   18  S      Ryd( 4S)     0.00001
   260    C   18  px     Val( 2p)     1.23256
   261    C   18  px     Ryd( 3p)     0.00218
   262    C   18  py     Val( 2p)     1.25242
   263    C   18  py     Ryd( 3p)     0.00075
   264    C   18  pz     Val( 2p)     1.10870
   265    C   18  pz     Ryd( 3p)     0.00188
   266    C   18  dxy    Ryd( 3d)     0.00081
   267    C   18  dxz    Ryd( 3d)     0.00089
   268    C   18  dyz    Ryd( 3d)     0.00029
   269    C   18  dx2y2  Ryd( 3d)     0.00052
   270    C   18  dz2    Ryd( 3d)     0.00071

   271    H   19  S      Val( 1S)     0.78172
   272    H   19  S      Ryd( 2S)     0.00067

   273    H   20  S      Val( 1S)     0.78017
   274    H   20  S      Ryd( 2S)     0.00151

   275    H   21  S      Val( 1S)     0.78049
   276    H   21  S      Ryd( 2S)     0.00152

   277    H   22  S      Val( 1S)     0.77977
   278    H   22  S      Ryd( 2S)     0.00063

   279    H   23  S      Val( 1S)     0.78852
   280    H   23  S      Ryd( 2S)     0.00185

   281    H   24  S      Val( 1S)     0.79202
   282    H   24  S      Ryd( 2S)     0.00213

   283    H   25  S      Val( 1S)     0.73523
   284    H   25  S      Ryd( 2S)     0.00086

   285    H   26  S      Val( 1S)     0.75226
   286    H   26  S      Ryd( 2S)     0.00073

   287    H   27  S      Val( 1S)     0.75440
   288    H   27  S      Ryd( 2S)     0.00072

   289    H   28  S      Val( 1S)     0.75511
   290    H   28  S      Ryd( 2S)     0.00090

   291    H   29  S      Val( 1S)     0.75682
   292    H   29  S      Ryd( 2S)     0.00082

   293    H   30  S      Val( 1S)     0.72993
   294    H   30  S      Ryd( 2S)     0.00113

   295    H   31  S      Val( 1S)     0.72585
   296    H   31  S      Ryd( 2S)     0.00147

 WARNING:  1 low occupancy (<1.9990e) core orbital  found on  C   12
           1 low occupancy (<1.9990e) core orbital  found on  C   13
           1 low occupancy (<1.9990e) core orbital  found on  C   17


 Summary of Natural Population Analysis:                  
                                                          
                                       Natural Population 
                Natural  -----------------------------------------------
    Atom  No    Charge         Core      Valence    Rydberg      Total
 -----------------------------------------------------------------------
      C    1   -0.31790      1.99941     4.30485    0.01363     6.31790
      O    2   -0.50816      1.99972     6.49636    0.01208     8.50816
      C    3    0.76603      1.99921     3.19713    0.03764     5.23397
      N    4   -0.59622      1.99924     5.57389    0.02310     7.59622
      C    5    0.65488      1.99916     3.30910    0.03685     5.34512
      N    6   -0.61382      1.99922     5.59659    0.01800     7.61382
      C    7    0.69464      1.99923     3.26977    0.03636     5.30536
      N    8   -0.65139      1.99926     5.62987    0.02226     7.65139
      O    9   -0.51460      1.99972     6.50275    0.01212     8.51460
      C   10   -0.31551      1.99942     4.30251    0.01358     6.31551
      O   11   -0.50923      1.99966     6.49766    0.01191     8.50923
      C   12    0.40505      1.99863     3.57238    0.02394     5.59495
      C   13   -0.26267      1.99900     4.24624    0.01744     6.26267
      C   14   -0.20126      1.99913     4.18630    0.01582     6.20126
      C   15   -0.15382      1.99912     4.13928    0.01542     6.15382
      C   16   -0.25153      1.99908     4.23676    0.01569     6.25153
      C   17    0.00669      1.99893     3.97870    0.01568     5.99331
      C   18   -0.70395      1.99939     4.69620    0.00836     6.70395
      H   19    0.21761      0.00000     0.78172    0.00067     0.78239
      H   20    0.21831      0.00000     0.78017    0.00151     0.78169
      H   21    0.21799      0.00000     0.78049    0.00152     0.78201
      H   22    0.21960      0.00000     0.77977    0.00063     0.78040
      H   23    0.20962      0.00000     0.78852    0.00185     0.79038
      H   24    0.20585      0.00000     0.79202    0.00213     0.79415
      H   25    0.26391      0.00000     0.73523    0.00086     0.73609
      H   26    0.24701      0.00000     0.75226    0.00073     0.75299
      H   27    0.24488      0.00000     0.75440    0.00072     0.75512
      H   28    0.24399      0.00000     0.75511    0.00090     0.75601
      H   29    0.24236      0.00000     0.75682    0.00082     0.75764
      H   30    0.26895      0.00000     0.72993    0.00113     0.73105
      H   31    0.27268      0.00000     0.72585    0.00147     0.72732
 =======================================================================
   * Total *   -0.00000     35.98652    93.64864    0.36484   130.00000

                                 Natural Population      
 --------------------------------------------------------
   Core                      35.98652 ( 99.9626% of  36)
   Valence                   93.64864 ( 99.6262% of  94)
   Natural Minimal Basis    129.63516 ( 99.7194% of 130)
   Natural Rydberg Basis      0.36484 (  0.2806% of 130)
 --------------------------------------------------------

    Atom  No          Natural Electron Configuration
 ----------------------------------------------------------------------------
      C    1      [core]2S( 1.11)2p( 3.20)3p( 0.01)3d( 0.01)
      O    2      [core]2S( 1.60)2p( 4.90)3d( 0.01)
      C    3      [core]2S( 0.75)2p( 2.45)3p( 0.02)3d( 0.01)
      N    4      [core]2S( 1.38)2p( 4.20)3p( 0.01)3d( 0.01)
      C    5      [core]2S( 0.73)2p( 2.58)3p( 0.03)3d( 0.01)
      N    6      [core]2S( 1.38)2p( 4.21)3d( 0.01)
      C    7      [core]2S( 0.73)2p( 2.54)3p( 0.02)3d( 0.01)
      N    8      [core]2S( 1.39)2p( 4.24)3p( 0.01)3d( 0.01)
      O    9      [core]2S( 1.59)2p( 4.91)3p( 0.01)3d( 0.01)
      C   10      [core]2S( 1.11)2p( 3.20)3p( 0.01)3d( 0.01)
      O   11      [core]2S( 1.57)2p( 4.93)3p( 0.01)3d( 0.01)
      C   12      [core]2S( 0.85)2p( 2.72)3p( 0.02)3d( 0.01)
      C   13      [core]2S( 0.98)2p( 3.27)3p( 0.01)
      C   14      [core]2S( 0.98)2p( 3.21)3p( 0.01)
      C   15      [core]2S( 0.98)2p( 3.16)3p( 0.01)
      C   16      [core]2S( 0.96)2p( 3.27)3p( 0.01)
      C   17      [core]2S( 0.90)2p( 3.08)3p( 0.01)
      C   18      [core]2S( 1.10)2p( 3.59)
      H   19            1S( 0.78)
      H   20            1S( 0.78)
      H   21            1S( 0.78)
      H   22            1S( 0.78)
      H   23            1S( 0.79)
      H   24            1S( 0.79)
      H   25            1S( 0.74)
      H   26            1S( 0.75)
      H   27            1S( 0.75)
      H   28            1S( 0.76)
      H   29            1S( 0.76)
      H   30            1S( 0.73)
      H   31            1S( 0.73)


 NBO analysis skipped by request.
 Leave Link  607 at Wed Sep 29 01:48:27 2021, MaxMem= 1342177280 cpu:      21.6
 (Enter /sw/target/amd/app/gaussian/Gaussian09RevA.02_gcc-4.9.2/g09/l9999.exe)
 1\1\GINC-HERMITE\SP\RTD-B3LYP-FC\6-31G(d)\C12H13N3O3\JSCHLEINITZ\29-Se
 p-2021\0\\#p TD(NStates=10, Root=1) b3lyp/6-31G* volume pop=NPA densit
 y=current Geom=AllCheck Guess=Read\\COc1nc(nc(n1)OC)Oc1ccccc1C_conf_0\
 \0,1\C,0,0.6721355874,-1.1638084015,0.1692649496\O,0,1.5504650351,-0.0
 672752732,-0.1225986081\C,0,2.2867584766,-0.1456673207,-1.230388594\N,
 0,3.0824770173,0.9124622774,-1.4352683679\C,0,3.804523051,0.8117857932
 ,-2.5428660866\N,0,3.7987808375,-0.1996427069,-3.4206537609\C,0,2.9615
 505865,-1.1843660331,-3.087704016\N,0,2.1748970949,-1.2250689199,-2.00
 73222097\O,0,2.8666832361,-2.2521560929,-3.8799062306\C,0,3.6911174492
 ,-2.2826650681,-5.0547322348\O,0,4.6150039514,1.8616430528,-2.77146128
 77\C,0,5.452459385,1.8658128336,-3.8972702085\C,0,6.7614790647,1.42377
 18798,-3.7423148585\C,0,7.6436878804,1.5093290703,-4.8196047806\C,0,7.
 2031848873,2.0424538033,-6.0310801694\C,0,5.8870107013,2.4894126176,-6
 .158990049\C,0,4.9795244341,2.4136189655,-5.0954169523\C,0,3.556041588
 4,2.8931769235,-5.2243654697\H,0,0.1789855261,-0.8878834978,1.10206573
 96\H,0,1.2359878691,-2.0921410848,0.2922346348\H,0,-0.0623026454,-1.29
 77871984,-0.6291611574\H,0,3.4621713248,-3.2352711386,-5.5337885516\H,
 0,4.7498933828,-2.2297607885,-4.7889090745\H,0,3.4505980271,-1.4503128
 092,-5.7212343697\H,0,7.0752941131,1.0257944183,-2.7823651258\H,0,8.66
 83274095,1.1663068148,-4.7079200138\H,0,7.8839791609,2.1188469016,-6.8
 743674029\H,0,5.5508124519,2.9124979281,-7.1026966123\H,0,3.4080868731
 ,3.4231442555,-6.1699079996\H,0,3.2852681654,3.5671986371,-4.404415870
 3\H,0,2.8514971478,2.0525144925,-5.1958661114\\Version=AM64L-G09RevA.0
 2\State=1-A\HF=-855.0449187\RMSD=6.218e-09\Dipole=1.6800254,0.6704932,
 -2.1651843\Quadrupole=5.7460584,-6.1124412,0.3663828,1.0235822,-5.4698
 14,-7.2742583\PG=C01 [X(C12H13N3O3)]\\@


 ABALONE: AN EXPRESSION OF DISBELIEF.
 Job cpu time:  0 days  4 hours 41 minutes 44.3 seconds.
 File lengths (MBytes):  RWF=    294 Int=      0 D2E=      0 Chk=     40 Scr=      1
 Normal termination of Gaussian 09 at Wed Sep 29 01:48:31 2021.
