 Entering Gaussian System, Link 0=g09
 Input=C12H14F3NO2_bf8f_conf_0.com
 Output=C12H14F3NO2_bf8f_conf_0.log
 Initial command:
 /sw/target/amd/app/gaussian/Gaussian09RevA.02_gcc-4.9.2/g09/l1.exe /home/jschleinitz/gaussian/Gau-1256678.inp -scrdir=/home/jschleinitz/gaussian/
 Entering Link 1 = /sw/target/amd/app/gaussian/Gaussian09RevA.02_gcc-4.9.2/g09/l1.exe PID=   1256690.
  
 Copyright (c) 1988,1990,1992,1993,1995,1998,2003,2009, Gaussian, Inc.
                  All Rights Reserved.
  
 This is part of the Gaussian(R) 09 program.  It is based on
 the Gaussian(R) 03 system (copyright 2003, Gaussian, Inc.),
 the Gaussian(R) 98 system (copyright 1998, Gaussian, Inc.),
 the Gaussian(R) 94 system (copyright 1995, Gaussian, Inc.),
 the Gaussian 92(TM) system (copyright 1992, Gaussian, Inc.),
 the Gaussian 90(TM) system (copyright 1990, Gaussian, Inc.),
 the Gaussian 88(TM) system (copyright 1988, Gaussian, Inc.),
 the Gaussian 86(TM) system (copyright 1986, Carnegie Mellon
 University), and the Gaussian 82(TM) system (copyright 1983,
 Carnegie Mellon University). Gaussian is a federally registered
 trademark of Gaussian, Inc.
  
 This software contains proprietary and confidential information,
 including trade secrets, belonging to Gaussian, Inc.
  
 This software is provided under written license and may be
 used, copied, transmitted, or stored only in accord with that
 written license.
  
 The following legend is applicable only to US Government
 contracts under FAR:
  
                    RESTRICTED RIGHTS LEGEND
  
 Use, reproduction and disclosure by the US Government is
 subject to restrictions as set forth in subparagraphs (a)
 and (c) of the Commercial Computer Software - Restricted
 Rights clause in FAR 52.227-19.
  
 Gaussian, Inc.
 340 Quinnipiac St., Bldg. 40, Wallingford CT 06492
  
  
 ---------------------------------------------------------------
 Warning -- This program may not be used in any manner that
 competes with the business of Gaussian, Inc. or will provide
 assistance to any competitor of Gaussian, Inc.  The licensee
 of this program is prohibited from giving any competitor of
 Gaussian, Inc. access to this program.  By using this program,
 the user acknowledges that Gaussian, Inc. is engaged in the
 business of creating and licensing software in the field of
 computational chemistry and represents and warrants to the
 licensee that it is not a competitor of Gaussian, Inc. and that
 it will not use this program in any manner prohibited above.
 ---------------------------------------------------------------
  

 Cite this work as:
 Gaussian 09, Revision A.02,
 M. J. Frisch, G. W. Trucks, H. B. Schlegel, G. E. Scuseria, 
 M. A. Robb, J. R. Cheeseman, G. Scalmani, V. Barone, B. Mennucci, 
 G. A. Petersson, H. Nakatsuji, M. Caricato, X. Li, H. P. Hratchian, 
 A. F. Izmaylov, J. Bloino, G. Zheng, J. L. Sonnenberg, M. Hada, 
 M. Ehara, K. Toyota, R. Fukuda, J. Hasegawa, M. Ishida, T. Nakajima, 
 Y. Honda, O. Kitao, H. Nakai, T. Vreven, J. A. Montgomery, Jr., 
 J. E. Peralta, F. Ogliaro, M. Bearpark, J. J. Heyd, E. Brothers, 
 K. N. Kudin, V. N. Staroverov, R. Kobayashi, J. Normand, 
 K. Raghavachari, A. Rendell, J. C. Burant, S. S. Iyengar, J. Tomasi, 
 M. Cossi, N. Rega, J. M. Millam, M. Klene, J. E. Knox, J. B. Cross, 
 V. Bakken, C. Adamo, J. Jaramillo, R. Gomperts, R. E. Stratmann, 
 O. Yazyev, A. J. Austin, R. Cammi, C. Pomelli, J. W. Ochterski, 
 R. L. Martin, K. Morokuma, V. G. Zakrzewski, G. A. Voth, 
 P. Salvador, J. J. Dannenberg, S. Dapprich, A. D. Daniels, 
 O. Farkas, J. B. Foresman, J. V. Ortiz, J. Cioslowski, 
 and D. J. Fox, Gaussian, Inc., Wallingford CT, 2009.
 
 ******************************************
 Gaussian 09:  AM64L-G09RevA.02 11-Jun-2009
                30-Sep-2021 
 ******************************************
 %nproc=5
 Will use up to    5 processors via shared memory.
 %mem=10gb
 %chk=C12H14F3NO2_bf8f_conf_0.chk
 -----------------------------------
 #p opt b3lyp/6-31G* scf=(xqc,tight)
 -----------------------------------
 1/14=-1,18=20,19=15,26=3,38=1/1,3;
 2/9=110,12=2,17=6,18=5,40=1/2;
 3/5=1,6=6,7=1,11=2,16=1,25=1,30=1,71=1,74=-5/1,2,3;
 4//1;
 5/5=2,8=3,13=1,32=2,38=5/2,8;
 6/7=2,8=2,9=2,10=2,28=1/1;
 7//1,2,3,16;
 1/14=-1,18=20,19=15/3(2);
 2/9=110/2;
 99//99;
 2/9=110/2;
 3/5=1,6=6,7=1,11=2,16=1,25=1,30=1,71=1,74=-5/1,2,3;
 4/5=5,16=3/1;
 5/5=2,8=3,13=1,32=2,38=5/2,8;
 7//1,2,3,16;
 1/14=-1,18=20,19=15/3(-5);
 2/9=110/2;
 6/7=2,8=2,9=2,10=2,19=2,28=1/1;
 99/9=1/99;
 Leave Link    1 at Thu Sep 30 01:25:46 2021, MaxMem= 1342177280 cpu:       0.1
 (Enter /sw/target/amd/app/gaussian/Gaussian09RevA.02_gcc-4.9.2/g09/l101.exe)
 --------------------------------------
 CCN(C(=O)Oc1cccc(c1)C(F)(F)F)CC_conf_0
 --------------------------------------
 Symbolic Z-matrix:
 Charge =  0 Multiplicity = 1
 C                     3.33825  -0.43828   2.41581 
 C                     3.37151  -0.05564   0.9445 
 N                     3.08438  -1.17877   0.05417 
 C                     1.78724  -1.47736  -0.36285 
 O                     1.48898  -2.4863   -0.99027 
 O                     0.86889  -0.50386   0.03432 
 C                    -0.48479  -0.85096   0.18939 
 C                    -1.44071   0.11401  -0.12026 
 C                    -2.78477  -0.13715   0.15866 
 C                    -3.16137  -1.33768   0.76669 
 C                    -2.19591  -2.30054   1.10216 
 C                    -0.85152  -2.04718   0.80315 
 C                    -2.55455  -3.57577   1.81925 
 F                    -3.88889  -3.71673   2.05176 
 F                    -2.17192  -4.69068   1.13868 
 F                    -1.9543   -3.66118   3.04048 
 C                     4.15263  -2.1301   -0.2405 
 C                     4.15475  -3.35633   0.66294 
 H                     3.48908   0.44737   3.04111 
 H                     4.13487  -1.14577   2.65929 
 H                     2.38196  -0.8955    2.68968 
 H                     4.34936   0.35744   0.67707 
 H                     2.64227   0.74464   0.77786 
 H                    -1.14406   1.06316  -0.55885 
 H                    -3.538     0.61217  -0.0736 
 H                    -4.21175  -1.51276   0.99709 
 H                    -0.09355  -2.77935   1.07566 
 H                     5.11393  -1.60886  -0.17097 
 H                     4.03978  -2.46073  -1.27959 
 H                     4.23371  -3.09085   1.71877 
 H                     5.00782  -3.99865   0.41804 
 H                     3.24179  -3.9471    0.53699 
 
 NAtoms=     32 NQM=     32 NQMF=      0 NMic=      0 NMicF=      0 NTot=     32.
                    Isotopes and Nuclear Properties:
 (Nuclear quadrupole moments (NQMom) in fm**2, nuclear magnetic moments (NMagM)
  in nuclear magnetons)

  Atom         1           2           3           4           5           6           7           8           9          10
 IAtWgt=          12          12          14          12          16          16          12          12          12          12
 AtmWgt=  12.0000000  12.0000000  14.0030740  12.0000000  15.9949146  15.9949146  12.0000000  12.0000000  12.0000000  12.0000000
 NucSpn=           0           0           2           0           0           0           0           0           0           0
 AtZEff=   0.0000000   0.0000000   0.0000000   0.0000000   0.0000000   0.0000000   0.0000000   0.0000000   0.0000000   0.0000000
 NQMom=    0.0000000   0.0000000   2.0440000   0.0000000   0.0000000   0.0000000   0.0000000   0.0000000   0.0000000   0.0000000
 NMagM=    0.0000000   0.0000000   0.4037610   0.0000000   0.0000000   0.0000000   0.0000000   0.0000000   0.0000000   0.0000000

  Atom        11          12          13          14          15          16          17          18          19          20
 IAtWgt=          12          12          12          19          19          19          12          12           1           1
 AtmWgt=  12.0000000  12.0000000  12.0000000  18.9984032  18.9984032  18.9984032  12.0000000  12.0000000   1.0078250   1.0078250
 NucSpn=           0           0           0           1           1           1           0           0           1           1
 AtZEff=   0.0000000   0.0000000   0.0000000   0.0000000   0.0000000   0.0000000   0.0000000   0.0000000   0.0000000   0.0000000
 NQMom=    0.0000000   0.0000000   0.0000000   0.0000000   0.0000000   0.0000000   0.0000000   0.0000000   0.0000000   0.0000000
 NMagM=    0.0000000   0.0000000   0.0000000   2.6288670   2.6288670   2.6288670   0.0000000   0.0000000   2.7928460   2.7928460

  Atom        21          22          23          24          25          26          27          28          29          30
 IAtWgt=           1           1           1           1           1           1           1           1           1           1
 AtmWgt=   1.0078250   1.0078250   1.0078250   1.0078250   1.0078250   1.0078250   1.0078250   1.0078250   1.0078250   1.0078250
 NucSpn=           1           1           1           1           1           1           1           1           1           1
 AtZEff=   0.0000000   0.0000000   0.0000000   0.0000000   0.0000000   0.0000000   0.0000000   0.0000000   0.0000000   0.0000000
 NQMom=    0.0000000   0.0000000   0.0000000   0.0000000   0.0000000   0.0000000   0.0000000   0.0000000   0.0000000   0.0000000
 NMagM=    2.7928460   2.7928460   2.7928460   2.7928460   2.7928460   2.7928460   2.7928460   2.7928460   2.7928460   2.7928460

  Atom        31          32
 IAtWgt=           1           1
 AtmWgt=   1.0078250   1.0078250
 NucSpn=           1           1
 AtZEff=   0.0000000   0.0000000
 NQMom=    0.0000000   0.0000000
 NMagM=    2.7928460   2.7928460
 Leave Link  101 at Thu Sep 30 01:25:46 2021, MaxMem= 1342177280 cpu:       0.2
 (Enter /sw/target/amd/app/gaussian/Gaussian09RevA.02_gcc-4.9.2/g09/l103.exe)

 GradGradGradGradGradGradGradGradGradGradGradGradGradGradGradGradGradGrad
 Berny optimization.
 Initialization pass.
                           ----------------------------
                           !    Initial Parameters    !
                           ! (Angstroms and Degrees)  !
 --------------------------                            --------------------------
 ! Name  Definition              Value          Derivative Info.                !
 --------------------------------------------------------------------------------
 ! R1    R(1,2)                  1.5206         estimate D2E/DX2                !
 ! R2    R(1,19)                 1.0946         estimate D2E/DX2                !
 ! R3    R(1,20)                 1.0929         estimate D2E/DX2                !
 ! R4    R(1,21)                 1.0948         estimate D2E/DX2                !
 ! R5    R(2,3)                  1.4617         estimate D2E/DX2                !
 ! R6    R(2,22)                 1.0947         estimate D2E/DX2                !
 ! R7    R(2,23)                 1.0954         estimate D2E/DX2                !
 ! R8    R(3,4)                  1.3949         estimate D2E/DX2                !
 ! R9    R(3,17)                 1.4605         estimate D2E/DX2                !
 ! R10   R(4,5)                  1.225          estimate D2E/DX2                !
 ! R11   R(4,6)                  1.396          estimate D2E/DX2                !
 ! R12   R(6,7)                  1.406          estimate D2E/DX2                !
 ! R13   R(7,8)                  1.3931         estimate D2E/DX2                !
 ! R14   R(7,12)                 1.3936         estimate D2E/DX2                !
 ! R15   R(8,9)                  1.3955         estimate D2E/DX2                !
 ! R16   R(8,24)                 1.0869         estimate D2E/DX2                !
 ! R17   R(9,10)                 1.3974         estimate D2E/DX2                !
 ! R18   R(9,25)                 1.0876         estimate D2E/DX2                !
 ! R19   R(10,11)                1.4042         estimate D2E/DX2                !
 ! R20   R(10,26)                1.0895         estimate D2E/DX2                !
 ! R21   R(11,12)                1.4004         estimate D2E/DX2                !
 ! R22   R(11,13)                1.5063         estimate D2E/DX2                !
 ! R23   R(12,27)                1.0885         estimate D2E/DX2                !
 ! R24   R(13,14)                1.3618         estimate D2E/DX2                !
 ! R25   R(13,15)                1.3611         estimate D2E/DX2                !
 ! R26   R(13,16)                1.3634         estimate D2E/DX2                !
 ! R27   R(17,18)                1.5231         estimate D2E/DX2                !
 ! R28   R(17,28)                1.0957         estimate D2E/DX2                !
 ! R29   R(17,29)                1.0962         estimate D2E/DX2                !
 ! R30   R(18,30)                1.0916         estimate D2E/DX2                !
 ! R31   R(18,31)                1.0956         estimate D2E/DX2                !
 ! R32   R(18,32)                1.0947         estimate D2E/DX2                !
 ! A1    A(2,1,19)             110.25           estimate D2E/DX2                !
 ! A2    A(2,1,20)             111.2548         estimate D2E/DX2                !
 ! A3    A(2,1,21)             111.4845         estimate D2E/DX2                !
 ! A4    A(19,1,20)            107.2213         estimate D2E/DX2                !
 ! A5    A(19,1,21)            108.3837         estimate D2E/DX2                !
 ! A6    A(20,1,21)            108.0964         estimate D2E/DX2                !
 ! A7    A(1,2,3)              113.0608         estimate D2E/DX2                !
 ! A8    A(1,2,22)             110.5407         estimate D2E/DX2                !
 ! A9    A(1,2,23)             108.4494         estimate D2E/DX2                !
 ! A10   A(3,2,22)             108.4581         estimate D2E/DX2                !
 ! A11   A(3,2,23)             109.7496         estimate D2E/DX2                !
 ! A12   A(22,2,23)            106.368          estimate D2E/DX2                !
 ! A13   A(2,3,4)              121.9554         estimate D2E/DX2                !
 ! A14   A(2,3,17)             118.6671         estimate D2E/DX2                !
 ! A15   A(4,3,17)             118.7138         estimate D2E/DX2                !
 ! A16   A(3,4,5)              123.77           estimate D2E/DX2                !
 ! A17   A(3,4,6)              112.1742         estimate D2E/DX2                !
 ! A18   A(5,4,6)              124.0498         estimate D2E/DX2                !
 ! A19   A(4,6,7)              119.5099         estimate D2E/DX2                !
 ! A20   A(6,7,8)              117.7169         estimate D2E/DX2                !
 ! A21   A(6,7,12)             120.9187         estimate D2E/DX2                !
 ! A22   A(8,7,12)             120.7888         estimate D2E/DX2                !
 ! A23   A(7,8,9)              119.458          estimate D2E/DX2                !
 ! A24   A(7,8,24)             120.4844         estimate D2E/DX2                !
 ! A25   A(9,8,24)             120.0483         estimate D2E/DX2                !
 ! A26   A(8,9,10)             120.0767         estimate D2E/DX2                !
 ! A27   A(8,9,25)             120.0248         estimate D2E/DX2                !
 ! A28   A(10,9,25)            119.8798         estimate D2E/DX2                !
 ! A29   A(9,10,11)            120.5136         estimate D2E/DX2                !
 ! A30   A(9,10,26)            119.3331         estimate D2E/DX2                !
 ! A31   A(11,10,26)           120.1423         estimate D2E/DX2                !
 ! A32   A(10,11,12)           119.0129         estimate D2E/DX2                !
 ! A33   A(10,11,13)           122.0416         estimate D2E/DX2                !
 ! A34   A(12,11,13)           118.9068         estimate D2E/DX2                !
 ! A35   A(7,12,11)            120.1308         estimate D2E/DX2                !
 ! A36   A(7,12,27)            120.2897         estimate D2E/DX2                !
 ! A37   A(11,12,27)           119.562          estimate D2E/DX2                !
 ! A38   A(11,13,14)           113.716          estimate D2E/DX2                !
 ! A39   A(11,13,15)           112.8601         estimate D2E/DX2                !
 ! A40   A(11,13,16)           112.0004         estimate D2E/DX2                !
 ! A41   A(14,13,15)           106.0239         estimate D2E/DX2                !
 ! A42   A(14,13,16)           105.7812         estimate D2E/DX2                !
 ! A43   A(15,13,16)           105.8303         estimate D2E/DX2                !
 ! A44   A(3,17,18)            113.9383         estimate D2E/DX2                !
 ! A45   A(3,17,28)            108.6044         estimate D2E/DX2                !
 ! A46   A(3,17,29)            108.2042         estimate D2E/DX2                !
 ! A47   A(18,17,28)           110.1283         estimate D2E/DX2                !
 ! A48   A(18,17,29)           108.6362         estimate D2E/DX2                !
 ! A49   A(28,17,29)           107.0937         estimate D2E/DX2                !
 ! A50   A(17,18,30)           112.2124         estimate D2E/DX2                !
 ! A51   A(17,18,31)           109.9074         estimate D2E/DX2                !
 ! A52   A(17,18,32)           111.4123         estimate D2E/DX2                !
 ! A53   A(30,18,31)           107.6062         estimate D2E/DX2                !
 ! A54   A(30,18,32)           107.6301         estimate D2E/DX2                !
 ! A55   A(31,18,32)           107.8947         estimate D2E/DX2                !
 ! D1    D(19,1,2,3)          -176.039          estimate D2E/DX2                !
 ! D2    D(19,1,2,22)           62.1588         estimate D2E/DX2                !
 ! D3    D(19,1,2,23)          -54.0886         estimate D2E/DX2                !
 ! D4    D(20,1,2,3)            65.1383         estimate D2E/DX2                !
 ! D5    D(20,1,2,22)          -56.6639         estimate D2E/DX2                !
 ! D6    D(20,1,2,23)         -172.9113         estimate D2E/DX2                !
 ! D7    D(21,1,2,3)           -55.6104         estimate D2E/DX2                !
 ! D8    D(21,1,2,22)         -177.4127         estimate D2E/DX2                !
 ! D9    D(21,1,2,23)           66.34           estimate D2E/DX2                !
 ! D10   D(1,2,3,4)             90.5688         estimate D2E/DX2                !
 ! D11   D(1,2,3,17)           -79.9702         estimate D2E/DX2                !
 ! D12   D(22,2,3,4)          -146.4661         estimate D2E/DX2                !
 ! D13   D(22,2,3,17)           42.9949         estimate D2E/DX2                !
 ! D14   D(23,2,3,4)           -30.6493         estimate D2E/DX2                !
 ! D15   D(23,2,3,17)          158.8117         estimate D2E/DX2                !
 ! D16   D(2,3,4,5)           -172.0209         estimate D2E/DX2                !
 ! D17   D(2,3,4,6)              7.119          estimate D2E/DX2                !
 ! D18   D(17,3,4,5)            -1.4861         estimate D2E/DX2                !
 ! D19   D(17,3,4,6)           177.6538         estimate D2E/DX2                !
 ! D20   D(2,3,17,18)           94.4619         estimate D2E/DX2                !
 ! D21   D(2,3,17,28)          -28.6797         estimate D2E/DX2                !
 ! D22   D(2,3,17,29)         -144.6041         estimate D2E/DX2                !
 ! D23   D(4,3,17,18)          -76.388          estimate D2E/DX2                !
 ! D24   D(4,3,17,28)          160.4704         estimate D2E/DX2                !
 ! D25   D(4,3,17,29)           44.546          estimate D2E/DX2                !
 ! D26   D(3,4,6,7)           -154.8107         estimate D2E/DX2                !
 ! D27   D(5,4,6,7)             24.3264         estimate D2E/DX2                !
 ! D28   D(4,6,7,8)           -146.452          estimate D2E/DX2                !
 ! D29   D(4,6,7,12)            42.1807         estimate D2E/DX2                !
 ! D30   D(6,7,8,9)           -172.9745         estimate D2E/DX2                !
 ! D31   D(6,7,8,24)             5.9158         estimate D2E/DX2                !
 ! D32   D(12,7,8,9)            -1.5954         estimate D2E/DX2                !
 ! D33   D(12,7,8,24)          177.2949         estimate D2E/DX2                !
 ! D34   D(6,7,12,11)          171.8951         estimate D2E/DX2                !
 ! D35   D(6,7,12,27)           -6.577          estimate D2E/DX2                !
 ! D36   D(8,7,12,11)            0.7931         estimate D2E/DX2                !
 ! D37   D(8,7,12,27)         -177.679          estimate D2E/DX2                !
 ! D38   D(7,8,9,10)             1.1973         estimate D2E/DX2                !
 ! D39   D(7,8,9,25)           179.6228         estimate D2E/DX2                !
 ! D40   D(24,8,9,10)         -177.698          estimate D2E/DX2                !
 ! D41   D(24,8,9,25)            0.7276         estimate D2E/DX2                !
 ! D42   D(8,9,10,11)           -0.0087         estimate D2E/DX2                !
 ! D43   D(8,9,10,26)          178.7852         estimate D2E/DX2                !
 ! D44   D(25,9,10,11)        -178.4365         estimate D2E/DX2                !
 ! D45   D(25,9,10,26)           0.3573         estimate D2E/DX2                !
 ! D46   D(9,10,11,12)          -0.7922         estimate D2E/DX2                !
 ! D47   D(9,10,11,13)         176.9202         estimate D2E/DX2                !
 ! D48   D(26,10,11,12)       -179.5763         estimate D2E/DX2                !
 ! D49   D(26,10,11,13)         -1.8638         estimate D2E/DX2                !
 ! D50   D(10,11,12,7)           0.4037         estimate D2E/DX2                !
 ! D51   D(10,11,12,27)        178.8869         estimate D2E/DX2                !
 ! D52   D(13,11,12,7)        -177.3813         estimate D2E/DX2                !
 ! D53   D(13,11,12,27)          1.1019         estimate D2E/DX2                !
 ! D54   D(10,11,13,14)          2.5254         estimate D2E/DX2                !
 ! D55   D(10,11,13,15)        123.3497         estimate D2E/DX2                !
 ! D56   D(10,11,13,16)       -117.334          estimate D2E/DX2                !
 ! D57   D(12,11,13,14)       -179.7598         estimate D2E/DX2                !
 ! D58   D(12,11,13,15)        -58.9355         estimate D2E/DX2                !
 ! D59   D(12,11,13,16)         60.3808         estimate D2E/DX2                !
 ! D60   D(3,17,18,30)         -57.5466         estimate D2E/DX2                !
 ! D61   D(3,17,18,31)        -177.2402         estimate D2E/DX2                !
 ! D62   D(3,17,18,32)          63.2194         estimate D2E/DX2                !
 ! D63   D(28,17,18,30)         64.7614         estimate D2E/DX2                !
 ! D64   D(28,17,18,31)        -54.9322         estimate D2E/DX2                !
 ! D65   D(28,17,18,32)       -174.4726         estimate D2E/DX2                !
 ! D66   D(29,17,18,30)       -178.2393         estimate D2E/DX2                !
 ! D67   D(29,17,18,31)         62.0671         estimate D2E/DX2                !
 ! D68   D(29,17,18,32)        -57.4733         estimate D2E/DX2                !
 --------------------------------------------------------------------------------
 Trust Radius=3.00D-01 FncErr=1.00D-07 GrdErr=1.00D-06
 Number of steps in this run= 165 maximum allowed number of steps= 192.
 GradGradGradGradGradGradGradGradGradGradGradGradGradGradGradGradGradGrad

 Leave Link  103 at Thu Sep 30 01:25:47 2021, MaxMem= 1342177280 cpu:       0.0
 (Enter /sw/target/amd/app/gaussian/Gaussian09RevA.02_gcc-4.9.2/g09/l202.exe)
                          Input orientation:                          
 ---------------------------------------------------------------------
 Center     Atomic      Atomic             Coordinates (Angstroms)
 Number     Number       Type             X           Y           Z
 ---------------------------------------------------------------------
      1          6           0        3.338245   -0.438284    2.415808
      2          6           0        3.371510   -0.055639    0.944504
      3          7           0        3.084382   -1.178770    0.054172
      4          6           0        1.787237   -1.477359   -0.362848
      5          8           0        1.488983   -2.486296   -0.990274
      6          8           0        0.868885   -0.503863    0.034325
      7          6           0       -0.484789   -0.850961    0.189394
      8          6           0       -1.440715    0.114011   -0.120255
      9          6           0       -2.784768   -0.137155    0.158662
     10          6           0       -3.161372   -1.337683    0.766686
     11          6           0       -2.195913   -2.300541    1.102156
     12          6           0       -0.851521   -2.047179    0.803154
     13          6           0       -2.554549   -3.575770    1.819254
     14          9           0       -3.888892   -3.716731    2.051756
     15          9           0       -2.171917   -4.690676    1.138683
     16          9           0       -1.954305   -3.661177    3.040483
     17          6           0        4.152634   -2.130103   -0.240502
     18          6           0        4.154746   -3.356328    0.662938
     19          1           0        3.489083    0.447370    3.041107
     20          1           0        4.134870   -1.145769    2.659293
     21          1           0        2.381960   -0.895498    2.689676
     22          1           0        4.349357    0.357439    0.677075
     23          1           0        2.642274    0.744644    0.777857
     24          1           0       -1.144058    1.063161   -0.558853
     25          1           0       -3.538005    0.612169   -0.073599
     26          1           0       -4.211746   -1.512761    0.997088
     27          1           0       -0.093546   -2.779345    1.075656
     28          1           0        5.113933   -1.608862   -0.170971
     29          1           0        4.039782   -2.460733   -1.279588
     30          1           0        4.233714   -3.090851    1.718775
     31          1           0        5.007824   -3.998650    0.418044
     32          1           0        3.241785   -3.947101    0.536992
 ---------------------------------------------------------------------
                    Distance matrix (angstroms):
                    1          2          3          4          5
     1  C    0.000000
     2  C    1.520612   0.000000
     3  N    2.487989   1.461696   0.000000
     4  C    3.347571   2.498075   1.394864   0.000000
     5  O    4.383551   3.632543   2.312096   1.224979   0.000000
     6  O    3.431254   2.700456   2.316099   1.395998   2.316109
     7  C    4.443289   4.009211   3.586743   2.420630   2.821651
     8  C    5.438300   4.931531   4.709374   3.607074   4.012687
     9  C    6.532738   6.206766   5.961778   4.792844   5.010335
    10  C    6.765615   6.659865   6.288272   5.077804   5.102158
    11  C    5.985030   6.005051   5.498923   4.323118   4.241606
    12  C    4.768997   4.671209   4.099565   2.940629   2.981135
    13  C    6.702590   6.947998   6.376415   5.293015   5.042871
    14  F    7.944323   8.206280   7.684929   6.562282   6.299956
    15  F    7.076424   7.228475   6.413917   5.315534   4.774299
    16  F    6.228029   6.764417   6.361506   5.509162   5.429878
    17  C    3.252916   2.513522   1.460490   2.456856   2.789994
    18  C    3.500601   3.404010   2.501607   3.191843   3.255205
    19  H    1.094592   2.159301   3.424892   4.264712   5.372041
    20  H    1.092900   2.170623   2.809141   3.841181   4.702879
    21  H    1.094774   2.174902   2.742174   3.163884   4.107320
    22  H    2.163035   1.094686   2.085212   3.318491   4.364473
    23  H    2.136956   1.095450   2.102070   2.639999   3.859448
    24  H    5.585158   4.888983   4.825117   3.883961   4.440459
    25  H    7.388059   7.015974   6.861471   5.727826   5.975900
    26  H    7.756908   7.722159   7.364381   6.151299   6.115201
    27  H    4.365062   4.409352   3.701958   2.702186   2.618843
    28  H    3.348843   2.587050   2.086804   3.334819   3.818562
    29  H    4.270645   3.343299   2.082099   2.623241   2.567281
    30  H    2.885105   3.248907   2.783508   3.594684   3.903585
    31  H    4.410755   4.301397   3.432748   4.163998   4.080786
    32  H    3.981337   3.914890   2.814524   3.004171   2.745689
                    6          7          8          9         10
     6  O    0.000000
     7  C    1.406043   0.000000
     8  C    2.395812   1.393143   0.000000
     9  C    3.674114   2.408394   1.395478   0.000000
    10  C    4.180261   2.781053   2.419658   1.397423   0.000000
    11  C    3.709623   2.421231   2.809747   2.432523   1.404189
    12  C    2.435717   1.393603   2.422928   2.793028   2.416636
    13  C    4.933810   3.790110   4.314720   3.825524   2.546599
    14  F    6.085145   4.823789   5.038432   4.197173   2.800100
    15  F    5.291076   4.300111   5.020419   4.697934   3.515674
    16  F    5.193844   4.264446   4.950363   4.627450   3.467822
    17  C    3.674669   4.829773   6.027939   7.229019   7.425432
    18  C    4.396429   5.293996   6.630673   7.666434   7.590209
    19  H    4.100124   5.060592   5.865854   6.929023   7.251755
    20  H    4.239004   5.246767   6.356106   7.426429   7.540155
    21  H    3.081179   3.804162   4.850532   5.803119   5.884041
    22  H    3.642617   5.006700   5.849780   7.170015   7.700164
    23  H    2.292710   3.559603   4.227895   5.532970   6.165916
    24  H    2.619039   2.158327   1.086857   2.155810   3.404506
    25  H    4.547291   3.395886   2.156146   1.087565   2.156352
    26  H    5.268548   3.870472   3.401978   2.152096   1.089506
    27  H    2.681131   2.158054   3.408310   3.881330   3.403735
    28  H    4.391310   5.661270   6.777483   8.041397   8.332672
    29  H    3.950986   5.022053   6.165161   7.351330   7.570013
    30  H    4.566393   5.442461   6.771433   7.772860   7.659462
    31  H    5.430616   6.334747   7.667294   8.700742   8.598724
    32  H    4.211794   4.857392   6.233010   7.139899   6.918254
                   11         12         13         14         15
    11  C    0.000000
    12  C    1.400352   0.000000
    13  C    1.506339   2.503868   0.000000
    14  F    2.402814   3.684025   1.361763   0.000000
    15  F    2.390534   2.973904   1.361103   2.174919   0.000000
    16  F    2.380508   2.970987   1.363448   2.173315   2.173492
    17  C    6.491211   5.112500   7.163718   8.511050   6.961223
    18  C    6.452787   5.176508   6.811744   8.170607   6.483323
    19  H    6.605280   5.483798   7.362341   8.529541   7.878176
    20  H    6.620951   5.396469   7.166513   8.447468   7.392847
    21  H    5.044927   3.916724   5.684243   6.905786   6.127541
    22  H    7.077155   5.731249   8.027368   9.292867   8.259756
    23  H    5.725939   4.472306   6.837943   8.011418   7.269755
    24  H    3.896132   3.408058   5.400422   6.098915   6.086441
    25  H    3.415770   3.880467   4.699883   4.835249   5.608563
    26  H    2.166845   3.407980   2.770968   2.464558   3.778901
    27  H    2.156363   1.088508   2.691425   4.029406   2.824321
    28  H    7.452055   6.060337   8.163048   9.509705   8.018503
    29  H    6.676995   5.332324   7.370979   8.691332   7.028932
    30  H    6.507296   5.271358   6.806303   8.153486   6.627824
    31  H    7.432725   6.187767   7.702707   9.049864   7.248924
    32  H    5.709565   4.520586   5.948073   7.293431   5.497555
                   16         17         18         19         20
    16  F    0.000000
    17  C    7.099560   0.000000
    18  C    6.562480   1.523101   0.000000
    19  H    6.819870   4.225236   4.535075   0.000000
    20  H    6.599290   3.062359   2.978658   1.760940   0.000000
    21  H    5.155117   3.639434   3.647756   1.775533   1.770947
    22  H    7.840353   2.658668   3.718890   2.517301   2.496964
    23  H    6.757165   3.403294   4.372499   2.434699   3.056355
    24  H    5.994256   6.192998   7.007281   5.899568   6.565282
    25  H    5.519701   8.166629   8.687339   7.688206   8.332590
    26  H    3.726553   8.477947   8.573714   8.205052   8.518427
    27  H    2.846155   4.492641   4.307113   5.206718   4.801664
    28  H    8.030282   1.095730   2.160806   4.145560   3.030416
    29  H    7.485530   1.096245   2.142129   5.237245   4.153669
    30  H    6.353248   2.183661   1.091561   3.849940   2.162797
    31  H    7.447302   2.157893   1.095579   5.380903   3.731512
    32  H    5.774822   2.176148   1.094701   5.063903   3.626186
                   21         22         23         24         25
    21  H    0.000000
    22  H    3.080758   0.000000
    23  H    2.532367   1.753345   0.000000
    24  H    5.179005   5.674784   4.027972   0.000000
    25  H    6.704829   7.927098   6.240062   2.483918   0.000000
    26  H    6.835409   8.768839   7.219524   4.297329   2.472978
    27  H    3.504578   5.453226   4.471230   4.305816   4.968647
    28  H    4.019437   2.273785   3.542367   6.815616   8.933000
    29  H    4.577488   3.444773   4.057160   6.309476   8.265591
    30  H    3.031702   3.604056   4.257819   7.166857   8.793439
    31  H    4.656719   4.413184   5.312639   8.026326   9.722785
    32  H    3.832183   4.446954   4.736021   6.748276   8.193004
                   26         27         28         29         30
    26  H    0.000000
    27  H    4.309290   0.000000
    28  H    9.399037   5.481054   0.000000
    29  H    8.612178   4.767923   1.763099   0.000000
    30  H    8.621890   4.385865   2.557775   3.069990   0.000000
    31  H    9.566368   5.286126   2.463592   2.486815   1.765006
    32  H    7.854478   3.574667   3.077907   2.479123   1.764567
                   31         32
    31  H    0.000000
    32  H    1.770790   0.000000
 Stoichiometry    C12H14F3NO2
 Framework group  C1[X(C12H14F3NO2)]
 Deg. of freedom    90
 Full point group                 C1      NOp   1
 Largest Abelian subgroup         C1      NOp   1
 Largest concise Abelian subgroup C1      NOp   1
                         Standard orientation:                         
 ---------------------------------------------------------------------
 Center     Atomic      Atomic             Coordinates (Angstroms)
 Number     Number       Type             X           Y           Z
 ---------------------------------------------------------------------
      1          6           0        3.177446    0.041432    2.243256
      2          6           0        3.511931    0.859293    1.005725
      3          7           0        3.127182    0.197228   -0.239342
      4          6           0        1.873598    0.388502   -0.820362
      5          8           0        1.463241   -0.252000   -1.780538
      6          8           0        1.136586    1.379131   -0.168995
      7          6           0       -0.267624    1.354815   -0.236529
      8          6           0       -0.936897    2.576584   -0.250796
      9          6           0       -2.329785    2.597073   -0.168335
     10          6           0       -3.041843    1.400792   -0.047185
     11          6           0       -2.366781    0.170159   -0.007425
     12          6           0       -0.970087    0.158104   -0.107848
     13          6           0       -3.093852   -1.134151    0.190566
     14          9           0       -4.446779   -1.000610    0.269021
     15          9           0       -2.861807   -2.026194   -0.810940
     16          9           0       -2.715684   -1.760164    1.341255
     17          6           0        3.998281   -0.844381   -0.777180
     18          6           0        3.602006   -2.255746   -0.363837
     19          1           0        3.419392    0.607544    3.148303
     20          1           0        3.758108   -0.883892    2.275491
     21          1           0        2.115378   -0.222310    2.274571
     22          1           0        4.584379    1.075266    0.966367
     23          1           0        3.004714    1.827214    1.082340
     24          1           0       -0.381294    3.508984   -0.307321
     25          1           0       -2.861275    3.545913   -0.172497
     26          1           0       -4.127693    1.432099    0.036311
     27          1           0       -0.436368   -0.789357   -0.059763
     28          1           0        5.027507   -0.635004   -0.464965
     29          1           0        3.974015   -0.779940   -1.871260
     30          1           0        3.577084   -2.376435    0.720745
     31          1           0        4.324257   -2.977449   -0.761065
     32          1           0        2.612967   -2.522411   -0.749923
 ---------------------------------------------------------------------
 Rotational constants (GHZ):      0.6620934      0.2211013      0.1936190
 Leave Link  202 at Thu Sep 30 01:25:47 2021, MaxMem= 1342177280 cpu:       0.1
 (Enter /sw/target/amd/app/gaussian/Gaussian09RevA.02_gcc-4.9.2/g09/l301.exe)
 Standard basis: 6-31G(d) (6D, 7F)
 Ernie: Thresh=  0.10000D-02 Tol=  0.10000D-05 Strict=F.
 There are   298 symmetry adapted basis functions of A   symmetry.
 Integral buffers will be    131072 words long.
 Raffenetti 2 integral format.
 Two-electron integral symmetry is turned on.
   298 basis functions,   560 primitive gaussians,   298 cartesian basis functions
    68 alpha electrons       68 beta electrons
       nuclear repulsion energy      1374.5827764281 Hartrees.
 IExCor=  402 DFT=T Ex+Corr=B3LYP ExCW=0 ScaHFX=  0.200000
 ScaDFX=  0.800000  0.720000  1.000000  0.810000 ScalE2=  1.000000  1.000000
 IRadAn=      0 IRanWt=     -1 IRanGd=            0 ICorTp=0
 NAtoms=   32 NActive=   32 NUniq=   32 SFac= 7.50D-01 NAtFMM=   80 NAOKFM=F Big=F
 Leave Link  301 at Thu Sep 30 01:25:47 2021, MaxMem= 1342177280 cpu:       0.1
 (Enter /sw/target/amd/app/gaussian/Gaussian09RevA.02_gcc-4.9.2/g09/l302.exe)
 NPDir=0 NMtPBC=     1 NCelOv=     1 NCel=       1 NClECP=     1 NCelD=      1
         NCelK=      1 NCelE2=     1 NClLst=     1 CellRange=     0.0.
 One-electron integrals computed using PRISM.
 NBasis=   298 RedAO= T  NBF=   298
 NBsUse=   298 1.00D-06 NBFU=   298
 Precomputing XC quadrature grid using
 IXCGrd= 2 IRadAn=           0 IRanWt=          -1 IRanGd=           0 AccXCQ= 1.00D-10.
 NRdTot=    2033 NPtTot=      258742 NUsed=      273402 NTot=      273434
 NSgBfM=   298   298   298   298   298 NAtAll=    32    32.
 Leave Link  302 at Thu Sep 30 01:25:52 2021, MaxMem= 1342177280 cpu:       3.0
 (Enter /sw/target/amd/app/gaussian/Gaussian09RevA.02_gcc-4.9.2/g09/l303.exe)
 DipDrv:  MaxL=1.
 Leave Link  303 at Thu Sep 30 01:25:53 2021, MaxMem= 1342177280 cpu:       0.2
 (Enter /sw/target/amd/app/gaussian/Gaussian09RevA.02_gcc-4.9.2/g09/l401.exe)
 Harris functional with IExCor=  402 diagonalized for initial guess.
 ExpMin= 1.61D-01 ExpMax= 7.00D+03 ExpMxC= 1.05D+03 IAcc=1 IRadAn=         1 AccDes= 0.00D+00
 HarFok:  IExCor=  402 AccDes= 0.00D+00 IRadAn=         1 IDoV= 1
 ScaDFX=  1.000000  1.000000  1.000000  1.000000
 FoFCou: FMM=F IPFlag=           0 FMFlag=      100000 FMFlg1=           0
         NFxFlg=           0 DoJE=T BraDBF=F KetDBF=T FulRan=T
         Omega=  0.000000  0.000000  1.000000  0.000000  0.000000 ICntrl=     500 IOpCl=  0
         NMat0=    1 NMatS0=    1 NMatT0=    0 NMatD0=    1 NMtDS0=    0 NMtDT0=    0
         I1Cent=           4 NGrid=           0.
 Petite list used in FoFCou.
 Harris En= -970.571638176463    
 Initial guess orbital symmetries:
       Occupied  (A) (A) (A) (A) (A) (A) (A) (A) (A) (A) (A) (A)
                 (A) (A) (A) (A) (A) (A) (A) (A) (A) (A) (A) (A)
                 (A) (A) (A) (A) (A) (A) (A) (A) (A) (A) (A) (A)
                 (A) (A) (A) (A) (A) (A) (A) (A) (A) (A) (A) (A)
                 (A) (A) (A) (A) (A) (A) (A) (A) (A) (A) (A) (A)
                 (A) (A) (A) (A) (A) (A) (A) (A)
       Virtual   (A) (A) (A) (A) (A) (A) (A) (A) (A) (A) (A) (A)
                 (A) (A) (A) (A) (A) (A) (A) (A) (A) (A) (A) (A)
                 (A) (A) (A) (A) (A) (A) (A) (A) (A) (A) (A) (A)
                 (A) (A) (A) (A) (A) (A) (A) (A) (A) (A) (A) (A)
                 (A) (A) (A) (A) (A) (A) (A) (A) (A) (A) (A) (A)
                 (A) (A) (A) (A) (A) (A) (A) (A) (A) (A) (A) (A)
                 (A) (A) (A) (A) (A) (A) (A) (A) (A) (A) (A) (A)
                 (A) (A) (A) (A) (A) (A) (A) (A) (A) (A) (A) (A)
                 (A) (A) (A) (A) (A) (A) (A) (A) (A) (A) (A) (A)
                 (A) (A) (A) (A) (A) (A) (A) (A) (A) (A) (A) (A)
                 (A) (A) (A) (A) (A) (A) (A) (A) (A) (A) (A) (A)
                 (A) (A) (A) (A) (A) (A) (A) (A) (A) (A) (A) (A)
                 (A) (A) (A) (A) (A) (A) (A) (A) (A) (A) (A) (A)
                 (A) (A) (A) (A) (A) (A) (A) (A) (A) (A) (A) (A)
                 (A) (A) (A) (A) (A) (A) (A) (A) (A) (A) (A) (A)
                 (A) (A) (A) (A) (A) (A) (A) (A) (A) (A) (A) (A)
                 (A) (A) (A) (A) (A) (A) (A) (A) (A) (A) (A) (A)
                 (A) (A) (A) (A) (A) (A) (A) (A) (A) (A) (A) (A)
                 (A) (A) (A) (A) (A) (A) (A) (A) (A) (A) (A) (A)
                 (A) (A)
 The electronic state of the initial guess is 1-A.
 Leave Link  401 at Thu Sep 30 01:26:07 2021, MaxMem= 1342177280 cpu:      12.9
 (Enter /sw/target/amd/app/gaussian/Gaussian09RevA.02_gcc-4.9.2/g09/l502.exe)
 Closed shell SCF:
 Requested convergence on RMS density matrix=1.00D-08 within  64 cycles.
 Requested convergence on MAX density matrix=1.00D-06.
 Requested convergence on             energy=1.00D-06.
 No special actions if energy rises.
 Using DIIS extrapolation, IDIIS=  1040.
 Integral symmetry usage will be decided dynamically.
       273101 words used for storage of precomputed grid.
 Keep R1 ints in memory in canonical form, NReq=1006332479.
 IEnd=      549089 IEndB=      549089 NGot=  1342177280 MDV=   349303414
 LenX=   349303414 LenY=   349214169
 Symmetry not used in FoFDir.
 MinBra= 0 MaxBra= 2 Meth= 1.
 IRaf=       0 NMat=   1 IRICut=       1 DoRegI=T DoRafI=F ISym2E= 0 JSym2E=0.
 Integral accuracy reduced to 1.0D-05 until final iterations.

 Cycle   1  Pass 0  IDiag  1:
 E= -969.962200456064    
 DIIS: error= 3.58D-02 at cycle   1 NSaved=   1.
 NSaved= 1 IEnMin= 1 EnMin= -969.962200456064     IErMin= 1 ErrMin= 3.58D-02
 ErrMax= 3.58D-02 EMaxC= 1.00D-01 BMatC= 5.51D-01 BMatP= 5.51D-01
 IDIUse=3 WtCom= 6.42D-01 WtEn= 3.58D-01
 Coeff-Com:  0.100D+01
 Coeff-En:   0.100D+01
 Coeff:      0.100D+01
 Gap=     0.247 Goal=   None    Shift=    0.000
 GapD=    0.247 DampG=1.000 DampE=0.500 DampFc=0.5000 IDamp=-1.
 Damping current iteration by 5.00D-01
 RMSDP=5.12D-03 MaxDP=1.93D-01              OVMax= 2.18D-01

 Cycle   2  Pass 0  IDiag  1:
 E= -970.117876210068     Delta-E=       -0.155675754004 Rises=F Damp=T
 DIIS: error= 9.26D-03 at cycle   2 NSaved=   2.
 NSaved= 2 IEnMin= 2 EnMin= -970.117876210068     IErMin= 2 ErrMin= 9.26D-03
 ErrMax= 9.26D-03 EMaxC= 1.00D-01 BMatC= 6.92D-02 BMatP= 5.51D-01
 IDIUse=3 WtCom= 9.07D-01 WtEn= 9.26D-02
 Coeff-Com:  0.197D+00 0.803D+00
 Coeff-En:   0.306D+00 0.694D+00
 Coeff:      0.207D+00 0.793D+00
 Gap=     0.279 Goal=   None    Shift=    0.000
 RMSDP=1.53D-03 MaxDP=6.17D-02 DE=-1.56D-01 OVMax= 1.75D-01

 Cycle   3  Pass 0  IDiag  1:
 E= -970.401400418117     Delta-E=       -0.283524208049 Rises=F Damp=F
 DIIS: error= 1.17D-02 at cycle   3 NSaved=   3.
 NSaved= 3 IEnMin= 3 EnMin= -970.401400418117     IErMin= 2 ErrMin= 9.26D-03
 ErrMax= 1.17D-02 EMaxC= 1.00D-01 BMatC= 6.50D-02 BMatP= 6.92D-02
 IDIUse=3 WtCom= 8.83D-01 WtEn= 1.17D-01
 Coeff-Com:  0.735D-01 0.490D+00 0.437D+00
 Coeff-En:   0.000D+00 0.000D+00 0.100D+01
 Coeff:      0.649D-01 0.432D+00 0.503D+00
 Gap=     0.226 Goal=   None    Shift=    0.000
 RMSDP=1.09D-03 MaxDP=5.50D-02 DE=-2.84D-01 OVMax= 9.23D-02

 Cycle   4  Pass 0  IDiag  1:
 E= -970.444223980556     Delta-E=       -0.042823562439 Rises=F Damp=F
 DIIS: error= 5.80D-03 at cycle   4 NSaved=   4.
 NSaved= 4 IEnMin= 4 EnMin= -970.444223980556     IErMin= 4 ErrMin= 5.80D-03
 ErrMax= 5.80D-03 EMaxC= 1.00D-01 BMatC= 1.47D-02 BMatP= 6.50D-02
 IDIUse=3 WtCom= 9.42D-01 WtEn= 5.80D-02
 Coeff-Com:  0.123D-01 0.110D+00 0.326D+00 0.552D+00
 Coeff-En:   0.000D+00 0.000D+00 0.213D+00 0.787D+00
 Coeff:      0.116D-01 0.104D+00 0.319D+00 0.565D+00
 Gap=     0.215 Goal=   None    Shift=    0.000
 RMSDP=4.04D-04 MaxDP=2.09D-02 DE=-4.28D-02 OVMax= 3.16D-02

 Cycle   5  Pass 0  IDiag  1:
 E= -970.455088259668     Delta-E=       -0.010864279112 Rises=F Damp=F
 DIIS: error= 1.20D-03 at cycle   5 NSaved=   5.
 NSaved= 5 IEnMin= 5 EnMin= -970.455088259668     IErMin= 5 ErrMin= 1.20D-03
 ErrMax= 1.20D-03 EMaxC= 1.00D-01 BMatC= 8.75D-04 BMatP= 1.47D-02
 IDIUse=3 WtCom= 9.88D-01 WtEn= 1.20D-02
 Coeff-Com:  0.848D-03 0.152D-01 0.130D+00 0.315D+00 0.539D+00
 Coeff-En:   0.000D+00 0.000D+00 0.000D+00 0.000D+00 0.100D+01
 Coeff:      0.838D-03 0.150D-01 0.129D+00 0.311D+00 0.544D+00
 Gap=     0.214 Goal=   None    Shift=    0.000
 RMSDP=1.11D-04 MaxDP=4.23D-03 DE=-1.09D-02 OVMax= 8.72D-03

 Cycle   6  Pass 0  IDiag  1:
 E= -970.455762332560     Delta-E=       -0.000674072892 Rises=F Damp=F
 DIIS: error= 4.56D-04 at cycle   6 NSaved=   6.
 NSaved= 6 IEnMin= 6 EnMin= -970.455762332560     IErMin= 6 ErrMin= 4.56D-04
 ErrMax= 4.56D-04 EMaxC= 1.00D-01 BMatC= 8.11D-05 BMatP= 8.75D-04
 IDIUse=3 WtCom= 9.95D-01 WtEn= 4.56D-03
 Coeff-Com: -0.467D-03-0.639D-03 0.428D-01 0.120D+00 0.307D+00 0.531D+00
 Coeff-En:   0.000D+00 0.000D+00 0.000D+00 0.000D+00 0.350D-01 0.965D+00
 Coeff:     -0.465D-03-0.636D-03 0.426D-01 0.120D+00 0.305D+00 0.533D+00
 Gap=     0.213 Goal=   None    Shift=    0.000
 RMSDP=3.54D-05 MaxDP=1.48D-03 DE=-6.74D-04 OVMax= 3.24D-03

 Cycle   7  Pass 0  IDiag  1:
 E= -970.455829707664     Delta-E=       -0.000067375104 Rises=F Damp=F
 DIIS: error= 1.33D-04 at cycle   7 NSaved=   7.
 NSaved= 7 IEnMin= 7 EnMin= -970.455829707664     IErMin= 7 ErrMin= 1.33D-04
 ErrMax= 1.33D-04 EMaxC= 1.00D-01 BMatC= 7.27D-06 BMatP= 8.11D-05
 IDIUse=3 WtCom= 9.99D-01 WtEn= 1.33D-03
 Coeff-Com: -0.286D-03-0.148D-02 0.142D-01 0.430D-01 0.135D+00 0.308D+00
 Coeff-Com:  0.502D+00
 Coeff-En:   0.000D+00 0.000D+00 0.000D+00 0.000D+00 0.000D+00 0.301D-01
 Coeff-En:   0.970D+00
 Coeff:     -0.285D-03-0.148D-02 0.142D-01 0.429D-01 0.135D+00 0.307D+00
 Coeff:      0.502D+00
 Gap=     0.213 Goal=   None    Shift=    0.000
 RMSDP=1.11D-05 MaxDP=4.78D-04 DE=-6.74D-05 OVMax= 1.19D-03

 Cycle   8  Pass 0  IDiag  1:
 E= -970.455837000306     Delta-E=       -0.000007292642 Rises=F Damp=F
 DIIS: error= 3.07D-05 at cycle   8 NSaved=   8.
 NSaved= 8 IEnMin= 8 EnMin= -970.455837000306     IErMin= 8 ErrMin= 3.07D-05
 ErrMax= 3.07D-05 EMaxC= 1.00D-01 BMatC= 4.61D-07 BMatP= 7.27D-06
 IDIUse=1 WtCom= 1.00D+00 WtEn= 0.00D+00
 Coeff-Com: -0.739D-04-0.650D-03 0.237D-02 0.756D-02 0.353D-01 0.936D-01
 Coeff-Com:  0.246D+00 0.616D+00
 Coeff:     -0.739D-04-0.650D-03 0.237D-02 0.756D-02 0.353D-01 0.936D-01
 Coeff:      0.246D+00 0.616D+00
 Gap=     0.213 Goal=   None    Shift=    0.000
 RMSDP=3.04D-06 MaxDP=1.08D-04 DE=-7.29D-06 OVMax= 2.81D-04

 Initial convergence to 1.0D-05 achieved.  Increase integral accuracy.
 Cycle   9  Pass 1  IDiag  1:
 E= -970.455868364280     Delta-E=       -0.000031363974 Rises=F Damp=F
 DIIS: error= 4.69D-05 at cycle   1 NSaved=   1.
 NSaved= 1 IEnMin= 1 EnMin= -970.455868364280     IErMin= 1 ErrMin= 4.69D-05
 ErrMax= 4.69D-05 EMaxC= 1.00D-01 BMatC= 2.21D-07 BMatP= 2.21D-07
 IDIUse=1 WtCom= 1.00D+00 WtEn= 0.00D+00
 Coeff-Com:  0.100D+01
 Coeff:      0.100D+01
 Gap=     0.213 Goal=   None    Shift=    0.000
 RMSDP=3.04D-06 MaxDP=1.08D-04 DE=-3.14D-05 OVMax= 1.88D-04

 Cycle  10  Pass 1  IDiag  1:
 E= -970.455868502568     Delta-E=       -0.000000138287 Rises=F Damp=F
 DIIS: error= 1.33D-05 at cycle   2 NSaved=   2.
 NSaved= 2 IEnMin= 2 EnMin= -970.455868502568     IErMin= 2 ErrMin= 1.33D-05
 ErrMax= 1.33D-05 EMaxC= 1.00D-01 BMatC= 1.10D-07 BMatP= 2.21D-07
 IDIUse=1 WtCom= 1.00D+00 WtEn= 0.00D+00
 Coeff-Com:  0.376D+00 0.624D+00
 Coeff:      0.376D+00 0.624D+00
 Gap=     0.213 Goal=   None    Shift=    0.000
 RMSDP=2.09D-06 MaxDP=8.00D-05 DE=-1.38D-07 OVMax= 1.94D-04

 Cycle  11  Pass 1  IDiag  1:
 E= -970.455868549795     Delta-E=       -0.000000047227 Rises=F Damp=F
 DIIS: error= 1.08D-05 at cycle   3 NSaved=   3.
 NSaved= 3 IEnMin= 3 EnMin= -970.455868549795     IErMin= 3 ErrMin= 1.08D-05
 ErrMax= 1.08D-05 EMaxC= 1.00D-01 BMatC= 6.43D-08 BMatP= 1.10D-07
 IDIUse=1 WtCom= 1.00D+00 WtEn= 0.00D+00
 Coeff-Com:  0.572D-02 0.431D+00 0.563D+00
 Coeff:      0.572D-02 0.431D+00 0.563D+00
 Gap=     0.213 Goal=   None    Shift=    0.000
 RMSDP=9.51D-07 MaxDP=4.37D-05 DE=-4.72D-08 OVMax= 9.70D-05

 Cycle  12  Pass 1  IDiag  1:
 E= -970.455868612808     Delta-E=       -0.000000063013 Rises=F Damp=F
 DIIS: error= 2.17D-06 at cycle   4 NSaved=   4.
 NSaved= 4 IEnMin= 4 EnMin= -970.455868612808     IErMin= 4 ErrMin= 2.17D-06
 ErrMax= 2.17D-06 EMaxC= 1.00D-01 BMatC= 3.95D-09 BMatP= 6.43D-08
 IDIUse=1 WtCom= 1.00D+00 WtEn= 0.00D+00
 Coeff-Com: -0.133D-01 0.236D+00 0.342D+00 0.435D+00
 Coeff:     -0.133D-01 0.236D+00 0.342D+00 0.435D+00
 Gap=     0.213 Goal=   None    Shift=    0.000
 RMSDP=2.29D-07 MaxDP=1.17D-05 DE=-6.30D-08 OVMax= 1.66D-05

 Cycle  13  Pass 1  IDiag  1:
 E= -970.455868616154     Delta-E=       -0.000000003346 Rises=F Damp=F
 DIIS: error= 6.01D-07 at cycle   5 NSaved=   5.
 NSaved= 5 IEnMin= 5 EnMin= -970.455868616154     IErMin= 5 ErrMin= 6.01D-07
 ErrMax= 6.01D-07 EMaxC= 1.00D-01 BMatC= 1.67D-10 BMatP= 3.95D-09
 IDIUse=1 WtCom= 1.00D+00 WtEn= 0.00D+00
 Coeff-Com: -0.755D-02 0.109D+00 0.160D+00 0.245D+00 0.494D+00
 Coeff:     -0.755D-02 0.109D+00 0.160D+00 0.245D+00 0.494D+00
 Gap=     0.213 Goal=   None    Shift=    0.000
 RMSDP=4.97D-08 MaxDP=2.37D-06 DE=-3.35D-09 OVMax= 3.76D-06

 Cycle  14  Pass 1  IDiag  1:
 E= -970.455868616291     Delta-E=       -0.000000000138 Rises=F Damp=F
 DIIS: error= 2.10D-07 at cycle   6 NSaved=   6.
 NSaved= 6 IEnMin= 6 EnMin= -970.455868616291     IErMin= 6 ErrMin= 2.10D-07
 ErrMax= 2.10D-07 EMaxC= 1.00D-01 BMatC= 2.57D-11 BMatP= 1.67D-10
 IDIUse=1 WtCom= 1.00D+00 WtEn= 0.00D+00
 Coeff-Com: -0.271D-02 0.330D-01 0.488D-01 0.866D-01 0.305D+00 0.530D+00
 Coeff:     -0.271D-02 0.330D-01 0.488D-01 0.866D-01 0.305D+00 0.530D+00
 Gap=     0.213 Goal=   None    Shift=    0.000
 RMSDP=1.92D-08 MaxDP=6.76D-07 DE=-1.38D-10 OVMax= 1.38D-06

 Cycle  15  Pass 1  IDiag  1:
 E= -970.455868616292     Delta-E=       -0.000000000001 Rises=F Damp=F
 DIIS: error= 5.07D-08 at cycle   7 NSaved=   7.
 NSaved= 7 IEnMin= 7 EnMin= -970.455868616292     IErMin= 7 ErrMin= 5.07D-08
 ErrMax= 5.07D-08 EMaxC= 1.00D-01 BMatC= 2.37D-12 BMatP= 2.57D-11
 IDIUse=1 WtCom= 1.00D+00 WtEn= 0.00D+00
 Coeff-Com: -0.629D-03 0.543D-02 0.809D-02 0.188D-01 0.107D+00 0.292D+00
 Coeff-Com:  0.569D+00
 Coeff:     -0.629D-03 0.543D-02 0.809D-02 0.188D-01 0.107D+00 0.292D+00
 Coeff:      0.569D+00
 Gap=     0.213 Goal=   None    Shift=    0.000
 RMSDP=6.15D-09 MaxDP=2.89D-07 DE=-9.09D-13 OVMax= 5.40D-07

 SCF Done:  E(RB3LYP) =  -970.455868616     A.U. after   15 cycles
             Convg  =    0.6151D-08             -V/T =  2.0088
 KE= 9.619593894940D+02 PE=-5.022908340182D+03 EE= 1.715910305644D+03
 Leave Link  502 at Thu Sep 30 01:39:51 2021, MaxMem= 1342177280 cpu:     387.9
 (Enter /sw/target/amd/app/gaussian/Gaussian09RevA.02_gcc-4.9.2/g09/l508.exe)
 QCSCF skips out because SCF is already converged.
 Leave Link  508 at Thu Sep 30 01:39:53 2021, MaxMem= 1342177280 cpu:       0.0
 (Enter /sw/target/amd/app/gaussian/Gaussian09RevA.02_gcc-4.9.2/g09/l601.exe)
 Copying SCF densities to generalized density rwf, IOpCl= 0 IROHF=0.

 **********************************************************************

            Population analysis using the SCF density.

 **********************************************************************

 Orbital symmetries:
       Occupied  (A) (A) (A) (A) (A) (A) (A) (A) (A) (A) (A) (A)
                 (A) (A) (A) (A) (A) (A) (A) (A) (A) (A) (A) (A)
                 (A) (A) (A) (A) (A) (A) (A) (A) (A) (A) (A) (A)
                 (A) (A) (A) (A) (A) (A) (A) (A) (A) (A) (A) (A)
                 (A) (A) (A) (A) (A) (A) (A) (A) (A) (A) (A) (A)
                 (A) (A) (A) (A) (A) (A) (A) (A)
       Virtual   (A) (A) (A) (A) (A) (A) (A) (A) (A) (A) (A) (A)
                 (A) (A) (A) (A) (A) (A) (A) (A) (A) (A) (A) (A)
                 (A) (A) (A) (A) (A) (A) (A) (A) (A) (A) (A) (A)
                 (A) (A) (A) (A) (A) (A) (A) (A) (A) (A) (A) (A)
                 (A) (A) (A) (A) (A) (A) (A) (A) (A) (A) (A) (A)
                 (A) (A) (A) (A) (A) (A) (A) (A) (A) (A) (A) (A)
                 (A) (A) (A) (A) (A) (A) (A) (A) (A) (A) (A) (A)
                 (A) (A) (A) (A) (A) (A) (A) (A) (A) (A) (A) (A)
                 (A) (A) (A) (A) (A) (A) (A) (A) (A) (A) (A) (A)
                 (A) (A) (A) (A) (A) (A) (A) (A) (A) (A) (A) (A)
                 (A) (A) (A) (A) (A) (A) (A) (A) (A) (A) (A) (A)
                 (A) (A) (A) (A) (A) (A) (A) (A) (A) (A) (A) (A)
                 (A) (A) (A) (A) (A) (A) (A) (A) (A) (A) (A) (A)
                 (A) (A) (A) (A) (A) (A) (A) (A) (A) (A) (A) (A)
                 (A) (A) (A) (A) (A) (A) (A) (A) (A) (A) (A) (A)
                 (A) (A) (A) (A) (A) (A) (A) (A) (A) (A) (A) (A)
                 (A) (A) (A) (A) (A) (A) (A) (A) (A) (A) (A) (A)
                 (A) (A) (A) (A) (A) (A) (A) (A) (A) (A) (A) (A)
                 (A) (A) (A) (A) (A) (A) (A) (A) (A) (A) (A) (A)
                 (A) (A)
 The electronic state is 1-A.
 Alpha  occ. eigenvalues --  -24.72049 -24.71497 -24.71480 -19.20696 -19.12745
 Alpha  occ. eigenvalues --  -14.37260 -10.43187 -10.34371 -10.27081 -10.22959
 Alpha  occ. eigenvalues --  -10.22754 -10.22437 -10.21228 -10.21110 -10.21045
 Alpha  occ. eigenvalues --  -10.21020 -10.18650 -10.17922  -1.29055  -1.20478
 Alpha  occ. eigenvalues --   -1.20126  -1.10658  -1.01902  -0.94275  -0.87612
 Alpha  occ. eigenvalues --   -0.79200  -0.77802  -0.76859  -0.74410  -0.69910
 Alpha  occ. eigenvalues --   -0.67070  -0.64251  -0.63135  -0.62256  -0.58753
 Alpha  occ. eigenvalues --   -0.56990  -0.56850  -0.53942  -0.53338  -0.51015
 Alpha  occ. eigenvalues --   -0.49112  -0.48709  -0.46331  -0.46018  -0.45096
 Alpha  occ. eigenvalues --   -0.44872  -0.44613  -0.44464  -0.43447  -0.41632
 Alpha  occ. eigenvalues --   -0.41513  -0.40896  -0.40720  -0.40443  -0.39453
 Alpha  occ. eigenvalues --   -0.38979  -0.38946  -0.37947  -0.37513  -0.37143
 Alpha  occ. eigenvalues --   -0.36530  -0.36120  -0.34251  -0.32701  -0.28184
 Alpha  occ. eigenvalues --   -0.26891  -0.25244  -0.24477
 Alpha virt. eigenvalues --   -0.03168  -0.01647   0.03187   0.07926   0.08404
 Alpha virt. eigenvalues --    0.10190   0.11402   0.12193   0.12605   0.13085
 Alpha virt. eigenvalues --    0.13742   0.14068   0.15198   0.15746   0.15960
 Alpha virt. eigenvalues --    0.16321   0.17227   0.17956   0.18732   0.20736
 Alpha virt. eigenvalues --    0.21590   0.21970   0.22263   0.23379   0.24951
 Alpha virt. eigenvalues --    0.25304   0.25806   0.25964   0.28272   0.29373
 Alpha virt. eigenvalues --    0.34326   0.36402   0.36954   0.39397   0.42019
 Alpha virt. eigenvalues --    0.46723   0.47919   0.48513   0.49089   0.50060
 Alpha virt. eigenvalues --    0.50815   0.52424   0.53020   0.53131   0.55176
 Alpha virt. eigenvalues --    0.56046   0.56409   0.56997   0.57970   0.58423
 Alpha virt. eigenvalues --    0.58640   0.59701   0.60013   0.61771   0.62672
 Alpha virt. eigenvalues --    0.64035   0.64621   0.65397   0.65655   0.67013
 Alpha virt. eigenvalues --    0.69204   0.70941   0.72610   0.73869   0.75339
 Alpha virt. eigenvalues --    0.76939   0.80451   0.81099   0.81525   0.82130
 Alpha virt. eigenvalues --    0.82355   0.83711   0.85810   0.87268   0.87500
 Alpha virt. eigenvalues --    0.88262   0.88853   0.89514   0.90807   0.91160
 Alpha virt. eigenvalues --    0.92295   0.94457   0.95645   0.96313   0.97345
 Alpha virt. eigenvalues --    0.98937   1.00029   1.01124   1.03586   1.05653
 Alpha virt. eigenvalues --    1.05836   1.07632   1.09025   1.09726   1.10517
 Alpha virt. eigenvalues --    1.11084   1.11856   1.13230   1.14595   1.16201
 Alpha virt. eigenvalues --    1.16500   1.19090   1.21543   1.21941   1.23876
 Alpha virt. eigenvalues --    1.27842   1.30108   1.33231   1.33404   1.34487
 Alpha virt. eigenvalues --    1.35392   1.37575   1.38524   1.39238   1.40451
 Alpha virt. eigenvalues --    1.42145   1.42675   1.43541   1.44442   1.46720
 Alpha virt. eigenvalues --    1.47342   1.47919   1.50619   1.55382   1.60404
 Alpha virt. eigenvalues --    1.62374   1.65891   1.66446   1.67662   1.68892
 Alpha virt. eigenvalues --    1.70035   1.72190   1.73068   1.75895   1.77168
 Alpha virt. eigenvalues --    1.78874   1.80593   1.81691   1.82689   1.83392
 Alpha virt. eigenvalues --    1.83782   1.84392   1.86381   1.87663   1.88855
 Alpha virt. eigenvalues --    1.89234   1.91922   1.92229   1.92915   1.94683
 Alpha virt. eigenvalues --    1.95571   1.96876   1.98097   1.99383   2.01285
 Alpha virt. eigenvalues --    2.01924   2.02618   2.02739   2.03807   2.04090
 Alpha virt. eigenvalues --    2.07303   2.07743   2.07843   2.09433   2.09915
 Alpha virt. eigenvalues --    2.12173   2.15653   2.16839   2.18720   2.18932
 Alpha virt. eigenvalues --    2.21811   2.24309   2.25579   2.28520   2.29695
 Alpha virt. eigenvalues --    2.29935   2.30831   2.32132   2.33282   2.36698
 Alpha virt. eigenvalues --    2.37592   2.39049   2.41671   2.45245   2.46853
 Alpha virt. eigenvalues --    2.48935   2.51612   2.56984   2.58412   2.60057
 Alpha virt. eigenvalues --    2.62003   2.63406   2.64615   2.67517   2.68059
 Alpha virt. eigenvalues --    2.70674   2.72787   2.73881   2.74231   2.77496
 Alpha virt. eigenvalues --    2.82042   2.88862   2.90895   2.93160   2.98495
 Alpha virt. eigenvalues --    2.99963   3.03559   3.07968   3.11492   3.18185
 Alpha virt. eigenvalues --    3.25012   3.40563   3.99751   4.06548   4.07864
 Alpha virt. eigenvalues --    4.11582   4.13245   4.18836   4.24324   4.26234
 Alpha virt. eigenvalues --    4.29301   4.33164   4.41601   4.43789   4.47106
 Alpha virt. eigenvalues --    4.51167   4.52931   4.71750   4.77502   5.56411
          Condensed to atoms (all electrons):
              1          2          3          4          5          6
     1  C    5.137322   0.366499  -0.072646  -0.000008   0.000030  -0.000845
     2  C    0.366499   4.888972   0.294528  -0.026442   0.002357  -0.001513
     3  N   -0.072646   0.294528   6.987018   0.320130  -0.091001  -0.090458
     4  C   -0.000008  -0.026442   0.320130   4.184774   0.538548   0.242092
     5  O    0.000030   0.002357  -0.091001   0.538548   8.096598  -0.068792
     6  O   -0.000845  -0.001513  -0.090458   0.242092  -0.068792   8.361212
     7  C    0.000100   0.000176   0.002161  -0.009188   0.000986   0.203901
     8  C    0.000002   0.000007  -0.000220  -0.000287  -0.000114  -0.047118
     9  C   -0.000000  -0.000001   0.000002  -0.000018   0.000002   0.003000
    10  C    0.000000   0.000000   0.000000   0.000042   0.000006   0.000272
    11  C    0.000000   0.000002  -0.000018   0.000075  -0.000059   0.003884
    12  C   -0.000037  -0.000073   0.000013   0.001089   0.002327  -0.045742
    13  C   -0.000000   0.000000  -0.000000  -0.000018  -0.000010  -0.000033
    14  F    0.000000  -0.000000   0.000000   0.000000  -0.000000   0.000000
    15  F    0.000000   0.000000  -0.000000  -0.000000   0.000000  -0.000000
    16  F    0.000000  -0.000000  -0.000000  -0.000000   0.000000   0.000000
    17  C    0.002572  -0.043788   0.292043  -0.027289   0.005494   0.002749
    18  C   -0.001438   0.002032  -0.060068  -0.002956  -0.004515  -0.000143
    19  H    0.355421  -0.025822   0.004882  -0.000053  -0.000000  -0.000032
    20  H    0.376362  -0.033036  -0.002700  -0.000158   0.000000   0.000018
    21  H    0.376181  -0.031715  -0.001770   0.002579  -0.000108   0.001685
    22  H   -0.051251   0.374299  -0.039290   0.002494  -0.000082   0.000379
    23  H   -0.043871   0.380539  -0.029478  -0.008422   0.000088   0.009291
    24  H    0.000000  -0.000013  -0.000010   0.000105   0.000013  -0.001203
    25  H   -0.000000   0.000000  -0.000000  -0.000001  -0.000000  -0.000050
    26  H    0.000000  -0.000000   0.000000   0.000000   0.000000   0.000002
    27  H    0.000042  -0.000015  -0.000544   0.004418   0.005650  -0.007656
    28  H   -0.001152  -0.004587  -0.039755   0.004343   0.000431  -0.000050
    29  H   -0.000220   0.003278  -0.037538  -0.003793   0.007726   0.000123
    30  H    0.000086   0.000238  -0.001736   0.000175   0.000028  -0.000003
    31  H   -0.000006  -0.000133   0.004571   0.000006  -0.000005   0.000000
    32  H    0.000206  -0.000043  -0.006278   0.003446   0.007338   0.000007
              7          8          9         10         11         12
     1  C    0.000100   0.000002  -0.000000   0.000000   0.000000  -0.000037
     2  C    0.000176   0.000007  -0.000001   0.000000   0.000002  -0.000073
     3  N    0.002161  -0.000220   0.000002   0.000000  -0.000018   0.000013
     4  C   -0.009188  -0.000287  -0.000018   0.000042   0.000075   0.001089
     5  O    0.000986  -0.000114   0.000002   0.000006  -0.000059   0.002327
     6  O    0.203901  -0.047118   0.003000   0.000272   0.003884  -0.045742
     7  C    4.528443   0.543306  -0.010767  -0.038250  -0.000102   0.466900
     8  C    0.543306   4.975189   0.516811  -0.039166  -0.032722  -0.073561
     9  C   -0.010767   0.516811   4.895501   0.499313  -0.019016  -0.037441
    10  C   -0.038250  -0.039166   0.499313   4.994095   0.512801  -0.066539
    11  C   -0.000102  -0.032722  -0.019016   0.512801   5.077012   0.413029
    12  C    0.466900  -0.073561  -0.037441  -0.066539   0.413029   5.166211
    13  C    0.003779   0.000124   0.004922  -0.030549   0.285508  -0.014473
    14  F   -0.000024  -0.000004   0.000556   0.003559  -0.045831   0.003090
    15  F    0.000220  -0.000000  -0.000030   0.001511  -0.050300   0.003096
    16  F    0.000290  -0.000003  -0.000022   0.000972  -0.053601   0.002908
    17  C   -0.000040   0.000003  -0.000000  -0.000000   0.000000   0.000005
    18  C    0.000021  -0.000000  -0.000000   0.000000  -0.000000  -0.000034
    19  H   -0.000004  -0.000000   0.000000  -0.000000  -0.000000   0.000001
    20  H    0.000001   0.000000   0.000000  -0.000000   0.000000  -0.000000
    21  H    0.000062  -0.000009  -0.000001   0.000001  -0.000002   0.000243
    22  H   -0.000005  -0.000001   0.000000   0.000000  -0.000000   0.000000
    23  H    0.000330  -0.000033   0.000001   0.000000  -0.000002   0.000059
    24  H   -0.036122   0.349192  -0.041237   0.004886   0.000186   0.006579
    25  H    0.003305  -0.038101   0.362555  -0.038171   0.003708   0.000642
    26  H    0.000504   0.004507  -0.038622   0.357099  -0.043245   0.005303
    27  H   -0.031294   0.005318   0.000242   0.004661  -0.046594   0.349032
    28  H   -0.000000  -0.000000   0.000000   0.000000  -0.000000  -0.000000
    29  H   -0.000004  -0.000000  -0.000000   0.000000  -0.000000  -0.000001
    30  H   -0.000001   0.000000  -0.000000   0.000000   0.000000  -0.000001
    31  H   -0.000000  -0.000000   0.000000  -0.000000  -0.000000   0.000000
    32  H   -0.000003   0.000000  -0.000000   0.000000   0.000001  -0.000061
             13         14         15         16         17         18
     1  C   -0.000000   0.000000   0.000000   0.000000   0.002572  -0.001438
     2  C    0.000000  -0.000000   0.000000  -0.000000  -0.043788   0.002032
     3  N   -0.000000   0.000000  -0.000000  -0.000000   0.292043  -0.060068
     4  C   -0.000018   0.000000  -0.000000  -0.000000  -0.027289  -0.002956
     5  O   -0.000010  -0.000000   0.000000   0.000000   0.005494  -0.004515
     6  O   -0.000033   0.000000  -0.000000   0.000000   0.002749  -0.000143
     7  C    0.003779  -0.000024   0.000220   0.000290  -0.000040   0.000021
     8  C    0.000124  -0.000004  -0.000000  -0.000003   0.000003  -0.000000
     9  C    0.004922   0.000556  -0.000030  -0.000022  -0.000000  -0.000000
    10  C   -0.030549   0.003559   0.001511   0.000972  -0.000000   0.000000
    11  C    0.285508  -0.045831  -0.050300  -0.053601   0.000000  -0.000000
    12  C   -0.014473   0.003090   0.003096   0.002908   0.000005  -0.000034
    13  C    4.125260   0.286117   0.280702   0.281875   0.000000  -0.000000
    14  F    0.286117   9.099339  -0.038663  -0.039051  -0.000000   0.000000
    15  F    0.280702  -0.038663   9.108659  -0.039936  -0.000000   0.000000
    16  F    0.281875  -0.039051  -0.039936   9.117140   0.000000   0.000000
    17  C    0.000000  -0.000000  -0.000000   0.000000   4.867392   0.372466
    18  C   -0.000000   0.000000   0.000000   0.000000   0.372466   5.133271
    19  H    0.000000   0.000000  -0.000000  -0.000000  -0.000210   0.000056
    20  H    0.000000   0.000000  -0.000000   0.000000   0.002842  -0.002272
    21  H   -0.000000  -0.000000   0.000000  -0.000000  -0.000634   0.000241
    22  H    0.000000  -0.000000   0.000000  -0.000000  -0.006900  -0.000637
    23  H    0.000000  -0.000000  -0.000000  -0.000000   0.003652  -0.000222
    24  H    0.000005  -0.000000  -0.000000  -0.000000   0.000000  -0.000000
    25  H   -0.000103   0.000001   0.000000   0.000000   0.000000  -0.000000
    26  H   -0.006590   0.008146   0.000126   0.000119  -0.000000   0.000000
    27  H   -0.003301   0.000069   0.002282   0.001631   0.000010   0.000075
    28  H   -0.000000   0.000000   0.000000   0.000000   0.376593  -0.047930
    29  H    0.000000  -0.000000  -0.000000  -0.000000   0.379422  -0.044874
    30  H   -0.000000  -0.000000   0.000000  -0.000000  -0.035662   0.373940
    31  H    0.000000  -0.000000  -0.000000  -0.000000  -0.027458   0.359189
    32  H   -0.000000  -0.000000  -0.000000  -0.000000  -0.028783   0.378040
             19         20         21         22         23         24
     1  C    0.355421   0.376362   0.376181  -0.051251  -0.043871   0.000000
     2  C   -0.025822  -0.033036  -0.031715   0.374299   0.380539  -0.000013
     3  N    0.004882  -0.002700  -0.001770  -0.039290  -0.029478  -0.000010
     4  C   -0.000053  -0.000158   0.002579   0.002494  -0.008422   0.000105
     5  O   -0.000000   0.000000  -0.000108  -0.000082   0.000088   0.000013
     6  O   -0.000032   0.000018   0.001685   0.000379   0.009291  -0.001203
     7  C   -0.000004   0.000001   0.000062  -0.000005   0.000330  -0.036122
     8  C   -0.000000   0.000000  -0.000009  -0.000001  -0.000033   0.349192
     9  C    0.000000   0.000000  -0.000001   0.000000   0.000001  -0.041237
    10  C   -0.000000  -0.000000   0.000001   0.000000   0.000000   0.004886
    11  C   -0.000000   0.000000  -0.000002  -0.000000  -0.000002   0.000186
    12  C    0.000001  -0.000000   0.000243   0.000000   0.000059   0.006579
    13  C    0.000000   0.000000  -0.000000   0.000000   0.000000   0.000005
    14  F    0.000000   0.000000  -0.000000  -0.000000  -0.000000  -0.000000
    15  F   -0.000000  -0.000000   0.000000   0.000000  -0.000000  -0.000000
    16  F   -0.000000   0.000000  -0.000000  -0.000000  -0.000000  -0.000000
    17  C   -0.000210   0.002842  -0.000634  -0.006900   0.003652   0.000000
    18  C    0.000056  -0.002272   0.000241  -0.000637  -0.000222  -0.000000
    19  H    0.572585  -0.028376  -0.025556   0.000790  -0.002086   0.000000
    20  H   -0.028376   0.560047  -0.032342  -0.005442   0.004821  -0.000000
    21  H   -0.025556  -0.032342   0.550129   0.005139  -0.003870   0.000000
    22  H    0.000790  -0.005442   0.005139   0.595880  -0.030328   0.000000
    23  H   -0.002086   0.004821  -0.003870  -0.030328   0.540647   0.000090
    24  H    0.000000  -0.000000   0.000000   0.000000   0.000090   0.571702
    25  H    0.000000   0.000000   0.000000   0.000000  -0.000000  -0.005677
    26  H   -0.000000  -0.000000  -0.000000   0.000000  -0.000000  -0.000150
    27  H   -0.000002  -0.000003   0.000253  -0.000000  -0.000002  -0.000133
    28  H    0.000010   0.000287   0.000040   0.006095   0.000301  -0.000000
    29  H    0.000008  -0.000011   0.000003   0.000463  -0.000195   0.000000
    30  H    0.000097   0.005402   0.000209   0.000095  -0.000025   0.000000
    31  H   -0.000000   0.000109   0.000006   0.000026   0.000005   0.000000
    32  H   -0.000004  -0.000023  -0.000058  -0.000014   0.000004   0.000000
             25         26         27         28         29         30
     1  C   -0.000000   0.000000   0.000042  -0.001152  -0.000220   0.000086
     2  C    0.000000  -0.000000  -0.000015  -0.004587   0.003278   0.000238
     3  N   -0.000000   0.000000  -0.000544  -0.039755  -0.037538  -0.001736
     4  C   -0.000001   0.000000   0.004418   0.004343  -0.003793   0.000175
     5  O   -0.000000   0.000000   0.005650   0.000431   0.007726   0.000028
     6  O   -0.000050   0.000002  -0.007656  -0.000050   0.000123  -0.000003
     7  C    0.003305   0.000504  -0.031294  -0.000000  -0.000004  -0.000001
     8  C   -0.038101   0.004507   0.005318  -0.000000  -0.000000   0.000000
     9  C    0.362555  -0.038622   0.000242   0.000000  -0.000000  -0.000000
    10  C   -0.038171   0.357099   0.004661   0.000000   0.000000   0.000000
    11  C    0.003708  -0.043245  -0.046594  -0.000000  -0.000000   0.000000
    12  C    0.000642   0.005303   0.349032  -0.000000  -0.000001  -0.000001
    13  C   -0.000103  -0.006590  -0.003301  -0.000000   0.000000  -0.000000
    14  F    0.000001   0.008146   0.000069   0.000000  -0.000000  -0.000000
    15  F    0.000000   0.000126   0.002282   0.000000  -0.000000   0.000000
    16  F    0.000000   0.000119   0.001631   0.000000  -0.000000  -0.000000
    17  C    0.000000  -0.000000   0.000010   0.376593   0.379422  -0.035662
    18  C   -0.000000   0.000000   0.000075  -0.047930  -0.044874   0.373940
    19  H    0.000000  -0.000000  -0.000002   0.000010   0.000008   0.000097
    20  H    0.000000  -0.000000  -0.000003   0.000287  -0.000011   0.005402
    21  H    0.000000  -0.000000   0.000253   0.000040   0.000003   0.000209
    22  H    0.000000   0.000000  -0.000000   0.006095   0.000463   0.000095
    23  H   -0.000000  -0.000000  -0.000002   0.000301  -0.000195  -0.000025
    24  H   -0.005677  -0.000150  -0.000133  -0.000000   0.000000   0.000000
    25  H    0.569051  -0.004953   0.000013  -0.000000   0.000000  -0.000000
    26  H   -0.004953   0.563222  -0.000144   0.000000  -0.000000   0.000000
    27  H    0.000013  -0.000144   0.541525   0.000000  -0.000004   0.000005
    28  H   -0.000000   0.000000   0.000000   0.589614  -0.029957  -0.003638
    29  H    0.000000  -0.000000  -0.000004  -0.029957   0.549598   0.004828
    30  H   -0.000000   0.000000   0.000005  -0.003638   0.004828   0.564560
    31  H    0.000000  -0.000000  -0.000001  -0.000934  -0.000173  -0.028059
    32  H   -0.000000  -0.000000   0.000332   0.004630  -0.005638  -0.030430
             31         32
     1  C   -0.000006   0.000206
     2  C   -0.000133  -0.000043
     3  N    0.004571  -0.006278
     4  C    0.000006   0.003446
     5  O   -0.000005   0.007338
     6  O    0.000000   0.000007
     7  C   -0.000000  -0.000003
     8  C   -0.000000   0.000000
     9  C    0.000000  -0.000000
    10  C   -0.000000   0.000000
    11  C   -0.000000   0.000001
    12  C    0.000000  -0.000061
    13  C    0.000000  -0.000000
    14  F   -0.000000  -0.000000
    15  F   -0.000000  -0.000000
    16  F   -0.000000  -0.000000
    17  C   -0.027458  -0.028783
    18  C    0.359189   0.378040
    19  H   -0.000000  -0.000004
    20  H    0.000109  -0.000023
    21  H    0.000006  -0.000058
    22  H    0.000026  -0.000014
    23  H    0.000005   0.000004
    24  H    0.000000   0.000000
    25  H    0.000000  -0.000000
    26  H   -0.000000  -0.000000
    27  H   -0.000001   0.000332
    28  H   -0.000934   0.004630
    29  H   -0.000173  -0.005638
    30  H   -0.028059  -0.030430
    31  H    0.572659  -0.026183
    32  H   -0.026183   0.524709
 Mulliken atomic charges:
              1
     1  C   -0.443351
     2  C   -0.145747
     3  N   -0.431839
     4  C    0.774314
     5  O   -0.502938
     6  O   -0.564979
     7  C    0.371323
     8  C   -0.163120
     9  C   -0.135751
    10  C   -0.166544
    11  C   -0.004712
    12  C   -0.182565
    13  C    0.786785
    14  F   -0.277303
    15  F   -0.267666
    16  F   -0.272323
    17  C   -0.134478
    18  C   -0.454242
    19  H    0.148294
    20  H    0.154475
    21  H    0.159294
    22  H    0.148290
    23  H    0.178706
    24  H    0.151788
    25  H    0.147781
    26  H    0.154677
    27  H    0.174136
    28  H    0.145658
    29  H    0.176960
    30  H    0.149893
    31  H    0.146379
    32  H    0.178805
 Sum of Mulliken atomic charges =  -0.00000
 Mulliken charges with hydrogens summed into heavy atoms:
              1
     1  C    0.018713
     2  C    0.181249
     3  N   -0.431839
     4  C    0.774314
     5  O   -0.502938
     6  O   -0.564979
     7  C    0.371323
     8  C   -0.011332
     9  C    0.012030
    10  C   -0.011868
    11  C   -0.004712
    12  C   -0.008429
    13  C    0.786785
    14  F   -0.277303
    15  F   -0.267666
    16  F   -0.272323
    17  C    0.188139
    18  C    0.020836
 Sum of Mulliken charges with hydrogens summed into heavy atoms =  -0.00000
 Electronic spatial extent (au):  <R**2>=           5641.9773
 Charge=             -0.0000 electrons
 Dipole moment (field-independent basis, Debye):
    X=              2.9262    Y=              2.5065    Z=              2.0536  Tot=              4.3660
 Quadrupole moment (field-independent basis, Debye-Ang):
   XX=            -91.4245   YY=            -97.6253   ZZ=           -108.6979
   XY=             -8.5109   XZ=              3.9704   YZ=             -0.0983
 Traceless Quadrupole moment (field-independent basis, Debye-Ang):
   XX=              7.8247   YY=              1.6239   ZZ=             -9.4486
   XY=             -8.5109   XZ=              3.9704   YZ=             -0.0983
 Octapole moment (field-independent basis, Debye-Ang**2):
  XXX=             18.3428  YYY=             -4.8868  ZZZ=             10.0581  XYY=            -18.0011
  XXY=             10.4303  XXZ=              1.5286  XZZ=            -10.8669  YZZ=             -9.7667
  YYZ=             -2.6841  XYZ=              2.8579
 Hexadecapole moment (field-independent basis, Debye-Ang**3):
 XXXX=          -4680.1813 YYYY=          -1309.6125 ZZZZ=           -645.1609 XXXY=             -5.8505
 XXXZ=            -19.6518 YYYX=             60.1602 YYYZ=             -8.4439 ZZZX=            -14.9397
 ZZZY=             -1.0604 XXYY=          -1019.4646 XXZZ=           -923.9795 YYZZ=           -348.1083
 XXYZ=             20.5680 YYXZ=             -8.1183 ZZXY=             47.4108
 N-N= 1.374582776428D+03 E-N=-5.022908352580D+03  KE= 9.619593894940D+02
 No NMR shielding tensors so no spin-rotation constants.
 Leave Link  601 at Thu Sep 30 01:39:56 2021, MaxMem= 1342177280 cpu:       1.7
 (Enter /sw/target/amd/app/gaussian/Gaussian09RevA.02_gcc-4.9.2/g09/l701.exe)
 Compute integral first derivatives.
 ... and contract with generalized density number  0.
 Leave Link  701 at Thu Sep 30 01:39:59 2021, MaxMem= 1342177280 cpu:       1.6
 (Enter /sw/target/amd/app/gaussian/Gaussian09RevA.02_gcc-4.9.2/g09/l702.exe)
 L702 exits ... SP integral derivatives will be done elsewhere.
 Leave Link  702 at Thu Sep 30 01:39:59 2021, MaxMem= 1342177280 cpu:       0.1
 (Enter /sw/target/amd/app/gaussian/Gaussian09RevA.02_gcc-4.9.2/g09/l703.exe)
 Compute integral first derivatives, UseDBF=F ICtDFT=           0.
 Integral derivatives from FoFDir, PRISM(SPDF).
 Calling FoFJK, ICntrl=      2127 FMM=F ISym2X=0 I1Cent= 0 IOpClX= 0 NMat=1 NMatS=1 NMatT=0.
 FoFCou: FMM=F IPFlag=           0 FMFlag=      100000 FMFlg1=         800
         NFxFlg=           0 DoJE=F BraDBF=F KetDBF=F FulRan=T
         Omega=  0.000000  0.000000  1.000000  0.000000  0.000000 ICntrl=    2127 IOpCl=  0
         NMat0=    1 NMatS0=    1 NMatT0=    0 NMatD0=    1 NMtDS0=    0 NMtDT0=    0
         I1Cent=           0 NGrid=           0.
 Symmetry not used in FoFCou.
 Leave Link  703 at Thu Sep 30 01:41:58 2021, MaxMem= 1342177280 cpu:     124.5
 (Enter /sw/target/amd/app/gaussian/Gaussian09RevA.02_gcc-4.9.2/g09/l716.exe)
 Dipole        = 1.15124492D+00 9.86146107D-01 8.07936157D-01
 ***** Axes restored to original set *****
 -------------------------------------------------------------------
 Center     Atomic                   Forces (Hartrees/Bohr)
 Number     Number              X              Y              Z
 -------------------------------------------------------------------
      1        6           0.004033241   -0.000442236    0.007196258
      2        6          -0.005825892    0.006786977    0.000564031
      3        7          -0.026834756    0.009320917   -0.007227146
      4        6           0.017070934   -0.014314542    0.001220632
      5        8           0.001207298    0.015898295    0.007676716
      6        8          -0.002364143   -0.005367818   -0.002079274
      7        6           0.011258899   -0.000767017    0.003734975
      8        6          -0.000819441    0.003867716   -0.003113319
      9        6           0.002906929   -0.005021712    0.002994090
     10        6          -0.006428582   -0.003883066    0.003243432
     11        6          -0.000875311    0.010010854   -0.005581106
     12        6           0.001405493   -0.007984180    0.004405625
     13        6          -0.006711204   -0.015289438    0.008406806
     14        9           0.007146998    0.007058204   -0.004922811
     15        9           0.000962974    0.009374431    0.000541068
     16        9           0.000377015    0.004020244   -0.007274368
     17        6          -0.002673301   -0.006250183   -0.007642704
     18        6           0.000492235   -0.007158610    0.003246789
     19        1          -0.000561023    0.001221180    0.000968775
     20        1           0.000374306   -0.000909805    0.001401177
     21        1          -0.000553229    0.000855372   -0.000765421
     22        1           0.001631775   -0.001285532   -0.000858449
     23        1           0.001050929   -0.003615549   -0.003402939
     24        1           0.002244170   -0.002037765   -0.000374326
     25        1           0.001190449   -0.001175903   -0.000184322
     26        1           0.003432275   -0.001080597   -0.000340081
     27        1          -0.001942914    0.002277781   -0.002228906
     28        1          -0.002318376    0.002912997    0.000806712
     29        1          -0.000327775    0.001387171    0.000606403
     30        1           0.001088883    0.000837082    0.001419670
     31        1           0.000346416   -0.000721906   -0.000615428
     32        1           0.000014727    0.001476636   -0.001822557
 -------------------------------------------------------------------
 Cartesian Forces:  Max     0.026834756 RMS     0.005823000
 Leave Link  716 at Thu Sep 30 01:41:58 2021, MaxMem= 1342177280 cpu:       0.1
 (Enter /sw/target/amd/app/gaussian/Gaussian09RevA.02_gcc-4.9.2/g09/l103.exe)

 GradGradGradGradGradGradGradGradGradGradGradGradGradGradGradGradGradGrad
 Berny optimization.
 Internal  Forces:  Max     0.028839182 RMS     0.004555352
 Search for a local minimum.
 Step number   1 out of a maximum of  165
 All quantities printed in internal units (Hartrees-Bohrs-Radians)
 RMS Force = .45554D-02 SwitMx=.10000D-02 MixMth= 1
 Mixed Optimization -- RFO/linear search
 Second derivative matrix not updated -- first step.
     Eigenvalues ---    0.00460   0.00493   0.00682   0.00876   0.00892
     Eigenvalues ---    0.01148   0.01507   0.01612   0.01745   0.01756
     Eigenvalues ---    0.01760   0.02064   0.02082   0.02121   0.02131
     Eigenvalues ---    0.02137   0.02138   0.02164   0.02172   0.04098
[...]
    27    C    2  dxz    Ryd( 3d)     0.00083
    28    C    2  dyz    Ryd( 3d)     0.00104
    29    C    2  dx2y2  Ryd( 3d)     0.00096
    30    C    2  dz2    Ryd( 3d)     0.00114

    31    N    3  S      Cor( 1S)     1.99930
    32    N    3  S      Val( 2S)     1.21522
    33    N    3  S      Ryd( 3S)     0.00162
    34    N    3  S      Ryd( 4S)     0.00005
    35    N    3  px     Val( 2p)     1.30891
    36    N    3  px     Ryd( 3p)     0.00116
    37    N    3  py     Val( 2p)     1.37761
    38    N    3  py     Ryd( 3p)     0.00268
    39    N    3  pz     Val( 2p)     1.52843
    40    N    3  pz     Ryd( 3p)     0.00446
    41    N    3  dxy    Ryd( 3d)     0.00054
    42    N    3  dxz    Ryd( 3d)     0.00055
    43    N    3  dyz    Ryd( 3d)     0.00058
    44    N    3  dx2y2  Ryd( 3d)     0.00089
    45    N    3  dz2    Ryd( 3d)     0.00056

    46    C    4  S      Cor( 1S)     1.99936
    47    C    4  S      Val( 2S)     0.69677
    48    C    4  S      Ryd( 3S)     0.00279
    49    C    4  S      Ryd( 4S)     0.00058
    50    C    4  px     Val( 2p)     0.78604
    51    C    4  px     Ryd( 3p)     0.00758
    52    C    4  py     Val( 2p)     0.73803
    53    C    4  py     Ryd( 3p)     0.01563
    54    C    4  pz     Val( 2p)     0.80054
    55    C    4  pz     Ryd( 3p)     0.00708
    56    C    4  dxy    Ryd( 3d)     0.00271
    57    C    4  dxz    Ryd( 3d)     0.00248
    58    C    4  dyz    Ryd( 3d)     0.00157
    59    C    4  dx2y2  Ryd( 3d)     0.00291
    60    C    4  dz2    Ryd( 3d)     0.00185

    61    O    5  S      Cor( 1S)     1.99978
    62    O    5  S      Val( 2S)     1.70474
    63    O    5  S      Ryd( 3S)     0.00047
    64    O    5  S      Ryd( 4S)     0.00014
    65    O    5  px     Val( 2p)     1.75749
    66    O    5  px     Ryd( 3p)     0.00076
    67    O    5  py     Val( 2p)     1.60352
    68    O    5  py     Ryd( 3p)     0.00068
    69    O    5  pz     Val( 2p)     1.53678
    70    O    5  pz     Ryd( 3p)     0.00077
    71    O    5  dxy    Ryd( 3d)     0.00357
    72    O    5  dxz    Ryd( 3d)     0.00231
    73    O    5  dyz    Ryd( 3d)     0.00371
    74    O    5  dx2y2  Ryd( 3d)     0.00389
    75    O    5  dz2    Ryd( 3d)     0.00307

    76    O    6  S      Cor( 1S)     1.99969
    77    O    6  S      Val( 2S)     1.59874
    78    O    6  S      Ryd( 3S)     0.00091
    79    O    6  S      Ryd( 4S)     0.00014
    80    O    6  px     Val( 2p)     1.50154
    81    O    6  px     Ryd( 3p)     0.00093
    82    O    6  py     Val( 2p)     1.69677
    83    O    6  py     Ryd( 3p)     0.00198
    84    O    6  pz     Val( 2p)     1.69976
    85    O    6  pz     Ryd( 3p)     0.00141
    86    O    6  dxy    Ryd( 3d)     0.00106
    87    O    6  dxz    Ryd( 3d)     0.00088
    88    O    6  dyz    Ryd( 3d)     0.00104
    89    O    6  dx2y2  Ryd( 3d)     0.00115
    90    O    6  dz2    Ryd( 3d)     0.00104

    91    C    7  S      Cor( 1S)     1.99874
    92    C    7  S      Val( 2S)     0.84232
    93    C    7  S      Ryd( 3S)     0.00136
    94    C    7  S      Ryd( 4S)     0.00013
    95    C    7  px     Val( 2p)     0.72419
    96    C    7  px     Ryd( 3p)     0.00703
    97    C    7  py     Val( 2p)     1.08836
    98    C    7  py     Ryd( 3p)     0.00566
    99    C    7  pz     Val( 2p)     0.99835
   100    C    7  pz     Ryd( 3p)     0.00279
   101    C    7  dxy    Ryd( 3d)     0.00125
   102    C    7  dxz    Ryd( 3d)     0.00128
   103    C    7  dyz    Ryd( 3d)     0.00111
   104    C    7  dx2y2  Ryd( 3d)     0.00182
   105    C    7  dz2    Ryd( 3d)     0.00065

   106    C    8  S      Cor( 1S)     1.99905
   107    C    8  S      Val( 2S)     0.96276
   108    C    8  S      Ryd( 3S)     0.00073
   109    C    8  S      Ryd( 4S)     0.00004
   110    C    8  px     Val( 2p)     1.11937
   111    C    8  px     Ryd( 3p)     0.00485
   112    C    8  py     Val( 2p)     1.12375
   113    C    8  py     Ryd( 3p)     0.00452
   114    C    8  pz     Val( 2p)     1.08769
   115    C    8  pz     Ryd( 3p)     0.00569
   116    C    8  dxy    Ryd( 3d)     0.00076
   117    C    8  dxz    Ryd( 3d)     0.00056
   118    C    8  dyz    Ryd( 3d)     0.00048
   119    C    8  dx2y2  Ryd( 3d)     0.00059
   120    C    8  dz2    Ryd( 3d)     0.00046

   121    C    9  S      Cor( 1S)     1.99914
   122    C    9  S      Val( 2S)     0.96266
   123    C    9  S      Ryd( 3S)     0.00060
   124    C    9  S      Ryd( 4S)     0.00004
   125    C    9  px     Val( 2p)     1.06798
   126    C    9  px     Ryd( 3p)     0.00515
   127    C    9  py     Val( 2p)     1.16432
   128    C    9  py     Ryd( 3p)     0.00482
   129    C    9  pz     Val( 2p)     1.03656
   130    C    9  pz     Ryd( 3p)     0.00443
   131    C    9  dxy    Ryd( 3d)     0.00073
   132    C    9  dxz    Ryd( 3d)     0.00069
   133    C    9  dyz    Ryd( 3d)     0.00043
   134    C    9  dx2y2  Ryd( 3d)     0.00073
   135    C    9  dz2    Ryd( 3d)     0.00043

   136    C   10  S      Cor( 1S)     1.99907
   137    C   10  S      Val( 2S)     0.96463
   138    C   10  S      Ryd( 3S)     0.00058
   139    C   10  S      Ryd( 4S)     0.00004
   140    C   10  px     Val( 2p)     1.20046
   141    C   10  px     Ryd( 3p)     0.00509
   142    C   10  py     Val( 2p)     1.04793
   143    C   10  py     Ryd( 3p)     0.00457
   144    C   10  pz     Val( 2p)     0.93539
   145    C   10  pz     Ryd( 3p)     0.00296
   146    C   10  dxy    Ryd( 3d)     0.00062
   147    C   10  dxz    Ryd( 3d)     0.00036
   148    C   10  dyz    Ryd( 3d)     0.00087
   149    C   10  dx2y2  Ryd( 3d)     0.00088
   150    C   10  dz2    Ryd( 3d)     0.00052

   151    C   11  S      Cor( 1S)     1.99889
   152    C   11  S      Val( 2S)     0.90528
   153    C   11  S      Ryd( 3S)     0.00096
   154    C   11  S      Ryd( 4S)     0.00007
   155    C   11  px     Val( 2p)     1.08327
   156    C   11  px     Ryd( 3p)     0.00504
   157    C   11  py     Val( 2p)     1.08957
   158    C   11  py     Ryd( 3p)     0.00478
   159    C   11  pz     Val( 2p)     1.11040
   160    C   11  pz     Ryd( 3p)     0.00398
   161    C   11  dxy    Ryd( 3d)     0.00089
   162    C   11  dxz    Ryd( 3d)     0.00066
   163    C   11  dyz    Ryd( 3d)     0.00061
   164    C   11  dx2y2  Ryd( 3d)     0.00061
   165    C   11  dz2    Ryd( 3d)     0.00051

   166    C   12  S      Cor( 1S)     1.99899
   167    C   12  S      Val( 2S)     0.95753
   168    C   12  S      Ryd( 3S)     0.00077
   169    C   12  S      Ryd( 4S)     0.00005
   170    C   12  px     Val( 2p)     1.07361
   171    C   12  px     Ryd( 3p)     0.00414
   172    C   12  py     Val( 2p)     1.17843
   173    C   12  py     Ryd( 3p)     0.00472
   174    C   12  pz     Val( 2p)     1.03219
   175    C   12  pz     Ryd( 3p)     0.00559
   176    C   12  dxy    Ryd( 3d)     0.00072
   177    C   12  dxz    Ryd( 3d)     0.00070
   178    C   12  dyz    Ryd( 3d)     0.00050
   179    C   12  dx2y2  Ryd( 3d)     0.00060
   180    C   12  dz2    Ryd( 3d)     0.00046

   181    C   13  S      Cor( 1S)     1.99907
   182    C   13  S      Val( 2S)     0.79435
   183    C   13  S      Ryd( 3S)     0.00504
   184    C   13  S      Ryd( 4S)     0.00030
   185    C   13  px     Val( 2p)     0.66768
   186    C   13  px     Ryd( 3p)     0.01680
   187    C   13  py     Val( 2p)     0.75363
   188    C   13  py     Ryd( 3p)     0.01532
   189    C   13  pz     Val( 2p)     0.60929
   190    C   13  pz     Ryd( 3p)     0.01614
   191    C   13  dxy    Ryd( 3d)     0.00295
   192    C   13  dxz    Ryd( 3d)     0.00347
   193    C   13  dyz    Ryd( 3d)     0.00397
   194    C   13  dx2y2  Ryd( 3d)     0.00321
   195    C   13  dz2    Ryd( 3d)     0.00379

   196    F   14  S      Cor( 1S)     1.99993
   197    F   14  S      Val( 2S)     1.84134
   198    F   14  S      Ryd( 3S)     0.00078
   199    F   14  S      Ryd( 4S)     0.00004
   200    F   14  px     Val( 2p)     1.66085
   201    F   14  px     Ryd( 3p)     0.00022
   202    F   14  py     Val( 2p)     1.92952
   203    F   14  py     Ryd( 3p)     0.00029
   204    F   14  pz     Val( 2p)     1.93158
   205    F   14  pz     Ryd( 3p)     0.00025
   206    F   14  dxy    Ryd( 3d)     0.00134
   207    F   14  dxz    Ryd( 3d)     0.00136
   208    F   14  dyz    Ryd( 3d)     0.00014
   209    F   14  dx2y2  Ryd( 3d)     0.00113
   210    F   14  dz2    Ryd( 3d)     0.00042

   211    F   15  S      Cor( 1S)     1.99993
   212    F   15  S      Val( 2S)     1.84512
   213    F   15  S      Ryd( 3S)     0.00100
   214    F   15  S      Ryd( 4S)     0.00004
   215    F   15  px     Val( 2p)     1.92654
   216    F   15  px     Ryd( 3p)     0.00028
   217    F   15  py     Val( 2p)     1.76816
   218    F   15  py     Ryd( 3p)     0.00040
   219    F   15  pz     Val( 2p)     1.82170
   220    F   15  pz     Ryd( 3p)     0.00016
   221    F   15  dxy    Ryd( 3d)     0.00093
   222    F   15  dxz    Ryd( 3d)     0.00059
   223    F   15  dyz    Ryd( 3d)     0.00114
   224    F   15  dx2y2  Ryd( 3d)     0.00077
   225    F   15  dz2    Ryd( 3d)     0.00099

   226    F   16  S      Cor( 1S)     1.99993
   227    F   16  S      Val( 2S)     1.84659
   228    F   16  S      Ryd( 3S)     0.00102
   229    F   16  S      Ryd( 4S)     0.00004
   230    F   16  px     Val( 2p)     1.93171
   231    F   16  px     Ryd( 3p)     0.00027
   232    F   16  py     Val( 2p)     1.90472
   233    F   16  py     Ryd( 3p)     0.00037
   234    F   16  pz     Val( 2p)     1.68271
   235    F   16  pz     Ryd( 3p)     0.00020
   236    F   16  dxy    Ryd( 3d)     0.00026
   237    F   16  dxz    Ryd( 3d)     0.00122
   238    F   16  dyz    Ryd( 3d)     0.00120
   239    F   16  dx2y2  Ryd( 3d)     0.00023
   240    F   16  dz2    Ryd( 3d)     0.00144

   241    C   17  S      Cor( 1S)     1.99934
   242    C   17  S      Val( 2S)     1.02255
   243    C   17  S      Ryd( 3S)     0.00127
   244    C   17  S      Ryd( 4S)     0.00003
   245    C   17  px     Val( 2p)     1.10828
   246    C   17  px     Ryd( 3p)     0.00461
   247    C   17  py     Val( 2p)     0.95464
   248    C   17  py     Ryd( 3p)     0.00269
   249    C   17  pz     Val( 2p)     1.15759
   250    C   17  pz     Ryd( 3p)     0.00209
   251    C   17  dxy    Ryd( 3d)     0.00128
   252    C   17  dxz    Ryd( 3d)     0.00069
   253    C   17  dyz    Ryd( 3d)     0.00086
   254    C   17  dx2y2  Ryd( 3d)     0.00082
   255    C   17  dz2    Ryd( 3d)     0.00120

   256    C   18  S      Cor( 1S)     1.99944
   257    C   18  S      Val( 2S)     1.11198
   258    C   18  S      Ryd( 3S)     0.00041
   259    C   18  S      Ryd( 4S)     0.00001
   260    C   18  px     Val( 2p)     1.25955
   261    C   18  px     Ryd( 3p)     0.00134
   262    C   18  py     Val( 2p)     1.12675
   263    C   18  py     Ryd( 3p)     0.00125
   264    C   18  pz     Val( 2p)     1.18267
   265    C   18  pz     Ryd( 3p)     0.00131
   266    C   18  dxy    Ryd( 3d)     0.00078
   267    C   18  dxz    Ryd( 3d)     0.00049
   268    C   18  dyz    Ryd( 3d)     0.00064
   269    C   18  dx2y2  Ryd( 3d)     0.00050
   270    C   18  dz2    Ryd( 3d)     0.00079

   271    H   19  S      Val( 1S)     0.75730
   272    H   19  S      Ryd( 2S)     0.00083

   273    H   20  S      Val( 1S)     0.76948
   274    H   20  S      Ryd( 2S)     0.00094

   275    H   21  S      Val( 1S)     0.75545
   276    H   21  S      Ryd( 2S)     0.00120

   277    H   22  S      Val( 1S)     0.76156
   278    H   22  S      Ryd( 2S)     0.00142

   279    H   23  S      Val( 1S)     0.73999
   280    H   23  S      Ryd( 2S)     0.00152

   281    H   24  S      Val( 1S)     0.76244
   282    H   24  S      Ryd( 2S)     0.00115

   283    H   25  S      Val( 1S)     0.76403
   284    H   25  S      Ryd( 2S)     0.00078

   285    H   26  S      Val( 1S)     0.75279
   286    H   26  S      Ryd( 2S)     0.00147

   287    H   27  S      Val( 1S)     0.74036
   288    H   27  S      Ryd( 2S)     0.00178

   289    H   28  S      Val( 1S)     0.76520
   290    H   28  S      Ryd( 2S)     0.00126

   291    H   29  S      Val( 1S)     0.73544
   292    H   29  S      Ryd( 2S)     0.00195

   293    H   30  S      Val( 1S)     0.77267
   294    H   30  S      Ryd( 2S)     0.00095

   295    H   31  S      Val( 1S)     0.75675
   296    H   31  S      Ryd( 2S)     0.00076

   297    H   32  S      Val( 1S)     0.74917
   298    H   32  S      Ryd( 2S)     0.00124

 WARNING:  1 low occupancy (<1.9990e) core orbital  found on  C    7
           1 low occupancy (<1.9990e) core orbital  found on  C   11
           1 low occupancy (<1.9990e) core orbital  found on  C   12


 Summary of Natural Population Analysis:                  
                                                          
                                       Natural Population 
                Natural  -----------------------------------------------
    Atom  No    Charge         Core      Valence    Rydberg      Total
 -----------------------------------------------------------------------
      C    1   -0.68707      1.99944     4.68010    0.00753     6.68707
      C    2   -0.26256      1.99934     4.24804    0.01518     6.26256
      N    3   -0.44257      1.99930     5.43017    0.01310     7.44257
      C    4    0.93409      1.99936     3.02137    0.04517     5.06591
      O    5   -0.62168      1.99978     6.60254    0.01937     8.62168
      O    6   -0.50703      1.99969     6.49681    0.01053     8.50703
      C    7    0.32497      1.99874     3.65323    0.02306     5.67503
      C    8   -0.31130      1.99905     4.29356    0.01870     6.31130
      C    9   -0.24872      1.99914     4.23153    0.01805     6.24872
      C   10   -0.16398      1.99907     4.14841    0.01650     6.16398
      C   11   -0.20552      1.99889     4.18851    0.01811     6.20552
      C   12   -0.25899      1.99899     4.24176    0.01824     6.25899
      C   13    1.10499      1.99907     2.82495    0.07100     4.89501
      F   14   -0.36918      1.99993     7.36329    0.00597     9.36918
      F   15   -0.36776      1.99993     7.36152    0.00630     9.36776
      F   16   -0.37192      1.99993     7.36574    0.00625     9.37192
      C   17   -0.25795      1.99934     4.24306    0.01555     6.25795
      C   18   -0.68792      1.99944     4.68095    0.00753     6.68792
      H   19    0.24187      0.00000     0.75730    0.00083     0.75813
      H   20    0.22958      0.00000     0.76948    0.00094     0.77042
      H   21    0.24335      0.00000     0.75545    0.00120     0.75665
      H   22    0.23702      0.00000     0.76156    0.00142     0.76298
      H   23    0.25849      0.00000     0.73999    0.00152     0.74151
      H   24    0.23641      0.00000     0.76244    0.00115     0.76359
      H   25    0.23519      0.00000     0.76403    0.00078     0.76481
      H   26    0.24574      0.00000     0.75279    0.00147     0.75426
      H   27    0.25786      0.00000     0.74036    0.00178     0.74214
      H   28    0.23354      0.00000     0.76520    0.00126     0.76646
      H   29    0.26261      0.00000     0.73544    0.00195     0.73739
      H   30    0.22638      0.00000     0.77267    0.00095     0.77362
      H   31    0.24249      0.00000     0.75675    0.00076     0.75751
      H   32    0.24959      0.00000     0.74917    0.00124     0.75041
 =======================================================================
   * Total *   -0.00000     35.98844    99.65819    0.35338   136.00000

                                 Natural Population      
 --------------------------------------------------------
   Core                      35.98844 ( 99.9679% of  36)
   Valence                   99.65819 ( 99.6582% of 100)
   Natural Minimal Basis    135.64662 ( 99.7402% of 136)
   Natural Rydberg Basis      0.35338 (  0.2598% of 136)
 --------------------------------------------------------

    Atom  No          Natural Electron Configuration
 ----------------------------------------------------------------------------
      C    1      [core]2S( 1.11)2p( 3.57)
      C    2      [core]2S( 1.02)2p( 3.23)3p( 0.01)
      N    3      [core]2S( 1.22)2p( 4.21)3p( 0.01)
      C    4      [core]2S( 0.70)2p( 2.32)3p( 0.03)3d( 0.01)
      O    5      [core]2S( 1.70)2p( 4.90)3d( 0.02)
      O    6      [core]2S( 1.60)2p( 4.90)3d( 0.01)
      C    7      [core]2S( 0.84)2p( 2.81)3p( 0.02)3d( 0.01)
      C    8      [core]2S( 0.96)2p( 3.33)3p( 0.02)
      C    9      [core]2S( 0.96)2p( 3.27)3p( 0.01)
      C   10      [core]2S( 0.96)2p( 3.18)3p( 0.01)
      C   11      [core]2S( 0.91)2p( 3.28)3p( 0.01)
      C   12      [core]2S( 0.96)2p( 3.28)3p( 0.01)
      C   13      [core]2S( 0.79)2p( 2.03)3S( 0.01)3p( 0.05)3d( 0.02)
      F   14      [core]2S( 1.84)2p( 5.52)
      F   15      [core]2S( 1.85)2p( 5.52)
      F   16      [core]2S( 1.85)2p( 5.52)
      C   17      [core]2S( 1.02)2p( 3.22)3p( 0.01)
      C   18      [core]2S( 1.11)2p( 3.57)
      H   19            1S( 0.76)
      H   20            1S( 0.77)
      H   21            1S( 0.76)
      H   22            1S( 0.76)
      H   23            1S( 0.74)
      H   24            1S( 0.76)
      H   25            1S( 0.76)
      H   26            1S( 0.75)
      H   27            1S( 0.74)
      H   28            1S( 0.77)
      H   29            1S( 0.74)
      H   30            1S( 0.77)
      H   31            1S( 0.76)
      H   32            1S( 0.75)


 NBO analysis skipped by request.
 Leave Link  607 at Thu Sep 30 11:44:31 2021, MaxMem= 1342177280 cpu:      21.3
 (Enter /sw/target/amd/app/gaussian/Gaussian09RevA.02_gcc-4.9.2/g09/l9999.exe)
 1\1\GINC-HERMITE\SP\RTD-B3LYP-FC\6-31G(d)\C12H14F3N1O2\JSCHLEINITZ\30-
 Sep-2021\0\\#p TD(NStates=10, Root=1) b3lyp/6-31G* volume pop=NPA dens
 ity=current Geom=AllCheck Guess=Read\\CCN(C(=O)Oc1cccc(c1)C(F)(F)F)CC_
 conf_0\\0,1\C,0,3.5338683951,-0.0719809671,2.3285520297\C,0,3.42091409
 63,-0.0059419541,0.8021271479\N,0,3.0565818972,-1.2776935854,0.1638844
 913\C,0,1.7722462331,-1.7141215012,0.0551292268\O,0,1.4228836995,-2.76
 98731333,-0.4376775146\O,0,0.8941705151,-0.7773570942,0.5780226264\C,0
 ,-0.4706742557,-1.0268196094,0.5816314562\C,0,-1.2891852523,0.05247739
 13,0.2433930741\C,0,-2.6735133809,-0.0856911406,0.3090494285\C,0,-3.24
 30335244,-1.2963539109,0.7054449594\C,0,-2.4108143312,-2.3654360349,1.
 0388268662\C,0,-1.0193649393,-2.2417292396,0.9851123417\C,0,-2.9864296
 843,-3.6835213694,1.4852115235\F,0,-4.33676186,-3.6895588501,1.4581432
 423\F,0,-2.5624798793,-4.7026777439,0.7053027121\F,0,-2.6097450031,-3.
 9840447747,2.7512438067\C,0,4.1015027279,-2.1894316306,-0.3244959374\C
 ,0,4.4744399191,-3.3008156075,0.6606862342\H,0,3.8005685596,0.91386093
 29,2.7273251346\H,0,4.3026303107,-0.7843611082,2.6452167228\H,0,2.5798
 696352,-0.3719179258,2.7725412756\H,0,4.3771052173,0.3026009022,0.3662
 304085\H,0,2.6810289666,0.7456773876,0.518467263\H,0,-0.8282679238,0.9
 857543363,-0.0640707828\H,0,-3.3112053174,0.7535982319,0.047686587\H,0
 ,-4.3195286357,-1.4111727721,0.7549801435\H,0,-0.3798734483,-3.0780960
 316,1.2336836505\H,0,4.9763922078,-1.5756436157,-0.5624332265\H,0,3.74
 28377827,-2.6340089054,-1.2564885367\H,0,4.8707552604,-2.896754081,1.5
 982510827\H,0,5.2404631883,-3.9494394345,0.2199628135\H,0,3.5977263932
 ,-3.9148179978,0.8857084599\\Version=AM64L-G09RevA.02\State=1-A\HF=-97
 0.4628634\RMSD=6.760e-09\Dipole=2.4367973,1.5685933,-0.0161503\Quadrup
 ole=9.391519,-3.415484,-5.9760349,-1.6923513,1.1388172,-0.7810418\PG=C
 01 [X(C12H14F3N1O2)]\\@


 ALMOST ANYTHING IS EASIER TO GET INTO THAN OUT OF.

                         -- AGNES ALLEN'S LAW FROM
                PAUL DICKSON'S "THE OFFICIAL RULES"
 Job cpu time:  0 days  5 hours  0 minutes 33.0 seconds.
 File lengths (MBytes):  RWF=    307 Int=      0 D2E=      0 Chk=     41 Scr=      1
 Normal termination of Gaussian 09 at Thu Sep 30 11:44:38 2021.
