 Entering Gaussian System, Link 0=g09
 Input=C12H19LiOSi_3a63_conf_0.com
 Output=C12H19LiOSi_3a63_conf_0.log
 Initial command:
 /sw/target/amd/app/gaussian/Gaussian09RevA.02_gcc-4.9.2/g09/l1.exe /home/jschleinitz/gaussian/Gau-4112866.inp -scrdir=/home/jschleinitz/gaussian/
 Entering Link 1 = /sw/target/amd/app/gaussian/Gaussian09RevA.02_gcc-4.9.2/g09/l1.exe PID=   4112872.
  
 Copyright (c) 1988,1990,1992,1993,1995,1998,2003,2009, Gaussian, Inc.
                  All Rights Reserved.
  
 This is part of the Gaussian(R) 09 program.  It is based on
 the Gaussian(R) 03 system (copyright 2003, Gaussian, Inc.),
 the Gaussian(R) 98 system (copyright 1998, Gaussian, Inc.),
 the Gaussian(R) 94 system (copyright 1995, Gaussian, Inc.),
 the Gaussian 92(TM) system (copyright 1992, Gaussian, Inc.),
 the Gaussian 90(TM) system (copyright 1990, Gaussian, Inc.),
 the Gaussian 88(TM) system (copyright 1988, Gaussian, Inc.),
 the Gaussian 86(TM) system (copyright 1986, Carnegie Mellon
 University), and the Gaussian 82(TM) system (copyright 1983,
 Carnegie Mellon University). Gaussian is a federally registered
 trademark of Gaussian, Inc.
  
 This software contains proprietary and confidential information,
 including trade secrets, belonging to Gaussian, Inc.
  
 This software is provided under written license and may be
 used, copied, transmitted, or stored only in accord with that
 written license.
  
 The following legend is applicable only to US Government
 contracts under FAR:
  
                    RESTRICTED RIGHTS LEGEND
  
 Use, reproduction and disclosure by the US Government is
 subject to restrictions as set forth in subparagraphs (a)
 and (c) of the Commercial Computer Software - Restricted
 Rights clause in FAR 52.227-19.
  
 Gaussian, Inc.
 340 Quinnipiac St., Bldg. 40, Wallingford CT 06492
  
  
 ---------------------------------------------------------------
 Warning -- This program may not be used in any manner that
 competes with the business of Gaussian, Inc. or will provide
 assistance to any competitor of Gaussian, Inc.  The licensee
 of this program is prohibited from giving any competitor of
 Gaussian, Inc. access to this program.  By using this program,
 the user acknowledges that Gaussian, Inc. is engaged in the
 business of creating and licensing software in the field of
 computational chemistry and represents and warrants to the
 licensee that it is not a competitor of Gaussian, Inc. and that
 it will not use this program in any manner prohibited above.
 ---------------------------------------------------------------
  

 Cite this work as:
 Gaussian 09, Revision A.02,
 M. J. Frisch, G. W. Trucks, H. B. Schlegel, G. E. Scuseria, 
 M. A. Robb, J. R. Cheeseman, G. Scalmani, V. Barone, B. Mennucci, 
 G. A. Petersson, H. Nakatsuji, M. Caricato, X. Li, H. P. Hratchian, 
 A. F. Izmaylov, J. Bloino, G. Zheng, J. L. Sonnenberg, M. Hada, 
 M. Ehara, K. Toyota, R. Fukuda, J. Hasegawa, M. Ishida, T. Nakajima, 
 Y. Honda, O. Kitao, H. Nakai, T. Vreven, J. A. Montgomery, Jr., 
 J. E. Peralta, F. Ogliaro, M. Bearpark, J. J. Heyd, E. Brothers, 
 K. N. Kudin, V. N. Staroverov, R. Kobayashi, J. Normand, 
 K. Raghavachari, A. Rendell, J. C. Burant, S. S. Iyengar, J. Tomasi, 
 M. Cossi, N. Rega, J. M. Millam, M. Klene, J. E. Knox, J. B. Cross, 
 V. Bakken, C. Adamo, J. Jaramillo, R. Gomperts, R. E. Stratmann, 
 O. Yazyev, A. J. Austin, R. Cammi, C. Pomelli, J. W. Ochterski, 
 R. L. Martin, K. Morokuma, V. G. Zakrzewski, G. A. Voth, 
 P. Salvador, J. J. Dannenberg, S. Dapprich, A. D. Daniels, 
 O. Farkas, J. B. Foresman, J. V. Ortiz, J. Cioslowski, 
 and D. J. Fox, Gaussian, Inc., Wallingford CT, 2009.
 
 ******************************************
 Gaussian 09:  AM64L-G09RevA.02 11-Jun-2009
                 2-Oct-2021 
 ******************************************
 %nproc=5
 Will use up to    5 processors via shared memory.
 %mem=10gb
 %chk=C12H19LiOSi_3a63_conf_0.chk
 -----------------------------------
 #p opt b3lyp/6-31G* scf=(xqc,tight)
 -----------------------------------
 1/14=-1,18=20,19=15,26=3,38=1/1,3;
 2/9=110,12=2,17=6,18=5,40=1/2;
 3/5=1,6=6,7=1,11=2,16=1,25=1,30=1,71=1,74=-5/1,2,3;
 4//1;
 5/5=2,8=3,13=1,32=2,38=5/2,8;
 6/7=2,8=2,9=2,10=2,28=1/1;
 7//1,2,3,16;
 1/14=-1,18=20,19=15/3(2);
 2/9=110/2;
 99//99;
 2/9=110/2;
 3/5=1,6=6,7=1,11=2,16=1,25=1,30=1,71=1,74=-5/1,2,3;
 4/5=5,16=3/1;
 5/5=2,8=3,13=1,32=2,38=5/2,8;
 7//1,2,3,16;
 1/14=-1,18=20,19=15/3(-5);
 2/9=110/2;
 6/7=2,8=2,9=2,10=2,19=2,28=1/1;
 99/9=1/99;
 Leave Link    1 at Sat Oct  2 19:21:02 2021, MaxMem= 1342177280 cpu:       0.1
 (Enter /sw/target/amd/app/gaussian/Gaussian09RevA.02_gcc-4.9.2/g09/l101.exe)
 ----------------------------------------
 [Li]c1cccc(c1)O[Si](C(C)(C)C)(C)C_conf_0
 ----------------------------------------
 Symbolic Z-matrix:
 Charge =  0 Multiplicity = 1
 Li                    7.29544   2.32676  -1.28291 
 C                     6.75715   0.43298  -1.74987 
 C                     6.9135   -0.02827  -3.05691 
 C                     6.54286  -1.33408  -3.38397 
 C                     6.01535  -2.18042  -2.40367 
 C                     5.85179  -1.72378  -1.07821 
 C                     6.22992  -0.4092   -0.76714 
 O                     5.34194  -2.48923  -0.07759 
 Si                    4.7805   -4.10493  -0.12144 
 C                     4.18139  -4.56797   1.62691 
 C                     3.04438  -3.61906   2.04437 
 C                     3.66821  -6.01883   1.63927 
 C                     5.34784  -4.42899   2.62064 
 C                     3.35004  -4.25782  -1.32718 
 C                     6.16782  -5.26224  -0.63049 
 H                     7.32155   0.62751  -3.81462 
 H                     6.66464  -1.69136  -4.39839 
 H                     5.74205  -3.17886  -2.69809 
 H                     6.1143   -0.03532   0.24185 
 H                     2.17975  -3.70642   1.35324 
 H                     3.39158  -2.56338   2.04283 
 H                     2.68764  -3.86535   3.06795 
 H                     2.8188   -6.14543   0.93541 
 H                     3.31494  -6.29836   2.65525 
 H                     4.47346  -6.72695   1.35092 
 H                     5.73537  -3.38749   2.63022 
 H                     6.1812   -5.1125    2.35383 
 H                     5.01454  -4.68414   3.65008 
 H                     2.53355  -3.57172  -1.0247 
 H                     2.97458  -5.30054  -1.32832 
 H                     3.66832  -3.99794  -2.35437 
 H                     7.0096   -5.17282   0.08531 
 H                     6.5364   -5.01635  -1.64432 
 H                     5.79696  -6.3068   -0.6344 
 
 NAtoms=     34 NQM=     34 NQMF=      0 NMic=      0 NMicF=      0 NTot=     34.
                    Isotopes and Nuclear Properties:
 (Nuclear quadrupole moments (NQMom) in fm**2, nuclear magnetic moments (NMagM)
  in nuclear magnetons)

  Atom         1           2           3           4           5           6           7           8           9          10
 IAtWgt=           7          12          12          12          12          12          12          16          28          12
 AtmWgt=   7.0160045  12.0000000  12.0000000  12.0000000  12.0000000  12.0000000  12.0000000  15.9949146  27.9769284  12.0000000
 NucSpn=           3           0           0           0           0           0           0           0           0           0
 AtZEff=   0.0000000   0.0000000   0.0000000   0.0000000   0.0000000   0.0000000   0.0000000   0.0000000   0.0000000   0.0000000
 NQMom=   -4.0100000   0.0000000   0.0000000   0.0000000   0.0000000   0.0000000   0.0000000   0.0000000   0.0000000   0.0000000
 NMagM=    3.2564240   0.0000000   0.0000000   0.0000000   0.0000000   0.0000000   0.0000000   0.0000000   0.0000000   0.0000000

  Atom        11          12          13          14          15          16          17          18          19          20
 IAtWgt=          12          12          12          12          12           1           1           1           1           1
 AtmWgt=  12.0000000  12.0000000  12.0000000  12.0000000  12.0000000   1.0078250   1.0078250   1.0078250   1.0078250   1.0078250
 NucSpn=           0           0           0           0           0           1           1           1           1           1
 AtZEff=   0.0000000   0.0000000   0.0000000   0.0000000   0.0000000   0.0000000   0.0000000   0.0000000   0.0000000   0.0000000
 NQMom=    0.0000000   0.0000000   0.0000000   0.0000000   0.0000000   0.0000000   0.0000000   0.0000000   0.0000000   0.0000000
 NMagM=    0.0000000   0.0000000   0.0000000   0.0000000   0.0000000   2.7928460   2.7928460   2.7928460   2.7928460   2.7928460

  Atom        21          22          23          24          25          26          27          28          29          30
 IAtWgt=           1           1           1           1           1           1           1           1           1           1
 AtmWgt=   1.0078250   1.0078250   1.0078250   1.0078250   1.0078250   1.0078250   1.0078250   1.0078250   1.0078250   1.0078250
 NucSpn=           1           1           1           1           1           1           1           1           1           1
 AtZEff=   0.0000000   0.0000000   0.0000000   0.0000000   0.0000000   0.0000000   0.0000000   0.0000000   0.0000000   0.0000000
 NQMom=    0.0000000   0.0000000   0.0000000   0.0000000   0.0000000   0.0000000   0.0000000   0.0000000   0.0000000   0.0000000
 NMagM=    2.7928460   2.7928460   2.7928460   2.7928460   2.7928460   2.7928460   2.7928460   2.7928460   2.7928460   2.7928460

  Atom        31          32          33          34
 IAtWgt=           1           1           1           1
 AtmWgt=   1.0078250   1.0078250   1.0078250   1.0078250
 NucSpn=           1           1           1           1
 AtZEff=   0.0000000   0.0000000   0.0000000   0.0000000
 NQMom=    0.0000000   0.0000000   0.0000000   0.0000000
 NMagM=    2.7928460   2.7928460   2.7928460   2.7928460
 Leave Link  101 at Sat Oct  2 19:21:04 2021, MaxMem= 1342177280 cpu:       0.2
 (Enter /sw/target/amd/app/gaussian/Gaussian09RevA.02_gcc-4.9.2/g09/l103.exe)

 GradGradGradGradGradGradGradGradGradGradGradGradGradGradGradGradGradGrad
 Berny optimization.
 Initialization pass.
                           ----------------------------
                           !    Initial Parameters    !
                           ! (Angstroms and Degrees)  !
 --------------------------                            --------------------------
 ! Name  Definition              Value          Derivative Info.                !
 --------------------------------------------------------------------------------
 ! R1    R(1,2)                  2.0234         estimate D2E/DX2                !
 ! R2    R(2,3)                  1.3948         estimate D2E/DX2                !
 ! R3    R(2,7)                  1.3975         estimate D2E/DX2                !
 ! R4    R(3,4)                  1.3962         estimate D2E/DX2                !
 ! R5    R(3,16)                 1.082          estimate D2E/DX2                !
 ! R6    R(4,5)                  1.3984         estimate D2E/DX2                !
 ! R7    R(4,17)                 1.0824         estimate D2E/DX2                !
 ! R8    R(5,6)                  1.4114         estimate D2E/DX2                !
 ! R9    R(5,18)                 1.0762         estimate D2E/DX2                !
 ! R10   R(6,7)                  1.4028         estimate D2E/DX2                !
 ! R11   R(6,8)                  1.3591         estimate D2E/DX2                !
 ! R12   R(7,19)                 1.0822         estimate D2E/DX2                !
 ! R13   R(8,9)                  1.711          estimate D2E/DX2                !
 ! R14   R(9,10)                 1.9053         estimate D2E/DX2                !
 ! R15   R(9,14)                 1.8771         estimate D2E/DX2                !
 ! R16   R(9,15)                 1.877          estimate D2E/DX2                !
 ! R17   R(10,11)                1.5387         estimate D2E/DX2                !
 ! R18   R(10,12)                1.539          estimate D2E/DX2                !
 ! R19   R(10,13)                1.5386         estimate D2E/DX2                !
 ! R20   R(11,20)                1.1104         estimate D2E/DX2                !
 ! R21   R(11,21)                1.1113         estimate D2E/DX2                !
 ! R22   R(11,22)                1.1116         estimate D2E/DX2                !
 ! R23   R(12,23)                1.1104         estimate D2E/DX2                !
 ! R24   R(12,24)                1.1114         estimate D2E/DX2                !
 ! R25   R(12,25)                1.1104         estimate D2E/DX2                !
 ! R26   R(13,26)                1.1113         estimate D2E/DX2                !
 ! R27   R(13,27)                1.1103         estimate D2E/DX2                !
 ! R28   R(13,28)                1.1117         estimate D2E/DX2                !
 ! R29   R(14,29)                1.1085         estimate D2E/DX2                !
 ! R30   R(14,30)                1.1083         estimate D2E/DX2                !
 ! R31   R(14,31)                1.1063         estimate D2E/DX2                !
 ! R32   R(15,32)                1.1086         estimate D2E/DX2                !
 ! R33   R(15,33)                1.1064         estimate D2E/DX2                !
 ! R34   R(15,34)                1.1085         estimate D2E/DX2                !
 ! A1    A(1,2,3)              119.7308         estimate D2E/DX2                !
 ! A2    A(1,2,7)              120.1396         estimate D2E/DX2                !
 ! A3    A(3,2,7)              120.1296         estimate D2E/DX2                !
 ! A4    A(2,3,4)              119.9345         estimate D2E/DX2                !
 ! A5    A(2,3,16)             119.8729         estimate D2E/DX2                !
 ! A6    A(4,3,16)             120.1926         estimate D2E/DX2                !
 ! A7    A(3,4,5)              120.1288         estimate D2E/DX2                !
 ! A8    A(3,4,17)             119.893          estimate D2E/DX2                !
 ! A9    A(5,4,17)             119.9782         estimate D2E/DX2                !
 ! A10   A(4,5,6)              120.4127         estimate D2E/DX2                !
 ! A11   A(4,5,18)             117.7419         estimate D2E/DX2                !
 ! A12   A(6,5,18)             121.8454         estimate D2E/DX2                !
 ! A13   A(5,6,7)              118.6976         estimate D2E/DX2                !
 ! A14   A(5,6,8)              123.55           estimate D2E/DX2                !
 ! A15   A(7,6,8)              117.7522         estimate D2E/DX2                !
 ! A16   A(2,7,6)              120.6967         estimate D2E/DX2                !
 ! A17   A(2,7,19)             119.1917         estimate D2E/DX2                !
 ! A18   A(6,7,19)             120.1115         estimate D2E/DX2                !
 ! A19   A(6,8,9)              129.4986         estimate D2E/DX2                !
 ! A20   A(8,9,10)             108.0082         estimate D2E/DX2                !
 ! A21   A(8,9,14)             110.0858         estimate D2E/DX2                !
 ! A22   A(8,9,15)             110.2822         estimate D2E/DX2                !
 ! A23   A(10,9,14)            109.2701         estimate D2E/DX2                !
 ! A24   A(10,9,15)            109.3558         estimate D2E/DX2                !
 ! A25   A(14,9,15)            109.8056         estimate D2E/DX2                !
 ! A26   A(9,10,11)            109.3569         estimate D2E/DX2                !
 ! A27   A(9,10,12)            109.9582         estimate D2E/DX2                !
 ! A28   A(9,10,13)            109.4094         estimate D2E/DX2                !
 ! A29   A(11,10,12)           109.4396         estimate D2E/DX2                !
 ! A30   A(11,10,13)           109.2245         estimate D2E/DX2                !
 ! A31   A(12,10,13)           109.4364         estimate D2E/DX2                !
 ! A32   A(10,11,20)           110.9784         estimate D2E/DX2                !
 ! A33   A(10,11,21)           110.7689         estimate D2E/DX2                !
 ! A34   A(10,11,22)           110.5085         estimate D2E/DX2                !
 ! A35   A(20,11,21)           108.4912         estimate D2E/DX2                !
 ! A36   A(20,11,22)           107.8076         estimate D2E/DX2                !
 ! A37   A(21,11,22)           108.1811         estimate D2E/DX2                !
 ! A38   A(10,12,23)           110.945          estimate D2E/DX2                !
 ! A39   A(10,12,24)           110.5148         estimate D2E/DX2                !
 ! A40   A(10,12,25)           110.9344         estimate D2E/DX2                !
 ! A41   A(23,12,24)           107.9171         estimate D2E/DX2                !
 ! A42   A(23,12,25)           108.5072         estimate D2E/DX2                !
 ! A43   A(24,12,25)           107.9094         estimate D2E/DX2                !
 ! A44   A(10,13,26)           110.7681         estimate D2E/DX2                !
 ! A45   A(10,13,27)           110.9891         estimate D2E/DX2                !
 ! A46   A(10,13,28)           110.489          estimate D2E/DX2                !
 ! A47   A(26,13,27)           108.4978         estimate D2E/DX2                !
 ! A48   A(26,13,28)           108.1591         estimate D2E/DX2                !
 ! A49   A(27,13,28)           107.8328         estimate D2E/DX2                !
 ! A50   A(9,14,29)            109.6094         estimate D2E/DX2                !
 ! A51   A(9,14,30)            109.6011         estimate D2E/DX2                !
 ! A52   A(9,14,31)            110.9797         estimate D2E/DX2                !
 ! A53   A(29,14,30)           109.455          estimate D2E/DX2                !
 ! A54   A(29,14,31)           108.654          estimate D2E/DX2                !
 ! A55   A(30,14,31)           108.5131         estimate D2E/DX2                !
 ! A56   A(9,15,32)            109.6569         estimate D2E/DX2                !
 ! A57   A(9,15,33)            110.9589         estimate D2E/DX2                !
 ! A58   A(9,15,34)            109.554          estimate D2E/DX2                !
 ! A59   A(32,15,33)           108.7101         estimate D2E/DX2                !
 ! A60   A(32,15,34)           109.4115         estimate D2E/DX2                !
 ! A61   A(33,15,34)           108.5206         estimate D2E/DX2                !
 ! D1    D(1,2,3,4)           -179.969          estimate D2E/DX2                !
 ! D2    D(1,2,3,16)             0.0102         estimate D2E/DX2                !
 ! D3    D(7,2,3,4)             -0.0178         estimate D2E/DX2                !
 ! D4    D(7,2,3,16)           179.9614         estimate D2E/DX2                !
 ! D5    D(1,2,7,6)            179.9426         estimate D2E/DX2                !
 ! D6    D(1,2,7,19)             0.0101         estimate D2E/DX2                !
 ! D7    D(3,2,7,6)             -0.0084         estimate D2E/DX2                !
 ! D8    D(3,2,7,19)          -179.9408         estimate D2E/DX2                !
 ! D9    D(2,3,4,5)             -0.0075         estimate D2E/DX2                !
 ! D10   D(2,3,4,17)          -179.9885         estimate D2E/DX2                !
 ! D11   D(16,3,4,5)          -179.9866         estimate D2E/DX2                !
 ! D12   D(16,3,4,17)            0.0323         estimate D2E/DX2                !
 ! D13   D(3,4,5,6)              0.0589         estimate D2E/DX2                !
 ! D14   D(3,4,5,18)           179.9674         estimate D2E/DX2                !
 ! D15   D(17,4,5,6)          -179.9601         estimate D2E/DX2                !
 ! D16   D(17,4,5,18)           -0.0516         estimate D2E/DX2                !
 ! D17   D(4,5,6,7)             -0.0837         estimate D2E/DX2                !
 ! D18   D(4,5,6,8)            179.7571         estimate D2E/DX2                !
 ! D19   D(18,5,6,7)          -179.9884         estimate D2E/DX2                !
 ! D20   D(18,5,6,8)            -0.1475         estimate D2E/DX2                !
 ! D21   D(5,6,7,2)              0.0586         estimate D2E/DX2                !
 ! D22   D(5,6,7,19)           179.9904         estimate D2E/DX2                !
 ! D23   D(8,6,7,2)           -179.7915         estimate D2E/DX2                !
 ! D24   D(8,6,7,19)             0.1403         estimate D2E/DX2                !
 ! D25   D(5,6,8,9)             -0.3908         estimate D2E/DX2                !
 ! D26   D(7,6,8,9)            179.4515         estimate D2E/DX2                !
 ! D27   D(6,8,9,10)          -179.4832         estimate D2E/DX2                !
 ! D28   D(6,8,9,14)           -60.25           estimate D2E/DX2                !
 ! D29   D(6,8,9,15)            61.0658         estimate D2E/DX2                !
 ! D30   D(8,9,10,11)           59.9501         estimate D2E/DX2                !
 ! D31   D(8,9,10,12)         -179.8599         estimate D2E/DX2                !
 ! D32   D(8,9,10,13)          -59.6411         estimate D2E/DX2                !
 ! D33   D(14,9,10,11)         -59.7989         estimate D2E/DX2                !
 ! D34   D(14,9,10,12)          60.3911         estimate D2E/DX2                !
 ! D35   D(14,9,10,13)        -179.3901         estimate D2E/DX2                !
 ! D36   D(15,9,10,11)         179.9853         estimate D2E/DX2                !
 ! D37   D(15,9,10,12)         -59.8247         estimate D2E/DX2                !
 ! D38   D(15,9,10,13)          60.3941         estimate D2E/DX2                !
 ! D39   D(8,9,14,29)          -58.2913         estimate D2E/DX2                !
 ! D40   D(8,9,14,30)         -178.4365         estimate D2E/DX2                !
 ! D41   D(8,9,14,31)           61.7264         estimate D2E/DX2                !
 ! D42   D(10,9,14,29)          60.1692         estimate D2E/DX2                !
 ! D43   D(10,9,14,30)         -59.976          estimate D2E/DX2                !
 ! D44   D(10,9,14,31)        -179.8132         estimate D2E/DX2                !
 ! D45   D(15,9,14,29)        -179.8913         estimate D2E/DX2                !
 ! D46   D(15,9,14,30)          59.9635         estimate D2E/DX2                !
 ! D47   D(15,9,14,31)         -59.8737         estimate D2E/DX2                !
 ! D48   D(8,9,15,32)           58.7329         estimate D2E/DX2                !
 ! D49   D(8,9,15,33)          -61.3723         estimate D2E/DX2                !
 ! D50   D(8,9,15,34)          178.8248         estimate D2E/DX2                !
 ! D51   D(10,9,15,32)         -59.8974         estimate D2E/DX2                !
 ! D52   D(10,9,15,33)         179.9974         estimate D2E/DX2                !
 ! D53   D(10,9,15,34)          60.1945         estimate D2E/DX2                !
 ! D54   D(14,9,15,32)        -179.7847         estimate D2E/DX2                !
 ! D55   D(14,9,15,33)          60.1101         estimate D2E/DX2                !
 ! D56   D(14,9,15,34)         -59.6928         estimate D2E/DX2                !
 ! D57   D(9,10,11,20)          61.0907         estimate D2E/DX2                !
 ! D58   D(9,10,11,21)         -59.4861         estimate D2E/DX2                !
 ! D59   D(9,10,11,22)        -179.3635         estimate D2E/DX2                !
 ! D60   D(12,10,11,20)        -59.4164         estimate D2E/DX2                !
 ! D61   D(12,10,11,21)       -179.9933         estimate D2E/DX2                !
 ! D62   D(12,10,11,22)         60.1294         estimate D2E/DX2                !
 ! D63   D(13,10,11,20)       -179.2042         estimate D2E/DX2                !
 ! D64   D(13,10,11,21)         60.2189         estimate D2E/DX2                !
 ! D65   D(13,10,11,22)        -59.6584         estimate D2E/DX2                !
 ! D66   D(9,10,12,23)         -60.2611         estimate D2E/DX2                !
 ! D67   D(9,10,12,24)        -179.9265         estimate D2E/DX2                !
 ! D68   D(9,10,12,25)          60.4247         estimate D2E/DX2                !
 ! D69   D(11,10,12,23)         59.8789         estimate D2E/DX2                !
 ! D70   D(11,10,12,24)        -59.7865         estimate D2E/DX2                !
 ! D71   D(11,10,12,25)       -179.4354         estimate D2E/DX2                !
 ! D72   D(13,10,12,23)        179.5365         estimate D2E/DX2                !
 ! D73   D(13,10,12,24)         59.8711         estimate D2E/DX2                !
 ! D74   D(13,10,12,25)        -59.7777         estimate D2E/DX2                !
 ! D75   D(9,10,13,26)          59.5187         estimate D2E/DX2                !
 ! D76   D(9,10,13,27)         -61.0731         estimate D2E/DX2                !
 ! D77   D(9,10,13,28)         179.3553         estimate D2E/DX2                !
 ! D78   D(11,10,13,26)        -60.154          estimate D2E/DX2                !
 ! D79   D(11,10,13,27)        179.2542         estimate D2E/DX2                !
 ! D80   D(11,10,13,28)         59.6826         estimate D2E/DX2                !
 ! D81   D(12,10,13,26)       -179.9437         estimate D2E/DX2                !
 ! D82   D(12,10,13,27)         59.4644         estimate D2E/DX2                !
 ! D83   D(12,10,13,28)        -60.1072         estimate D2E/DX2                !
 --------------------------------------------------------------------------------
 Trust Radius=3.00D-01 FncErr=1.00D-07 GrdErr=1.00D-06
 Number of steps in this run= 188 maximum allowed number of steps= 204.
 GradGradGradGradGradGradGradGradGradGradGradGradGradGradGradGradGradGrad

 Leave Link  103 at Sat Oct  2 19:21:04 2021, MaxMem= 1342177280 cpu:       0.0
 (Enter /sw/target/amd/app/gaussian/Gaussian09RevA.02_gcc-4.9.2/g09/l202.exe)
                          Input orientation:                          
 ---------------------------------------------------------------------
 Center     Atomic      Atomic             Coordinates (Angstroms)
 Number     Number       Type             X           Y           Z
 ---------------------------------------------------------------------
      1          3           0        7.295436    2.326759   -1.282915
      2          6           0        6.757153    0.432977   -1.749866
      3          6           0        6.913501   -0.028265   -3.056907
      4          6           0        6.542856   -1.334080   -3.383972
      5          6           0        6.015347   -2.180420   -2.403671
      6          6           0        5.851789   -1.723782   -1.078210
      7          6           0        6.229915   -0.409197   -0.767142
      8          8           0        5.341935   -2.489230   -0.077590
      9         14           0        4.780499   -4.104933   -0.121438
     10          6           0        4.181389   -4.567971    1.626910
     11          6           0        3.044382   -3.619056    2.044374
     12          6           0        3.668215   -6.018828    1.639269
     13          6           0        5.347843   -4.428986    2.620639
     14          6           0        3.350042   -4.257816   -1.327182
     15          6           0        6.167825   -5.262239   -0.630486
     16          1           0        7.321550    0.627513   -3.814618
     17          1           0        6.664644   -1.691360   -4.398385
     18          1           0        5.742046   -3.178856   -2.698095
     19          1           0        6.114299   -0.035321    0.241850
     20          1           0        2.179755   -3.706424    1.353235
     21          1           0        3.391577   -2.563375    2.042826
     22          1           0        2.687635   -3.865345    3.067952
     23          1           0        2.818805   -6.145425    0.935406
     24          1           0        3.314938   -6.298358    2.655246
     25          1           0        4.473460   -6.726952    1.350915
     26          1           0        5.735371   -3.387488    2.630220
     27          1           0        6.181201   -5.112498    2.353832
     28          1           0        5.014542   -4.684137    3.650077
     29          1           0        2.533554   -3.571718   -1.024698
     30          1           0        2.974578   -5.300538   -1.328322
     31          1           0        3.668316   -3.997935   -2.354372
     32          1           0        7.009602   -5.172821    0.085313
     33          1           0        6.536399   -5.016351   -1.644316
     34          1           0        5.796957   -6.306801   -0.634404
 ---------------------------------------------------------------------
                    Distance matrix (angstroms):
                    1          2          3          4          5
     1  Li   0.000000
     2  C    2.023414   0.000000
     3  C    2.973056   1.394828   0.000000
     4  C    4.287489   2.416343   1.396245   0.000000
     5  C    4.817612   2.794204   2.421811   1.398409   0.000000
     6  C    4.304986   2.433602   2.813762   2.438438   1.411423
     7  C    2.981075   1.397491   2.419798   2.793051   2.421052
     8  O    5.335047   3.652210   4.171630   3.702532   2.441208
     9  Si   7.002899   5.210716   5.457646   4.629002   3.230663
    10  C    8.105657   6.560995   7.071882   6.414321   5.030843
    11  C    8.030880   6.678315   7.340772   6.850356   5.539080
    12  C    9.557443   7.915401   8.274830   7.446031   6.048783
    13  C    8.041825   6.687761   7.352017   6.860164   5.544844
    14  C    7.676244   5.812969   5.794764   4.792982   3.546584
    15  C    7.700004   5.834021   5.817047   4.811732   3.558798
    16  H    3.049203   2.149323   1.081977   2.153989   3.403149
    17  H    5.123410   3.396472   2.151134   1.082366   2.153986
    18  H    5.893009   3.869744   3.380426   2.124835   1.076222
    19  H    3.049495   2.144644   3.394197   3.875180   3.407348
    20  H    8.337792   6.907710   7.442215   6.863367   5.581648
    21  H    7.086189   5.889800   6.696119   6.394674   5.177080
    22  H    8.860250   7.632032   8.372277   7.930785   6.622031
    23  H    9.835603   8.123832   8.374052   7.461543   6.090040
    24  H   10.283293   8.750127   9.213708   8.457876   7.059905
    25  H    9.842270   8.129863   8.381832   7.468910   6.094693
    26  H    7.099229   5.901284   6.709381   6.406171   5.184155
    27  H    8.355237   6.922741   7.460682   6.879653   5.590923
    28  H    8.870713   7.640741   8.382531   7.939551   6.627071
    29  H    7.585132   5.865342   5.989146   5.162141   3.995017
    30  H    8.766272   6.881770   6.804409   5.717612   4.487514
    31  H    7.369245   5.435009   5.175235   4.052059   2.968896
    32  H    7.628726   5.903947   6.029033   5.195163   4.017219
    33  H    7.391077   5.454819   5.197944   4.072538   2.981715
    34  H    8.786602   6.898612   6.821672   5.731007   4.495000
                    6          7          8          9         10
     6  C    0.000000
     7  C    1.402811   0.000000
     8  O    1.359080   2.364430   0.000000
     9  Si   2.780818   4.021965   1.711031   0.000000
    10  C    4.265832   5.217600   2.928029   1.905271   0.000000
    11  C    4.606964   5.324983   3.325355   2.817963   1.538668
    12  C    5.531736   6.619750   4.266968   2.828473   1.538989
    13  C    4.610159   5.330461   3.323121   2.818843   1.538645
    14  C    3.569601   4.839337   2.942281   1.877072   3.084477
    15  C    3.580644   4.855363   2.945737   1.877009   3.086061
    16  H    3.895731   3.399050   5.253412   6.518632   8.152539
    17  H    3.418384   3.875417   4.588619   5.260002   7.123597
    18  H    2.180209   3.411393   2.739109   2.901957   4.803224
    19  H    2.159252   1.082228   2.592345   4.297992   5.118540
    20  H    4.829765   5.636622   3.678071   3.016180   2.196293
    21  H    4.061825   4.537904   2.881937   2.998256   2.194355
    22  H    5.638157   6.261043   4.339751   3.822262   2.191252
    23  H    5.727527   6.887573   4.556327   3.021386   2.196173
    24  H    6.426589   7.408917   5.107501   3.830008   2.191449
    25  H    5.729934   6.890960   4.555564   3.022760   2.196059
    26  H    4.066193   4.544983   2.879913   2.999688   2.194317
    27  H    4.834337   5.644811   3.673924   3.017302   2.196400
    28  H    5.641044   6.266105   4.338237   3.822901   2.191082
    29  H    3.798475   4.871443   3.155281   2.479710   3.277028
    30  H    4.597181   5.902318   3.882288   2.479393   3.275125
    31  H    3.401163   4.686164   3.203268   2.496877   4.054478
    32  H    3.819710   4.901705   3.163750   2.480329   3.277370
    33  H    3.410305   4.699919   3.204328   2.496603   4.055618
    34  H    4.604784   5.914965   3.884706   2.478820   3.278282
                   11         12         13         14         15
    11  C    0.000000
    12  C    2.512406   0.000000
    13  C    2.508785   2.512337   0.000000
    14  C    3.445117   3.464423   4.427844   0.000000
    15  C    4.428410   3.460096   3.454923   3.071506   0.000000
    16  H    8.405670   9.341606   8.418802   6.769539   6.794039
    17  H    7.637503   8.009922   7.648220   5.196689   5.214890
    18  H    5.473771   5.583811   5.477878   2.960615   2.965937
    19  H    5.051399   6.613506   5.054738   5.285115   5.299482
    20  H    1.110354   2.764876   3.487864   2.976280   4.718094
    21  H    1.111310   3.489920   2.764299   3.772242   4.705105
    22  H    1.111593   2.764084   2.755810   4.462065   5.267018
    23  H    2.768255   1.110382   3.490303   2.994092   3.801049
    24  H    2.761344   1.111373   2.761966   4.474905   4.473091
    25  H    3.490295   1.110408   2.767199   3.811942   2.990352
    26  H    2.763740   3.489852   1.111300   4.701946   3.786015
    27  H    3.487946   2.765345   1.110342   4.721843   2.988102
    28  H    2.755759   2.763575   1.111726   5.265493   4.470736
    29  H    3.111654   3.791112   4.684402   1.108549   4.027554
    30  H    3.769261   3.131081   4.688953   1.108261   3.268832
    31  H    4.458902   4.475844   5.268525   1.106326   3.289041
    32  H    4.687758   3.780923   3.121316   4.027996   1.108581
    33  H    5.268116   4.473631   4.466263   3.290717   1.106418
    34  H    4.687909   3.127949   3.784600   3.265835   1.108453
                   16         17         18         19         20
    16  H    0.000000
    17  H    2.479815   0.000000
    18  H    4.269649   2.440250   0.000000
    19  H    4.283893   4.957533   4.320146   0.000000
    20  H    8.481024   7.566760   5.420472   5.494798   0.000000
    21  H    7.741841   7.277540   5.327274   4.128896   1.802945
    22  H    9.435503   8.734358   6.561097   5.864977   1.795398
    23  H    9.418606   7.942198   5.527043   6.976724   2.555718
    24  H   10.289790   9.066349   6.654352   7.272313   3.114802
    25  H    9.427752   7.950656   5.531074   6.978560   3.792713
    26  H    7.757070   7.289835   5.332402   4.133391   3.791413
    27  H    8.502816   7.584876   5.427134   5.499333   4.357730
    28  H    9.447622   8.743986   6.564634   5.868301   3.777224
    29  H    6.952848   5.655389   3.639920   5.189603   2.407880
    30  H    7.760130   6.005668   3.746557   6.328174   3.219269
    31  H    6.072331   4.298402   2.255968   5.331558   4.005889
    32  H    6.996474   5.687101   3.651021   5.217277   5.204361
    33  H    6.097530   4.319365   2.262263   5.342888   5.448080
    34  H    7.779644   6.018533   3.747783   6.340346   4.878199
                   21         22         23         24         25
    21  H    0.000000
    22  H    1.800429   0.000000
    23  H    3.792826   3.124696   0.000000
    24  H    3.785634   2.546249   1.796493   0.000000
    25  H    4.357130   3.784993   1.802416   1.796426   0.000000
    26  H    2.552952   3.115870   4.357175   3.785800   3.792236
    27  H    3.791669   3.777613   3.792701   3.116501   2.555128
    28  H    3.116873   2.534518   3.784979   2.546381   3.122820
    29  H    3.341057   4.106062   3.247668   4.646194   4.400259
    30  H    4.362406   4.633502   2.421273   4.120716   3.385205
    31  H    4.633562   5.511889   4.019456   5.523866   4.671717
    32  H    4.871465   5.411564   4.385362   4.639174   3.232505
    33  H    5.431575   6.192194   4.663720   5.523368   4.019115
    34  H    5.192943   5.416275   3.370421   4.120958   2.422739
                   26         27         28         29         30
    26  H    0.000000
    27  H    1.803001   0.000000
    28  H    1.800277   1.795783   0.000000
    29  H    4.862510   5.205170   5.407985   0.000000
    30  H    5.191511   4.886312   5.415335   1.809837   0.000000
    31  H    5.430610   5.451974   6.191656   1.799272   1.797450
    32  H    3.359707   2.415795   4.114197   4.881666   4.277393
    33  H    4.643975   4.015046   5.518787   4.300426   3.587085
    34  H    4.379949   3.240919   4.647794   4.275841   3.075697
                   31         32         33         34
    31  H    0.000000
    32  H    4.300768   0.000000
    33  H    3.125260   1.800006   0.000000
    34  H    3.580540   1.809533   1.797765   0.000000
 Stoichiometry    C12H19LiOSi
 Framework group  C1[X(C12H19LiOSi)]
 Deg. of freedom    96
 Full point group                 C1      NOp   1
 Largest Abelian subgroup         C1      NOp   1
 Largest concise Abelian subgroup C1      NOp   1
                         Standard orientation:                         
 ---------------------------------------------------------------------
 Center     Atomic      Atomic             Coordinates (Angstroms)
 Number     Number       Type             X           Y           Z
 ---------------------------------------------------------------------
      1          3           0       -5.165602    2.591872    0.001811
      2          6           0       -3.858095    1.047651   -0.000919
      3          6           0       -4.335455   -0.262930    0.006191
      4          6           0       -3.437008   -1.331712    0.004995
      5          6           0       -2.059541   -1.090755   -0.003474
      6          6           0       -1.565495    0.231363   -0.009623
      7          6           0       -2.482348    1.293087   -0.008861
      8          8           0       -0.241573    0.538476   -0.013152
      9         14           0        1.116960   -0.501669   -0.002345
     10          6           0        2.686137    0.578943    0.002187
     11          6           0        2.687239    1.471278    1.255678
     12          6           0        3.939214   -0.314503    0.008388
     13          6           0        2.697894    1.468656   -1.253083
     14          6           0        1.097278   -1.571778    1.539692
     15          6           0        1.115426   -1.589882   -1.531708
     16          1           0       -5.401434   -0.448176    0.012959
     17          1           0       -3.808170   -2.348435    0.010327
     18          1           0       -1.401928   -1.942693   -0.003561
     19          1           0       -2.128660    2.315878   -0.013337
     20          1           0        2.693274    0.857226    2.180767
     21          1           0        1.789998    2.126752    1.273572
     22          1           0        3.590410    2.119093    1.271761
     23          1           0        3.960254   -0.962461    0.909863
     24          1           0        4.860613    0.306914    0.012405
     25          1           0        3.968603   -0.962948   -0.892534
     26          1           0        1.801436    2.124901   -1.279354
     27          1           0        2.710878    0.852858   -2.176925
     28          1           0        3.601614    2.116059   -1.262731
     29          1           0        1.096246   -0.925980    2.440705
     30          1           0        1.994724   -2.221908    1.552550
     31          1           0        0.197326   -2.214774    1.564160
     32          1           0        1.130987   -0.955568   -2.440748
     33          1           0        0.213491   -2.230050   -1.561021
     34          1           0        2.010806   -2.243249   -1.523031
 ---------------------------------------------------------------------
 Rotational constants (GHZ):      1.1558173      0.2982785      0.2711296
 Leave Link  202 at Sat Oct  2 19:21:04 2021, MaxMem= 1342177280 cpu:       0.1
 (Enter /sw/target/amd/app/gaussian/Gaussian09RevA.02_gcc-4.9.2/g09/l301.exe)
 Standard basis: 6-31G(d) (6D, 7F)
 Ernie: Thresh=  0.10000D-02 Tol=  0.10000D-05 Strict=F.
 There are   267 symmetry adapted basis functions of A   symmetry.
 Integral buffers will be    131072 words long.
 Raffenetti 2 integral format.
 Two-electron integral symmetry is turned on.
   267 basis functions,   520 primitive gaussians,   267 cartesian basis functions
    58 alpha electrons       58 beta electrons
       nuclear repulsion energy      1049.5915460164 Hartrees.
 IExCor=  402 DFT=T Ex+Corr=B3LYP ExCW=0 ScaHFX=  0.200000
 ScaDFX=  0.800000  0.720000  1.000000  0.810000 ScalE2=  1.000000  1.000000
 IRadAn=      0 IRanWt=     -1 IRanGd=            0 ICorTp=0
 NAtoms=   34 NActive=   34 NUniq=   34 SFac= 7.50D-01 NAtFMM=   80 NAOKFM=F Big=F
 Leave Link  301 at Sat Oct  2 19:21:05 2021, MaxMem= 1342177280 cpu:       0.1
 (Enter /sw/target/amd/app/gaussian/Gaussian09RevA.02_gcc-4.9.2/g09/l302.exe)
 NPDir=0 NMtPBC=     1 NCelOv=     1 NCel=       1 NClECP=     1 NCelD=      1
         NCelK=      1 NCelE2=     1 NClLst=     1 CellRange=     0.0.
 One-electron integrals computed using PRISM.
 NBasis=   267 RedAO= T  NBF=   267
 NBsUse=   267 1.00D-06 NBFU=   267
 Precomputing XC quadrature grid using
 IXCGrd= 2 IRadAn=           0 IRanWt=          -1 IRanGd=           0 AccXCQ= 1.00D-10.
 NRdTot=    2210 NPtTot=      281332 NUsed=      297257 NTot=      297289
 NSgBfM=   266   266   266   266   266 NAtAll=    34    34.
 Leave Link  302 at Sat Oct  2 19:21:13 2021, MaxMem= 1342177280 cpu:       3.4
 (Enter /sw/target/amd/app/gaussian/Gaussian09RevA.02_gcc-4.9.2/g09/l303.exe)
 DipDrv:  MaxL=1.
 Leave Link  303 at Sat Oct  2 19:21:14 2021, MaxMem= 1342177280 cpu:       0.2
 (Enter /sw/target/amd/app/gaussian/Gaussian09RevA.02_gcc-4.9.2/g09/l401.exe)
 Harris functional with IExCor=  402 diagonalized for initial guess.
 ExpMin= 3.60D-02 ExpMax= 1.61D+04 ExpMxC= 2.43D+03 IAcc=3 IRadAn=         0 AccDes= 0.00D+00
 HarFok:  IExCor=  402 AccDes= 0.00D+00 IRadAn=         0 IDoV= 1
 ScaDFX=  1.000000  1.000000  1.000000  1.000000
 FoFCou: FMM=F IPFlag=           0 FMFlag=      100000 FMFlg1=           0
         NFxFlg=           0 DoJE=T BraDBF=F KetDBF=T FulRan=T
         Omega=  0.000000  0.000000  1.000000  0.000000  0.000000 ICntrl=     500 IOpCl=  0
         NMat0=    1 NMatS0=    1 NMatT0=    0 NMatD0=    1 NMtDS0=    0 NMtDT0=    0
         I1Cent=           4 NGrid=           0.
 Petite list used in FoFCou.
 Harris En= -841.274934909688    
 Initial guess orbital symmetries:
       Occupied  (A) (A) (A) (A) (A) (A) (A) (A) (A) (A) (A) (A)
                 (A) (A) (A) (A) (A) (A) (A) (A) (A) (A) (A) (A)
                 (A) (A) (A) (A) (A) (A) (A) (A) (A) (A) (A) (A)
                 (A) (A) (A) (A) (A) (A) (A) (A) (A) (A) (A) (A)
                 (A) (A) (A) (A) (A) (A) (A) (A) (A) (A)
       Virtual   (A) (A) (A) (A) (A) (A) (A) (A) (A) (A) (A) (A)
                 (A) (A) (A) (A) (A) (A) (A) (A) (A) (A) (A) (A)
                 (A) (A) (A) (A) (A) (A) (A) (A) (A) (A) (A) (A)
                 (A) (A) (A) (A) (A) (A) (A) (A) (A) (A) (A) (A)
                 (A) (A) (A) (A) (A) (A) (A) (A) (A) (A) (A) (A)
                 (A) (A) (A) (A) (A) (A) (A) (A) (A) (A) (A) (A)
                 (A) (A) (A) (A) (A) (A) (A) (A) (A) (A) (A) (A)
                 (A) (A) (A) (A) (A) (A) (A) (A) (A) (A) (A) (A)
                 (A) (A) (A) (A) (A) (A) (A) (A) (A) (A) (A) (A)
                 (A) (A) (A) (A) (A) (A) (A) (A) (A) (A) (A) (A)
                 (A) (A) (A) (A) (A) (A) (A) (A) (A) (A) (A) (A)
                 (A) (A) (A) (A) (A) (A) (A) (A) (A) (A) (A) (A)
                 (A) (A) (A) (A) (A) (A) (A) (A) (A) (A) (A) (A)
                 (A) (A) (A) (A) (A) (A) (A) (A) (A) (A) (A) (A)
                 (A) (A) (A) (A) (A) (A) (A) (A) (A) (A) (A) (A)
                 (A) (A) (A) (A) (A) (A) (A) (A) (A) (A) (A) (A)
                 (A) (A) (A) (A) (A) (A) (A) (A) (A) (A) (A) (A)
                 (A) (A) (A) (A) (A)
 The electronic state of the initial guess is 1-A.
 Leave Link  401 at Sat Oct  2 19:22:10 2021, MaxMem= 1342177280 cpu:      31.3
 (Enter /sw/target/amd/app/gaussian/Gaussian09RevA.02_gcc-4.9.2/g09/l502.exe)
 Closed shell SCF:
 Requested convergence on RMS density matrix=1.00D-08 within  64 cycles.
 Requested convergence on MAX density matrix=1.00D-06.
 Requested convergence on             energy=1.00D-06.
 No special actions if energy rises.
 Using DIIS extrapolation, IDIIS=  1040.
 Integral symmetry usage will be decided dynamically.
       296938 words used for storage of precomputed grid.
 Keep R1 ints in memory in canonical form, NReq=650194808.
 IEnd=      519981 IEndB=      519981 NGot=  1342177280 MDV=   701682521
 LenX=   701682521 LenY=   701610791
 Symmetry not used in FoFDir.
 MinBra= 0 MaxBra= 2 Meth= 1.
 IRaf=       0 NMat=   1 IRICut=       1 DoRegI=T DoRafI=F ISym2E= 0 JSym2E=0.

 Cycle   1  Pass 1  IDiag  1:
 E= -840.262643613781    
 DIIS: error= 4.96D-02 at cycle   1 NSaved=   1.
 NSaved= 1 IEnMin= 1 EnMin= -840.262643613781     IErMin= 1 ErrMin= 4.96D-02
 ErrMax= 4.96D-02 EMaxC= 1.00D-01 BMatC= 6.79D-01 BMatP= 6.79D-01
 IDIUse=3 WtCom= 5.04D-01 WtEn= 4.96D-01
 Coeff-Com:  0.100D+01
 Coeff-En:   0.100D+01
 Coeff:      0.100D+01
 Gap=     0.245 Goal=   None    Shift=    0.000
 GapD=    0.245 DampG=1.000 DampE=0.500 DampFc=0.5000 IDamp=-1.
 Damping current iteration by 5.00D-01
 RMSDP=8.01D-03 MaxDP=4.33D-01              OVMax= 9.39D-01

 Cycle   2  Pass 1  IDiag  1:
 E= -840.379095983145     Delta-E=       -0.116452369364 Rises=F Damp=T
 DIIS: error= 2.10D-02 at cycle   2 NSaved=   2.
 NSaved= 2 IEnMin= 2 EnMin= -840.379095983145     IErMin= 2 ErrMin= 2.10D-02
 ErrMax= 2.10D-02 EMaxC= 1.00D-01 BMatC= 7.64D-02 BMatP= 6.79D-01
 IDIUse=3 WtCom= 7.90D-01 WtEn= 2.10D-01
 Coeff-Com:  0.183D+00 0.817D+00
 Coeff-En:   0.423D+00 0.577D+00
 Coeff:      0.233D+00 0.767D+00
 Gap=     0.059 Goal=   None    Shift=    0.000
 RMSDP=2.84D-03 MaxDP=2.17D-01 DE=-1.16D-01 OVMax= 7.80D-01

 Cycle   3  Pass 1  IDiag  1:
 E= -840.828260613301     Delta-E=       -0.449164630157 Rises=F Damp=F
 DIIS: error= 2.15D-02 at cycle   3 NSaved=   3.
 NSaved= 3 IEnMin= 3 EnMin= -840.828260613301     IErMin= 2 ErrMin= 2.10D-02
 ErrMax= 2.15D-02 EMaxC= 1.00D-01 BMatC= 1.45D-01 BMatP= 7.64D-02
 IDIUse=2 WtCom= 0.00D+00 WtEn= 1.00D+00
 Coeff-En:   0.000D+00 0.000D+00 0.100D+01
 Coeff:      0.000D+00 0.000D+00 0.100D+01
 Gap=     0.175 Goal=   None    Shift=    0.000
 RMSDP=5.57D-03 MaxDP=4.93D-01 DE=-4.49D-01 OVMax= 8.78D-01

 Cycle   4  Pass 1  IDiag  1:
 E= -839.687586240147     Delta-E=        1.140674373154 Rises=F Damp=F
 DIIS: error= 6.05D-02 at cycle   4 NSaved=   4.
 NSaved= 4 IEnMin= 3 EnMin= -840.828260613301     IErMin= 2 ErrMin= 2.10D-02
 ErrMax= 6.05D-02 EMaxC= 1.00D-01 BMatC= 7.84D-01 BMatP= 7.64D-02
 IDIUse=2 WtCom= 0.00D+00 WtEn= 1.00D+00
 Coeff-En:   0.000D+00 0.000D+00 0.834D+00 0.166D+00
 Coeff:      0.000D+00 0.000D+00 0.834D+00 0.166D+00
 Gap=     0.007 Goal=   None    Shift=    0.000
 RMSDP=3.93D-03 MaxDP=4.69D-01 DE= 1.14D+00 OVMax= 7.41D-01

 Cycle   5  Pass 1  IDiag  1:
 E= -840.910724719524     Delta-E=       -1.223138479376 Rises=F Damp=F
 DIIS: error= 1.48D-02 at cycle   5 NSaved=   5.
 NSaved= 5 IEnMin= 5 EnMin= -840.910724719524     IErMin= 5 ErrMin= 1.48D-02
 ErrMax= 1.48D-02 EMaxC= 1.00D-01 BMatC= 7.62D-02 BMatP= 7.64D-02
 IDIUse=3 WtCom= 8.52D-01 WtEn= 1.48D-01
 Coeff-Com: -0.714D-02 0.100D+00 0.351D+00-0.731D-01 0.630D+00
 Coeff-En:   0.000D+00 0.000D+00 0.373D+00 0.000D+00 0.627D+00
 Coeff:     -0.608D-02 0.852D-01 0.354D+00-0.623D-01 0.629D+00
 Gap=     0.117 Goal=   None    Shift=    0.000
 RMSDP=1.12D-03 MaxDP=4.15D-02 DE=-1.22D+00 OVMax= 1.05D-01

 Cycle   6  Pass 1  IDiag  1:
 E= -840.997189714648     Delta-E=       -0.086464995124 Rises=F Damp=F
 DIIS: error= 1.28D-03 at cycle   6 NSaved=   6.
 NSaved= 6 IEnMin= 6 EnMin= -840.997189714648     IErMin= 6 ErrMin= 1.28D-03
 ErrMax= 1.28D-03 EMaxC= 1.00D-01 BMatC= 5.88D-04 BMatP= 7.62D-02
 IDIUse=3 WtCom= 9.87D-01 WtEn= 1.28D-02
 Coeff-Com: -0.227D-02 0.278D-01 0.140D+00-0.257D-01 0.248D+00 0.612D+00
 Coeff-En:   0.000D+00 0.000D+00 0.000D+00 0.000D+00 0.000D+00 0.100D+01
 Coeff:     -0.224D-02 0.274D-01 0.139D+00-0.254D-01 0.244D+00 0.617D+00
 Gap=     0.124 Goal=   None    Shift=    0.000
 RMSDP=1.76D-04 MaxDP=6.93D-03 DE=-8.65D-02 OVMax= 1.57D-02

 Cycle   7  Pass 1  IDiag  1:
 E= -840.997483914849     Delta-E=       -0.000294200201 Rises=F Damp=F
 DIIS: error= 1.28D-03 at cycle   7 NSaved=   7.
 NSaved= 7 IEnMin= 7 EnMin= -840.997483914849     IErMin= 7 ErrMin= 1.28D-03
 ErrMax= 1.28D-03 EMaxC= 1.00D-01 BMatC= 3.38D-04 BMatP= 5.88D-04
 IDIUse=3 WtCom= 9.87D-01 WtEn= 1.28D-02
 Coeff-Com:  0.216D-02-0.148D-02 0.156D-01-0.246D-02 0.119D-01 0.402D+00
 Coeff-Com:  0.573D+00
 Coeff-En:   0.000D+00 0.000D+00 0.000D+00 0.000D+00 0.000D+00 0.376D+00
 Coeff-En:   0.624D+00
 Coeff:      0.213D-02-0.146D-02 0.154D-01-0.243D-02 0.117D-01 0.401D+00
 Coeff:      0.573D+00
 Gap=     0.125 Goal=   None    Shift=    0.000
 RMSDP=8.78D-05 MaxDP=3.44D-03 DE=-2.94D-04 OVMax= 9.34D-03

 Cycle   8  Pass 1  IDiag  1:
 E= -840.997845993553     Delta-E=       -0.000362078704 Rises=F Damp=F
 DIIS: error= 3.20D-04 at cycle   8 NSaved=   8.
 NSaved= 8 IEnMin= 8 EnMin= -840.997845993553     IErMin= 8 ErrMin= 3.20D-04
 ErrMax= 3.20D-04 EMaxC= 1.00D-01 BMatC= 2.42D-05 BMatP= 3.38D-04
 IDIUse=3 WtCom= 9.97D-01 WtEn= 3.20D-03
 Coeff-Com:  0.177D-02-0.263D-02 0.217D-02-0.232D-03-0.714D-02 0.202D+00
 Coeff-Com:  0.345D+00 0.460D+00
 Coeff-En:   0.000D+00 0.000D+00 0.000D+00 0.000D+00 0.000D+00 0.000D+00
 Coeff-En:   0.000D+00 0.100D+01
 Coeff:      0.176D-02-0.262D-02 0.216D-02-0.231D-03-0.712D-02 0.201D+00
 Coeff:      0.344D+00 0.461D+00
 Gap=     0.126 Goal=   None    Shift=    0.000
 RMSDP=2.25D-05 MaxDP=8.51D-04 DE=-3.62D-04 OVMax= 2.37D-03

 Cycle   9  Pass 1  IDiag  1:
 E= -840.997871579614     Delta-E=       -0.000025586061 Rises=F Damp=F
 DIIS: error= 5.05D-05 at cycle   9 NSaved=   9.
 NSaved= 9 IEnMin= 9 EnMin= -840.997871579614     IErMin= 9 ErrMin= 5.05D-05
 ErrMax= 5.05D-05 EMaxC= 1.00D-01 BMatC= 1.32D-06 BMatP= 2.42D-05
 IDIUse=1 WtCom= 1.00D+00 WtEn= 0.00D+00
 Coeff-Com:  0.811D-03-0.136D-02 0.342D-03 0.160D-03-0.456D-02 0.597D-01
 Coeff-Com:  0.117D+00 0.235D+00 0.593D+00
 Coeff:      0.811D-03-0.136D-02 0.342D-03 0.160D-03-0.456D-02 0.597D-01
 Coeff:      0.117D+00 0.235D+00 0.593D+00
 Gap=     0.126 Goal=   None    Shift=    0.000
 RMSDP=5.75D-06 MaxDP=1.99D-04 DE=-2.56D-05 OVMax= 5.39D-04

 Cycle  10  Pass 1  IDiag  1:
 E= -840.997872994849     Delta-E=       -0.000001415236 Rises=F Damp=F
 DIIS: error= 1.77D-05 at cycle  10 NSaved=  10.
 NSaved=10 IEnMin=10 EnMin= -840.997872994849     IErMin=10 ErrMin= 1.77D-05
 ErrMax= 1.77D-05 EMaxC= 1.00D-01 BMatC= 1.09D-07 BMatP= 1.32D-06
 IDIUse=1 WtCom= 1.00D+00 WtEn= 0.00D+00
 Coeff-Com:  0.329D-03-0.567D-03 0.198D-03 0.628D-05-0.163D-02 0.176D-01
 Coeff-Com:  0.383D-01 0.894D-01 0.295D+00 0.561D+00
 Coeff:      0.329D-03-0.567D-03 0.198D-03 0.628D-05-0.163D-02 0.176D-01
 Coeff:      0.383D-01 0.894D-01 0.295D+00 0.561D+00
 Gap=     0.126 Goal=   None    Shift=    0.000
 RMSDP=1.58D-06 MaxDP=5.36D-05 DE=-1.42D-06 OVMax= 1.63D-04

 Cycle  11  Pass 1  IDiag  1:
 E= -840.997873112956     Delta-E=       -0.000000118107 Rises=F Damp=F
 DIIS: error= 8.29D-06 at cycle  11 NSaved=  11.
 NSaved=11 IEnMin=11 EnMin= -840.997873112956     IErMin=11 ErrMin= 8.29D-06
 ErrMax= 8.29D-06 EMaxC= 1.00D-01 BMatC= 1.61D-08 BMatP= 1.09D-07
 IDIUse=1 WtCom= 1.00D+00 WtEn= 0.00D+00
 Coeff-Com:  0.577D-04-0.780D-04 0.372D-04-0.174D-04-0.295D-03-0.851D-03
 Coeff-Com:  0.642D-03 0.686D-02 0.483D-01 0.261D+00 0.684D+00
 Coeff:      0.577D-04-0.780D-04 0.372D-04-0.174D-04-0.295D-03-0.851D-03
 Coeff:      0.642D-03 0.686D-02 0.483D-01 0.261D+00 0.684D+00
 Gap=     0.126 Goal=   None    Shift=    0.000
 RMSDP=7.97D-07 MaxDP=3.64D-05 DE=-1.18D-07 OVMax= 1.54D-04

 Cycle  12  Pass 1  IDiag  1:
 E= -840.997873136665     Delta-E=       -0.000000023708 Rises=F Damp=F
 DIIS: error= 1.77D-06 at cycle  12 NSaved=  12.
 NSaved=12 IEnMin=12 EnMin= -840.997873136665     IErMin=12 ErrMin= 1.77D-06
 ErrMax= 1.77D-06 EMaxC= 1.00D-01 BMatC= 1.27D-09 BMatP= 1.61D-08
 IDIUse=1 WtCom= 1.00D+00 WtEn= 0.00D+00
 Coeff-Com: -0.401D-07 0.592D-05-0.126D-04-0.947D-05-0.350D-04-0.152D-02
 Coeff-Com: -0.254D-02-0.376D-02-0.294D-02 0.761D-01 0.335D+00 0.600D+00
 Coeff:     -0.401D-07 0.592D-05-0.126D-04-0.947D-05-0.350D-04-0.152D-02
 Coeff:     -0.254D-02-0.376D-02-0.294D-02 0.761D-01 0.335D+00 0.600D+00
 Gap=     0.126 Goal=   None    Shift=    0.000
 RMSDP=2.66D-07 MaxDP=1.00D-05 DE=-2.37D-08 OVMax= 4.18D-05

 Cycle  13  Pass 1  IDiag  1:
 E= -840.997873138328     Delta-E=       -0.000000001663 Rises=F Damp=F
 DIIS: error= 1.11D-06 at cycle  13 NSaved=  13.
 NSaved=13 IEnMin=13 EnMin= -840.997873138328     IErMin=13 ErrMin= 1.11D-06
 ErrMax= 1.11D-06 EMaxC= 1.00D-01 BMatC= 3.20D-10 BMatP= 1.27D-09
 IDIUse=1 WtCom= 1.00D+00 WtEn= 0.00D+00
 Coeff-Com: -0.956D-05 0.156D-04-0.184D-04-0.764D-05 0.322D-04-0.945D-04
 Coeff-Com: -0.566D-03-0.171D-02-0.693D-02-0.544D-02 0.451D-01 0.284D+00
 Coeff-Com:  0.686D+00
 Coeff:     -0.956D-05 0.156D-04-0.184D-04-0.764D-05 0.322D-04-0.945D-04
 Coeff:     -0.566D-03-0.171D-02-0.693D-02-0.544D-02 0.451D-01 0.284D+00
 Coeff:      0.686D+00
 Gap=     0.126 Goal=   None    Shift=    0.000
 RMSDP=9.78D-08 MaxDP=3.73D-06 DE=-1.66D-09 OVMax= 1.37D-05

 Cycle  14  Pass 1  IDiag  1:
 E= -840.997873138681     Delta-E=       -0.000000000353 Rises=F Damp=F
 DIIS: error= 3.22D-07 at cycle  14 NSaved=  14.
 NSaved=14 IEnMin=14 EnMin= -840.997873138681     IErMin=14 ErrMin= 3.22D-07
 ErrMax= 3.22D-07 EMaxC= 1.00D-01 BMatC= 3.95D-11 BMatP= 3.20D-10
 IDIUse=1 WtCom= 1.00D+00 WtEn= 0.00D+00
 Coeff-Com: -0.478D-05 0.517D-05-0.132D-04-0.124D-05 0.118D-04 0.149D-03
 Coeff-Com:  0.552D-04-0.335D-03-0.256D-02-0.953D-02-0.906D-02 0.659D-01
 Coeff-Com:  0.322D+00 0.633D+00
 Coeff:     -0.478D-05 0.517D-05-0.132D-04-0.124D-05 0.118D-04 0.149D-03
 Coeff:      0.552D-04-0.335D-03-0.256D-02-0.953D-02-0.906D-02 0.659D-01
 Coeff:      0.322D+00 0.633D+00
 Gap=     0.126 Goal=   None    Shift=    0.000
 RMSDP=3.90D-08 MaxDP=1.88D-06 DE=-3.53D-10 OVMax= 4.72D-06

 Cycle  15  Pass 1  IDiag  1:
 E= -840.997873138743     Delta-E=       -0.000000000063 Rises=F Damp=F
 DIIS: error= 1.27D-07 at cycle  15 NSaved=  15.
 NSaved=15 IEnMin=15 EnMin= -840.997873138743     IErMin=15 ErrMin= 1.27D-07
 ErrMax= 1.27D-07 EMaxC= 1.00D-01 BMatC= 4.04D-12 BMatP= 3.95D-11
 IDIUse=1 WtCom= 1.00D+00 WtEn= 0.00D+00
 Coeff-Com: -0.562D-06 0.111D-05-0.322D-05-0.107D-06 0.152D-05 0.336D-04
 Coeff-Com:  0.453D-04 0.397D-04 0.441D-04-0.143D-02-0.345D-02-0.183D-01
 Coeff-Com: -0.126D-01 0.185D+00 0.851D+00
 Coeff:     -0.562D-06 0.111D-05-0.322D-05-0.107D-06 0.152D-05 0.336D-04
 Coeff:      0.453D-04 0.397D-04 0.441D-04-0.143D-02-0.345D-02-0.183D-01
 Coeff:     -0.126D-01 0.185D+00 0.851D+00
 Gap=     0.126 Goal=   None    Shift=    0.000
 RMSDP=1.42D-08 MaxDP=5.54D-07 DE=-6.25D-11 OVMax= 2.04D-06

 Cycle  16  Pass 1  IDiag  1:
 E= -840.997873138739     Delta-E=        0.000000000005 Rises=F Damp=F
 DIIS: error= 3.14D-08 at cycle  16 NSaved=  16.
 NSaved=16 IEnMin=15 EnMin= -840.997873138743     IErMin=16 ErrMin= 3.14D-08
 ErrMax= 3.14D-08 EMaxC= 1.00D-01 BMatC= 3.02D-13 BMatP= 4.04D-12
 IDIUse=1 WtCom= 1.00D+00 WtEn= 0.00D+00
 Coeff-Com: -0.814D-08 0.274D-06-0.642D-06-0.136D-09 0.166D-06-0.350D-06
 Coeff-Com:  0.266D-05 0.163D-04 0.157D-03 0.185D-03-0.576D-04-0.112D-01
 Coeff-Com: -0.280D-01 0.322D-01 0.370D+00 0.637D+00
 Coeff:     -0.814D-08 0.274D-06-0.642D-06-0.136D-09 0.166D-06-0.350D-06
 Coeff:      0.266D-05 0.163D-04 0.157D-03 0.185D-03-0.576D-04-0.112D-01
 Coeff:     -0.280D-01 0.322D-01 0.370D+00 0.637D+00
 Gap=     0.126 Goal=   None    Shift=    0.000
 RMSDP=2.90D-09 MaxDP=8.88D-08 DE= 4.77D-12 OVMax= 3.02D-07

 SCF Done:  E(RB3LYP) =  -840.997873139     A.U. after   16 cycles
             Convg  =    0.2899D-08             -V/T =  2.0080
 KE= 8.343256387593D+02 PE=-4.069292714375D+03 EE= 1.344377656460D+03
 Leave Link  502 at Sat Oct  2 19:49:03 2021, MaxMem= 1342177280 cpu:     522.7
 (Enter /sw/target/amd/app/gaussian/Gaussian09RevA.02_gcc-4.9.2/g09/l508.exe)
 QCSCF skips out because SCF is already converged.
 Leave Link  508 at Sat Oct  2 19:49:09 2021, MaxMem= 1342177280 cpu:       0.0
 (Enter /sw/target/amd/app/gaussian/Gaussian09RevA.02_gcc-4.9.2/g09/l601.exe)
 Copying SCF densities to generalized density rwf, IOpCl= 0 IROHF=0.

 **********************************************************************

            Population analysis using the SCF density.

 **********************************************************************

 Orbital symmetries:
       Occupied  (A) (A) (A) (A) (A) (A) (A) (A) (A) (A) (A) (A)
                 (A) (A) (A) (A) (A) (A) (A) (A) (A) (A) (A) (A)
                 (A) (A) (A) (A) (A) (A) (A) (A) (A) (A) (A) (A)
                 (A) (A) (A) (A) (A) (A) (A) (A) (A) (A) (A) (A)
                 (A) (A) (A) (A) (A) (A) (A) (A) (A) (A)
       Virtual   (A) (A) (A) (A) (A) (A) (A) (A) (A) (A) (A) (A)
                 (A) (A) (A) (A) (A) (A) (A) (A) (A) (A) (A) (A)
                 (A) (A) (A) (A) (A) (A) (A) (A) (A) (A) (A) (A)
                 (A) (A) (A) (A) (A) (A) (A) (A) (A) (A) (A) (A)
                 (A) (A) (A) (A) (A) (A) (A) (A) (A) (A) (A) (A)
                 (A) (A) (A) (A) (A) (A) (A) (A) (A) (A) (A) (A)
                 (A) (A) (A) (A) (A) (A) (A) (A) (A) (A) (A) (A)
                 (A) (A) (A) (A) (A) (A) (A) (A) (A) (A) (A) (A)
                 (A) (A) (A) (A) (A) (A) (A) (A) (A) (A) (A) (A)
                 (A) (A) (A) (A) (A) (A) (A) (A) (A) (A) (A) (A)
                 (A) (A) (A) (A) (A) (A) (A) (A) (A) (A) (A) (A)
                 (A) (A) (A) (A) (A) (A) (A) (A) (A) (A) (A) (A)
                 (A) (A) (A) (A) (A) (A) (A) (A) (A) (A) (A) (A)
                 (A) (A) (A) (A) (A) (A) (A) (A) (A) (A) (A) (A)
                 (A) (A) (A) (A) (A) (A) (A) (A) (A) (A) (A) (A)
                 (A) (A) (A) (A) (A) (A) (A) (A) (A) (A) (A) (A)
                 (A) (A) (A) (A) (A) (A) (A) (A) (A) (A) (A) (A)
                 (A) (A) (A) (A) (A)
 The electronic state is 1-A.
 Alpha  occ. eigenvalues --  -66.12857 -19.13158 -10.21128 -10.17209 -10.16979
 Alpha  occ. eigenvalues --  -10.16628 -10.16625 -10.15319 -10.15288 -10.15070
 Alpha  occ. eigenvalues --  -10.14939 -10.13676 -10.13640 -10.10944  -5.27021
 Alpha  occ. eigenvalues --   -3.63107  -3.62809  -3.62805  -2.00118  -1.00127
 Alpha  occ. eigenvalues --   -0.79618  -0.78807  -0.69945  -0.68578  -0.68316
 Alpha  occ. eigenvalues --   -0.67100  -0.66918  -0.65950  -0.56874  -0.55830
 Alpha  occ. eigenvalues --   -0.53294  -0.48681  -0.45906  -0.44480  -0.42565
 Alpha  occ. eigenvalues --   -0.42338  -0.41529  -0.40379  -0.39687  -0.39270
 Alpha  occ. eigenvalues --   -0.38859  -0.37980  -0.37538  -0.36906  -0.36785
 Alpha  occ. eigenvalues --   -0.36393  -0.34880  -0.34664  -0.31708  -0.31674
 Alpha  occ. eigenvalues --   -0.31191  -0.29958  -0.29430  -0.27435  -0.25215
 Alpha  occ. eigenvalues --   -0.20287  -0.18192  -0.17718
 Alpha virt. eigenvalues --   -0.05127   0.00167   0.00458   0.04545   0.05468
 Alpha virt. eigenvalues --    0.05875   0.07703   0.08341   0.10690   0.11646
 Alpha virt. eigenvalues --    0.11916   0.12010   0.12680   0.13339   0.13391
 Alpha virt. eigenvalues --    0.14221   0.14418   0.15950   0.16511   0.17041
 Alpha virt. eigenvalues --    0.17823   0.18608   0.19960   0.20089   0.20586
 Alpha virt. eigenvalues --    0.20947   0.21827   0.22476   0.22565   0.23395
 Alpha virt. eigenvalues --    0.23978   0.24395   0.25014   0.25753   0.25786
 Alpha virt. eigenvalues --    0.26586   0.29134   0.29894   0.34484   0.35825
 Alpha virt. eigenvalues --    0.37156   0.39119   0.39394   0.40281   0.43672
 Alpha virt. eigenvalues --    0.45475   0.46505   0.47472   0.48718   0.49391
 Alpha virt. eigenvalues --    0.49408   0.50148   0.53782   0.54700   0.57801
 Alpha virt. eigenvalues --    0.58178   0.59818   0.59858   0.60793   0.62241
 Alpha virt. eigenvalues --    0.63401   0.64699   0.66154   0.66324   0.67243
 Alpha virt. eigenvalues --    0.67615   0.68152   0.68670   0.70186   0.71260
 Alpha virt. eigenvalues --    0.71929   0.74670   0.74902   0.77001   0.77237
 Alpha virt. eigenvalues --    0.80267   0.80749   0.81013   0.84041   0.84927
 Alpha virt. eigenvalues --    0.85186   0.86241   0.86249   0.86516   0.87025
 Alpha virt. eigenvalues --    0.89025   0.89784   0.90511   0.90965   0.91175
 Alpha virt. eigenvalues --    0.91296   0.91758   0.92059   0.92833   0.93213
 Alpha virt. eigenvalues --    0.93494   0.94117   0.94434   0.95387   0.96472
 Alpha virt. eigenvalues --    0.96887   0.98015   0.99957   1.00378   1.01804
 Alpha virt. eigenvalues --    1.01821   1.02282   1.02805   1.04893   1.05336
 Alpha virt. eigenvalues --    1.05723   1.10857   1.13703   1.16108   1.17635
 Alpha virt. eigenvalues --    1.19461   1.20414   1.23973   1.28319   1.29317
 Alpha virt. eigenvalues --    1.32184   1.33817   1.36631   1.43472   1.44064
 Alpha virt. eigenvalues --    1.44981   1.46641   1.49258   1.50435   1.52468
 Alpha virt. eigenvalues --    1.53534   1.54747   1.55696   1.58210   1.63187
 Alpha virt. eigenvalues --    1.71084   1.71416   1.74060   1.75068   1.76891
 Alpha virt. eigenvalues --    1.81871   1.85159   1.86013   1.87965   1.89339
 Alpha virt. eigenvalues --    1.90066   1.91806   1.93306   1.93968   1.96951
 Alpha virt. eigenvalues --    1.97006   1.98145   1.98345   2.01202   2.03202
 Alpha virt. eigenvalues --    2.03261   2.10938   2.11012   2.13663   2.14099
 Alpha virt. eigenvalues --    2.15727   2.18062   2.19832   2.20515   2.24421
 Alpha virt. eigenvalues --    2.24842   2.25100   2.25798   2.26227   2.26503
 Alpha virt. eigenvalues --    2.27995   2.29153   2.29688   2.30640   2.31357
 Alpha virt. eigenvalues --    2.35864   2.36139   2.48429   2.51426   2.51532
 Alpha virt. eigenvalues --    2.52281   2.54535   2.60344   2.64367   2.70304
 Alpha virt. eigenvalues --    2.72951   2.73262   2.73725   2.75941   2.78997
 Alpha virt. eigenvalues --    2.81315   2.91348   3.02802   3.14819   3.18657
 Alpha virt. eigenvalues --    3.42090   4.14297   4.14872   4.19466   4.20688
 Alpha virt. eigenvalues --    4.24542   4.26113   4.30202   4.30974   4.32221
 Alpha virt. eigenvalues --    4.39668   4.49239   4.61287   4.79607
          Condensed to atoms (all electrons):
              1          2          3          4          5          6
     1  Li   2.357891   0.348879  -0.024185   0.003984   0.002149   0.002158
     2  C    0.348879   4.916139   0.512621  -0.028503  -0.050676  -0.010885
     3  C   -0.024185   0.512621   4.964097   0.563887  -0.035330  -0.037019
     4  C    0.003984  -0.028503   0.563887   4.857077   0.516090  -0.011916
     5  C    0.002149  -0.050676  -0.035330   0.516090   5.118433   0.492724
     6  C    0.002158  -0.010885  -0.037019  -0.011916   0.492724   4.475611
     7  C   -0.018545   0.485064  -0.064796  -0.032044  -0.075188   0.557043
     8  O    0.000604   0.004702   0.000108   0.004110  -0.056642   0.240967
     9  Si  -0.000061   0.000243   0.000246  -0.000337   0.004808  -0.013136
    10  C   -0.000013   0.000000  -0.000000   0.000001  -0.000069   0.000185
    11  C    0.000002  -0.000000  -0.000000   0.000000  -0.000004  -0.000077
    12  C    0.000001  -0.000000   0.000000  -0.000000   0.000001   0.000010
    13  C    0.000001  -0.000000  -0.000000   0.000000  -0.000004  -0.000073
    14  C    0.000020   0.000002  -0.000002   0.000059  -0.002040  -0.002391
    15  C    0.000019   0.000001  -0.000002   0.000058  -0.002021  -0.002321
    16  H   -0.015101  -0.050161   0.349625  -0.055783   0.004774   0.000899
    17  H   -0.000211   0.006892  -0.046755   0.343050  -0.047806   0.004481
    18  H   -0.000144   0.000253   0.004641  -0.039971   0.340304  -0.046613
    19  H   -0.016772  -0.049527   0.006682   0.000404   0.006071  -0.048874
    20  H   -0.000001  -0.000000  -0.000000   0.000000   0.000001  -0.000007
    21  H    0.000042   0.000000   0.000000  -0.000000   0.000010   0.000035
    22  H   -0.000001   0.000000   0.000000  -0.000000  -0.000000   0.000000
    23  H   -0.000000  -0.000000  -0.000000   0.000000   0.000000   0.000000
    24  H   -0.000000   0.000000  -0.000000   0.000000  -0.000000  -0.000000
    25  H   -0.000000  -0.000000  -0.000000   0.000000   0.000000   0.000000
    26  H    0.000041   0.000000   0.000000  -0.000000   0.000010   0.000037
    27  H   -0.000001  -0.000000  -0.000000   0.000000   0.000001  -0.000007
    28  H   -0.000001   0.000000   0.000000  -0.000000  -0.000000   0.000000
    29  H    0.000006   0.000000  -0.000000  -0.000003   0.000131  -0.000037
    30  H   -0.000002  -0.000000   0.000000  -0.000001   0.000026   0.000072
    31  H   -0.000003  -0.000002  -0.000004   0.000065   0.001414   0.000166
    32  H    0.000005   0.000000  -0.000000  -0.000003   0.000126  -0.000041
    33  H   -0.000003  -0.000002  -0.000004   0.000057   0.001316   0.000168
    34  H   -0.000002  -0.000000   0.000000  -0.000001   0.000023   0.000068
              7          8          9         10         11         12
     1  Li  -0.018545   0.000604  -0.000061  -0.000013   0.000002   0.000001
     2  C    0.485064   0.004702   0.000243   0.000000  -0.000000  -0.000000
     3  C   -0.064796   0.000108   0.000246  -0.000000  -0.000000   0.000000
     4  C   -0.032044   0.004110  -0.000337   0.000001   0.000000  -0.000000
     5  C   -0.075188  -0.056642   0.004808  -0.000069  -0.000004   0.000001
     6  C    0.557043   0.240967  -0.013136   0.000185  -0.000077   0.000010
     7  C    5.103582  -0.061570  -0.003615   0.000003   0.000004   0.000000
     8  O   -0.061570   8.224482   0.346159  -0.016211  -0.002407   0.000301
     9  Si  -0.003615   0.346159  11.807709   0.334818  -0.021262  -0.014480
    10  C    0.000003  -0.016211   0.334818   4.993851   0.377369   0.373270
    11  C    0.000004  -0.002407  -0.021262   0.377369   5.137982  -0.059164
    12  C    0.000000   0.000301  -0.014480   0.373270  -0.059164   5.139771
    13  C    0.000003  -0.002391  -0.021068   0.377321  -0.058198  -0.059161
    14  C   -0.000075  -0.018249   0.381442  -0.024240  -0.004373  -0.003399
    15  C   -0.000070  -0.018107   0.381096  -0.024295   0.000958  -0.003345
    16  H    0.006318   0.000003  -0.000009  -0.000000   0.000000  -0.000000
    17  H    0.000293  -0.000040  -0.000110  -0.000000  -0.000000   0.000000
    18  H    0.005157  -0.007386   0.012526  -0.000035   0.000002   0.000002
    19  H    0.339648  -0.000302   0.000526  -0.000011  -0.000011   0.000000
    20  H    0.000000  -0.000253  -0.005933  -0.033170   0.365439  -0.003986
    21  H   -0.000020   0.003180   0.000042  -0.033455   0.368196   0.005536
    22  H    0.000000  -0.000006   0.003318  -0.034565   0.358630  -0.007212
    23  H   -0.000000  -0.000003  -0.002539  -0.033858  -0.003943   0.364773
    24  H   -0.000000  -0.000006   0.002194  -0.032886  -0.007118   0.362515
    25  H   -0.000000  -0.000003  -0.002718  -0.033823   0.005771   0.364856
    26  H   -0.000020   0.003203  -0.000021  -0.033436  -0.003772   0.005536
    27  H    0.000000  -0.000256  -0.005777  -0.033210   0.005769  -0.003987
    28  H    0.000000  -0.000006   0.003294  -0.034592  -0.007677  -0.007227
    29  H    0.000009  -0.000791  -0.024343  -0.001599   0.000205   0.000015
    30  H    0.000001   0.000508  -0.012397  -0.000896  -0.000021  -0.000284
    31  H   -0.000010  -0.000890  -0.023189   0.001167   0.000065   0.000062
    32  H    0.000008  -0.000785  -0.024368  -0.001571   0.000030  -0.000000
    33  H   -0.000010  -0.000897  -0.023211   0.001164  -0.000009   0.000064
    34  H    0.000001   0.000503  -0.012256  -0.000914   0.000020  -0.000272
             13         14         15         16         17         18
     1  Li   0.000001   0.000020   0.000019  -0.015101  -0.000211  -0.000144
     2  C   -0.000000   0.000002   0.000001  -0.050161   0.006892   0.000253
     3  C   -0.000000  -0.000002  -0.000002   0.349625  -0.046755   0.004641
     4  C    0.000000   0.000059   0.000058  -0.055783   0.343050  -0.039971
     5  C   -0.000004  -0.002040  -0.002021   0.004774  -0.047806   0.340304
     6  C   -0.000073  -0.002391  -0.002321   0.000899   0.004481  -0.046613
     7  C    0.000003  -0.000075  -0.000070   0.006318   0.000293   0.005157
     8  O   -0.002391  -0.018249  -0.018107   0.000003  -0.000040  -0.007386
     9  Si  -0.021068   0.381442   0.381096  -0.000009  -0.000110   0.012526
    10  C    0.377321  -0.024240  -0.024295  -0.000000  -0.000000  -0.000035
    11  C   -0.058198  -0.004373   0.000958   0.000000  -0.000000   0.000002
    12  C   -0.059161  -0.003399  -0.003345  -0.000000   0.000000   0.000002
    13  C    5.137667   0.000961  -0.004330   0.000000  -0.000000   0.000002
    14  C    0.000961   5.316083  -0.035198   0.000000   0.000002  -0.001035
    15  C   -0.004330  -0.035198   5.315782   0.000000   0.000002  -0.000966
    16  H    0.000000   0.000000   0.000000   0.681270  -0.003813  -0.000233
    17  H   -0.000000   0.000002   0.000002  -0.003813   0.650940  -0.006973
    18  H    0.000002  -0.001035  -0.000966  -0.000233  -0.006973   0.619064
    19  H   -0.000011   0.000002   0.000002  -0.000133   0.000028  -0.000199
    20  H    0.005765   0.001508  -0.000011  -0.000000  -0.000000   0.000000
    21  H   -0.003762  -0.000233   0.000035  -0.000000   0.000000   0.000001
    22  H   -0.007679   0.000029  -0.000032  -0.000000   0.000000  -0.000000
    23  H    0.005770   0.001051  -0.000254  -0.000000  -0.000000   0.000000
    24  H   -0.007118  -0.000001  -0.000000   0.000000  -0.000000  -0.000000
    25  H   -0.003952  -0.000236   0.001063  -0.000000  -0.000000   0.000000
    26  H    0.368234   0.000035  -0.000216  -0.000000   0.000000   0.000001
    27  H    0.365335  -0.000011   0.001485  -0.000000  -0.000000   0.000000
    28  H    0.358611  -0.000032   0.000025  -0.000000   0.000000  -0.000000
    29  H    0.000030   0.364192   0.001237  -0.000000   0.000000  -0.000081
    30  H    0.000021   0.351898  -0.000469  -0.000000  -0.000000   0.000036
    31  H   -0.000009   0.361235  -0.001567  -0.000000  -0.000004   0.002985
    32  H    0.000218   0.001240   0.364153  -0.000000   0.000000  -0.000079
    33  H    0.000061  -0.001569   0.361344  -0.000000  -0.000004   0.002983
    34  H   -0.000005  -0.000483   0.352025  -0.000000  -0.000000   0.000033
             19         20         21         22         23         24
     1  Li  -0.016772  -0.000001   0.000042  -0.000001  -0.000000  -0.000000
     2  C   -0.049527  -0.000000   0.000000   0.000000  -0.000000   0.000000
     3  C    0.006682  -0.000000   0.000000   0.000000  -0.000000  -0.000000
     4  C    0.000404   0.000000  -0.000000  -0.000000   0.000000   0.000000
     5  C    0.006071   0.000001   0.000010  -0.000000   0.000000  -0.000000
     6  C   -0.048874  -0.000007   0.000035   0.000000   0.000000  -0.000000
     7  C    0.339648   0.000000  -0.000020   0.000000  -0.000000  -0.000000
     8  O   -0.000302  -0.000253   0.003180  -0.000006  -0.000003  -0.000006
     9  Si   0.000526  -0.005933   0.000042   0.003318  -0.002539   0.002194
    10  C   -0.000011  -0.033170  -0.033455  -0.034565  -0.033858  -0.032886
    11  C   -0.000011   0.365439   0.368196   0.358630  -0.003943  -0.007118
    12  C    0.000000  -0.003986   0.005536  -0.007212   0.364773   0.362515
    13  C   -0.000011   0.005765  -0.003762  -0.007679   0.005770  -0.007118
    14  C    0.000002   0.001508  -0.000233   0.000029   0.001051  -0.000001
    15  C    0.000002  -0.000011   0.000035  -0.000032  -0.000254  -0.000000
    16  H   -0.000133  -0.000000  -0.000000  -0.000000  -0.000000   0.000000
    17  H    0.000028  -0.000000   0.000000   0.000000  -0.000000  -0.000000
    18  H   -0.000199   0.000000   0.000001  -0.000000   0.000000  -0.000000
    19  H    0.668694  -0.000000   0.000070  -0.000000  -0.000000  -0.000000
    20  H   -0.000000   0.588524  -0.028822  -0.032229   0.004341  -0.000507
    21  H    0.000070  -0.028822   0.558263  -0.030791  -0.000033  -0.000114
    22  H   -0.000000  -0.032229  -0.030791   0.609647  -0.000570   0.007647
    23  H   -0.000000   0.004341  -0.000033  -0.000570   0.583755  -0.030865
    24  H   -0.000000  -0.000507  -0.000114   0.007647  -0.030865   0.594833
    25  H   -0.000000  -0.000037  -0.000183  -0.000112  -0.030544  -0.030856
    26  H    0.000070  -0.000024   0.004064  -0.000568  -0.000183  -0.000114
    27  H   -0.000000  -0.000196  -0.000024  -0.000104  -0.000038  -0.000508
    28  H   -0.000000  -0.000104  -0.000569   0.007901  -0.000112   0.007658
    29  H   -0.000000   0.003414   0.000010  -0.000048   0.000127  -0.000011
    30  H   -0.000000   0.000030   0.000009  -0.000010   0.002898  -0.000003
    31  H   -0.000001  -0.000001  -0.000010   0.000001  -0.000014   0.000001
    32  H   -0.000000  -0.000000  -0.000002  -0.000001   0.000014  -0.000011
    33  H   -0.000001  -0.000000  -0.000000   0.000000  -0.000008   0.000001
    34  H   -0.000000  -0.000001  -0.000001  -0.000001  -0.000029  -0.000002
             25         26         27         28         29         30
     1  Li  -0.000000   0.000041  -0.000001  -0.000001   0.000006  -0.000002
     2  C   -0.000000   0.000000  -0.000000   0.000000   0.000000  -0.000000
     3  C   -0.000000   0.000000  -0.000000   0.000000  -0.000000   0.000000
     4  C    0.000000  -0.000000   0.000000  -0.000000  -0.000003  -0.000001
     5  C    0.000000   0.000010   0.000001  -0.000000   0.000131   0.000026
     6  C    0.000000   0.000037  -0.000007   0.000000  -0.000037   0.000072
     7  C   -0.000000  -0.000020   0.000000   0.000000   0.000009   0.000001
     8  O   -0.000003   0.003203  -0.000256  -0.000006  -0.000791   0.000508
     9  Si  -0.002718  -0.000021  -0.005777   0.003294  -0.024343  -0.012397
    10  C   -0.033823  -0.033436  -0.033210  -0.034592  -0.001599  -0.000896
    11  C    0.005771  -0.003772   0.005769  -0.007677   0.000205  -0.000021
    12  C    0.364856   0.005536  -0.003987  -0.007227   0.000015  -0.000284
    13  C   -0.003952   0.368234   0.365335   0.358611   0.000030   0.000021
    14  C   -0.000236   0.000035  -0.000011  -0.000032   0.364192   0.351898
    15  C    0.001063  -0.000216   0.001485   0.000025   0.001237  -0.000469
    16  H   -0.000000  -0.000000  -0.000000  -0.000000  -0.000000  -0.000000
    17  H   -0.000000   0.000000  -0.000000   0.000000   0.000000  -0.000000
    18  H    0.000000   0.000001   0.000000  -0.000000  -0.000081   0.000036
    19  H   -0.000000   0.000070  -0.000000  -0.000000  -0.000000  -0.000000
    20  H   -0.000037  -0.000024  -0.000196  -0.000104   0.003414   0.000030
    21  H   -0.000183   0.004064  -0.000024  -0.000569   0.000010   0.000009
    22  H   -0.000112  -0.000568  -0.000104   0.007901  -0.000048  -0.000010
    23  H   -0.030544  -0.000183  -0.000038  -0.000112   0.000127   0.002898
    24  H   -0.030856  -0.000114  -0.000508   0.007658  -0.000011  -0.000003
    25  H    0.583839  -0.000033   0.004352  -0.000568   0.000013  -0.000035
    26  H   -0.000033   0.558239  -0.028815  -0.030820  -0.000002  -0.000001
    27  H    0.004352  -0.028815   0.588648  -0.032220  -0.000000  -0.000001
    28  H   -0.000568  -0.030820  -0.032220   0.609787  -0.000001  -0.000001
    29  H    0.000013  -0.000002  -0.000000  -0.000001   0.537126  -0.023251
    30  H   -0.000035  -0.000001  -0.000001  -0.000001  -0.023251   0.550363
    31  H   -0.000007  -0.000000  -0.000000   0.000000  -0.021042  -0.023475
    32  H    0.000140   0.000002   0.003401  -0.000049  -0.000023   0.000001
    33  H   -0.000012  -0.000010  -0.000002   0.000001   0.000002   0.000000
    34  H    0.002843   0.000008   0.000017  -0.000009   0.000002   0.000127
             31         32         33         34
     1  Li  -0.000003   0.000005  -0.000003  -0.000002
     2  C   -0.000002   0.000000  -0.000002  -0.000000
     3  C   -0.000004  -0.000000  -0.000004   0.000000
     4  C    0.000065  -0.000003   0.000057  -0.000001
     5  C    0.001414   0.000126   0.001316   0.000023
     6  C    0.000166  -0.000041   0.000168   0.000068
     7  C   -0.000010   0.000008  -0.000010   0.000001
     8  O   -0.000890  -0.000785  -0.000897   0.000503
     9  Si  -0.023189  -0.024368  -0.023211  -0.012256
    10  C    0.001167  -0.001571   0.001164  -0.000914
    11  C    0.000065   0.000030  -0.000009   0.000020
    12  C    0.000062  -0.000000   0.000064  -0.000272
    13  C   -0.000009   0.000218   0.000061  -0.000005
    14  C    0.361235   0.001240  -0.001569  -0.000483
    15  C   -0.001567   0.364153   0.361344   0.352025
    16  H   -0.000000  -0.000000  -0.000000  -0.000000
    17  H   -0.000004   0.000000  -0.000004  -0.000000
    18  H    0.002985  -0.000079   0.002983   0.000033
    19  H   -0.000001  -0.000000  -0.000001  -0.000000
    20  H   -0.000001  -0.000000  -0.000000  -0.000001
    21  H   -0.000010  -0.000002  -0.000000  -0.000001
    22  H    0.000001  -0.000001   0.000000  -0.000001
    23  H   -0.000014   0.000014  -0.000008  -0.000029
    24  H    0.000001  -0.000011   0.000001  -0.000002
    25  H   -0.000007   0.000140  -0.000012   0.002843
    26  H   -0.000000   0.000002  -0.000010   0.000008
    27  H   -0.000000   0.003401  -0.000002   0.000017
    28  H    0.000000  -0.000049   0.000001  -0.000009
    29  H   -0.021042  -0.000023   0.000002   0.000002
    30  H   -0.023475   0.000001   0.000000   0.000127
    31  H    0.534211   0.000002   0.000046   0.000001
    32  H    0.000002   0.537339  -0.020994  -0.023321
    33  H    0.000046  -0.020994   0.534062  -0.023494
    34  H    0.000001  -0.023321  -0.023494   0.549949
 Mulliken atomic charges:
              1
     1  Li   0.359243
     2  C   -0.085042
     3  C   -0.193810
     4  C   -0.120281
     5  C   -0.218634
     6  C    0.398771
     7  C   -0.241173
     8  O   -0.641630
     9  Si   0.932409
    10  C   -0.086302
    11  C   -0.452405
    12  C   -0.454193
    13  C   -0.452237
    14  C   -0.686192
    15  C   -0.686082
    16  H    0.082342
    17  H    0.100029
    18  H    0.115726
    19  H    0.093645
    20  H    0.136260
    21  H    0.158524
    22  H    0.126755
    23  H    0.140265
    24  H    0.135271
    25  H    0.140241
    26  H    0.158555
    27  H    0.136150
    28  H    0.126709
    29  H    0.164716
    30  H    0.154856
    31  H    0.168811
    32  H    0.164570
    33  H    0.168963
    34  H    0.155168
 Sum of Mulliken atomic charges =  -0.00000
 Mulliken charges with hydrogens summed into heavy atoms:
              1
     1  Li   0.359243
     2  C   -0.085042
     3  C   -0.111468
     4  C   -0.020252
     5  C   -0.102908
     6  C    0.398771
     7  C   -0.147528
     8  O   -0.641630
     9  Si   0.932409
    10  C   -0.086302
    11  C   -0.030866
    12  C   -0.038416
    13  C   -0.030824
    14  C   -0.197809
    15  C   -0.197381
 Sum of Mulliken charges with hydrogens summed into heavy atoms =  -0.00000
 Electronic spatial extent (au):  <R**2>=           4150.0780
 Charge=             -0.0000 electrons
 Dipole moment (field-independent basis, Debye):
    X=             -3.8195    Y=              3.7875    Z=              0.0160  Tot=              5.3790
 Quadrupole moment (field-independent basis, Debye-Ang):
   XX=            -58.8858   YY=            -77.7431   ZZ=           -100.6489
[...]
     2   Li    1  S      Val( 2S)     0.95889
     3   Li    1  S      Ryd( 3S)     0.00368
     4   Li    1  S      Ryd( 4S)     0.00000
     5   Li    1  px     Val( 2p)     0.05629
     6   Li    1  px     Ryd( 3p)     0.00000
     7   Li    1  py     Val( 2p)     0.09527
     8   Li    1  py     Ryd( 3p)     0.00000
     9   Li    1  pz     Ryd( 3p)     0.00000
    10   Li    1  pz     Val( 2p)     0.00000
    11   Li    1  dxy    Ryd( 3d)     0.00000
    12   Li    1  dxz    Ryd( 3d)     0.00000
    13   Li    1  dyz    Ryd( 3d)     0.00000
    14   Li    1  dx2y2  Ryd( 3d)     0.00000
    15   Li    1  dz2    Ryd( 3d)     0.00000

    16    C    2  S      Cor( 1S)     1.99932
    17    C    2  S      Val( 2S)     1.19708
    18    C    2  S      Ryd( 3S)     0.00419
    19    C    2  S      Ryd( 4S)     0.00001
    20    C    2  px     Val( 2p)     1.15791
    21    C    2  px     Ryd( 3p)     0.00814
    22    C    2  py     Val( 2p)     1.30950
    23    C    2  py     Ryd( 3p)     0.00798
    24    C    2  pz     Val( 2p)     0.71249
    25    C    2  pz     Ryd( 3p)     0.00000
    26    C    2  dxy    Ryd( 3d)     0.00042
    27    C    2  dxz    Ryd( 3d)     0.00053
    28    C    2  dyz    Ryd( 3d)     0.00065
    29    C    2  dx2y2  Ryd( 3d)     0.00106
    30    C    2  dz2    Ryd( 3d)     0.00044

    31    C    3  S      Cor( 1S)     1.99912
    32    C    3  S      Val( 2S)     1.00544
    33    C    3  S      Ryd( 3S)     0.00080
    34    C    3  S      Ryd( 4S)     0.00004
    35    C    3  px     Val( 2p)     1.19727
    36    C    3  px     Ryd( 3p)     0.00413
    37    C    3  py     Val( 2p)     1.08038
    38    C    3  py     Ryd( 3p)     0.00626
    39    C    3  pz     Val( 2p)     0.77033
    40    C    3  pz     Ryd( 3p)     0.00028
    41    C    3  dxy    Ryd( 3d)     0.00097
    42    C    3  dxz    Ryd( 3d)     0.00036
    43    C    3  dyz    Ryd( 3d)     0.00056
    44    C    3  dx2y2  Ryd( 3d)     0.00126
    45    C    3  dz2    Ryd( 3d)     0.00041

    46    C    4  S      Cor( 1S)     1.99912
    47    C    4  S      Val( 2S)     0.98524
    48    C    4  S      Ryd( 3S)     0.00079
    49    C    4  S      Ryd( 4S)     0.00003
    50    C    4  px     Val( 2p)     1.07637
    51    C    4  px     Ryd( 3p)     0.00466
    52    C    4  py     Val( 2p)     1.19321
    53    C    4  py     Ryd( 3p)     0.00570
    54    C    4  pz     Val( 2p)     0.95834
    55    C    4  pz     Ryd( 3p)     0.00048
    56    C    4  dxy    Ryd( 3d)     0.00076
    57    C    4  dxz    Ryd( 3d)     0.00047
    58    C    4  dyz    Ryd( 3d)     0.00036
    59    C    4  dx2y2  Ryd( 3d)     0.00081
    60    C    4  dz2    Ryd( 3d)     0.00041

    61    C    5  S      Cor( 1S)     1.99902
    62    C    5  S      Val( 2S)     0.97611
    63    C    5  S      Ryd( 3S)     0.00065
    64    C    5  S      Ryd( 4S)     0.00006
    65    C    5  px     Val( 2p)     1.12644
    66    C    5  px     Ryd( 3p)     0.00404
    67    C    5  py     Val( 2p)     1.14482
    68    C    5  py     Ryd( 3p)     0.00398
    69    C    5  pz     Val( 2p)     0.99616
    70    C    5  pz     Ryd( 3p)     0.00068
    71    C    5  dxy    Ryd( 3d)     0.00091
    72    C    5  dxz    Ryd( 3d)     0.00043
    73    C    5  dyz    Ryd( 3d)     0.00039
    74    C    5  dx2y2  Ryd( 3d)     0.00057
    75    C    5  dz2    Ryd( 3d)     0.00044

    76    C    6  S      Cor( 1S)     1.99871
    77    C    6  S      Val( 2S)     0.86001
    78    C    6  S      Ryd( 3S)     0.00129
    79    C    6  S      Ryd( 4S)     0.00011
    80    C    6  px     Val( 2p)     0.75731
    81    C    6  px     Ryd( 3p)     0.00601
    82    C    6  py     Val( 2p)     1.08446
    83    C    6  py     Ryd( 3p)     0.00606
    84    C    6  pz     Val( 2p)     0.83597
    85    C    6  pz     Ryd( 3p)     0.00081
    86    C    6  dxy    Ryd( 3d)     0.00164
    87    C    6  dxz    Ryd( 3d)     0.00165
    88    C    6  dyz    Ryd( 3d)     0.00088
    89    C    6  dx2y2  Ryd( 3d)     0.00182
    90    C    6  dz2    Ryd( 3d)     0.00043

    91    C    7  S      Cor( 1S)     1.99907
    92    C    7  S      Val( 2S)     0.99013
    93    C    7  S      Ryd( 3S)     0.00106
    94    C    7  S      Ryd( 4S)     0.00005
    95    C    7  px     Val( 2p)     1.12926
    96    C    7  px     Ryd( 3p)     0.00738
    97    C    7  py     Val( 2p)     1.16044
    98    C    7  py     Ryd( 3p)     0.00381
    99    C    7  pz     Val( 2p)     0.98408
   100    C    7  pz     Ryd( 3p)     0.00054
   101    C    7  dxy    Ryd( 3d)     0.00150
   102    C    7  dxz    Ryd( 3d)     0.00032
   103    C    7  dyz    Ryd( 3d)     0.00039
   104    C    7  dx2y2  Ryd( 3d)     0.00052
   105    C    7  dz2    Ryd( 3d)     0.00043

   106    O    8  S      Cor( 1S)     1.99976
   107    O    8  S      Val( 2S)     1.64912
   108    O    8  S      Ryd( 3S)     0.00194
   109    O    8  S      Ryd( 4S)     0.00011
   110    O    8  px     Val( 2p)     1.53456
   111    O    8  px     Ryd( 3p)     0.00129
   112    O    8  py     Val( 2p)     1.88171
   113    O    8  py     Ryd( 3p)     0.00270
   114    O    8  pz     Val( 2p)     1.71122
   115    O    8  pz     Ryd( 3p)     0.00126
   116    O    8  dxy    Ryd( 3d)     0.00153
   117    O    8  dxz    Ryd( 3d)     0.00026
   118    O    8  dyz    Ryd( 3d)     0.00114
   119    O    8  dx2y2  Ryd( 3d)     0.00129
   120    O    8  dz2    Ryd( 3d)     0.00091

   121   Si    9  S      Cor( 1S)     2.00000
   122   Si    9  S      Cor( 2S)     1.99848
   123   Si    9  S      Val( 3S)     0.74308
   124   Si    9  S      Ryd( 4S)     0.00216
   125   Si    9  S      Ryd( 5S)     0.00001
   126   Si    9  px     Cor( 2p)     1.99957
   127   Si    9  px     Val( 3p)     0.31868
   128   Si    9  px     Ryd( 4p)     0.00209
   129   Si    9  py     Cor( 2p)     1.99969
   130   Si    9  py     Val( 3p)     0.38291
   131   Si    9  py     Ryd( 4p)     0.00343
   132   Si    9  pz     Cor( 2p)     1.99981
   133   Si    9  pz     Val( 3p)     0.43992
   134   Si    9  pz     Ryd( 4p)     0.00341
   135   Si    9  dxy    Ryd( 3d)     0.00778
   136   Si    9  dxz    Ryd( 3d)     0.00381
   137   Si    9  dyz    Ryd( 3d)     0.00955
   138   Si    9  dx2y2  Ryd( 3d)     0.00554
   139   Si    9  dz2    Ryd( 3d)     0.00721

   140    C   10  S      Cor( 1S)     1.99916
   141    C   10  S      Val( 2S)     1.02973
   142    C   10  S      Ryd( 3S)     0.00339
   143    C   10  S      Ryd( 4S)     0.00001
   144    C   10  px     Val( 2p)     1.23815
   145    C   10  px     Ryd( 3p)     0.00414
   146    C   10  py     Val( 2p)     1.19600
   147    C   10  py     Ryd( 3p)     0.00391
   148    C   10  pz     Val( 2p)     1.06574
   149    C   10  pz     Ryd( 3p)     0.00219
   150    C   10  dxy    Ryd( 3d)     0.00110
   151    C   10  dxz    Ryd( 3d)     0.00038
   152    C   10  dyz    Ryd( 3d)     0.00083
   153    C   10  dx2y2  Ryd( 3d)     0.00038
   154    C   10  dz2    Ryd( 3d)     0.00090

   155    C   11  S      Cor( 1S)     1.99941
   156    C   11  S      Val( 2S)     1.08864
   157    C   11  S      Ryd( 3S)     0.00080
   158    C   11  S      Ryd( 4S)     0.00002
   159    C   11  px     Val( 2p)     1.25513
   160    C   11  px     Ryd( 3p)     0.00316
   161    C   11  py     Val( 2p)     1.18994
   162    C   11  py     Ryd( 3p)     0.00245
   163    C   11  pz     Val( 2p)     1.13329
   164    C   11  pz     Ryd( 3p)     0.00212
   165    C   11  dxy    Ryd( 3d)     0.00120
   166    C   11  dxz    Ryd( 3d)     0.00013
   167    C   11  dyz    Ryd( 3d)     0.00085
   168    C   11  dx2y2  Ryd( 3d)     0.00029
   169    C   11  dz2    Ryd( 3d)     0.00095

   170    C   12  S      Cor( 1S)     1.99941
   171    C   12  S      Val( 2S)     1.08826
   172    C   12  S      Ryd( 3S)     0.00078
   173    C   12  S      Ryd( 4S)     0.00002
   174    C   12  px     Val( 2p)     1.12264
   175    C   12  px     Ryd( 3p)     0.00185
   176    C   12  py     Val( 2p)     1.21290
   177    C   12  py     Ryd( 3p)     0.00308
   178    C   12  pz     Val( 2p)     1.24319
   179    C   12  pz     Ryd( 3p)     0.00263
   180    C   12  dxy    Ryd( 3d)     0.00091
   181    C   12  dxz    Ryd( 3d)     0.00018
   182    C   12  dyz    Ryd( 3d)     0.00121
   183    C   12  dx2y2  Ryd( 3d)     0.00043
   184    C   12  dz2    Ryd( 3d)     0.00069

   185    C   13  S      Cor( 1S)     1.99941
   186    C   13  S      Val( 2S)     1.08864
   187    C   13  S      Ryd( 3S)     0.00080
   188    C   13  S      Ryd( 4S)     0.00002
   189    C   13  px     Val( 2p)     1.25520
   190    C   13  px     Ryd( 3p)     0.00316
   191    C   13  py     Val( 2p)     1.19136
   192    C   13  py     Ryd( 3p)     0.00246
   193    C   13  pz     Val( 2p)     1.13181
   194    C   13  pz     Ryd( 3p)     0.00212
   195    C   13  dxy    Ryd( 3d)     0.00119
   196    C   13  dxz    Ryd( 3d)     0.00013
   197    C   13  dyz    Ryd( 3d)     0.00086
   198    C   13  dx2y2  Ryd( 3d)     0.00029
   199    C   13  dz2    Ryd( 3d)     0.00094

   200    C   14  S      Cor( 1S)     1.99944
   201    C   14  S      Val( 2S)     1.23004
   202    C   14  S      Ryd( 3S)     0.00197
   203    C   14  S      Ryd( 4S)     0.00001
   204    C   14  px     Val( 2p)     1.27576
   205    C   14  px     Ryd( 3p)     0.00098
   206    C   14  py     Val( 2p)     1.32954
   207    C   14  py     Ryd( 3p)     0.00166
   208    C   14  pz     Val( 2p)     1.39118
   209    C   14  pz     Ryd( 3p)     0.00283
   210    C   14  dxy    Ryd( 3d)     0.00098
   211    C   14  dxz    Ryd( 3d)     0.00002
   212    C   14  dyz    Ryd( 3d)     0.00082
   213    C   14  dx2y2  Ryd( 3d)     0.00023
   214    C   14  dz2    Ryd( 3d)     0.00069

   215    C   15  S      Cor( 1S)     1.99944
   216    C   15  S      Val( 2S)     1.23004
   217    C   15  S      Ryd( 3S)     0.00197
   218    C   15  S      Ryd( 4S)     0.00001
   219    C   15  px     Val( 2p)     1.27577
   220    C   15  px     Ryd( 3p)     0.00098
   221    C   15  py     Val( 2p)     1.33080
   222    C   15  py     Ryd( 3p)     0.00169
   223    C   15  pz     Val( 2p)     1.38972
   224    C   15  pz     Ryd( 3p)     0.00281
   225    C   15  dxy    Ryd( 3d)     0.00098
   226    C   15  dxz    Ryd( 3d)     0.00003
   227    C   15  dyz    Ryd( 3d)     0.00082
   228    C   15  dx2y2  Ryd( 3d)     0.00023
   229    C   15  dz2    Ryd( 3d)     0.00070

   230    H   16  S      Val( 1S)     0.75847
   231    H   16  S      Ryd( 2S)     0.00071

   232    H   17  S      Val( 1S)     0.75048
   233    H   17  S      Ryd( 2S)     0.00104

   234    H   18  S      Val( 1S)     0.75446
   235    H   18  S      Ryd( 2S)     0.00088

   236    H   19  S      Val( 1S)     0.74835
   237    H   19  S      Ryd( 2S)     0.00129

   238    H   20  S      Val( 1S)     0.77043
   239    H   20  S      Ryd( 2S)     0.00108

   240    H   21  S      Val( 1S)     0.75914
   241    H   21  S      Ryd( 2S)     0.00129

   242    H   22  S      Val( 1S)     0.76270
   243    H   22  S      Ryd( 2S)     0.00143

   244    H   23  S      Val( 1S)     0.76884
   245    H   23  S      Ryd( 2S)     0.00111

   246    H   24  S      Val( 1S)     0.75961
   247    H   24  S      Ryd( 2S)     0.00144

   248    H   25  S      Val( 1S)     0.76886
   249    H   25  S      Ryd( 2S)     0.00111

   250    H   26  S      Val( 1S)     0.75911
   251    H   26  S      Ryd( 2S)     0.00129

   252    H   27  S      Val( 1S)     0.77046
   253    H   27  S      Ryd( 2S)     0.00108

   254    H   28  S      Val( 1S)     0.76271
   255    H   28  S      Ryd( 2S)     0.00143

   256    H   29  S      Val( 1S)     0.73490
   257    H   29  S      Ryd( 2S)     0.00064

   258    H   30  S      Val( 1S)     0.73309
   259    H   30  S      Ryd( 2S)     0.00039

   260    H   31  S      Val( 1S)     0.74652
   261    H   31  S      Ryd( 2S)     0.00074

   262    H   32  S      Val( 1S)     0.73491
   263    H   32  S      Ryd( 2S)     0.00064

   264    H   33  S      Val( 1S)     0.74662
   265    H   33  S      Ryd( 2S)     0.00073

   266    H   34  S      Val( 1S)     0.73306
   267    H   34  S      Ryd( 2S)     0.00039

 WARNING:  1 low occupancy (<1.9990e) core orbital  found on Li    1
           1 low occupancy (<1.9990e) core orbital  found on  C    6
           1 low occupancy (<1.9990e) core orbital  found on Si    9


 Summary of Natural Population Analysis:                  
                                                          
                                       Natural Population 
                Natural  -----------------------------------------------
    Atom  No    Charge         Core      Valence    Rydberg      Total
 -----------------------------------------------------------------------
     Li    1   -0.11280      1.99868     1.11044    0.00368     3.11280
      C    2   -0.39970      1.99932     4.37697    0.02340     6.39970
      C    3   -0.06760      1.99912     4.05342    0.01507     6.06760
      C    4   -0.22676      1.99912     4.21316    0.01448     6.22676
      C    5   -0.25469      1.99902     4.24352    0.01215     6.25469
      C    6    0.44281      1.99871     3.53775    0.02073     5.55719
      C    7   -0.27897      1.99907     4.26390    0.01600     6.27897
      O    8   -0.78878      1.99976     6.77661    0.01242     8.78878
     Si    9    2.07288      9.99755     1.88459    0.04499    11.92712
      C   10   -0.54600      1.99916     4.52962    0.01722     6.54600
      C   11   -0.67839      1.99941     4.66700    0.01197     6.67839
      C   12   -0.67817      1.99941     4.66698    0.01178     6.67817
      C   13   -0.67839      1.99941     4.66701    0.01197     6.67839
      C   14   -1.23616      1.99944     5.22652    0.01020     7.23616
      C   15   -1.23597      1.99944     5.22632    0.01021     7.23597
      H   16    0.24082      0.00000     0.75847    0.00071     0.75918
      H   17    0.24849      0.00000     0.75048    0.00104     0.75151
      H   18    0.24466      0.00000     0.75446    0.00088     0.75534
      H   19    0.25035      0.00000     0.74835    0.00129     0.74965
      H   20    0.22849      0.00000     0.77043    0.00108     0.77151
      H   21    0.23957      0.00000     0.75914    0.00129     0.76043
      H   22    0.23587      0.00000     0.76270    0.00143     0.76413
      H   23    0.23005      0.00000     0.76884    0.00111     0.76995
      H   24    0.23895      0.00000     0.75961    0.00144     0.76105
      H   25    0.23003      0.00000     0.76886    0.00111     0.76997
      H   26    0.23960      0.00000     0.75911    0.00129     0.76040
      H   27    0.22846      0.00000     0.77046    0.00108     0.77154
      H   28    0.23585      0.00000     0.76271    0.00143     0.76415
      H   29    0.26446      0.00000     0.73490    0.00064     0.73554
      H   30    0.26652      0.00000     0.73309    0.00039     0.73348
      H   31    0.25274      0.00000     0.74652    0.00074     0.74726
      H   32    0.26445      0.00000     0.73491    0.00064     0.73555
      H   33    0.25264      0.00000     0.74662    0.00073     0.74736
      H   34    0.26655      0.00000     0.73306    0.00039     0.73345
 =======================================================================
   * Total *   -0.00813     37.98662    77.76653    0.25499   116.00813

                                 Natural Population      
 --------------------------------------------------------
   Core                      37.98662 ( 99.9648% of  38)
   Valence                   77.76653 ( 99.7007% of  78)
   Natural Minimal Basis    115.75314 ( 99.7872% of 116)
   Natural Rydberg Basis      0.25499 (  0.2198% of 116)
 --------------------------------------------------------

    Atom  No          Natural Electron Configuration
 ----------------------------------------------------------------------------
     Li    1      [core]2S( 0.96)2p( 0.15)
      C    2      [core]2S( 1.20)2p( 3.18)3p( 0.02)
      C    3      [core]2S( 1.01)2p( 3.05)3p( 0.01)
      C    4      [core]2S( 0.99)2p( 3.23)3p( 0.01)
      C    5      [core]2S( 0.98)2p( 3.27)3p( 0.01)
      C    6      [core]2S( 0.86)2p( 2.68)3p( 0.01)3d( 0.01)
      C    7      [core]2S( 0.99)2p( 3.27)3p( 0.01)
      O    8      [core]2S( 1.65)2p( 5.13)3p( 0.01)3d( 0.01)
     Si    9      [core]3S( 0.74)3p( 1.14)3d( 0.03)4p( 0.01)
      C   10      [core]2S( 1.03)2p( 3.50)3p( 0.01)
      C   11      [core]2S( 1.09)2p( 3.58)3p( 0.01)
      C   12      [core]2S( 1.09)2p( 3.58)3p( 0.01)
      C   13      [core]2S( 1.09)2p( 3.58)3p( 0.01)
      C   14      [core]2S( 1.23)2p( 4.00)3p( 0.01)
      C   15      [core]2S( 1.23)2p( 4.00)3p( 0.01)
      H   16            1S( 0.76)
      H   17            1S( 0.75)
      H   18            1S( 0.75)
      H   19            1S( 0.75)
      H   20            1S( 0.77)
      H   21            1S( 0.76)
      H   22            1S( 0.76)
      H   23            1S( 0.77)
      H   24            1S( 0.76)
      H   25            1S( 0.77)
      H   26            1S( 0.76)
      H   27            1S( 0.77)
      H   28            1S( 0.76)
      H   29            1S( 0.73)
      H   30            1S( 0.73)
      H   31            1S( 0.75)
      H   32            1S( 0.73)
      H   33            1S( 0.75)
      H   34            1S( 0.73)


 NBO analysis skipped by request.
 Leave Link  607 at Sun Oct  3 07:54:26 2021, MaxMem= 1342177280 cpu:      22.7
 (Enter /sw/target/amd/app/gaussian/Gaussian09RevA.02_gcc-4.9.2/g09/l9999.exe)
 1\1\GINC-HERMITE\SP\RTD-B3LYP-FC\6-31G(d)\C12H19Li1O1Si1\JSCHLEINITZ\0
 3-Oct-2021\0\\#p TD(NStates=10, Root=1) b3lyp/6-31G* volume pop=NPA de
 nsity=current Geom=AllCheck Guess=Read\\[Li]c1cccc(c1)O[Si](C(C)(C)C)(
 C)C_conf_0\\0,1\Li,0,7.2003676523,2.2884866351,-0.9562780675\C,0,6.732
 8113767,0.4792755805,-1.5910090867\C,0,6.9165600576,0.0518249357,-2.92
 90260525\C,0,6.5796244866,-1.2329421428,-3.3579383497\C,0,6.0383068079
 ,-2.1613885925,-2.46501795\C,0,5.8394465793,-1.7818796033,-1.134020893
 9\C,0,6.1842213588,-0.4869781299,-0.7219242984\O,0,5.3131290012,-2.624
 7194114,-0.1810963708\Si,0,4.758494514,-4.2125348863,-0.2051106239\C,0
 ,4.2056196824,-4.514285061,1.6022734406\C,0,3.0981705259,-3.5101252833
 ,1.9889346681\C,0,3.6612673439,-5.9511096146,1.7554959078\C,0,5.402890
 3863,-4.3225314342,2.5583444599\C,0,3.3037176952,-4.3949266442,-1.3998
 489491\C,0,6.1471309302,-5.3987004604,-0.6970636297\H,0,7.3359073142,0
 .7357708055,-3.6698890008\H,0,6.7355322675,-1.5261010912,-4.3954798655
 \H,0,5.7783532801,-3.1599229548,-2.8039624608\H,0,6.0008490065,-0.2632
 429089,0.3305750166\H,0,2.2009244885,-3.6292033921,1.3691682166\H,0,3.
 4414068595,-2.4747905054,1.8871022319\H,0,2.7937135964,-3.6622787167,3
 .0350717742\H,0,2.7907770345,-6.1333696595,1.1128419433\H,0,3.34176318
 38,-6.1300947683,2.792527489\H,0,4.4191687769,-6.7073645456,1.51545540
 71\H,0,5.8250283847,-3.3149740601,2.4763289954\H,0,6.2072705784,-5.041
 1705126,2.3586947507\H,0,5.0856383424,-4.4705028511,3.601277604\H,0,2.
 4862105803,-3.7139193522,-1.137841348\H,0,2.906265341,-5.417265822,-1.
 3851659393\H,0,3.5978419121,-4.1705011316,-2.4309437264\H,0,7.00554937
 62,-5.3073703483,-0.022136286\H,0,6.5073711146,-5.1995606472,-1.712260
 5013\H,0,5.8060281824,-6.4408613851,-0.6666015487\\Version=AM64L-G09Re
 vA.02\State=1-A\HF=-841.0056597\RMSD=5.457e-09\Dipole=-1.5647597,-5.31
 13071,-1.0853687\Quadrupole=12.7178047,-42.4813255,29.7635208,-20.3447
 842,-3.8669975,-3.2198481\PG=C01 [X(C12H19Li1O1Si1)]\\@


 EDUCATION IS NOT TRAINING BUT RATHER THE PROCESS THAT EQUIPS YOU TO
 ENTERTAIN YOURSELF, A FRIEND, OR AN IDEA.  -- WALLACE STERLING
 Job cpu time:  0 days  3 hours 36 minutes 54.7 seconds.
 File lengths (MBytes):  RWF=    201 Int=      0 D2E=      0 Chk=     32 Scr=      1
 Normal termination of Gaussian 09 at Sun Oct  3 07:54:40 2021.
