 Entering Gaussian System, Link 0=g09
 Input=C12H10F3N3O3_131d_conf_0.com
 Output=C12H10F3N3O3_131d_conf_0.log
 Initial command:
 /sw/target/amd/app/gaussian/Gaussian09RevA.02_gcc-4.9.2/g09/l1.exe /home/jschleinitz/gaussian/Gau-3299303.inp -scrdir=/home/jschleinitz/gaussian/
 Entering Link 1 = /sw/target/amd/app/gaussian/Gaussian09RevA.02_gcc-4.9.2/g09/l1.exe PID=   3299332.
  
 Copyright (c) 1988,1990,1992,1993,1995,1998,2003,2009, Gaussian, Inc.
                  All Rights Reserved.
  
 This is part of the Gaussian(R) 09 program.  It is based on
 the Gaussian(R) 03 system (copyright 2003, Gaussian, Inc.),
 the Gaussian(R) 98 system (copyright 1998, Gaussian, Inc.),
 the Gaussian(R) 94 system (copyright 1995, Gaussian, Inc.),
 the Gaussian 92(TM) system (copyright 1992, Gaussian, Inc.),
 the Gaussian 90(TM) system (copyright 1990, Gaussian, Inc.),
 the Gaussian 88(TM) system (copyright 1988, Gaussian, Inc.),
 the Gaussian 86(TM) system (copyright 1986, Carnegie Mellon
 University), and the Gaussian 82(TM) system (copyright 1983,
 Carnegie Mellon University). Gaussian is a federally registered
 trademark of Gaussian, Inc.
  
 This software contains proprietary and confidential information,
 including trade secrets, belonging to Gaussian, Inc.
  
 This software is provided under written license and may be
 used, copied, transmitted, or stored only in accord with that
 written license.
  
 The following legend is applicable only to US Government
 contracts under FAR:
  
                    RESTRICTED RIGHTS LEGEND
  
 Use, reproduction and disclosure by the US Government is
 subject to restrictions as set forth in subparagraphs (a)
 and (c) of the Commercial Computer Software - Restricted
 Rights clause in FAR 52.227-19.
  
 Gaussian, Inc.
 340 Quinnipiac St., Bldg. 40, Wallingford CT 06492
  
  
 ---------------------------------------------------------------
 Warning -- This program may not be used in any manner that
 competes with the business of Gaussian, Inc. or will provide
 assistance to any competitor of Gaussian, Inc.  The licensee
 of this program is prohibited from giving any competitor of
 Gaussian, Inc. access to this program.  By using this program,
 the user acknowledges that Gaussian, Inc. is engaged in the
 business of creating and licensing software in the field of
 computational chemistry and represents and warrants to the
 licensee that it is not a competitor of Gaussian, Inc. and that
 it will not use this program in any manner prohibited above.
 ---------------------------------------------------------------
  

 Cite this work as:
 Gaussian 09, Revision A.02,
 M. J. Frisch, G. W. Trucks, H. B. Schlegel, G. E. Scuseria, 
 M. A. Robb, J. R. Cheeseman, G. Scalmani, V. Barone, B. Mennucci, 
 G. A. Petersson, H. Nakatsuji, M. Caricato, X. Li, H. P. Hratchian, 
 A. F. Izmaylov, J. Bloino, G. Zheng, J. L. Sonnenberg, M. Hada, 
 M. Ehara, K. Toyota, R. Fukuda, J. Hasegawa, M. Ishida, T. Nakajima, 
 Y. Honda, O. Kitao, H. Nakai, T. Vreven, J. A. Montgomery, Jr., 
 J. E. Peralta, F. Ogliaro, M. Bearpark, J. J. Heyd, E. Brothers, 
 K. N. Kudin, V. N. Staroverov, R. Kobayashi, J. Normand, 
 K. Raghavachari, A. Rendell, J. C. Burant, S. S. Iyengar, J. Tomasi, 
 M. Cossi, N. Rega, J. M. Millam, M. Klene, J. E. Knox, J. B. Cross, 
 V. Bakken, C. Adamo, J. Jaramillo, R. Gomperts, R. E. Stratmann, 
 O. Yazyev, A. J. Austin, R. Cammi, C. Pomelli, J. W. Ochterski, 
 R. L. Martin, K. Morokuma, V. G. Zakrzewski, G. A. Voth, 
 P. Salvador, J. J. Dannenberg, S. Dapprich, A. D. Daniels, 
 O. Farkas, J. B. Foresman, J. V. Ortiz, J. Cioslowski, 
 and D. J. Fox, Gaussian, Inc., Wallingford CT, 2009.
 
 ******************************************
 Gaussian 09:  AM64L-G09RevA.02 11-Jun-2009
                28-Sep-2021 
 ******************************************
 %nproc=5
 Will use up to    5 processors via shared memory.
 %mem=10gb
 %chk=C12H10F3N3O3_131d_conf_0.chk
 -----------------------------------
 #p opt b3lyp/6-31G* scf=(xqc,tight)
 -----------------------------------
 1/14=-1,18=20,19=15,26=3,38=1/1,3;
 2/9=110,12=2,17=6,18=5,40=1/2;
 3/5=1,6=6,7=1,11=2,16=1,25=1,30=1,71=1,74=-5/1,2,3;
 4//1;
 5/5=2,8=3,13=1,32=2,38=5/2,8;
 6/7=2,8=2,9=2,10=2,28=1/1;
 7//1,2,3,16;
 1/14=-1,18=20,19=15/3(2);
 2/9=110/2;
 99//99;
 2/9=110/2;
 3/5=1,6=6,7=1,11=2,16=1,25=1,30=1,71=1,74=-5/1,2,3;
 4/5=5,16=3/1;
 5/5=2,8=3,13=1,32=2,38=5/2,8;
 7//1,2,3,16;
 1/14=-1,18=20,19=15/3(-5);
 2/9=110/2;
 6/7=2,8=2,9=2,10=2,19=2,28=1/1;
 99/9=1/99;
 Leave Link    1 at Tue Sep 28 15:18:16 2021, MaxMem= 1342177280 cpu:       0.1
 (Enter /sw/target/amd/app/gaussian/Gaussian09RevA.02_gcc-4.9.2/g09/l101.exe)
 ------------------------------------------
 COc1nc(Oc2ccc(cc2)C(F)(F)F)nc(n1)OC_conf_0
 ------------------------------------------
 Symbolic Z-matrix:
 Charge =  0 Multiplicity = 1
 C                     3.3988   -0.11356  -1.23271 
 O                     2.60265   0.16849  -0.08834 
 C                     3.24004   1.0101    0.79698 
 N                     2.88824   0.84681   2.06598 
 C                     3.49379   1.67729   2.90131 
 O                     3.21208   1.47387   4.24923 
 C                     4.1649    1.85512   5.16798 
 C                     3.70542   2.41437   6.36143 
 C                     4.61727   2.84353   7.33206 
 C                     5.99839   2.71209   7.11932 
 C                     6.44755   2.10076   5.93992 
 C                     5.53516   1.65347   4.98242 
 C                     7.00677   3.22406   8.11951 
 F                     6.44686   3.72545   9.25476 
 F                     7.87614   2.2575    8.52532 
 F                     7.77551   4.22541   7.60813 
 N                     4.33028   2.65334   2.55592 
 C                     4.6022    2.7072    1.25969 
 N                     4.09766   1.91115   0.3315 
 O                     5.51723   3.62973   0.79607 
 C                     6.10562   4.40491   1.83543 
 H                     2.83115  -0.79573  -1.87305 
 H                     4.3272   -0.61878  -0.94511 
 H                     3.61028   0.78617  -1.82057 
 H                     2.63725   2.52986   6.53453 
 H                     4.24284   3.29065   8.25218 
 H                     7.51348   1.9765    5.75772 
 H                     5.91341   1.16992   4.08542 
 H                     6.81816   5.09641   1.37552 
 H                     6.66343   3.7736    2.53641 
 H                     5.35311   5.00348   2.36049 
 
 NAtoms=     31 NQM=     31 NQMF=      0 NMic=      0 NMicF=      0 NTot=     31.
                    Isotopes and Nuclear Properties:
 (Nuclear quadrupole moments (NQMom) in fm**2, nuclear magnetic moments (NMagM)
  in nuclear magnetons)

  Atom         1           2           3           4           5           6           7           8           9          10
 IAtWgt=          12          16          12          14          12          16          12          12          12          12
 AtmWgt=  12.0000000  15.9949146  12.0000000  14.0030740  12.0000000  15.9949146  12.0000000  12.0000000  12.0000000  12.0000000
 NucSpn=           0           0           0           2           0           0           0           0           0           0
 AtZEff=   0.0000000   0.0000000   0.0000000   0.0000000   0.0000000   0.0000000   0.0000000   0.0000000   0.0000000   0.0000000
 NQMom=    0.0000000   0.0000000   0.0000000   2.0440000   0.0000000   0.0000000   0.0000000   0.0000000   0.0000000   0.0000000
 NMagM=    0.0000000   0.0000000   0.0000000   0.4037610   0.0000000   0.0000000   0.0000000   0.0000000   0.0000000   0.0000000

  Atom        11          12          13          14          15          16          17          18          19          20
 IAtWgt=          12          12          12          19          19          19          14          12          14          16
 AtmWgt=  12.0000000  12.0000000  12.0000000  18.9984032  18.9984032  18.9984032  14.0030740  12.0000000  14.0030740  15.9949146
 NucSpn=           0           0           0           1           1           1           2           0           2           0
 AtZEff=   0.0000000   0.0000000   0.0000000   0.0000000   0.0000000   0.0000000   0.0000000   0.0000000   0.0000000   0.0000000
 NQMom=    0.0000000   0.0000000   0.0000000   0.0000000   0.0000000   0.0000000   2.0440000   0.0000000   2.0440000   0.0000000
 NMagM=    0.0000000   0.0000000   0.0000000   2.6288670   2.6288670   2.6288670   0.4037610   0.0000000   0.4037610   0.0000000

  Atom        21          22          23          24          25          26          27          28          29          30
 IAtWgt=          12           1           1           1           1           1           1           1           1           1
 AtmWgt=  12.0000000   1.0078250   1.0078250   1.0078250   1.0078250   1.0078250   1.0078250   1.0078250   1.0078250   1.0078250
 NucSpn=           0           1           1           1           1           1           1           1           1           1
 AtZEff=   0.0000000   0.0000000   0.0000000   0.0000000   0.0000000   0.0000000   0.0000000   0.0000000   0.0000000   0.0000000
 NQMom=    0.0000000   0.0000000   0.0000000   0.0000000   0.0000000   0.0000000   0.0000000   0.0000000   0.0000000   0.0000000
 NMagM=    0.0000000   2.7928460   2.7928460   2.7928460   2.7928460   2.7928460   2.7928460   2.7928460   2.7928460   2.7928460

  Atom        31
 IAtWgt=           1
 AtmWgt=   1.0078250
 NucSpn=           1
 AtZEff=   0.0000000
 NQMom=    0.0000000
 NMagM=    2.7928460
 Leave Link  101 at Tue Sep 28 15:18:17 2021, MaxMem= 1342177280 cpu:       0.2
 (Enter /sw/target/amd/app/gaussian/Gaussian09RevA.02_gcc-4.9.2/g09/l103.exe)

 GradGradGradGradGradGradGradGradGradGradGradGradGradGradGradGradGradGrad
 Berny optimization.
 Initialization pass.
                           ----------------------------
                           !    Initial Parameters    !
                           ! (Angstroms and Degrees)  !
 --------------------------                            --------------------------
 ! Name  Definition              Value          Derivative Info.                !
 --------------------------------------------------------------------------------
 ! R1    R(1,2)                  1.4223         estimate D2E/DX2                !
 ! R2    R(1,22)                 1.0944         estimate D2E/DX2                !
 ! R3    R(1,23)                 1.0954         estimate D2E/DX2                !
 ! R4    R(1,24)                 1.0954         estimate D2E/DX2                !
 ! R5    R(2,3)                  1.3778         estimate D2E/DX2                !
 ! R6    R(3,4)                  1.3269         estimate D2E/DX2                !
 ! R7    R(3,19)                 1.3282         estimate D2E/DX2                !
 ! R8    R(4,5)                  1.3244         estimate D2E/DX2                !
 ! R9    R(5,6)                  1.392          estimate D2E/DX2                !
 ! R10   R(5,17)                 1.331          estimate D2E/DX2                !
 ! R11   R(6,7)                  1.3774         estimate D2E/DX2                !
 ! R12   R(7,8)                  1.3958         estimate D2E/DX2                !
 ! R13   R(7,12)                 1.3974         estimate D2E/DX2                !
 ! R14   R(8,9)                  1.3992         estimate D2E/DX2                !
 ! R15   R(8,25)                 1.0882         estimate D2E/DX2                !
 ! R16   R(9,10)                 1.4036         estimate D2E/DX2                !
 ! R17   R(9,26)                 1.0894         estimate D2E/DX2                !
 ! R18   R(10,11)                1.4023         estimate D2E/DX2                !
 ! R19   R(10,13)                1.5097         estimate D2E/DX2                !
 ! R20   R(11,12)                1.3962         estimate D2E/DX2                !
 ! R21   R(11,27)                1.0885         estimate D2E/DX2                !
 ! R22   R(12,28)                1.087          estimate D2E/DX2                !
 ! R23   R(13,14)                1.3615         estimate D2E/DX2                !
 ! R24   R(13,15)                1.3619         estimate D2E/DX2                !
 ! R25   R(13,16)                1.362          estimate D2E/DX2                !
 ! R26   R(17,18)                1.3255         estimate D2E/DX2                !
 ! R27   R(18,19)                1.3228         estimate D2E/DX2                !
 ! R28   R(18,20)                1.3796         estimate D2E/DX2                !
 ! R29   R(20,21)                1.4239         estimate D2E/DX2                !
 ! R30   R(21,29)                1.0943         estimate D2E/DX2                !
 ! R31   R(21,30)                1.0959         estimate D2E/DX2                !
 ! R32   R(21,31)                1.0956         estimate D2E/DX2                !
 ! A1    A(2,1,22)             107.7007         estimate D2E/DX2                !
 ! A2    A(2,1,23)             110.7714         estimate D2E/DX2                !
 ! A3    A(2,1,24)             112.1469         estimate D2E/DX2                !
 ! A4    A(22,1,23)            107.8035         estimate D2E/DX2                !
 ! A5    A(22,1,24)            107.3463         estimate D2E/DX2                !
 ! A6    A(23,1,24)            110.862          estimate D2E/DX2                !
 ! A7    A(1,2,3)              112.2821         estimate D2E/DX2                !
 ! A8    A(2,3,4)              114.6254         estimate D2E/DX2                !
 ! A9    A(2,3,19)             119.2034         estimate D2E/DX2                !
 ! A10   A(4,3,19)             126.1449         estimate D2E/DX2                !
 ! A11   A(3,4,5)              113.8776         estimate D2E/DX2                !
 ! A12   A(4,5,6)              115.2501         estimate D2E/DX2                !
 ! A13   A(4,5,17)             125.6953         estimate D2E/DX2                !
 ! A14   A(6,5,17)             119.0531         estimate D2E/DX2                !
 ! A15   A(5,6,7)              117.739          estimate D2E/DX2                !
 ! A16   A(6,7,8)              116.9684         estimate D2E/DX2                !
 ! A17   A(6,7,12)             123.3528         estimate D2E/DX2                !
 ! A18   A(8,7,12)             119.6144         estimate D2E/DX2                !
 ! A19   A(7,8,9)              120.0999         estimate D2E/DX2                !
 ! A20   A(7,8,25)             120.1088         estimate D2E/DX2                !
 ! A21   A(9,8,25)             119.7866         estimate D2E/DX2                !
 ! A22   A(8,9,10)             120.4901         estimate D2E/DX2                !
 ! A23   A(8,9,26)             119.1978         estimate D2E/DX2                !
 ! A24   A(10,9,26)            120.3093         estimate D2E/DX2                !
 ! A25   A(9,10,11)            118.9132         estimate D2E/DX2                !
 ! A26   A(9,10,13)            121.6719         estimate D2E/DX2                !
 ! A27   A(11,10,13)           119.4118         estimate D2E/DX2                !
 ! A28   A(10,11,12)           120.4732         estimate D2E/DX2                !
 ! A29   A(10,11,27)           120.2789         estimate D2E/DX2                !
 ! A30   A(12,11,27)           119.2463         estimate D2E/DX2                !
 ! A31   A(7,12,11)            120.2319         estimate D2E/DX2                !
 ! A32   A(7,12,28)            120.9977         estimate D2E/DX2                !
 ! A33   A(11,12,28)           118.7546         estimate D2E/DX2                !
 ! A34   A(10,13,14)           113.7413         estimate D2E/DX2                !
 ! A35   A(10,13,15)           112.5258         estimate D2E/DX2                !
 ! A36   A(10,13,16)           112.1824         estimate D2E/DX2                !
 ! A37   A(14,13,15)           105.9868         estimate D2E/DX2                !
 ! A38   A(14,13,16)           105.9278         estimate D2E/DX2                !
 ! A39   A(15,13,16)           105.8644         estimate D2E/DX2                !
 ! A40   A(5,17,18)            114.36           estimate D2E/DX2                !
 ! A41   A(17,18,19)           125.6949         estimate D2E/DX2                !
 ! A42   A(17,18,20)           119.4627         estimate D2E/DX2                !
 ! A43   A(19,18,20)           114.8092         estimate D2E/DX2                !
 ! A44   A(3,19,18)            114.1192         estimate D2E/DX2                !
 ! A45   A(18,20,21)           113.1309         estimate D2E/DX2                !
 ! A46   A(20,21,29)           107.838          estimate D2E/DX2                !
 ! A47   A(20,21,30)           111.3217         estimate D2E/DX2                !
 ! A48   A(20,21,31)           111.3125         estimate D2E/DX2                !
 ! A49   A(29,21,30)           107.5432         estimate D2E/DX2                !
 ! A50   A(29,21,31)           107.664          estimate D2E/DX2                !
 ! A51   A(30,21,31)           110.9646         estimate D2E/DX2                !
 ! D1    D(22,1,2,3)           179.1124         estimate D2E/DX2                !
 ! D2    D(23,1,2,3)            61.4468         estimate D2E/DX2                !
 ! D3    D(24,1,2,3)           -62.9965         estimate D2E/DX2                !
 ! D4    D(1,2,3,4)           -150.9647         estimate D2E/DX2                !
 ! D5    D(1,2,3,19)            30.7883         estimate D2E/DX2                !
 ! D6    D(2,3,4,5)           -178.982          estimate D2E/DX2                !
 ! D7    D(19,3,4,5)            -0.8769         estimate D2E/DX2                !
 ! D8    D(2,3,19,18)          176.9207         estimate D2E/DX2                !
 ! D9    D(4,3,19,18)           -1.1059         estimate D2E/DX2                !
 ! D10   D(3,4,5,6)           -175.9946         estimate D2E/DX2                !
 ! D11   D(3,4,5,17)             3.5635         estimate D2E/DX2                !
 ! D12   D(4,5,6,7)            152.7946         estimate D2E/DX2                !
 ! D13   D(17,5,6,7)           -26.7949         estimate D2E/DX2                !
 ! D14   D(4,5,17,18)           -3.8626         estimate D2E/DX2                !
 ! D15   D(6,5,17,18)          175.6802         estimate D2E/DX2                !
 ! D16   D(5,6,7,8)            142.3976         estimate D2E/DX2                !
 ! D17   D(5,6,7,12)           -40.5389         estimate D2E/DX2                !
 ! D18   D(6,7,8,9)           -179.0173         estimate D2E/DX2                !
 ! D19   D(6,7,8,25)             0.1877         estimate D2E/DX2                !
 ! D20   D(12,7,8,9)             3.8041         estimate D2E/DX2                !
 ! D21   D(12,7,8,25)         -176.9909         estimate D2E/DX2                !
 ! D22   D(6,7,12,11)          178.1535         estimate D2E/DX2                !
 ! D23   D(6,7,12,28)           -0.3818         estimate D2E/DX2                !
 ! D24   D(8,7,12,11)           -4.8571         estimate D2E/DX2                !
 ! D25   D(8,7,12,28)          176.6077         estimate D2E/DX2                !
 ! D26   D(7,8,9,10)            -0.2501         estimate D2E/DX2                !
 ! D27   D(7,8,9,26)           179.1495         estimate D2E/DX2                !
 ! D28   D(25,8,9,10)         -179.4577         estimate D2E/DX2                !
 ! D29   D(25,8,9,26)           -0.0581         estimate D2E/DX2                !
 ! D30   D(8,9,10,11)           -2.2454         estimate D2E/DX2                !
 ! D31   D(8,9,10,13)          177.113          estimate D2E/DX2                !
 ! D32   D(26,9,10,11)         178.3617         estimate D2E/DX2                !
 ! D33   D(26,9,10,13)          -2.2799         estimate D2E/DX2                !
 ! D34   D(9,10,11,12)           1.1961         estimate D2E/DX2                !
 ! D35   D(9,10,11,27)        -179.2632         estimate D2E/DX2                !
 ! D36   D(13,10,11,12)       -178.177          estimate D2E/DX2                !
 ! D37   D(13,10,11,27)          1.3636         estimate D2E/DX2                !
 ! D38   D(9,10,13,14)           4.2274         estimate D2E/DX2                !
 ! D39   D(9,10,13,15)         124.7677         estimate D2E/DX2                !
 ! D40   D(9,10,13,16)        -115.9773         estimate D2E/DX2                !
 ! D41   D(11,10,13,14)       -176.4173         estimate D2E/DX2                !
 ! D42   D(11,10,13,15)        -55.8771         estimate D2E/DX2                !
 ! D43   D(11,10,13,16)         63.3779         estimate D2E/DX2                !
 ! D44   D(10,11,12,7)           2.3548         estimate D2E/DX2                !
 ! D45   D(10,11,12,28)       -179.0773         estimate D2E/DX2                !
 ! D46   D(27,11,12,7)        -177.1905         estimate D2E/DX2                !
 ! D47   D(27,11,12,28)          1.3773         estimate D2E/DX2                !
 ! D48   D(5,17,18,19)           1.4974         estimate D2E/DX2                !
 ! D49   D(5,17,18,20)        -176.2919         estimate D2E/DX2                !
 ! D50   D(17,18,19,3)           0.7625         estimate D2E/DX2                !
 ! D51   D(20,18,19,3)         178.6421         estimate D2E/DX2                !
 ! D52   D(17,18,20,21)          2.1087         estimate D2E/DX2                !
 ! D53   D(19,18,20,21)       -175.9135         estimate D2E/DX2                !
 ! D54   D(18,20,21,29)        179.4997         estimate D2E/DX2                !
 ! D55   D(18,20,21,30)         61.7561         estimate D2E/DX2                !
 ! D56   D(18,20,21,31)        -62.6151         estimate D2E/DX2                !
 --------------------------------------------------------------------------------
 Trust Radius=3.00D-01 FncErr=1.00D-07 GrdErr=1.00D-06
 Number of steps in this run= 149 maximum allowed number of steps= 186.
 GradGradGradGradGradGradGradGradGradGradGradGradGradGradGradGradGradGrad

 Leave Link  103 at Tue Sep 28 15:18:17 2021, MaxMem= 1342177280 cpu:       0.0
 (Enter /sw/target/amd/app/gaussian/Gaussian09RevA.02_gcc-4.9.2/g09/l202.exe)
                          Input orientation:                          
 ---------------------------------------------------------------------
 Center     Atomic      Atomic             Coordinates (Angstroms)
 Number     Number       Type             X           Y           Z
 ---------------------------------------------------------------------
      1          6           0        3.398798   -0.113563   -1.232712
      2          8           0        2.602646    0.168493   -0.088340
      3          6           0        3.240044    1.010096    0.796981
      4          7           0        2.888243    0.846814    2.065980
      5          6           0        3.493789    1.677295    2.901307
      6          8           0        3.212079    1.473873    4.249231
      7          6           0        4.164901    1.855122    5.167983
      8          6           0        3.705422    2.414369    6.361432
      9          6           0        4.617265    2.843534    7.332063
     10          6           0        5.998390    2.712086    7.119320
     11          6           0        6.447551    2.100758    5.939924
     12          6           0        5.535161    1.653471    4.982422
     13          6           0        7.006769    3.224062    8.119506
     14          9           0        6.446865    3.725446    9.254757
     15          9           0        7.876137    2.257499    8.525325
     16          9           0        7.775511    4.225410    7.608133
     17          7           0        4.330278    2.653343    2.555916
     18          6           0        4.602204    2.707202    1.259686
     19          7           0        4.097655    1.911152    0.331500
     20          8           0        5.517230    3.629727    0.796071
     21          6           0        6.105620    4.404911    1.835429
     22          1           0        2.831146   -0.795734   -1.873045
     23          1           0        4.327202   -0.618783   -0.945115
     24          1           0        3.610277    0.786166   -1.820570
     25          1           0        2.637253    2.529865    6.534529
     26          1           0        4.242844    3.290645    8.252177
     27          1           0        7.513476    1.976501    5.757717
     28          1           0        5.913409    1.169920    4.085417
     29          1           0        6.818155    5.096406    1.375521
     30          1           0        6.663430    3.773596    2.536407
     31          1           0        5.353114    5.003478    2.360489
 ---------------------------------------------------------------------
                    Distance matrix (angstroms):
                    1          2          3          4          5
     1  C    0.000000
     2  O    1.422322   0.000000
     3  C    2.325396   1.377812   0.000000
     4  N    3.473379   2.276572   1.326945   0.000000
     5  C    4.506253   3.465344   2.222101   1.324446   0.000000
     6  O    5.710212   4.570552   3.483375   2.294484   1.391991
     7  C    6.740292   5.737098   4.546987   3.502708   2.370618
     8  C    8.009712   6.918066   5.757749   4.644989   3.544084
     9  C    9.142454   8.141063   6.925715   5.891353   4.717404
    10  C    9.192312   8.363689   7.104731   6.220008   5.013526
    11  C    8.102150   7.406545   6.158531   5.408188   4.258782
    12  C    6.805465   6.042966   4.816577   4.020262   2.915271
    13  C   10.565093   9.803140   8.526972   7.697971   6.477895
    14  F   11.576516  10.710901   9.444088   8.522255   7.299446
    15  F   10.994898  10.313529   9.098169   8.282045   7.153404
    16  F   10.776960  10.121898   8.792070   8.125009   6.854214
    17  N    4.783004   4.018866   2.642484   2.362848   1.331044
    18  C    3.951830   3.501493   2.224802   2.654961   2.232535
    19  N    2.652289   2.334134   1.328183   2.367259   2.650142
    20  O    4.755622   4.610545   3.471029   4.033466   3.512595
    21  C    6.095653   5.823998   4.562310   4.802575   3.923984
    22  H    1.094354   2.041352   3.249194   4.268154   5.417510
    23  H    1.095396   2.080374   2.621079   3.644896   4.556480
    24  H    1.095360   2.097013   2.653072   3.953515   4.806642
    25  H    8.240006   7.031335   5.965946   4.781588   3.828946
    26  H   10.112575   9.055512   7.860436   6.787952   5.638775
    27  H    8.376458   7.846116   6.618540   6.024774   4.940292
    28  H    6.021054   5.420724   4.241018   3.651596   2.741187
    29  H    6.755640   6.648137   5.462189   5.829234   5.006971
    30  H    6.322507   6.031255   4.730973   4.799937   3.817624
    31  H    6.550921   6.077740   4.780870   4.841506   3.848775
                    6          7          8          9         10
     6  O    0.000000
     7  C    1.377435   0.000000
     8  C    2.364173   1.395779   0.000000
     9  C    3.654363   2.421742   1.399201   0.000000
    10  C    4.187375   2.811367   2.433254   1.403582   0.000000
    11  C    3.704012   2.422131   2.792004   2.416549   1.402298
    12  C    2.442649   1.397393   2.414245   2.789193   2.429316
    13  C    5.695777   4.319919   3.826921   2.544524   1.509743
    14  F    6.370927   5.040555   4.195922   2.796777   2.405852
    15  F    6.375930   5.020650   4.701266   3.519596   2.389443
    16  F    6.299055   4.960757   4.625987   3.458369   2.384796
    17  N    2.347091   2.736312   3.863872   4.788540   4.859085
    18  C    3.520075   4.023936   5.188235   6.073925   6.023675
    19  N    4.040306   4.837275   6.063592   7.081469   7.094278
    20  O    4.678220   4.908322   5.977707   6.644337   6.407577
    21  C    4.773888   4.623173   5.496173   5.904751   5.549473
    22  H    6.540527   7.640812   8.881201  10.058255  10.158684
    23  H    5.709985   6.596704   7.935505   8.976828   8.883842
    24  H    6.121600   7.091555   8.342977   9.434907   9.451660
    25  H    2.582272   2.157877   1.088250   2.157521   3.416493
    26  H    4.515165   3.402801   2.152114   1.089362   2.167957
    27  H    4.585868   3.402275   3.880396   3.408570   2.165764
    28  H    2.723307   2.167655   3.406479   3.875781   3.404418
    29  H    5.863850   5.650526   6.460784   6.737932   6.272816
    30  H    4.487128   4.104678   5.022761   5.296236   4.751018
    31  H    4.539768   4.382467   5.042412   5.470226   5.321027
                   11         12         13         14         15
    11  C    0.000000
    12  C    1.396184   0.000000
    13  C    2.514978   3.804430   0.000000
    14  F    3.691575   4.834991   1.361497   0.000000
    15  F    2.957993   4.289193   1.361886   2.174801   0.000000
    16  F    3.010074   4.304463   1.362044   2.174083   2.173486
    17  N    4.029852   2.887806   6.200231   7.106604   6.954398
    18  C    5.067318   3.979890   7.287401   8.268056   7.981878
    19  N    6.083780   4.874823   8.416633   9.403987   9.029709
    20  O    5.446326   4.629411   7.484383   8.510156   8.196878
    21  C    4.719419   4.218935   6.457252   7.458187   7.245744
    22  H    9.083531   7.765805  11.551869  12.543623  11.954090
    23  H    7.700360   6.462042  10.203671  11.287280  10.514617
    24  H    8.366812   7.123068  10.783534  11.804595  11.287157
    25  H    3.880213   3.402201   4.699653   4.831377   5.611004
    26  H    3.409263   3.878366   2.767909   2.460067   3.787192
    27  H    1.088502   2.149224   2.718678   4.052870   2.805376
    28  H    2.142654   1.086973   4.657125   5.791146   4.974727
    29  H    5.472205   5.148748   7.001612   8.006232   7.765205
    30  H    3.798542   3.427960   5.620575   6.722012   6.295740
    31  H    4.736658   4.257960   6.250374   7.096520   7.204946
                   16         17         18         19         20
    16  F    0.000000
    17  N    6.313947   0.000000
    18  C    7.257934   1.325540   0.000000
    19  N    8.475364   2.356477   1.322798   0.000000
    20  O    7.201309   2.336500   1.379588   2.276954   0.000000
    21  C    6.012060   2.595945   2.339649   3.537310   1.423860
    22  H   11.813187   5.810269   5.022073   3.713664   5.824426
    23  H   10.417058   4.792080   3.999869   2.843064   4.743178
    24  H   10.866371   4.812315   3.763280   2.476800   4.309190
    25  H    5.516267   4.325615   5.631736   6.402589   6.514128
    26  H    3.710569   5.732468   7.025985   8.041218   7.571825
    27  H    2.924089   4.565348   5.407561   6.412171   5.597865
    28  H    5.021253   2.654472   3.473795   4.235360   4.126428
    29  H    6.365580   3.681225   3.260698   4.317052   2.044337
    30  H    5.211839   2.588232   2.648748   3.861802   2.088837
    31  H    5.831909   2.570509   2.654904   3.905823   2.088427
                   21         22         23         24         25
    21  C    0.000000
    22  H    7.177860   0.000000
    23  H    6.010965   1.769336   0.000000
    24  H    5.717375   1.764145   1.803964   0.000000
    25  H    6.134078   9.043478   8.289450   8.590398   0.000000
    26  H    6.773933  11.009609   9.994044  10.398691   2.471239
    27  H    4.823233   9.372195   7.862303   8.607108   4.968622
    28  H    3.945195   6.990523   5.569718   6.350777   4.310545
    29  H    1.094251   7.820917   6.652337   6.251691   7.119160
    30  H    1.095938   7.416768   6.072228   6.101617   5.808782
    31  H    1.095553   7.610125   6.602222   6.189059   5.560330
                   26         27         28         29         30
    26  H    0.000000
    27  H    4.318141   0.000000
    28  H    4.964892   2.450995   0.000000
    29  H    7.561838   5.424105   4.855862   0.000000
    30  H    6.225954   3.785362   3.121073   1.766754   0.000000
    31  H    6.235261   5.036955   4.240929   1.767807   1.805681
                   31
    31  H    0.000000
 Stoichiometry    C12H10F3N3O3
 Framework group  C1[X(C12H10F3N3O3)]
 Deg. of freedom    87
 Full point group                 C1      NOp   1
 Largest Abelian subgroup         C1      NOp   1
 Largest concise Abelian subgroup C1      NOp   1
                         Standard orientation:                         
 ---------------------------------------------------------------------
 Center     Atomic      Atomic             Coordinates (Angstroms)
 Number     Number       Type             X           Y           Z
 ---------------------------------------------------------------------
      1          6           0        5.946920   -0.291126    1.180550
      2          8           0        5.136334   -1.139335    0.376503
      3          6           0        3.916434   -0.570519    0.082128
      4          7           0        2.931686   -1.440012   -0.105056
      5          6           0        1.771044   -0.878484   -0.407967
      6          8           0        0.698461   -1.757993   -0.524881
      7          6           0       -0.563049   -1.268468   -0.267425
      8          6           0       -1.601800   -1.741802   -1.070638
      9          6           0       -2.906134   -1.272774   -0.879610
     10          6           0       -3.184078   -0.328840    0.121278
     11          6           0       -2.142682    0.100096    0.956712
     12          6           0       -0.845986   -0.385780    0.778289
     13          6           0       -4.568592    0.243195    0.308948
     14          9           0       -5.505403   -0.308654   -0.510517
     15          9           0       -5.034674    0.075900    1.577614
     16          9           0       -4.607596    1.583853    0.071718
     17          7           0        1.562947    0.423008   -0.593689
     18          6           0        2.625684    1.183682   -0.372283
     19          7           0        3.826128    0.750287   -0.024579
     20          8           0        2.508117    2.555533   -0.458690
     21          6           0        1.181371    2.986340   -0.744223
     22          1           0        6.884244   -0.819122    1.381187
     23          1           0        5.463446   -0.089654    2.142607
     24          1           0        6.201514    0.643214    0.668685
     25          1           0       -1.397673   -2.467067   -1.855882
     26          1           0       -3.703239   -1.641696   -1.523993
     27          1           0       -2.335795    0.822367    1.747832
     28          1           0       -0.063043   -0.046025    1.451399
     29          1           0        1.185325    4.079852   -0.784247
     30          1           0        0.486040    2.687297    0.048348
     31          1           0        0.844828    2.619188   -1.720018
 ---------------------------------------------------------------------
 Rotational constants (GHZ):      0.7415216      0.1274485      0.1167662
 Leave Link  202 at Tue Sep 28 15:18:17 2021, MaxMem= 1342177280 cpu:       0.1
 (Enter /sw/target/amd/app/gaussian/Gaussian09RevA.02_gcc-4.9.2/g09/l301.exe)
 Standard basis: 6-31G(d) (6D, 7F)
 Ernie: Thresh=  0.10000D-02 Tol=  0.10000D-05 Strict=F.
 There are   335 symmetry adapted basis functions of A   symmetry.
 Integral buffers will be    131072 words long.
 Raffenetti 2 integral format.
 Two-electron integral symmetry is turned on.
   335 basis functions,   628 primitive gaussians,   335 cartesian basis functions
    77 alpha electrons       77 beta electrons
       nuclear repulsion energy      1663.8872456529 Hartrees.
 IExCor=  402 DFT=T Ex+Corr=B3LYP ExCW=0 ScaHFX=  0.200000
 ScaDFX=  0.800000  0.720000  1.000000  0.810000 ScalE2=  1.000000  1.000000
 IRadAn=      0 IRanWt=     -1 IRanGd=            0 ICorTp=0
 NAtoms=   31 NActive=   31 NUniq=   31 SFac= 7.50D-01 NAtFMM=   80 NAOKFM=F Big=F
 Leave Link  301 at Tue Sep 28 15:18:17 2021, MaxMem= 1342177280 cpu:       0.1
 (Enter /sw/target/amd/app/gaussian/Gaussian09RevA.02_gcc-4.9.2/g09/l302.exe)
 NPDir=0 NMtPBC=     1 NCelOv=     1 NCel=       1 NClECP=     1 NCelD=      1
         NCelK=      1 NCelE2=     1 NClLst=     1 CellRange=     0.0.
 One-electron integrals computed using PRISM.
 NBasis=   335 RedAO= T  NBF=   335
 NBsUse=   335 1.00D-06 NBFU=   335
 Precomputing XC quadrature grid using
 IXCGrd= 2 IRadAn=           0 IRanWt=          -1 IRanGd=           0 AccXCQ= 1.00D-10.
 NRdTot=    1979 NPtTot=      251814 NUsed=      266083 NTot=      266115
 NSgBfM=   328   328   328   329   329 NAtAll=    31    31.
 Leave Link  302 at Tue Sep 28 15:18:20 2021, MaxMem= 1342177280 cpu:       3.1
 (Enter /sw/target/amd/app/gaussian/Gaussian09RevA.02_gcc-4.9.2/g09/l303.exe)
 DipDrv:  MaxL=1.
 Leave Link  303 at Tue Sep 28 15:18:21 2021, MaxMem= 1342177280 cpu:       0.2
 (Enter /sw/target/amd/app/gaussian/Gaussian09RevA.02_gcc-4.9.2/g09/l401.exe)
 Harris functional with IExCor=  402 diagonalized for initial guess.
 ExpMin= 1.61D-01 ExpMax= 7.00D+03 ExpMxC= 1.05D+03 IAcc=1 IRadAn=         1 AccDes= 0.00D+00
 HarFok:  IExCor=  402 AccDes= 0.00D+00 IRadAn=         1 IDoV= 1
 ScaDFX=  1.000000  1.000000  1.000000  1.000000
 FoFCou: FMM=F IPFlag=           0 FMFlag=      100000 FMFlg1=           0
         NFxFlg=           0 DoJE=T BraDBF=F KetDBF=T FulRan=T
         Omega=  0.000000  0.000000  1.000000  0.000000  0.000000 ICntrl=     500 IOpCl=  0
         NMat0=    1 NMatS0=    1 NMatT0=    0 NMatD0=    1 NMtDS0=    0 NMtDT0=    0
         I1Cent=           4 NGrid=           0.
 Petite list used in FoFCou.
 Harris En= -1152.81178217045    
 Initial guess orbital symmetries:
       Occupied  (A) (A) (A) (A) (A) (A) (A) (A) (A) (A) (A) (A)
                 (A) (A) (A) (A) (A) (A) (A) (A) (A) (A) (A) (A)
                 (A) (A) (A) (A) (A) (A) (A) (A) (A) (A) (A) (A)
                 (A) (A) (A) (A) (A) (A) (A) (A) (A) (A) (A) (A)
                 (A) (A) (A) (A) (A) (A) (A) (A) (A) (A) (A) (A)
                 (A) (A) (A) (A) (A) (A) (A) (A) (A) (A) (A) (A)
                 (A) (A) (A) (A) (A)
       Virtual   (A) (A) (A) (A) (A) (A) (A) (A) (A) (A) (A) (A)
                 (A) (A) (A) (A) (A) (A) (A) (A) (A) (A) (A) (A)
                 (A) (A) (A) (A) (A) (A) (A) (A) (A) (A) (A) (A)
                 (A) (A) (A) (A) (A) (A) (A) (A) (A) (A) (A) (A)
                 (A) (A) (A) (A) (A) (A) (A) (A) (A) (A) (A) (A)
                 (A) (A) (A) (A) (A) (A) (A) (A) (A) (A) (A) (A)
                 (A) (A) (A) (A) (A) (A) (A) (A) (A) (A) (A) (A)
                 (A) (A) (A) (A) (A) (A) (A) (A) (A) (A) (A) (A)
                 (A) (A) (A) (A) (A) (A) (A) (A) (A) (A) (A) (A)
                 (A) (A) (A) (A) (A) (A) (A) (A) (A) (A) (A) (A)
                 (A) (A) (A) (A) (A) (A) (A) (A) (A) (A) (A) (A)
                 (A) (A) (A) (A) (A) (A) (A) (A) (A) (A) (A) (A)
                 (A) (A) (A) (A) (A) (A) (A) (A) (A) (A) (A) (A)
                 (A) (A) (A) (A) (A) (A) (A) (A) (A) (A) (A) (A)
                 (A) (A) (A) (A) (A) (A) (A) (A) (A) (A) (A) (A)
                 (A) (A) (A) (A) (A) (A) (A) (A) (A) (A) (A) (A)
                 (A) (A) (A) (A) (A) (A) (A) (A) (A) (A) (A) (A)
                 (A) (A) (A) (A) (A) (A) (A) (A) (A) (A) (A) (A)
                 (A) (A) (A) (A) (A) (A) (A) (A) (A) (A) (A) (A)
                 (A) (A) (A) (A) (A) (A) (A) (A) (A) (A) (A) (A)
                 (A) (A) (A) (A) (A) (A) (A) (A) (A) (A) (A) (A)
                 (A) (A) (A) (A) (A) (A)
 The electronic state of the initial guess is 1-A.
 Leave Link  401 at Tue Sep 28 15:18:33 2021, MaxMem= 1342177280 cpu:      12.7
 (Enter /sw/target/amd/app/gaussian/Gaussian09RevA.02_gcc-4.9.2/g09/l502.exe)
 Closed shell SCF:
 Requested convergence on RMS density matrix=1.00D-08 within  64 cycles.
 Requested convergence on MAX density matrix=1.00D-06.
 Requested convergence on             energy=1.00D-06.
 No special actions if energy rises.
 Using DIIS extrapolation, IDIIS=  1040.
 Integral symmetry usage will be decided dynamically.
       265791 words used for storage of precomputed grid.
 IEnd=      612525 IEndB=      612525 NGot=  1342177280 MDV=  1341681540
 LenX=  1341681540 LenY=  1341568874
 Fock matrices will be formed incrementally for  20 cycles.
 Integral accuracy reduced to 1.0D-05 until final iterations.

 Cycle   1  Pass 0  IDiag  1:
 FoFCou: FMM=F IPFlag=           0 FMFlag=      100000 FMFlg1=           0
         NFxFlg=           0 DoJE=F BraDBF=F KetDBF=F FulRan=T
         Omega=  0.000000  0.000000  1.000000  0.000000  0.000000 ICntrl=       0 IOpCl=  0
         NMat0=    1 NMatS0=    1 NMatT0=    0 NMatD0=    1 NMtDS0=    0 NMtDT0=    0
         I1Cent=           0 NGrid=           0.
 Symmetry not used in FoFCou.
 E= -1152.31461366609    
 DIIS: error= 3.23D-02 at cycle   1 NSaved=   1.
 NSaved= 1 IEnMin= 1 EnMin= -1152.31461366609     IErMin= 1 ErrMin= 3.23D-02
 ErrMax= 3.23D-02 EMaxC= 1.00D-01 BMatC= 5.16D-01 BMatP= 5.16D-01
 IDIUse=3 WtCom= 6.77D-01 WtEn= 3.23D-01
 Coeff-Com:  0.100D+01
 Coeff-En:   0.100D+01
 Coeff:      0.100D+01
 Gap=     0.268 Goal=   None    Shift=    0.000
 GapD=    0.268 DampG=1.000 DampE=0.500 DampFc=0.5000 IDamp=-1.
 Damping current iteration by 5.00D-01
 RMSDP=3.98D-03 MaxDP=1.59D-01              OVMax= 1.70D-01

 Cycle   2  Pass 0  IDiag  1:
 RMSU=  1.39D-03    CP:  9.86D-01
 E= -1152.47900243678     Delta-E=       -0.164388770697 Rises=F Damp=T
 DIIS: error= 8.02D-03 at cycle   2 NSaved=   2.
 NSaved= 2 IEnMin= 2 EnMin= -1152.47900243678     IErMin= 2 ErrMin= 8.02D-03
 ErrMax= 8.02D-03 EMaxC= 1.00D-01 BMatC= 4.00D-02 BMatP= 5.16D-01
 IDIUse=3 WtCom= 9.20D-01 WtEn= 8.02D-02
 Coeff-Com:  0.141D+00 0.859D+00
 Coeff-En:   0.234D+00 0.766D+00
 Coeff:      0.148D+00 0.852D+00
 Gap=     0.224 Goal=   None    Shift=    0.000
 RMSDP=9.04D-04 MaxDP=4.57D-02 DE=-1.64D-01 OVMax= 1.16D-01

 Cycle   3  Pass 0  IDiag  1:
 RMSU=  6.19D-04    CP:  9.82D-01  8.91D-01
 E= -1152.73469221041     Delta-E=       -0.255689773623 Rises=F Damp=F
 DIIS: error= 3.03D-03 at cycle   3 NSaved=   3.
 NSaved= 3 IEnMin= 3 EnMin= -1152.73469221041     IErMin= 3 ErrMin= 3.03D-03
 ErrMax= 3.03D-03 EMaxC= 1.00D-01 BMatC= 1.35D-02 BMatP= 4.00D-02
 IDIUse=3 WtCom= 9.70D-01 WtEn= 3.03D-02
 Coeff-Com:  0.202D-01 0.352D+00 0.627D+00
 Coeff-En:   0.000D+00 0.000D+00 0.100D+01
 Coeff:      0.196D-01 0.342D+00 0.639D+00
 Gap=     0.210 Goal=   None    Shift=    0.000
 RMSDP=4.99D-04 MaxDP=2.43D-02 DE=-2.56D-01 OVMax= 3.93D-02

 Cycle   4  Pass 0  IDiag  1:
 RMSU=  2.56D-04    CP:  9.84D-01  9.09D-01  6.12D-01
 E= -1152.74328985193     Delta-E=       -0.008597641523 Rises=F Damp=F
 DIIS: error= 1.84D-03 at cycle   4 NSaved=   4.
 NSaved= 4 IEnMin= 4 EnMin= -1152.74328985193     IErMin= 4 ErrMin= 1.84D-03
 ErrMax= 1.84D-03 EMaxC= 1.00D-01 BMatC= 3.96D-03 BMatP= 1.35D-02
 IDIUse=3 WtCom= 9.82D-01 WtEn= 1.84D-02
 Coeff-Com: -0.244D-02 0.102D+00 0.369D+00 0.532D+00
 Coeff-En:   0.000D+00 0.000D+00 0.229D+00 0.771D+00
 Coeff:     -0.240D-02 0.100D+00 0.366D+00 0.536D+00
 Gap=     0.205 Goal=   None    Shift=    0.000
 RMSDP=2.44D-04 MaxDP=1.26D-02 DE=-8.60D-03 OVMax= 1.93D-02

 Cycle   5  Pass 0  IDiag  1:
 RMSU=  8.67D-05    CP:  9.84D-01  9.01D-01  7.22D-01  4.82D-01
 E= -1152.74641552634     Delta-E=       -0.003125674414 Rises=F Damp=F
 DIIS: error= 7.91D-04 at cycle   5 NSaved=   5.
 NSaved= 5 IEnMin= 5 EnMin= -1152.74641552634     IErMin= 5 ErrMin= 7.91D-04
 ErrMax= 7.91D-04 EMaxC= 1.00D-01 BMatC= 5.70D-04 BMatP= 3.96D-03
 IDIUse=3 WtCom= 9.92D-01 WtEn= 7.91D-03
 Coeff-Com: -0.277D-02 0.214D-01 0.147D+00 0.327D+00 0.508D+00
 Coeff-En:   0.000D+00 0.000D+00 0.000D+00 0.116D+00 0.884D+00
 Coeff:     -0.275D-02 0.213D-01 0.146D+00 0.325D+00 0.511D+00
 Gap=     0.206 Goal=   None    Shift=    0.000
 RMSDP=8.46D-05 MaxDP=2.81D-03 DE=-3.13D-03 OVMax= 8.21D-03

 Cycle   6  Pass 0  IDiag  1:
 RMSU=  2.98D-05    CP:  9.84D-01  9.08D-01  7.13D-01  5.82D-01  4.96D-01
 E= -1152.74691925623     Delta-E=       -0.000503729886 Rises=F Damp=F
 DIIS: error= 2.90D-04 at cycle   6 NSaved=   6.
 NSaved= 6 IEnMin= 6 EnMin= -1152.74691925623     IErMin= 6 ErrMin= 2.90D-04
 ErrMax= 2.90D-04 EMaxC= 1.00D-01 BMatC= 4.89D-05 BMatP= 5.70D-04
 IDIUse=3 WtCom= 9.97D-01 WtEn= 2.90D-03
 Coeff-Com: -0.148D-02 0.428D-02 0.549D-01 0.146D+00 0.302D+00 0.494D+00
 Coeff-En:   0.000D+00 0.000D+00 0.000D+00 0.000D+00 0.247D-01 0.975D+00
 Coeff:     -0.147D-02 0.427D-02 0.547D-01 0.145D+00 0.302D+00 0.496D+00
 Gap=     0.206 Goal=   None    Shift=    0.000
 RMSDP=2.33D-05 MaxDP=1.10D-03 DE=-5.04D-04 OVMax= 2.83D-03

 Cycle   7  Pass 0  IDiag  1:
 RMSU=  8.84D-06    CP:  9.84D-01  9.07D-01  7.17D-01  5.76D-01  5.65D-01
                    CP:  5.95D-01
 E= -1152.74696214973     Delta-E=       -0.000042893505 Rises=F Damp=F
 DIIS: error= 9.99D-05 at cycle   7 NSaved=   7.
 NSaved= 7 IEnMin= 7 EnMin= -1152.74696214973     IErMin= 7 ErrMin= 9.99D-05
 ErrMax= 9.99D-05 EMaxC= 1.00D-01 BMatC= 3.16D-06 BMatP= 4.89D-05
 IDIUse=1 WtCom= 1.00D+00 WtEn= 0.00D+00
 Coeff-Com: -0.644D-03 0.596D-03 0.187D-01 0.554D-01 0.131D+00 0.279D+00
 Coeff-Com:  0.515D+00
 Coeff:     -0.644D-03 0.596D-03 0.187D-01 0.554D-01 0.131D+00 0.279D+00
 Coeff:      0.515D+00
 Gap=     0.206 Goal=   None    Shift=    0.000
 RMSDP=6.28D-06 MaxDP=2.32D-04 DE=-4.29D-05 OVMax= 7.00D-04

 Initial convergence to 1.0D-05 achieved.  Increase integral accuracy.
 Cycle   8  Pass 1  IDiag  1:
 E= -1152.74704475133     Delta-E=       -0.000082601595 Rises=F Damp=F
 DIIS: error= 4.68D-05 at cycle   1 NSaved=   1.
 NSaved= 1 IEnMin= 1 EnMin= -1152.74704475133     IErMin= 1 ErrMin= 4.68D-05
 ErrMax= 4.68D-05 EMaxC= 1.00D-01 BMatC= 4.87D-07 BMatP= 4.87D-07
 IDIUse=1 WtCom= 1.00D+00 WtEn= 0.00D+00
 Coeff-Com:  0.100D+01
 Coeff:      0.100D+01
 Gap=     0.206 Goal=   None    Shift=    0.000
 RMSDP=6.28D-06 MaxDP=2.32D-04 DE=-8.26D-05 OVMax= 5.02D-04

 Cycle   9  Pass 1  IDiag  1:
 RMSU=  8.37D-06    CP:  1.00D+00
 E= -1152.74704459821     Delta-E=        0.000000153121 Rises=F Damp=F
 DIIS: error= 5.98D-05 at cycle   2 NSaved=   2.
 NSaved= 2 IEnMin= 1 EnMin= -1152.74704475133     IErMin= 1 ErrMin= 4.68D-05
 ErrMax= 5.98D-05 EMaxC= 1.00D-01 BMatC= 6.14D-07 BMatP= 4.87D-07
 IDIUse=1 WtCom= 1.00D+00 WtEn= 0.00D+00
 Coeff-Com:  0.536D+00 0.464D+00
 Coeff:      0.536D+00 0.464D+00
 Gap=     0.206 Goal=   None    Shift=    0.000
 RMSDP=3.13D-06 MaxDP=1.03D-04 DE= 1.53D-07 OVMax= 4.25D-04

 Cycle  10  Pass 1  IDiag  1:
 RMSU=  2.14D-06    CP:  1.00D+00  9.31D-01
 E= -1152.74704513759     Delta-E=       -0.000000539380 Rises=F Damp=F
 DIIS: error= 2.26D-05 at cycle   3 NSaved=   3.
 NSaved= 3 IEnMin= 3 EnMin= -1152.74704513759     IErMin= 3 ErrMin= 2.26D-05
 ErrMax= 2.26D-05 EMaxC= 1.00D-01 BMatC= 8.04D-08 BMatP= 4.87D-07
 IDIUse=1 WtCom= 1.00D+00 WtEn= 0.00D+00
 Coeff-Com:  0.568D-01 0.264D+00 0.680D+00
 Coeff:      0.568D-01 0.264D+00 0.680D+00
 Gap=     0.206 Goal=   None    Shift=    0.000
 RMSDP=1.13D-06 MaxDP=4.57D-05 DE=-5.39D-07 OVMax= 1.43D-04

 Cycle  11  Pass 1  IDiag  1:
 RMSU=  4.81D-07    CP:  1.00D+00  9.58D-01  7.23D-01
 E= -1152.74704520845     Delta-E=       -0.000000070863 Rises=F Damp=F
 DIIS: error= 5.11D-06 at cycle   4 NSaved=   4.
 NSaved= 4 IEnMin= 4 EnMin= -1152.74704520845     IErMin= 4 ErrMin= 5.11D-06
 ErrMax= 5.11D-06 EMaxC= 1.00D-01 BMatC= 1.71D-08 BMatP= 8.04D-08
 IDIUse=1 WtCom= 1.00D+00 WtEn= 0.00D+00
 Coeff-Com: -0.680D-02 0.134D+00 0.439D+00 0.434D+00
 Coeff:     -0.680D-02 0.134D+00 0.439D+00 0.434D+00
 Gap=     0.206 Goal=   None    Shift=    0.000
 RMSDP=4.29D-07 MaxDP=1.84D-05 DE=-7.09D-08 OVMax= 4.91D-05

 Cycle  12  Pass 1  IDiag  1:
 RMSU=  1.07D-07    CP:  1.00D+00  9.60D-01  7.65D-01  4.45D-01
 E= -1152.74704522417     Delta-E=       -0.000000015718 Rises=F Damp=F
 DIIS: error= 7.21D-07 at cycle   5 NSaved=   5.
 NSaved= 5 IEnMin= 5 EnMin= -1152.74704522417     IErMin= 5 ErrMin= 7.21D-07
 ErrMax= 7.21D-07 EMaxC= 1.00D-01 BMatC= 5.71D-10 BMatP= 1.71D-08
 IDIUse=1 WtCom= 1.00D+00 WtEn= 0.00D+00
 Coeff-Com: -0.646D-02 0.675D-01 0.231D+00 0.256D+00 0.452D+00
 Coeff:     -0.646D-02 0.675D-01 0.231D+00 0.256D+00 0.452D+00
 Gap=     0.206 Goal=   None    Shift=    0.000
 RMSDP=7.86D-08 MaxDP=4.37D-06 DE=-1.57D-08 OVMax= 5.89D-06

 Cycle  13  Pass 1  IDiag  1:
 RMSU=  3.86D-08    CP:  1.00D+00  9.61D-01  7.61D-01  4.68D-01  6.54D-01
 E= -1152.74704522468     Delta-E=       -0.000000000513 Rises=F Damp=F
 DIIS: error= 1.17D-07 at cycle   6 NSaved=   6.
 NSaved= 6 IEnMin= 6 EnMin= -1152.74704522468     IErMin= 6 ErrMin= 1.17D-07
 ErrMax= 1.17D-07 EMaxC= 1.00D-01 BMatC= 1.96D-11 BMatP= 5.71D-10
 IDIUse=1 WtCom= 1.00D+00 WtEn= 0.00D+00
 Coeff-Com: -0.217D-02 0.172D-01 0.609D-01 0.737D-01 0.205D+00 0.646D+00
 Coeff:     -0.217D-02 0.172D-01 0.609D-01 0.737D-01 0.205D+00 0.646D+00
 Gap=     0.206 Goal=   None    Shift=    0.000
 RMSDP=1.75D-08 MaxDP=8.79D-07 DE=-5.13D-10 OVMax= 1.30D-06

 Cycle  14  Pass 1  IDiag  1:
 RMSU=  8.91D-09    CP:  1.00D+00  9.61D-01  7.62D-01  4.69D-01  6.98D-01
                    CP:  8.17D-01
 E= -1152.74704522473     Delta-E=       -0.000000000047 Rises=F Damp=F
 DIIS: error= 5.03D-08 at cycle   7 NSaved=   7.
 NSaved= 7 IEnMin= 7 EnMin= -1152.74704522473     IErMin= 7 ErrMin= 5.03D-08
 ErrMax= 5.03D-08 EMaxC= 1.00D-01 BMatC= 2.74D-12 BMatP= 1.96D-11
 IDIUse=1 WtCom= 1.00D+00 WtEn= 0.00D+00
 Coeff-Com: -0.501D-03 0.247D-02 0.960D-02 0.135D-01 0.607D-01 0.332D+00
 Coeff-Com:  0.582D+00
 Coeff:     -0.501D-03 0.247D-02 0.960D-02 0.135D-01 0.607D-01 0.332D+00
 Coeff:      0.582D+00
 Gap=     0.206 Goal=   None    Shift=    0.000
 RMSDP=5.57D-09 MaxDP=3.66D-07 DE=-4.68D-11 OVMax= 4.83D-07

 SCF Done:  E(RB3LYP) =  -1152.74704522     A.U. after   14 cycles
             Convg  =    0.5570D-08             -V/T =  2.0086
 KE= 1.142870487608D+03 PE=-6.028627664909D+03 EE= 2.069122886423D+03
 Leave Link  502 at Tue Sep 28 15:34:44 2021, MaxMem= 1342177280 cpu:     542.7
 (Enter /sw/target/amd/app/gaussian/Gaussian09RevA.02_gcc-4.9.2/g09/l508.exe)
 QCSCF skips out because SCF is already converged.
 Leave Link  508 at Tue Sep 28 15:34:51 2021, MaxMem= 1342177280 cpu:       0.0
 (Enter /sw/target/amd/app/gaussian/Gaussian09RevA.02_gcc-4.9.2/g09/l601.exe)
 Copying SCF densities to generalized density rwf, IOpCl= 0 IROHF=0.

 **********************************************************************

            Population analysis using the SCF density.

 **********************************************************************

 Orbital symmetries:
       Occupied  (A) (A) (A) (A) (A) (A) (A) (A) (A) (A) (A) (A)
                 (A) (A) (A) (A) (A) (A) (A) (A) (A) (A) (A) (A)
                 (A) (A) (A) (A) (A) (A) (A) (A) (A) (A) (A) (A)
                 (A) (A) (A) (A) (A) (A) (A) (A) (A) (A) (A) (A)
                 (A) (A) (A) (A) (A) (A) (A) (A) (A) (A) (A) (A)
                 (A) (A) (A) (A) (A) (A) (A) (A) (A) (A) (A) (A)
                 (A) (A) (A) (A) (A)
       Virtual   (A) (A) (A) (A) (A) (A) (A) (A) (A) (A) (A) (A)
                 (A) (A) (A) (A) (A) (A) (A) (A) (A) (A) (A) (A)
                 (A) (A) (A) (A) (A) (A) (A) (A) (A) (A) (A) (A)
                 (A) (A) (A) (A) (A) (A) (A) (A) (A) (A) (A) (A)
                 (A) (A) (A) (A) (A) (A) (A) (A) (A) (A) (A) (A)
                 (A) (A) (A) (A) (A) (A) (A) (A) (A) (A) (A) (A)
                 (A) (A) (A) (A) (A) (A) (A) (A) (A) (A) (A) (A)
                 (A) (A) (A) (A) (A) (A) (A) (A) (A) (A) (A) (A)
                 (A) (A) (A) (A) (A) (A) (A) (A) (A) (A) (A) (A)
                 (A) (A) (A) (A) (A) (A) (A) (A) (A) (A) (A) (A)
                 (A) (A) (A) (A) (A) (A) (A) (A) (A) (A) (A) (A)
                 (A) (A) (A) (A) (A) (A) (A) (A) (A) (A) (A) (A)
                 (A) (A) (A) (A) (A) (A) (A) (A) (A) (A) (A) (A)
                 (A) (A) (A) (A) (A) (A) (A) (A) (A) (A) (A) (A)
                 (A) (A) (A) (A) (A) (A) (A) (A) (A) (A) (A) (A)
                 (A) (A) (A) (A) (A) (A) (A) (A) (A) (A) (A) (A)
                 (A) (A) (A) (A) (A) (A) (A) (A) (A) (A) (A) (A)
                 (A) (A) (A) (A) (A) (A) (A) (A) (A) (A) (A) (A)
                 (A) (A) (A) (A) (A) (A) (A) (A) (A) (A) (A) (A)
                 (A) (A) (A) (A) (A) (A) (A) (A) (A) (A) (A) (A)
                 (A) (A) (A) (A) (A) (A) (A) (A) (A) (A) (A) (A)
                 (A) (A) (A) (A) (A) (A)
 The electronic state is 1-A.
 Alpha  occ. eigenvalues --  -24.72467 -24.71967 -24.71913 -19.22466 -19.20990
 Alpha  occ. eigenvalues --  -19.20099 -14.36011 -14.35413 -14.35409 -10.43574
 Alpha  occ. eigenvalues --  -10.35082 -10.34384 -10.34011 -10.27794 -10.24805
 Alpha  occ. eigenvalues --  -10.24332 -10.22567 -10.22171 -10.22070 -10.21706
 Alpha  occ. eigenvalues --  -10.21364  -1.29499  -1.20922  -1.20597  -1.12446
 Alpha  occ. eigenvalues --   -1.10440  -1.09264  -1.02092  -0.92403  -0.91981
 Alpha  occ. eigenvalues --   -0.88064  -0.79534  -0.77310  -0.74507  -0.73487
 Alpha  occ. eigenvalues --   -0.70965  -0.67771  -0.65393  -0.64041  -0.62624
 Alpha  occ. eigenvalues --   -0.59947  -0.57857  -0.57444  -0.57344  -0.57049
 Alpha  occ. eigenvalues --   -0.53597  -0.51735  -0.51398  -0.49554  -0.48327
 Alpha  occ. eigenvalues --   -0.47423  -0.46164  -0.45515  -0.45340  -0.45038
 Alpha  occ. eigenvalues --   -0.44754  -0.44554  -0.44134  -0.42694  -0.41598
 Alpha  occ. eigenvalues --   -0.41390  -0.40659  -0.40537  -0.39411  -0.37997
 Alpha  occ. eigenvalues --   -0.37735  -0.37485  -0.37147  -0.36491  -0.35898
 Alpha  occ. eigenvalues --   -0.32979  -0.29988  -0.29689  -0.29172  -0.28973
 Alpha  occ. eigenvalues --   -0.27296  -0.25696
 Alpha virt. eigenvalues --   -0.05110  -0.03690  -0.02479  -0.02201   0.07338
 Alpha virt. eigenvalues --    0.09672   0.10852   0.11263   0.11968   0.12362
 Alpha virt. eigenvalues --    0.12522   0.12884   0.13192   0.14484   0.14938
 Alpha virt. eigenvalues --    0.15176   0.15590   0.16755   0.17345   0.18633
 Alpha virt. eigenvalues --    0.20513   0.21173   0.21379   0.23096   0.23870
 Alpha virt. eigenvalues --    0.25167   0.27266   0.28063   0.28586   0.29738
 Alpha virt. eigenvalues --    0.31725   0.33736   0.34059   0.39271   0.40771
 Alpha virt. eigenvalues --    0.45392   0.46705   0.47567   0.47984   0.48796
 Alpha virt. eigenvalues --    0.50213   0.50813   0.51425   0.52483   0.52708
 Alpha virt. eigenvalues --    0.53154   0.53751   0.53863   0.54843   0.55803
 Alpha virt. eigenvalues --    0.56410   0.57297   0.57651   0.58341   0.58508
 Alpha virt. eigenvalues --    0.59404   0.60373   0.60784   0.61964   0.62686
 Alpha virt. eigenvalues --    0.63735   0.64529   0.65709   0.66252   0.68357
 Alpha virt. eigenvalues --    0.69260   0.69693   0.72380   0.73690   0.76590
 Alpha virt. eigenvalues --    0.77569   0.78693   0.80884   0.81601   0.82465
 Alpha virt. eigenvalues --    0.82633   0.83923   0.84267   0.84607   0.85372
 Alpha virt. eigenvalues --    0.86299   0.87243   0.88014   0.90449   0.91062
 Alpha virt. eigenvalues --    0.92007   0.93329   0.93920   0.94980   0.95353
 Alpha virt. eigenvalues --    0.97053   0.98035   0.99021   0.99499   1.01726
 Alpha virt. eigenvalues --    1.02264   1.04683   1.05335   1.06559   1.07807
 Alpha virt. eigenvalues --    1.08576   1.09651   1.10806   1.12538   1.13474
 Alpha virt. eigenvalues --    1.14577   1.15749   1.17825   1.18486   1.20332
 Alpha virt. eigenvalues --    1.22635   1.23241   1.26567   1.28857   1.31243
 Alpha virt. eigenvalues --    1.32778   1.33108   1.34053   1.35156   1.35896
 Alpha virt. eigenvalues --    1.37071   1.37917   1.38305   1.38729   1.39947
 Alpha virt. eigenvalues --    1.41247   1.43208   1.43641   1.44761   1.46042
 Alpha virt. eigenvalues --    1.47412   1.48285   1.48657   1.49031   1.49772
 Alpha virt. eigenvalues --    1.52312   1.53155   1.55899   1.56710   1.58311
 Alpha virt. eigenvalues --    1.61125   1.63374   1.66532   1.68518   1.69619
 Alpha virt. eigenvalues --    1.70675   1.73019   1.74145   1.76222   1.77235
 Alpha virt. eigenvalues --    1.79053   1.79757   1.80882   1.82378   1.83209
 Alpha virt. eigenvalues --    1.83305   1.85827   1.86199   1.88123   1.90478
 Alpha virt. eigenvalues --    1.91137   1.93465   1.94036   1.95231   1.96138
 Alpha virt. eigenvalues --    1.96299   1.98145   1.99388   2.01342   2.02145
 Alpha virt. eigenvalues --    2.03064   2.03545   2.04020   2.04468   2.05937
 Alpha virt. eigenvalues --    2.07221   2.07339   2.09252   2.10455   2.11342
 Alpha virt. eigenvalues --    2.11609   2.12467   2.15178   2.16724   2.18482
 Alpha virt. eigenvalues --    2.18767   2.19429   2.23436   2.24778   2.26600
 Alpha virt. eigenvalues --    2.26927   2.28265   2.28937   2.30611   2.33307
 Alpha virt. eigenvalues --    2.36295   2.38256   2.38682   2.41758   2.42203
 Alpha virt. eigenvalues --    2.43184   2.44665   2.46886   2.48260   2.50976
 Alpha virt. eigenvalues --    2.51661   2.53460   2.57986   2.58854   2.60839
 Alpha virt. eigenvalues --    2.61360   2.63092   2.65011   2.66274   2.68795
 Alpha virt. eigenvalues --    2.70036   2.72229   2.73454   2.74751   2.75815
 Alpha virt. eigenvalues --    2.77844   2.81010   2.81784   2.84849   2.89325
 Alpha virt. eigenvalues --    2.91631   2.96362   2.99588   3.00357   3.03074
 Alpha virt. eigenvalues --    3.10286   3.10880   3.17882   3.22162   3.30041
 Alpha virt. eigenvalues --    3.38889   3.45914   4.00639   4.04698   4.05895
 Alpha virt. eigenvalues --    4.07548   4.09339   4.12176   4.13771   4.21014
 Alpha virt. eigenvalues --    4.25127   4.25869   4.27955   4.28502   4.30730
 Alpha virt. eigenvalues --    4.33940   4.49107   4.54215   4.62414   4.66449
 Alpha virt. eigenvalues --    4.72886   4.80232   5.55025
          Condensed to atoms (all electrons):
              1          2          3          4          5          6
     1  C    4.909636   0.230330  -0.032342   0.003553  -0.000107   0.000001
     2  O    0.230330   8.174907   0.309744  -0.081499   0.001527  -0.000006
     3  C   -0.032342   0.309744   4.350664   0.440921  -0.043470   0.001827
     4  N    0.003553  -0.081499   0.440921   6.913232   0.446464  -0.078423
     5  C   -0.000107   0.001527  -0.043470   0.446464   4.354289   0.281163
     6  O    0.000001  -0.000006   0.001827  -0.078423   0.281163   8.278928
     7  C    0.000000  -0.000000   0.000057   0.001199  -0.018099   0.225935
     8  C    0.000000  -0.000000   0.000004  -0.000217  -0.000793  -0.050717
     9  C   -0.000000   0.000000  -0.000000   0.000002  -0.000009   0.003505
    10  C   -0.000000  -0.000000   0.000000   0.000000   0.000049   0.000060
    11  C    0.000000   0.000000  -0.000001  -0.000007  -0.000072   0.004133
    12  C    0.000000   0.000000   0.000088  -0.000039  -0.003637  -0.050139
    13  C    0.000000  -0.000000  -0.000000  -0.000000   0.000000   0.000000
    14  F    0.000000   0.000000   0.000000  -0.000000  -0.000000  -0.000000
    15  F    0.000000   0.000000  -0.000000   0.000000   0.000000  -0.000000
    16  F    0.000000   0.000000   0.000000  -0.000000   0.000000  -0.000000
    17  N    0.000076  -0.000199  -0.031495  -0.074957   0.407363  -0.077820
    18  C    0.000622   0.001846  -0.042680  -0.032277  -0.041684   0.001213
    19  N   -0.010298  -0.079728   0.387568  -0.075304  -0.031535  -0.000174
    20  O   -0.000007  -0.000011   0.001143  -0.000206   0.001210  -0.000013
    21  C    0.000000   0.000001  -0.000078   0.000080   0.000596  -0.000010
    22  H    0.377706  -0.030216   0.004276  -0.000016   0.000003  -0.000000
    23  H    0.371952  -0.036102  -0.003288   0.000544   0.000033  -0.000000
    24  H    0.372242  -0.029920  -0.011525  -0.000276   0.000069   0.000000
    25  H    0.000000  -0.000000   0.000000  -0.000011   0.000092  -0.001372
    26  H    0.000000  -0.000000   0.000000  -0.000000  -0.000001  -0.000052
    27  H    0.000000  -0.000000   0.000000  -0.000000  -0.000012  -0.000045
    28  H    0.000000  -0.000000   0.000088  -0.000340   0.004818  -0.006403
    29  H   -0.000000  -0.000000   0.000002   0.000001  -0.000005  -0.000000
    30  H    0.000000   0.000000   0.000051  -0.000020  -0.000098  -0.000001
    31  H   -0.000000   0.000000   0.000042  -0.000011  -0.000072  -0.000004
              7          8          9         10         11         12
     1  C    0.000000   0.000000  -0.000000  -0.000000   0.000000   0.000000
     2  O   -0.000000  -0.000000   0.000000  -0.000000   0.000000   0.000000
     3  C    0.000057   0.000004  -0.000000   0.000000  -0.000001   0.000088
     4  N    0.001199  -0.000217   0.000002   0.000000  -0.000007  -0.000039
     5  C   -0.018099  -0.000793  -0.000009   0.000049  -0.000072  -0.003637
     6  O    0.225935  -0.050717   0.003505   0.000060   0.004133  -0.050139
     7  C    4.505398   0.540290  -0.013376  -0.033250  -0.005744   0.494636
     8  C    0.540290   5.016528   0.469716  -0.028026  -0.035157  -0.067793
     9  C   -0.013376   0.469716   4.997210   0.512441  -0.058823  -0.038079
    10  C   -0.033250  -0.028026   0.512441   5.039578   0.468619  -0.025024
    11  C   -0.005744  -0.035157  -0.058823   0.468619   5.003606   0.481306
    12  C    0.494636  -0.067793  -0.038079  -0.025024   0.481306   5.020701
    13  C   -0.000054   0.004812  -0.031084   0.293328  -0.019932   0.004662
    14  F   -0.000008   0.000591   0.003843  -0.046152   0.003062  -0.000021
    15  F   -0.000005  -0.000025   0.001638  -0.051381   0.003209   0.000250
    16  F   -0.000006  -0.000013   0.001041  -0.052772   0.002167   0.000184
    17  N   -0.002398  -0.000109   0.000003   0.000016  -0.000904  -0.002076
    18  C    0.000542  -0.000017  -0.000000   0.000000  -0.000000  -0.000346
    19  N    0.000053  -0.000000  -0.000000   0.000000  -0.000000  -0.000034
    20  O    0.000006   0.000000  -0.000000  -0.000000   0.000001   0.000031
    21  C   -0.000045   0.000005   0.000001  -0.000002  -0.000128  -0.000472
    22  H   -0.000000  -0.000000   0.000000  -0.000000   0.000000   0.000000
    23  H   -0.000000  -0.000000  -0.000000   0.000000  -0.000000  -0.000000
    24  H    0.000000   0.000000  -0.000000  -0.000000   0.000000   0.000000
    25  H   -0.036164   0.352701  -0.038710   0.003987   0.000311   0.006089
    26  H    0.003465  -0.034393   0.357214  -0.042589   0.005011   0.000322
    27  H    0.003210   0.000597   0.004540  -0.045429   0.358164  -0.033458
    28  H   -0.038437   0.005152   0.000546   0.003941  -0.036700   0.351776
    29  H   -0.000000  -0.000000  -0.000000   0.000000   0.000001   0.000007
    30  H    0.000024  -0.000010  -0.000004   0.000006   0.000619   0.001471
    31  H    0.000056   0.000004  -0.000001  -0.000000  -0.000001   0.000059
             13         14         15         16         17         18
     1  C    0.000000   0.000000   0.000000   0.000000   0.000076   0.000622
     2  O   -0.000000   0.000000   0.000000   0.000000  -0.000199   0.001846
     3  C   -0.000000   0.000000  -0.000000   0.000000  -0.031495  -0.042680
     4  N   -0.000000  -0.000000   0.000000  -0.000000  -0.074957  -0.032277
     5  C    0.000000  -0.000000   0.000000   0.000000   0.407363  -0.041684
     6  O    0.000000  -0.000000  -0.000000  -0.000000  -0.077820   0.001213
     7  C   -0.000054  -0.000008  -0.000005  -0.000006  -0.002398   0.000542
     8  C    0.004812   0.000591  -0.000025  -0.000013  -0.000109  -0.000017
     9  C   -0.031084   0.003843   0.001638   0.001041   0.000003  -0.000000
    10  C    0.293328  -0.046152  -0.051381  -0.052772   0.000016   0.000000
    11  C   -0.019932   0.003062   0.003209   0.002167  -0.000904  -0.000000
    12  C    0.004662  -0.000021   0.000250   0.000184  -0.002076  -0.000346
    13  C    4.129089   0.284856   0.279486   0.282589   0.000000  -0.000000
    14  F    0.284856   9.099502  -0.038647  -0.039069  -0.000000   0.000000
    15  F    0.279486  -0.038647   9.114498  -0.040025  -0.000000  -0.000000
    16  F    0.282589  -0.039069  -0.040025   9.114923  -0.000000  -0.000000
    17  N    0.000000  -0.000000  -0.000000  -0.000000   7.029164   0.390841
    18  C   -0.000000   0.000000  -0.000000  -0.000000   0.390841   4.307118
    19  N    0.000000  -0.000000   0.000000  -0.000000  -0.075715   0.463896
    20  O   -0.000000   0.000000  -0.000000   0.000000  -0.082217   0.308571
    21  C    0.000000  -0.000000  -0.000000  -0.000000  -0.007137  -0.031114
    22  H   -0.000000   0.000000   0.000000   0.000000   0.000001  -0.000007
    23  H    0.000000   0.000000   0.000000  -0.000000  -0.000024   0.000109
    24  H    0.000000   0.000000   0.000000  -0.000000   0.000010  -0.000128
    25  H   -0.000084   0.000001   0.000000   0.000000   0.000010  -0.000000
    26  H   -0.006457   0.008209   0.000127   0.000141  -0.000000  -0.000000
    27  H   -0.003487   0.000061   0.002289   0.001201  -0.000009  -0.000002
    28  H   -0.000096   0.000000   0.000000   0.000000   0.002253  -0.000010
    29  H   -0.000000  -0.000000  -0.000000  -0.000000   0.000947   0.004051
    30  H   -0.000000   0.000000   0.000000   0.000000   0.005006  -0.007257
    31  H   -0.000000   0.000000  -0.000000   0.000000   0.006559  -0.008838
             19         20         21         22         23         24
     1  C   -0.010298  -0.000007   0.000000   0.377706   0.371952   0.372242
     2  O   -0.079728  -0.000011   0.000001  -0.030216  -0.036102  -0.029920
     3  C    0.387568   0.001143  -0.000078   0.004276  -0.003288  -0.011525
     4  N   -0.075304  -0.000206   0.000080  -0.000016   0.000544  -0.000276
     5  C   -0.031535   0.001210   0.000596   0.000003   0.000033   0.000069
     6  O   -0.000174  -0.000013  -0.000010  -0.000000  -0.000000   0.000000
     7  C    0.000053   0.000006  -0.000045  -0.000000  -0.000000   0.000000
     8  C   -0.000000   0.000000   0.000005  -0.000000  -0.000000   0.000000
     9  C   -0.000000  -0.000000   0.000001   0.000000  -0.000000  -0.000000
    10  C    0.000000  -0.000000  -0.000002  -0.000000   0.000000  -0.000000
    11  C   -0.000000   0.000001  -0.000128   0.000000  -0.000000   0.000000
    12  C   -0.000034   0.000031  -0.000472   0.000000  -0.000000   0.000000
    13  C    0.000000  -0.000000   0.000000  -0.000000   0.000000   0.000000
    14  F   -0.000000   0.000000  -0.000000   0.000000   0.000000   0.000000
    15  F    0.000000  -0.000000  -0.000000   0.000000   0.000000   0.000000
    16  F   -0.000000   0.000000  -0.000000   0.000000  -0.000000  -0.000000
    17  N   -0.075715  -0.082217  -0.007137   0.000001  -0.000024   0.000010
    18  C    0.463896   0.308571  -0.031114  -0.000007   0.000109  -0.000128
    19  N    6.964975  -0.080126   0.004506   0.000652   0.002428   0.011725
    20  O   -0.080126   8.183469   0.224169  -0.000000  -0.000001  -0.000000
    21  C    0.004506   0.224169   4.903140   0.000000   0.000000  -0.000000
    22  H    0.000652  -0.000000   0.000000   0.545245  -0.033666  -0.032766
    23  H    0.002428  -0.000001   0.000000  -0.033666   0.577879  -0.037368
    24  H    0.011725  -0.000000  -0.000000  -0.032766  -0.037368   0.544704
    25  H   -0.000000   0.000000   0.000000  -0.000000   0.000000   0.000000
    26  H   -0.000000  -0.000000   0.000000   0.000000   0.000000   0.000000
    27  H   -0.000000   0.000000  -0.000003  -0.000000   0.000000   0.000000
    28  H   -0.000039  -0.000036  -0.000019  -0.000000  -0.000000   0.000000
    29  H   -0.000010  -0.029691   0.375256  -0.000000  -0.000000   0.000000
    30  H   -0.000096  -0.031494   0.371549   0.000000   0.000000  -0.000000
    31  H   -0.000166  -0.030334   0.374988  -0.000000   0.000000   0.000000
             25         26         27         28         29         30
     1  C    0.000000   0.000000   0.000000   0.000000  -0.000000   0.000000
     2  O   -0.000000  -0.000000  -0.000000  -0.000000  -0.000000   0.000000
     3  C    0.000000   0.000000   0.000000   0.000088   0.000002   0.000051
     4  N   -0.000011  -0.000000  -0.000000  -0.000340   0.000001  -0.000020
     5  C    0.000092  -0.000001  -0.000012   0.004818  -0.000005  -0.000098
     6  O   -0.001372  -0.000052  -0.000045  -0.006403  -0.000000  -0.000001
     7  C   -0.036164   0.003465   0.003210  -0.038437  -0.000000   0.000024
     8  C    0.352701  -0.034393   0.000597   0.005152  -0.000000  -0.000010
     9  C   -0.038710   0.357214   0.004540   0.000546  -0.000000  -0.000004
    10  C    0.003987  -0.042589  -0.045429   0.003941   0.000000   0.000006
    11  C    0.000311   0.005011   0.358164  -0.036700   0.000001   0.000619
    12  C    0.006089   0.000322  -0.033458   0.351776   0.000007   0.001471
    13  C   -0.000084  -0.006457  -0.003487  -0.000096  -0.000000  -0.000000
    14  F    0.000001   0.008209   0.000061   0.000000  -0.000000   0.000000
    15  F    0.000000   0.000127   0.002289   0.000000  -0.000000   0.000000
    16  F    0.000000   0.000141   0.001201   0.000000  -0.000000   0.000000
    17  N    0.000010  -0.000000  -0.000009   0.002253   0.000947   0.005006
    18  C   -0.000000  -0.000000  -0.000002  -0.000010   0.004051  -0.007257
    19  N   -0.000000  -0.000000  -0.000000  -0.000039  -0.000010  -0.000096
    20  O    0.000000  -0.000000   0.000000  -0.000036  -0.029691  -0.031494
    21  C    0.000000   0.000000  -0.000003  -0.000019   0.375256   0.371549
    22  H   -0.000000   0.000000  -0.000000  -0.000000  -0.000000   0.000000
    23  H    0.000000   0.000000   0.000000  -0.000000  -0.000000   0.000000
    24  H    0.000000   0.000000   0.000000   0.000000   0.000000  -0.000000
    25  H    0.559660  -0.005464   0.000014  -0.000151  -0.000000  -0.000000
    26  H   -0.005464   0.551824  -0.000165   0.000013  -0.000000  -0.000000
    27  H    0.000014  -0.000165   0.557630  -0.005548  -0.000000   0.000058
    28  H   -0.000151   0.000013  -0.005548   0.568900  -0.000001   0.000491
    29  H   -0.000000  -0.000000  -0.000000  -0.000001   0.547002  -0.033981
    30  H   -0.000000  -0.000000   0.000058   0.000491  -0.033981   0.564057
    31  H    0.000000   0.000000  -0.000001  -0.000005  -0.033314  -0.035485
             31
     1  C   -0.000000
     2  O    0.000000
     3  C    0.000042
     4  N   -0.000011
     5  C   -0.000072
     6  O   -0.000004
     7  C    0.000056
     8  C    0.000004
     9  C   -0.000001
    10  C   -0.000000
    11  C   -0.000001
    12  C    0.000059
    13  C   -0.000000
    14  F    0.000000
    15  F   -0.000000
    16  F    0.000000
    17  N    0.006559
    18  C   -0.008838
    19  N   -0.000166
    20  O   -0.030334
    21  C    0.374988
    22  H   -0.000000
    23  H    0.000000
    24  H    0.000000
    25  H    0.000000
    26  H    0.000000
    27  H   -0.000001
    28  H   -0.000005
    29  H   -0.033314
    30  H   -0.035485
    31  H    0.553065
 Mulliken atomic charges:
              1
     1  C   -0.223364
     2  O   -0.460673
     3  C    0.668402
     4  N   -0.462394
     5  C    0.641918
     6  O   -0.531584
     7  C    0.372715
     8  C   -0.173129
     9  C   -0.171613
    10  C    0.002599
    11  C   -0.172739
    12  C   -0.140463
    13  C    0.782372
    14  F   -0.276229
    15  F   -0.271416
    16  F   -0.270362
    17  N   -0.487189
    18  C    0.685550
    19  N   -0.482578
    20  O   -0.464462
    21  C   -0.215281
    22  H    0.168788
    23  H    0.157504
    24  H    0.183234
    25  H    0.159090
    26  H    0.162794
    27  H    0.160395
    28  H    0.149805
    29  H    0.169736
    30  H    0.165114
    31  H    0.173459
 Sum of Mulliken atomic charges =  -0.00000
 Mulliken charges with hydrogens summed into heavy atoms:
              1
     1  C    0.286163
     2  O   -0.460673
     3  C    0.668402
     4  N   -0.462394
     5  C    0.641918
     6  O   -0.531584
     7  C    0.372715
     8  C   -0.014039
     9  C   -0.008819
    10  C    0.002599
    11  C   -0.012344
    12  C    0.009342
    13  C    0.782372
    14  F   -0.276229
    15  F   -0.271416
    16  F   -0.270362
    17  N   -0.487189
    18  C    0.685550
    19  N   -0.482578
    20  O   -0.464462
    21  C    0.293028
 Sum of Mulliken charges with hydrogens summed into heavy atoms =  -0.00000
 Electronic spatial extent (au):  <R**2>=           8493.0824
 Charge=             -0.0000 electrons
 Dipole moment (field-independent basis, Debye):
    X=              1.3221    Y=              1.4728    Z=              0.3719  Tot=              2.0138
 Quadrupole moment (field-independent basis, Debye-Ang):
   XX=           -125.8289   YY=           -119.1254   ZZ=           -110.3952
   XY=              6.3023   XZ=              8.6304   YZ=              2.0166
 Traceless Quadrupole moment (field-independent basis, Debye-Ang):
   XX=             -7.3791   YY=             -0.6756   ZZ=              8.0546
   XY=              6.3023   XZ=              8.6304   YZ=              2.0166
 Octapole moment (field-independent basis, Debye-Ang**2):
  XXX=             86.2252  YYY=             39.1621  ZZZ=              4.9143  XYY=            -53.4071
  XXY=             -7.0496  XXZ=             24.8532  XZZ=             -8.5579  YZZ=              3.1770
  YYZ=             -9.8595  XYZ=            -10.2012
 Hexadecapole moment (field-independent basis, Debye-Ang**3):
 XXXX=          -8049.6680 YYYY=          -1298.0268 ZZZZ=           -466.1099 XXXY=             14.4740
 XXXZ=            270.3561 YYYX=             -6.4915 YYYZ=             -6.0910 ZZZX=             -8.0316
 ZZZY=              9.4512 XXYY=          -1731.9188 XXZZ=          -1388.7397 YYZZ=           -284.7324
 XXYZ=             12.6281 YYXZ=             -3.7373 ZZXY=            -13.0009
 N-N= 1.663887245653D+03 E-N=-6.028627653272D+03  KE= 1.142870487608D+03
 No NMR shielding tensors so no spin-rotation constants.
 Leave Link  601 at Tue Sep 28 15:34:53 2021, MaxMem= 1342177280 cpu:       1.4
 (Enter /sw/target/amd/app/gaussian/Gaussian09RevA.02_gcc-4.9.2/g09/l701.exe)
 Compute integral first derivatives.
 ... and contract with generalized density number  0.
 Leave Link  701 at Tue Sep 28 15:34:56 2021, MaxMem= 1342177280 cpu:       1.7
 (Enter /sw/target/amd/app/gaussian/Gaussian09RevA.02_gcc-4.9.2/g09/l702.exe)
 L702 exits ... SP integral derivatives will be done elsewhere.
 Leave Link  702 at Tue Sep 28 15:34:56 2021, MaxMem= 1342177280 cpu:       0.1
 (Enter /sw/target/amd/app/gaussian/Gaussian09RevA.02_gcc-4.9.2/g09/l703.exe)
 Compute integral first derivatives, UseDBF=F ICtDFT=           0.
 Integral derivatives from FoFDir, PRISM(SPDF).
 Calling FoFJK, ICntrl=      2127 FMM=F ISym2X=0 I1Cent= 0 IOpClX= 0 NMat=1 NMatS=1 NMatT=0.
 FoFCou: FMM=F IPFlag=           0 FMFlag=      100000 FMFlg1=         800
         NFxFlg=           0 DoJE=F BraDBF=F KetDBF=F FulRan=T
         Omega=  0.000000  0.000000  1.000000  0.000000  0.000000 ICntrl=    2127 IOpCl=  0
         NMat0=    1 NMatS0=    1 NMatT0=    0 NMatD0=    1 NMtDS0=    0 NMtDT0=    0
         I1Cent=           0 NGrid=           0.
 Symmetry not used in FoFCou.
 Leave Link  703 at Tue Sep 28 15:36:44 2021, MaxMem= 1342177280 cpu:     194.3
 (Enter /sw/target/amd/app/gaussian/Gaussian09RevA.02_gcc-4.9.2/g09/l716.exe)
 Dipole        = 5.20134919D-01 5.79446488D-01 1.46309522D-01
 ***** Axes restored to original set *****
 -------------------------------------------------------------------
 Center     Atomic                   Forces (Hartrees/Bohr)
 Number     Number              X              Y              Z
 -------------------------------------------------------------------
      1        6          -0.001092721   -0.004613786   -0.020863302
      2        8           0.020473040    0.016183565    0.024225171
      3        6          -0.020378353   -0.007952698   -0.017939173
      4        7          -0.006104118   -0.005248568    0.015058929
      5        6          -0.004314259   -0.004738477    0.009283441
      6        8           0.005137845    0.000447472   -0.030294850
      7        6           0.003496958    0.006101961    0.012038347
      8        6           0.000445641    0.002798306    0.003654739
      9        6           0.002214715   -0.000571572    0.000490104
     10        6          -0.004086830    0.000594302    0.001513524
     11        6          -0.002618956   -0.000485498    0.000251376
     12        6           0.007779207   -0.000258254   -0.000811808
     13        6           0.007560466    0.004984212    0.011332533
     14        9          -0.002874637   -0.004513856   -0.009540440
     15        9          -0.005406239    0.001845862   -0.005949969
     16        9          -0.004595985   -0.005587379   -0.002042057
     17        7           0.001182863    0.003016319    0.011750126
     18        6           0.022032431    0.016531229   -0.013128439
     19        7           0.000979623   -0.004544496   -0.011356733
     20        8          -0.024920057   -0.023124179    0.013692347
     21        6           0.010640765    0.013729089    0.004603848
     22        1          -0.003655742   -0.000237624    0.004936582
     23        1           0.001312353    0.003105427    0.000164396
     24        1           0.002481516   -0.000585351    0.003903110
     25        1           0.001856884   -0.000193590   -0.002509309
     26        1           0.002262380   -0.001135803   -0.002595363
     27        1          -0.001835612   -0.000566462    0.001291498
     28        1          -0.002181601    0.001347847    0.001289210
     29        1          -0.002182498   -0.003016580   -0.006018682
     30        1          -0.004545534    0.000666492    0.001384440
     31        1           0.000936453   -0.003977906    0.002186404
 -------------------------------------------------------------------
 Cartesian Forces:  Max     0.030294850 RMS     0.009129422
 Leave Link  716 at Tue Sep 28 15:36:46 2021, MaxMem= 1342177280 cpu:       0.1
 (Enter /sw/target/amd/app/gaussian/Gaussian09RevA.02_gcc-4.9.2/g09/l103.exe)

 GradGradGradGradGradGradGradGradGradGradGradGradGradGradGradGradGradGrad
 Berny optimization.
 Internal  Forces:  Max     0.029152379 RMS     0.006292952
 Search for a local minimum.
 Step number   1 out of a maximum of  149
 All quantities printed in internal units (Hartrees-Bohrs-Radians)
 RMS Force = .62930D-02 SwitMx=.10000D-02 MixMth= 1
 Mixed Optimization -- RFO/linear search
 Second derivative matrix not updated -- first step.
     Eigenvalues ---    0.00637   0.01376   0.01396   0.01481   0.01798
     Eigenvalues ---    0.01962   0.01985   0.01990   0.02058   0.02071
     Eigenvalues ---    0.02097   0.02106   0.02115   0.02122   0.02132
     Eigenvalues ---    0.02139   0.02419   0.02480   0.02501   0.02643
     Eigenvalues ---    0.02663   0.02693   0.09923   0.09947   0.10259
     Eigenvalues ---    0.10513   0.10530   0.10559   0.15995   0.15998
     Eigenvalues ---    0.15999   0.16000   0.16000   0.16000   0.16000
     Eigenvalues ---    0.16000   0.16000   0.16000   0.21985   0.22953
     Eigenvalues ---    0.23991   0.24967   0.24980   0.24989   0.24993
     Eigenvalues ---    0.24997   0.24997   0.24998   0.25000   0.25000
     Eigenvalues ---    0.25000   0.25000   0.25000   0.25000   0.25000
     Eigenvalues ---    0.31376   0.34135   0.34179   0.34196   0.34200
     Eigenvalues ---    0.34314   0.34326   0.34886   0.34986   0.35016
     Eigenvalues ---    0.35165   0.41561   0.41839   0.41884   0.42113
     Eigenvalues ---    0.45282   0.45708   0.45984   0.46221   0.46974
     Eigenvalues ---    0.49178   0.49504   0.49574   0.52536   0.52568
     Eigenvalues ---    0.52646   0.54289   0.55083   0.59577   0.60288
     Eigenvalues ---    0.60514   0.610681000.000001000.000001000.00000
     Eigenvalues --- 1000.000001000.000001000.000001000.000001000.00000
     Eigenvalues --- 1000.000001000.000001000.000001000.000001000.00000
     Eigenvalues --- 1000.000001000.000001000.000001000.000001000.00000
     Eigenvalues --- 1000.000001000.000001000.000001000.000001000.00000
     Eigenvalues --- 1000.000001000.000001000.000001000.000001000.00000
     Eigenvalues --- 1000.000001000.000001000.000001000.000001000.00000
     Eigenvalues --- 1000.000001000.000001000.000001000.000001000.00000
     Eigenvalues --- 1000.000001000.000001000.000001000.000001000.00000
[...]
    59    N    4  dx2y2  Ryd( 3d)     0.00345
    60    N    4  dz2    Ryd( 3d)     0.00242

    61    C    5  S      Cor( 1S)     1.99915
    62    C    5  S      Val( 2S)     0.74515
    63    C    5  S      Ryd( 3S)     0.00201
    64    C    5  S      Ryd( 4S)     0.00041
    65    C    5  px     Val( 2p)     0.77933
    66    C    5  px     Ryd( 3p)     0.00643
    67    C    5  py     Val( 2p)     0.81211
    68    C    5  py     Ryd( 3p)     0.01607
    69    C    5  pz     Val( 2p)     0.88071
    70    C    5  pz     Ryd( 3p)     0.00197
    71    C    5  dxy    Ryd( 3d)     0.00284
    72    C    5  dxz    Ryd( 3d)     0.00226
    73    C    5  dyz    Ryd( 3d)     0.00189
    74    C    5  dx2y2  Ryd( 3d)     0.00191
    75    C    5  dz2    Ryd( 3d)     0.00043

    76    O    6  S      Cor( 1S)     1.99967
    77    O    6  S      Val( 2S)     1.57111
    78    O    6  S      Ryd( 3S)     0.00111
    79    O    6  S      Ryd( 4S)     0.00009
    80    O    6  px     Val( 2p)     1.38625
    81    O    6  px     Ryd( 3p)     0.00080
    82    O    6  py     Val( 2p)     1.71411
    83    O    6  py     Ryd( 3p)     0.00191
    84    O    6  pz     Val( 2p)     1.79028
    85    O    6  pz     Ryd( 3p)     0.00264
    86    O    6  dxy    Ryd( 3d)     0.00142
    87    O    6  dxz    Ryd( 3d)     0.00035
    88    O    6  dyz    Ryd( 3d)     0.00187
    89    O    6  dx2y2  Ryd( 3d)     0.00141
    90    O    6  dz2    Ryd( 3d)     0.00081

    91    C    7  S      Cor( 1S)     1.99874
    92    C    7  S      Val( 2S)     0.84808
    93    C    7  S      Ryd( 3S)     0.00147
    94    C    7  S      Ryd( 4S)     0.00012
    95    C    7  px     Val( 2p)     0.77483
    96    C    7  px     Ryd( 3p)     0.00718
    97    C    7  py     Val( 2p)     0.97703
    98    C    7  py     Ryd( 3p)     0.00523
    99    C    7  pz     Val( 2p)     1.06668
   100    C    7  pz     Ryd( 3p)     0.00441
   101    C    7  dxy    Ryd( 3d)     0.00130
   102    C    7  dxz    Ryd( 3d)     0.00144
   103    C    7  dyz    Ryd( 3d)     0.00088
   104    C    7  dx2y2  Ryd( 3d)     0.00125
   105    C    7  dz2    Ryd( 3d)     0.00116

   106    C    8  S      Cor( 1S)     1.99902
   107    C    8  S      Val( 2S)     0.97079
   108    C    8  S      Ryd( 3S)     0.00083
   109    C    8  S      Ryd( 4S)     0.00005
   110    C    8  px     Val( 2p)     1.07240
   111    C    8  px     Ryd( 3p)     0.00503
   112    C    8  py     Val( 2p)     1.06245
   113    C    8  py     Ryd( 3p)     0.00501
   114    C    8  pz     Val( 2p)     1.13987
   115    C    8  pz     Ryd( 3p)     0.00487
   116    C    8  dxy    Ryd( 3d)     0.00062
   117    C    8  dxz    Ryd( 3d)     0.00072
   118    C    8  dyz    Ryd( 3d)     0.00059
   119    C    8  dx2y2  Ryd( 3d)     0.00044
   120    C    8  dz2    Ryd( 3d)     0.00059

   121    C    9  S      Cor( 1S)     1.99909
   122    C    9  S      Val( 2S)     0.96234
   123    C    9  S      Ryd( 3S)     0.00061
   124    C    9  S      Ryd( 4S)     0.00005
   125    C    9  px     Val( 2p)     1.09421
   126    C    9  px     Ryd( 3p)     0.00518
   127    C    9  py     Val( 2p)     0.99289
   128    C    9  py     Ryd( 3p)     0.00423
   129    C    9  pz     Val( 2p)     1.13250
   130    C    9  pz     Ryd( 3p)     0.00485
   131    C    9  dxy    Ryd( 3d)     0.00058
   132    C    9  dxz    Ryd( 3d)     0.00084
   133    C    9  dyz    Ryd( 3d)     0.00046
   134    C    9  dx2y2  Ryd( 3d)     0.00061
   135    C    9  dz2    Ryd( 3d)     0.00057

   136    C   10  S      Cor( 1S)     1.99889
   137    C   10  S      Val( 2S)     0.91816
   138    C   10  S      Ryd( 3S)     0.00089
   139    C   10  S      Ryd( 4S)     0.00006
   140    C   10  px     Val( 2p)     1.07536
   141    C   10  px     Ryd( 3p)     0.00493
   142    C   10  py     Val( 2p)     1.03580
   143    C   10  py     Ryd( 3p)     0.00330
   144    C   10  pz     Val( 2p)     1.09179
   145    C   10  pz     Ryd( 3p)     0.00435
   146    C   10  dxy    Ryd( 3d)     0.00064
   147    C   10  dxz    Ryd( 3d)     0.00058
   148    C   10  dyz    Ryd( 3d)     0.00069
   149    C   10  dx2y2  Ryd( 3d)     0.00071
   150    C   10  dz2    Ryd( 3d)     0.00086

   151    C   11  S      Cor( 1S)     1.99909
   152    C   11  S      Val( 2S)     0.95922
   153    C   11  S      Ryd( 3S)     0.00067
   154    C   11  S      Ryd( 4S)     0.00005
   155    C   11  px     Val( 2p)     1.06477
   156    C   11  px     Ryd( 3p)     0.00523
   157    C   11  py     Val( 2p)     1.04565
   158    C   11  py     Ryd( 3p)     0.00497
   159    C   11  pz     Val( 2p)     1.14067
   160    C   11  pz     Ryd( 3p)     0.00492
   161    C   11  dxy    Ryd( 3d)     0.00065
   162    C   11  dxz    Ryd( 3d)     0.00069
   163    C   11  dyz    Ryd( 3d)     0.00055
   164    C   11  dx2y2  Ryd( 3d)     0.00048
   165    C   11  dz2    Ryd( 3d)     0.00058

   166    C   12  S      Cor( 1S)     1.99902
   167    C   12  S      Val( 2S)     0.97277
   168    C   12  S      Ryd( 3S)     0.00081
   169    C   12  S      Ryd( 4S)     0.00006
   170    C   12  px     Val( 2p)     1.10278
   171    C   12  px     Ryd( 3p)     0.00463
   172    C   12  py     Val( 2p)     0.99734
   173    C   12  py     Ryd( 3p)     0.00463
   174    C   12  pz     Val( 2p)     1.14243
   175    C   12  pz     Ryd( 3p)     0.00438
   176    C   12  dxy    Ryd( 3d)     0.00054
   177    C   12  dxz    Ryd( 3d)     0.00084
   178    C   12  dyz    Ryd( 3d)     0.00049
   179    C   12  dx2y2  Ryd( 3d)     0.00061
   180    C   12  dz2    Ryd( 3d)     0.00061

   181    C   13  S      Cor( 1S)     1.99907
   182    C   13  S      Val( 2S)     0.79546
   183    C   13  S      Ryd( 3S)     0.00496
   184    C   13  S      Ryd( 4S)     0.00030
   185    C   13  px     Val( 2p)     0.83470
   186    C   13  px     Ryd( 3p)     0.01345
   187    C   13  py     Val( 2p)     0.62072
   188    C   13  py     Ryd( 3p)     0.01586
   189    C   13  pz     Val( 2p)     0.56921
   190    C   13  pz     Ryd( 3p)     0.01823
   191    C   13  dxy    Ryd( 3d)     0.00326
   192    C   13  dxz    Ryd( 3d)     0.00328
   193    C   13  dyz    Ryd( 3d)     0.00381
   194    C   13  dx2y2  Ryd( 3d)     0.00329
   195    C   13  dz2    Ryd( 3d)     0.00383

   196    F   14  S      Cor( 1S)     1.99993
   197    F   14  S      Val( 2S)     1.84359
   198    F   14  S      Ryd( 3S)     0.00087
   199    F   14  S      Ryd( 4S)     0.00004
   200    F   14  px     Val( 2p)     1.83660
   201    F   14  px     Ryd( 3p)     0.00039
   202    F   14  py     Val( 2p)     1.85199
   203    F   14  py     Ryd( 3p)     0.00018
   204    F   14  pz     Val( 2p)     1.82412
   205    F   14  pz     Ryd( 3p)     0.00023
   206    F   14  dxy    Ryd( 3d)     0.00084
   207    F   14  dxz    Ryd( 3d)     0.00087
   208    F   14  dyz    Ryd( 3d)     0.00079
   209    F   14  dx2y2  Ryd( 3d)     0.00095
   210    F   14  dz2    Ryd( 3d)     0.00107

   211    F   15  S      Cor( 1S)     1.99993
   212    F   15  S      Val( 2S)     1.84406
   213    F   15  S      Ryd( 3S)     0.00089
   214    F   15  S      Ryd( 4S)     0.00003
   215    F   15  px     Val( 2p)     1.89234
   216    F   15  px     Ryd( 3p)     0.00040
   217    F   15  py     Val( 2p)     1.93287
   218    F   15  py     Ryd( 3p)     0.00024
   219    F   15  pz     Val( 2p)     1.68725
   220    F   15  pz     Ryd( 3p)     0.00017
   221    F   15  dxy    Ryd( 3d)     0.00030
   222    F   15  dxz    Ryd( 3d)     0.00125
   223    F   15  dyz    Ryd( 3d)     0.00118
   224    F   15  dx2y2  Ryd( 3d)     0.00031
   225    F   15  dz2    Ryd( 3d)     0.00146

   226    F   16  S      Cor( 1S)     1.99993
   227    F   16  S      Val( 2S)     1.84775
   228    F   16  S      Ryd( 3S)     0.00093
   229    F   16  S      Ryd( 4S)     0.00003
   230    F   16  px     Val( 2p)     1.94059
   231    F   16  px     Ryd( 3p)     0.00043
   232    F   16  py     Val( 2p)     1.66567
   233    F   16  py     Ryd( 3p)     0.00024
   234    F   16  pz     Val( 2p)     1.90113
   235    F   16  pz     Ryd( 3p)     0.00015
   236    F   16  dxy    Ryd( 3d)     0.00131
   237    F   16  dxz    Ryd( 3d)     0.00018
   238    F   16  dyz    Ryd( 3d)     0.00129
   239    F   16  dx2y2  Ryd( 3d)     0.00107
   240    F   16  dz2    Ryd( 3d)     0.00059

   241    N   17  S      Cor( 1S)     1.99922
   242    N   17  S      Val( 2S)     1.39026
   243    N   17  S      Ryd( 3S)     0.00085
   244    N   17  S      Ryd( 4S)     0.00007
   245    N   17  px     Val( 2p)     1.56342
   246    N   17  px     Ryd( 3p)     0.00211
   247    N   17  py     Val( 2p)     1.29657
   248    N   17  py     Ryd( 3p)     0.00197
   249    N   17  pz     Val( 2p)     1.34772
   250    N   17  pz     Ryd( 3p)     0.00089
   251    N   17  dxy    Ryd( 3d)     0.00328
   252    N   17  dxz    Ryd( 3d)     0.00316
   253    N   17  dyz    Ryd( 3d)     0.00085
   254    N   17  dx2y2  Ryd( 3d)     0.00353
   255    N   17  dz2    Ryd( 3d)     0.00228

   256    C   18  S      Cor( 1S)     1.99922
   257    C   18  S      Val( 2S)     0.73830
   258    C   18  S      Ryd( 3S)     0.00213
   259    C   18  S      Ryd( 4S)     0.00038
   260    C   18  px     Val( 2p)     0.86372
   261    C   18  px     Ryd( 3p)     0.01553
   262    C   18  py     Val( 2p)     0.73518
   263    C   18  py     Ryd( 3p)     0.00670
   264    C   18  pz     Val( 2p)     0.86415
   265    C   18  pz     Ryd( 3p)     0.00130
   266    C   18  dxy    Ryd( 3d)     0.00194
   267    C   18  dxz    Ryd( 3d)     0.00164
   268    C   18  dyz    Ryd( 3d)     0.00261
   269    C   18  dx2y2  Ryd( 3d)     0.00290
   270    C   18  dz2    Ryd( 3d)     0.00042

   271    N   19  S      Cor( 1S)     1.99926
   272    N   19  S      Val( 2S)     1.39158
   273    N   19  S      Ryd( 3S)     0.00087
   274    N   19  S      Ryd( 4S)     0.00005
   275    N   19  px     Val( 2p)     1.50512
   276    N   19  px     Ryd( 3p)     0.00290
   277    N   19  py     Val( 2p)     1.36402
   278    N   19  py     Ryd( 3p)     0.00256
   279    N   19  pz     Val( 2p)     1.32479
   280    N   19  pz     Ryd( 3p)     0.00110
   281    N   19  dxy    Ryd( 3d)     0.00341
   282    N   19  dxz    Ryd( 3d)     0.00255
   283    N   19  dyz    Ryd( 3d)     0.00158
   284    N   19  dx2y2  Ryd( 3d)     0.00376
   285    N   19  dz2    Ryd( 3d)     0.00233

   286    O   20  S      Cor( 1S)     1.99972
   287    O   20  S      Val( 2S)     1.59622
   288    O   20  S      Ryd( 3S)     0.00137
   289    O   20  S      Ryd( 4S)     0.00006
   290    O   20  px     Val( 2p)     1.60832
   291    O   20  px     Ryd( 3p)     0.00138
   292    O   20  py     Val( 2p)     1.49661
   293    O   20  py     Ryd( 3p)     0.00128
   294    O   20  pz     Val( 2p)     1.78580
   295    O   20  pz     Ryd( 3p)     0.00211
   296    O   20  dxy    Ryd( 3d)     0.00131
   297    O   20  dxz    Ryd( 3d)     0.00105
   298    O   20  dyz    Ryd( 3d)     0.00127
   299    O   20  dx2y2  Ryd( 3d)     0.00143
   300    O   20  dz2    Ryd( 3d)     0.00078

   301    C   21  S      Cor( 1S)     1.99941
   302    C   21  S      Val( 2S)     1.11141
   303    C   21  S      Ryd( 3S)     0.00145
   304    C   21  S      Ryd( 4S)     0.00003
   305    C   21  px     Val( 2p)     0.81889
   306    C   21  px     Ryd( 3p)     0.00304
   307    C   21  py     Val( 2p)     1.13940
   308    C   21  py     Ryd( 3p)     0.00264
   309    C   21  pz     Val( 2p)     1.23860
   310    C   21  pz     Ryd( 3p)     0.00026
   311    C   21  dxy    Ryd( 3d)     0.00132
   312    C   21  dxz    Ryd( 3d)     0.00171
   313    C   21  dyz    Ryd( 3d)     0.00049
   314    C   21  dx2y2  Ryd( 3d)     0.00164
   315    C   21  dz2    Ryd( 3d)     0.00111

   316    H   22  S      Val( 1S)     0.77306
   317    H   22  S      Ryd( 2S)     0.00059

   318    H   23  S      Val( 1S)     0.77712
   319    H   23  S      Ryd( 2S)     0.00134

   320    H   24  S      Val( 1S)     0.77679
   321    H   24  S      Ryd( 2S)     0.00133

   322    H   25  S      Val( 1S)     0.74721
   323    H   25  S      Ryd( 2S)     0.00103

   324    H   26  S      Val( 1S)     0.74818
   325    H   26  S      Ryd( 2S)     0.00140

   326    H   27  S      Val( 1S)     0.74935
   327    H   27  S      Ryd( 2S)     0.00139

   328    H   28  S      Val( 1S)     0.74918
   329    H   28  S      Ryd( 2S)     0.00090

   330    H   29  S      Val( 1S)     0.77171
   331    H   29  S      Ryd( 2S)     0.00057

   332    H   30  S      Val( 1S)     0.77936
   333    H   30  S      Ryd( 2S)     0.00152

   334    H   31  S      Val( 1S)     0.77732
   335    H   31  S      Ryd( 2S)     0.00137

 WARNING:  1 low occupancy (<1.9990e) core orbital  found on  C    7
           1 low occupancy (<1.9990e) core orbital  found on  C   10


 Summary of Natural Population Analysis:                  
                                                          
                                       Natural Population 
                Natural  -----------------------------------------------
    Atom  No    Charge         Core      Valence    Rydberg      Total
 -----------------------------------------------------------------------
      C    1   -0.32125      1.99941     4.30813    0.01371     6.32125
      O    2   -0.49650      1.99972     6.48448    0.01230     8.49650
      C    3    0.76378      1.99921     3.20010    0.03690     5.23622
      N    4   -0.55544      1.99926     5.53383    0.02235     7.55544
      C    5    0.74734      1.99915     3.21729    0.03622     5.25266
      O    6   -0.47382      1.99967     6.46175    0.01240     8.47382
      C    7    0.31020      1.99874     3.66662    0.02444     5.68980
      C    8   -0.26328      1.99902     4.24550    0.01875     6.26328
      C    9   -0.19901      1.99909     4.18194    0.01798     6.19901
      C   10   -0.13702      1.99889     4.12111    0.01702     6.13702
      C   11   -0.22821      1.99909     4.21031    0.01881     6.22821
      C   12   -0.23195      1.99902     4.21532    0.01761     6.23195
      C   13    1.11058      1.99907     2.82009    0.07025     4.88942
      F   14   -0.36245      1.99993     7.35630    0.00622     9.36245
      F   15   -0.36270      1.99993     7.35652    0.00624     9.36270
      F   16   -0.36129      1.99993     7.35515    0.00621     9.36129
      N   17   -0.61618      1.99922     5.59796    0.01899     7.61618
      C   18    0.76387      1.99922     3.20136    0.03555     5.23613
      N   19   -0.60587      1.99926     5.58551    0.02110     7.60587
      O   20   -0.49871      1.99972     6.48695    0.01204     8.49871
      C   21   -0.32140      1.99941     4.30831    0.01368     6.32140
      H   22    0.22636      0.00000     0.77306    0.00059     0.77364
      H   23    0.22153      0.00000     0.77712    0.00134     0.77847
      H   24    0.22188      0.00000     0.77679    0.00133     0.77812
      H   25    0.25176      0.00000     0.74721    0.00103     0.74824
      H   26    0.25043      0.00000     0.74818    0.00140     0.74957
      H   27    0.24925      0.00000     0.74935    0.00139     0.75075
      H   28    0.24992      0.00000     0.74918    0.00090     0.75008
      H   29    0.22772      0.00000     0.77171    0.00057     0.77228
      H   30    0.21913      0.00000     0.77936    0.00152     0.78087
      H   31    0.22131      0.00000     0.77732    0.00137     0.77869
 =======================================================================
   * Total *   -0.00000     41.98596   111.56381    0.45024   154.00000

                                 Natural Population      
 --------------------------------------------------------
   Core                      41.98596 ( 99.9666% of  42)
   Valence                  111.56381 ( 99.6105% of 112)
   Natural Minimal Basis    153.54976 ( 99.7076% of 154)
   Natural Rydberg Basis      0.45024 (  0.2924% of 154)
 --------------------------------------------------------

    Atom  No          Natural Electron Configuration
 ----------------------------------------------------------------------------
      C    1      [core]2S( 1.11)2p( 3.20)3p( 0.01)3d( 0.01)
      O    2      [core]2S( 1.60)2p( 4.89)3d( 0.01)
      C    3      [core]2S( 0.75)2p( 2.45)3p( 0.02)3d( 0.01)
      N    4      [core]2S( 1.39)2p( 4.15)3p( 0.01)3d( 0.01)
      C    5      [core]2S( 0.75)2p( 2.47)3p( 0.02)3d( 0.01)
      O    6      [core]2S( 1.57)2p( 4.89)3p( 0.01)3d( 0.01)
      C    7      [core]2S( 0.85)2p( 2.82)3p( 0.02)3d( 0.01)
      C    8      [core]2S( 0.97)2p( 3.27)3p( 0.01)
      C    9      [core]2S( 0.96)2p( 3.22)3p( 0.01)
      C   10      [core]2S( 0.92)2p( 3.20)3p( 0.01)
      C   11      [core]2S( 0.96)2p( 3.25)3p( 0.02)
      C   12      [core]2S( 0.97)2p( 3.24)3p( 0.01)
      C   13      [core]2S( 0.80)2p( 2.02)3p( 0.05)3d( 0.02)
      F   14      [core]2S( 1.84)2p( 5.51)
      F   15      [core]2S( 1.84)2p( 5.51)
      F   16      [core]2S( 1.85)2p( 5.51)
      N   17      [core]2S( 1.39)2p( 4.21)3d( 0.01)
      C   18      [core]2S( 0.74)2p( 2.46)3p( 0.02)3d( 0.01)
      N   19      [core]2S( 1.39)2p( 4.19)3p( 0.01)3d( 0.01)
      O   20      [core]2S( 1.60)2p( 4.89)3d( 0.01)
      C   21      [core]2S( 1.11)2p( 3.20)3p( 0.01)3d( 0.01)
      H   22            1S( 0.77)
      H   23            1S( 0.78)
      H   24            1S( 0.78)
      H   25            1S( 0.75)
      H   26            1S( 0.75)
      H   27            1S( 0.75)
      H   28            1S( 0.75)
      H   29            1S( 0.77)
      H   30            1S( 0.78)
      H   31            1S( 0.78)


 NBO analysis skipped by request.
 Leave Link  607 at Wed Sep 29 02:18:24 2021, MaxMem= 1342177280 cpu:      22.7
 (Enter /sw/target/amd/app/gaussian/Gaussian09RevA.02_gcc-4.9.2/g09/l9999.exe)
 1\1\GINC-HERMITE\SP\RTD-B3LYP-FC\6-31G(d)\C12H10F3N3O3\JSCHLEINITZ\29-
 Sep-2021\0\\#p TD(NStates=10, Root=1) b3lyp/6-31G* volume pop=NPA dens
 ity=current Geom=AllCheck Guess=Read\\COc1nc(Oc2ccc(cc2)C(F)(F)F)nc(n1
 )OC_conf_0\\0,1\C,0,2.8080054899,0.2990189043,-1.4412369337\O,0,2.7250
 651971,0.0005419391,-0.0392333354\C,0,3.4036802294,0.7808597942,0.7984
 226212\N,0,3.2784788317,0.4388667512,2.0893095415\C,0,3.9628890099,1.2
 296351648,2.9006003891\O,0,3.8373155467,0.9148227985,4.2087817094\C,0,
 4.5734635676,1.5970337861,5.1732189119\C,0,3.8749756611,2.3798944749,6
 .0878275927\C,0,4.5683033439,2.9943259359,7.1289969644\C,0,5.948875353
 7,2.8197870771,7.2481332241\C,0,6.6367874739,2.0227629445,6.3270759468
 \C,0,5.9497396844,1.4042064767,5.2871887618\C,0,6.7081360161,3.5318441
 466,8.3334951787\F,0,5.9409196564,3.7577136444,9.4226839544\F,0,7.7896
 549883,2.8274681018,8.7357028575\F,0,7.1620143028,4.7388334703,7.91722
 26134\N,0,4.7232885115,2.2763689902,2.5631186189\C,0,4.7565326411,2.50
 10466945,1.2465555784\N,0,4.1215826352,1.79263073,0.3072190039\O,0,5.4
 76928353,3.5187177068,0.7794234607\C,0,6.1810648626,4.3296516435,1.732
 9997865\H,0,2.1862267927,-0.4546381244,-1.9254480997\H,0,3.8406881381,
 0.2301785255,-1.7925093699\H,0,2.4279222286,1.3027235395,-1.6478077348
 \H,0,2.8012669841,2.4929082223,5.9815840709\H,0,4.034680867,3.60175824
 04,7.8520985707\H,0,7.7065424552,1.8759975688,6.4326251776\H,0,6.46778
 86338,0.7730319167,4.5734672367\H,0,6.687518741,5.0887877028,1.1362420
 16\H,0,6.9067917379,3.7323804677,2.2908885852\H,0,5.48573738,4.7939998
 839,2.4367939356\\Version=AM64L-G09RevA.02\State=1-A\HF=-1152.7631191\
 RMSD=8.017e-09\Dipole=0.2097754,0.4093689,-0.8143017\Quadrupole=1.3533
 293,-1.8798844,0.5265551,-4.5877126,-3.0301063,-0.561323\PG=C01 [X(C12
 H10F3N3O3)]\\@


 IT'S WHAT YOU LEARN AFTER YOU KNOW IT ALL
 THAT COUNTS.
 Job cpu time:  0 days  5 hours 33 minutes 23.0 seconds.
 File lengths (MBytes):  RWF=    384 Int=      0 D2E=      0 Chk=     51 Scr=      1
 Normal termination of Gaussian 09 at Wed Sep 29 02:18:28 2021.
