 Entering Gaussian System, Link 0=g09
 Input=C12H16O2_5e9d_conf_0.com
 Output=C12H16O2_5e9d_conf_0.log
 Initial command:
 /sw/target/amd/app/gaussian/Gaussian09RevA.02_gcc-4.9.2/g09/l1.exe /home/jschleinitz/gaussian/Gau-3285594.inp -scrdir=/home/jschleinitz/gaussian/
 Entering Link 1 = /sw/target/amd/app/gaussian/Gaussian09RevA.02_gcc-4.9.2/g09/l1.exe PID=   3285596.
  
 Copyright (c) 1988,1990,1992,1993,1995,1998,2003,2009, Gaussian, Inc.
                  All Rights Reserved.
  
 This is part of the Gaussian(R) 09 program.  It is based on
 the Gaussian(R) 03 system (copyright 2003, Gaussian, Inc.),
 the Gaussian(R) 98 system (copyright 1998, Gaussian, Inc.),
 the Gaussian(R) 94 system (copyright 1995, Gaussian, Inc.),
 the Gaussian 92(TM) system (copyright 1992, Gaussian, Inc.),
 the Gaussian 90(TM) system (copyright 1990, Gaussian, Inc.),
 the Gaussian 88(TM) system (copyright 1988, Gaussian, Inc.),
 the Gaussian 86(TM) system (copyright 1986, Carnegie Mellon
 University), and the Gaussian 82(TM) system (copyright 1983,
 Carnegie Mellon University). Gaussian is a federally registered
 trademark of Gaussian, Inc.
  
 This software contains proprietary and confidential information,
 including trade secrets, belonging to Gaussian, Inc.
  
 This software is provided under written license and may be
 used, copied, transmitted, or stored only in accord with that
 written license.
  
 The following legend is applicable only to US Government
 contracts under FAR:
  
                    RESTRICTED RIGHTS LEGEND
  
 Use, reproduction and disclosure by the US Government is
 subject to restrictions as set forth in subparagraphs (a)
 and (c) of the Commercial Computer Software - Restricted
 Rights clause in FAR 52.227-19.
  
 Gaussian, Inc.
 340 Quinnipiac St., Bldg. 40, Wallingford CT 06492
  
  
 ---------------------------------------------------------------
 Warning -- This program may not be used in any manner that
 competes with the business of Gaussian, Inc. or will provide
 assistance to any competitor of Gaussian, Inc.  The licensee
 of this program is prohibited from giving any competitor of
 Gaussian, Inc. access to this program.  By using this program,
 the user acknowledges that Gaussian, Inc. is engaged in the
 business of creating and licensing software in the field of
 computational chemistry and represents and warrants to the
 licensee that it is not a competitor of Gaussian, Inc. and that
 it will not use this program in any manner prohibited above.
 ---------------------------------------------------------------
  

 Cite this work as:
 Gaussian 09, Revision A.02,
 M. J. Frisch, G. W. Trucks, H. B. Schlegel, G. E. Scuseria, 
 M. A. Robb, J. R. Cheeseman, G. Scalmani, V. Barone, B. Mennucci, 
 G. A. Petersson, H. Nakatsuji, M. Caricato, X. Li, H. P. Hratchian, 
 A. F. Izmaylov, J. Bloino, G. Zheng, J. L. Sonnenberg, M. Hada, 
 M. Ehara, K. Toyota, R. Fukuda, J. Hasegawa, M. Ishida, T. Nakajima, 
 Y. Honda, O. Kitao, H. Nakai, T. Vreven, J. A. Montgomery, Jr., 
 J. E. Peralta, F. Ogliaro, M. Bearpark, J. J. Heyd, E. Brothers, 
 K. N. Kudin, V. N. Staroverov, R. Kobayashi, J. Normand, 
 K. Raghavachari, A. Rendell, J. C. Burant, S. S. Iyengar, J. Tomasi, 
 M. Cossi, N. Rega, J. M. Millam, M. Klene, J. E. Knox, J. B. Cross, 
 V. Bakken, C. Adamo, J. Jaramillo, R. Gomperts, R. E. Stratmann, 
 O. Yazyev, A. J. Austin, R. Cammi, C. Pomelli, J. W. Ochterski, 
 R. L. Martin, K. Morokuma, V. G. Zakrzewski, G. A. Voth, 
 P. Salvador, J. J. Dannenberg, S. Dapprich, A. D. Daniels, 
 O. Farkas, J. B. Foresman, J. V. Ortiz, J. Cioslowski, 
 and D. J. Fox, Gaussian, Inc., Wallingford CT, 2009.
 
 ******************************************
 Gaussian 09:  AM64L-G09RevA.02 11-Jun-2009
                29-Sep-2021 
 ******************************************
 %nproc=5
 Will use up to    5 processors via shared memory.
 %mem=10gb
 %chk=C12H16O2_5e9d_conf_0.chk
 -----------------------------------
 #p opt b3lyp/6-31G* scf=(xqc,tight)
 -----------------------------------
 1/14=-1,18=20,19=15,26=3,38=1/1,3;
 2/9=110,12=2,17=6,18=5,40=1/2;
 3/5=1,6=6,7=1,11=2,16=1,25=1,30=1,71=1,74=-5/1,2,3;
 4//1;
 5/5=2,8=3,13=1,32=2,38=5/2,8;
 6/7=2,8=2,9=2,10=2,28=1/1;
 7//1,2,3,16;
 1/14=-1,18=20,19=15/3(2);
 2/9=110/2;
 99//99;
 2/9=110/2;
 3/5=1,6=6,7=1,11=2,16=1,25=1,30=1,71=1,74=-5/1,2,3;
 4/5=5,16=3/1;
 5/5=2,8=3,13=1,32=2,38=5/2,8;
 7//1,2,3,16;
 1/14=-1,18=20,19=15/3(-5);
 2/9=110/2;
 6/7=2,8=2,9=2,10=2,19=2,28=1/1;
 99/9=1/99;
 Leave Link    1 at Wed Sep 29 13:39:17 2021, MaxMem= 1342177280 cpu:       0.1
 (Enter /sw/target/amd/app/gaussian/Gaussian09RevA.02_gcc-4.9.2/g09/l101.exe)
 --------------------------------
 Cc1ccc(cc1)OC(=O)C(C)(C)C_conf_0
 --------------------------------
 Symbolic Z-matrix:
 Charge =  0 Multiplicity = 1
 C                     0.4155   -1.18152  -2.40457 
 C                    -0.99288  -0.88744  -1.97792 
 C                    -1.85919  -1.91902  -1.58908 
 C                    -3.15918  -1.62872  -1.1677 
 C                    -3.5827   -0.3028   -1.11731 
 C                    -2.73788   0.73245  -1.51325 
 C                    -1.43988   0.43845  -1.92926 
 O                    -4.92488  -0.06738  -0.77878 
 C                    -5.21313   0.99344   0.0786 
 O                    -4.39938   1.58476   0.77776 
 C                    -6.71619   1.29772   0.06972 
 C                    -7.37582   0.52092   1.21247 
 C                    -6.90379   2.8084    0.28707 
 C                    -7.37058   0.91985  -1.26921 
 H                     0.5458   -2.24005  -2.65145 
 H                     1.11002  -0.92364  -1.5991 
 H                     0.67216  -0.60208  -3.29772 
 H                    -1.52912  -2.95479  -1.61885 
 H                    -3.83213  -2.43297  -0.88538 
 H                    -3.07293   1.76501  -1.5006 
 H                    -0.77946   1.25291  -2.22039 
 H                    -6.93013   0.78168   2.17951 
 H                    -7.25217  -0.5599    1.07962 
 H                    -8.44918   0.73363   1.26886 
 H                    -6.49824   3.12852   1.25354 
 H                    -7.96344   3.08657   0.26425 
 H                    -6.3869    3.38438  -0.48986 
 H                    -7.35051  -0.16293  -1.43829 
 H                    -6.84941   1.39347  -2.1093 
 H                    -8.419     1.23457  -1.30114 
 
 NAtoms=     30 NQM=     30 NQMF=      0 NMic=      0 NMicF=      0 NTot=     30.
                    Isotopes and Nuclear Properties:
 (Nuclear quadrupole moments (NQMom) in fm**2, nuclear magnetic moments (NMagM)
  in nuclear magnetons)

  Atom         1           2           3           4           5           6           7           8           9          10
 IAtWgt=          12          12          12          12          12          12          12          16          12          16
 AtmWgt=  12.0000000  12.0000000  12.0000000  12.0000000  12.0000000  12.0000000  12.0000000  15.9949146  12.0000000  15.9949146
 NucSpn=           0           0           0           0           0           0           0           0           0           0
 AtZEff=   0.0000000   0.0000000   0.0000000   0.0000000   0.0000000   0.0000000   0.0000000   0.0000000   0.0000000   0.0000000
 NQMom=    0.0000000   0.0000000   0.0000000   0.0000000   0.0000000   0.0000000   0.0000000   0.0000000   0.0000000   0.0000000
 NMagM=    0.0000000   0.0000000   0.0000000   0.0000000   0.0000000   0.0000000   0.0000000   0.0000000   0.0000000   0.0000000

  Atom        11          12          13          14          15          16          17          18          19          20
 IAtWgt=          12          12          12          12           1           1           1           1           1           1
 AtmWgt=  12.0000000  12.0000000  12.0000000  12.0000000   1.0078250   1.0078250   1.0078250   1.0078250   1.0078250   1.0078250
 NucSpn=           0           0           0           0           1           1           1           1           1           1
 AtZEff=   0.0000000   0.0000000   0.0000000   0.0000000   0.0000000   0.0000000   0.0000000   0.0000000   0.0000000   0.0000000
 NQMom=    0.0000000   0.0000000   0.0000000   0.0000000   0.0000000   0.0000000   0.0000000   0.0000000   0.0000000   0.0000000
 NMagM=    0.0000000   0.0000000   0.0000000   0.0000000   2.7928460   2.7928460   2.7928460   2.7928460   2.7928460   2.7928460

  Atom        21          22          23          24          25          26          27          28          29          30
 IAtWgt=           1           1           1           1           1           1           1           1           1           1
 AtmWgt=   1.0078250   1.0078250   1.0078250   1.0078250   1.0078250   1.0078250   1.0078250   1.0078250   1.0078250   1.0078250
 NucSpn=           1           1           1           1           1           1           1           1           1           1
 AtZEff=   0.0000000   0.0000000   0.0000000   0.0000000   0.0000000   0.0000000   0.0000000   0.0000000   0.0000000   0.0000000
 NQMom=    0.0000000   0.0000000   0.0000000   0.0000000   0.0000000   0.0000000   0.0000000   0.0000000   0.0000000   0.0000000
 NMagM=    2.7928460   2.7928460   2.7928460   2.7928460   2.7928460   2.7928460   2.7928460   2.7928460   2.7928460   2.7928460
 Leave Link  101 at Wed Sep 29 13:39:18 2021, MaxMem= 1342177280 cpu:       0.2
 (Enter /sw/target/amd/app/gaussian/Gaussian09RevA.02_gcc-4.9.2/g09/l103.exe)

 GradGradGradGradGradGradGradGradGradGradGradGradGradGradGradGradGradGrad
 Berny optimization.
 Initialization pass.
                           ----------------------------
                           !    Initial Parameters    !
                           ! (Angstroms and Degrees)  !
 --------------------------                            --------------------------
 ! Name  Definition              Value          Derivative Info.                !
 --------------------------------------------------------------------------------
 ! R1    R(1,2)                  1.5007         estimate D2E/DX2                !
 ! R2    R(1,15)                 1.0947         estimate D2E/DX2                !
 ! R3    R(1,16)                 1.0944         estimate D2E/DX2                !
 ! R4    R(1,17)                 1.0951         estimate D2E/DX2                !
 ! R5    R(2,3)                  1.4021         estimate D2E/DX2                !
 ! R6    R(2,7)                  1.4001         estimate D2E/DX2                !
 ! R7    R(3,4)                  1.3971         estimate D2E/DX2                !
 ! R8    R(3,18)                 1.0875         estimate D2E/DX2                !
 ! R9    R(4,5)                  1.3928         estimate D2E/DX2                !
 ! R10   R(4,19)                 1.086          estimate D2E/DX2                !
 ! R11   R(5,6)                  1.3936         estimate D2E/DX2                !
 ! R12   R(5,8)                  1.4041         estimate D2E/DX2                !
 ! R13   R(6,7)                  1.3944         estimate D2E/DX2                !
 ! R14   R(6,20)                 1.0856         estimate D2E/DX2                !
 ! R15   R(7,21)                 1.0882         estimate D2E/DX2                !
 ! R16   R(8,9)                  1.3941         estimate D2E/DX2                !
 ! R17   R(9,10)                 1.225          estimate D2E/DX2                !
 ! R18   R(9,11)                 1.5336         estimate D2E/DX2                !
 ! R19   R(11,12)                1.5311         estimate D2E/DX2                !
 ! R20   R(11,13)                1.5377         estimate D2E/DX2                !
 ! R21   R(11,14)                1.5375         estimate D2E/DX2                !
 ! R22   R(12,22)                1.0963         estimate D2E/DX2                !
 ! R23   R(12,23)                1.096          estimate D2E/DX2                !
 ! R24   R(12,24)                1.0957         estimate D2E/DX2                !
 ! R25   R(13,25)                1.0959         estimate D2E/DX2                !
 ! R26   R(13,26)                1.0958         estimate D2E/DX2                !
 ! R27   R(13,27)                1.0966         estimate D2E/DX2                !
 ! R28   R(14,28)                1.0961         estimate D2E/DX2                !
 ! R29   R(14,29)                1.0962         estimate D2E/DX2                !
 ! R30   R(14,30)                1.0951         estimate D2E/DX2                !
 ! A1    A(2,1,15)             111.4263         estimate D2E/DX2                !
 ! A2    A(2,1,16)             109.8868         estimate D2E/DX2                !
 ! A3    A(2,1,17)             110.3731         estimate D2E/DX2                !
 ! A4    A(15,1,16)            108.5597         estimate D2E/DX2                !
 ! A5    A(15,1,17)            107.445          estimate D2E/DX2                !
 ! A6    A(16,1,17)            109.0781         estimate D2E/DX2                !
 ! A7    A(1,2,3)              120.9666         estimate D2E/DX2                !
 ! A8    A(1,2,7)              119.6761         estimate D2E/DX2                !
 ! A9    A(3,2,7)              119.3314         estimate D2E/DX2                !
 ! A10   A(2,3,4)              120.3779         estimate D2E/DX2                !
 ! A11   A(2,3,18)             120.3729         estimate D2E/DX2                !
 ! A12   A(4,3,18)             119.2477         estimate D2E/DX2                !
 ! A13   A(3,4,5)              119.4501         estimate D2E/DX2                !
 ! A14   A(3,4,19)             120.0748         estimate D2E/DX2                !
 ! A15   A(5,4,19)             120.4748         estimate D2E/DX2                !
 ! A16   A(4,5,6)              120.8335         estimate D2E/DX2                !
 ! A17   A(4,5,8)              117.3226         estimate D2E/DX2                !
 ! A18   A(6,5,8)              121.5619         estimate D2E/DX2                !
 ! A19   A(5,6,7)              119.5004         estimate D2E/DX2                !
 ! A20   A(5,6,20)             121.0723         estimate D2E/DX2                !
 ! A21   A(7,6,20)             119.427          estimate D2E/DX2                !
 ! A22   A(2,7,6)              120.4811         estimate D2E/DX2                !
 ! A23   A(2,7,21)             120.3792         estimate D2E/DX2                !
 ! A24   A(6,7,21)             119.139          estimate D2E/DX2                !
 ! A25   A(5,8,9)              118.2626         estimate D2E/DX2                !
 ! A26   A(8,9,10)             125.5178         estimate D2E/DX2                !
 ! A27   A(8,9,11)             110.4917         estimate D2E/DX2                !
 ! A28   A(10,9,11)            123.9582         estimate D2E/DX2                !
 ! A29   A(9,11,12)            108.4969         estimate D2E/DX2                !
 ! A30   A(9,11,13)            108.2813         estimate D2E/DX2                !
 ! A31   A(9,11,14)            111.928          estimate D2E/DX2                !
 ! A32   A(12,11,13)           109.899          estimate D2E/DX2                !
 ! A33   A(12,11,14)           109.9931         estimate D2E/DX2                !
 ! A34   A(13,11,14)           108.2172         estimate D2E/DX2                !
 ! A35   A(11,12,22)           111.2558         estimate D2E/DX2                !
 ! A36   A(11,12,23)           111.177          estimate D2E/DX2                !
 ! A37   A(11,12,24)           111.2199         estimate D2E/DX2                !
 ! A38   A(22,12,23)           107.196          estimate D2E/DX2                !
 ! A39   A(22,12,24)           107.8607         estimate D2E/DX2                !
 ! A40   A(23,12,24)           107.9515         estimate D2E/DX2                !
 ! A41   A(11,13,25)           111.4981         estimate D2E/DX2                !
 ! A42   A(11,13,26)           111.3724         estimate D2E/DX2                !
 ! A43   A(11,13,27)           110.9992         estimate D2E/DX2                !
 ! A44   A(25,13,26)           107.5817         estimate D2E/DX2                !
 ! A45   A(25,13,27)           107.274          estimate D2E/DX2                !
 ! A46   A(26,13,27)           107.9223         estimate D2E/DX2                !
 ! A47   A(11,14,28)           111.6749         estimate D2E/DX2                !
 ! A48   A(11,14,29)           111.0299         estimate D2E/DX2                !
 ! A49   A(11,14,30)           111.2384         estimate D2E/DX2                !
 ! A50   A(28,14,29)           107.4505         estimate D2E/DX2                !
 ! A51   A(28,14,30)           107.2734         estimate D2E/DX2                !
 ! A52   A(29,14,30)           107.9779         estimate D2E/DX2                !
 ! D1    D(15,1,2,3)            17.0067         estimate D2E/DX2                !
 ! D2    D(15,1,2,7)          -164.8545         estimate D2E/DX2                !
 ! D3    D(16,1,2,3)          -103.3619         estimate D2E/DX2                !
 ! D4    D(16,1,2,7)            74.7769         estimate D2E/DX2                !
 ! D5    D(17,1,2,3)           136.2993         estimate D2E/DX2                !
 ! D6    D(17,1,2,7)           -45.5619         estimate D2E/DX2                !
 ! D7    D(1,2,3,4)            178.6711         estimate D2E/DX2                !
 ! D8    D(1,2,3,18)            -1.7675         estimate D2E/DX2                !
 ! D9    D(7,2,3,4)              0.526          estimate D2E/DX2                !
 ! D10   D(7,2,3,18)          -179.9126         estimate D2E/DX2                !
 ! D11   D(1,2,7,6)           -178.8931         estimate D2E/DX2                !
 ! D12   D(1,2,7,21)             1.395          estimate D2E/DX2                !
 ! D13   D(3,2,7,6)             -0.7237         estimate D2E/DX2                !
 ! D14   D(3,2,7,21)           179.5645         estimate D2E/DX2                !
 ! D15   D(2,3,4,5)             -0.9657         estimate D2E/DX2                !
 ! D16   D(2,3,4,19)           178.8516         estimate D2E/DX2                !
 ! D17   D(18,3,4,5)           179.468          estimate D2E/DX2                !
 ! D18   D(18,3,4,19)           -0.7147         estimate D2E/DX2                !
 ! D19   D(3,4,5,6)              1.6161         estimate D2E/DX2                !
 ! D20   D(3,4,5,8)            175.6106         estimate D2E/DX2                !
 ! D21   D(19,4,5,6)          -178.2004         estimate D2E/DX2                !
 ! D22   D(19,4,5,8)            -4.206          estimate D2E/DX2                !
 ! D23   D(4,5,6,7)             -1.8118         estimate D2E/DX2                !
 ! D24   D(4,5,6,20)           178.3562         estimate D2E/DX2                !
 ! D25   D(8,5,6,7)           -175.549          estimate D2E/DX2                !
 ! D26   D(8,5,6,20)             4.619          estimate D2E/DX2                !
 ! D27   D(4,5,8,9)            139.1766         estimate D2E/DX2                !
 ! D28   D(6,5,8,9)            -46.8755         estimate D2E/DX2                !
 ! D29   D(5,6,7,2)              1.3578         estimate D2E/DX2                !
 ! D30   D(5,6,7,21)          -178.9268         estimate D2E/DX2                !
 ! D31   D(20,6,7,2)          -178.8074         estimate D2E/DX2                !
 ! D32   D(20,6,7,21)            0.908          estimate D2E/DX2                !
 ! D33   D(5,8,9,10)           -15.287          estimate D2E/DX2                !
 ! D34   D(5,8,9,11)           166.7205         estimate D2E/DX2                !
 ! D35   D(8,9,11,12)           93.2892         estimate D2E/DX2                !
 ! D36   D(8,9,11,13)         -147.469          estimate D2E/DX2                !
 ! D37   D(8,9,11,14)          -28.2661         estimate D2E/DX2                !
 ! D38   D(10,9,11,12)         -84.7409         estimate D2E/DX2                !
 ! D39   D(10,9,11,13)          34.5009         estimate D2E/DX2                !
 ! D40   D(10,9,11,14)         153.7038         estimate D2E/DX2                !
 ! D41   D(9,11,12,22)          57.7675         estimate D2E/DX2                !
 ! D42   D(9,11,12,23)         -61.6322         estimate D2E/DX2                !
 ! D43   D(9,11,12,24)         178.0367         estimate D2E/DX2                !
 ! D44   D(13,11,12,22)        -60.453          estimate D2E/DX2                !
 ! D45   D(13,11,12,23)       -179.8527         estimate D2E/DX2                !
 ! D46   D(13,11,12,24)         59.8162         estimate D2E/DX2                !
 ! D47   D(14,11,12,22)       -179.4976         estimate D2E/DX2                !
 ! D48   D(14,11,12,23)         61.1027         estimate D2E/DX2                !
 ! D49   D(14,11,12,24)        -59.2284         estimate D2E/DX2                !
 ! D50   D(9,11,13,25)         -61.2601         estimate D2E/DX2                !
 ! D51   D(9,11,13,26)         178.5569         estimate D2E/DX2                !
 ! D52   D(9,11,13,27)          58.2803         estimate D2E/DX2                !
 ! D53   D(12,11,13,25)         57.0936         estimate D2E/DX2                !
 ! D54   D(12,11,13,26)        -63.0895         estimate D2E/DX2                !
 ! D55   D(12,11,13,27)        176.6339         estimate D2E/DX2                !
 ! D56   D(14,11,13,25)        177.2217         estimate D2E/DX2                !
 ! D57   D(14,11,13,26)         57.0386         estimate D2E/DX2                !
 ! D58   D(14,11,13,27)        -63.238          estimate D2E/DX2                !
 ! D59   D(9,11,14,28)          65.9742         estimate D2E/DX2                !
 ! D60   D(9,11,14,29)         -53.9285         estimate D2E/DX2                !
 ! D61   D(9,11,14,30)        -174.2062         estimate D2E/DX2                !
 ! D62   D(12,11,14,28)        -54.7159         estimate D2E/DX2                !
 ! D63   D(12,11,14,29)       -174.6186         estimate D2E/DX2                !
 ! D64   D(12,11,14,30)         65.1037         estimate D2E/DX2                !
 ! D65   D(13,11,14,28)       -174.7851         estimate D2E/DX2                !
 ! D66   D(13,11,14,29)         65.3122         estimate D2E/DX2                !
 ! D67   D(13,11,14,30)        -54.9655         estimate D2E/DX2                !
 --------------------------------------------------------------------------------
 Trust Radius=3.00D-01 FncErr=1.00D-07 GrdErr=1.00D-06
 Number of steps in this run= 159 maximum allowed number of steps= 180.
 GradGradGradGradGradGradGradGradGradGradGradGradGradGradGradGradGradGrad

 Leave Link  103 at Wed Sep 29 13:39:18 2021, MaxMem= 1342177280 cpu:       0.0
 (Enter /sw/target/amd/app/gaussian/Gaussian09RevA.02_gcc-4.9.2/g09/l202.exe)
                          Input orientation:                          
 ---------------------------------------------------------------------
 Center     Atomic      Atomic             Coordinates (Angstroms)
 Number     Number       Type             X           Y           Z
 ---------------------------------------------------------------------
      1          6           0        0.415499   -1.181518   -2.404573
      2          6           0       -0.992883   -0.887444   -1.977920
      3          6           0       -1.859192   -1.919023   -1.589082
      4          6           0       -3.159179   -1.628723   -1.167699
      5          6           0       -3.582703   -0.302799   -1.117311
      6          6           0       -2.737878    0.732452   -1.513251
      7          6           0       -1.439885    0.438447   -1.929257
      8          8           0       -4.924876   -0.067382   -0.778778
      9          6           0       -5.213133    0.993442    0.078605
     10          8           0       -4.399385    1.584763    0.777755
     11          6           0       -6.716187    1.297724    0.069723
     12          6           0       -7.375821    0.520921    1.212473
     13          6           0       -6.903794    2.808397    0.287066
     14          6           0       -7.370579    0.919849   -1.269210
     15          1           0        0.545803   -2.240053   -2.651447
     16          1           0        1.110017   -0.923640   -1.599095
     17          1           0        0.672157   -0.602085   -3.297720
     18          1           0       -1.529124   -2.954791   -1.618854
     19          1           0       -3.832129   -2.432969   -0.885379
     20          1           0       -3.072933    1.765006   -1.500596
     21          1           0       -0.779464    1.252914   -2.220390
     22          1           0       -6.930128    0.781680    2.179508
     23          1           0       -7.252175   -0.559897    1.079618
     24          1           0       -8.449183    0.733630    1.268855
     25          1           0       -6.498239    3.128522    1.253536
     26          1           0       -7.963436    3.086568    0.264250
     27          1           0       -6.386895    3.384379   -0.489864
     28          1           0       -7.350507   -0.162933   -1.438289
     29          1           0       -6.849406    1.393468   -2.109305
     30          1           0       -8.419000    1.234567   -1.301142
 ---------------------------------------------------------------------
                    Distance matrix (angstroms):
                    1          2          3          4          5
     1  C    0.000000
     2  C    1.500684   0.000000
     3  C    2.526491   1.402085   0.000000
     4  C    3.808959   2.428742   1.397069   0.000000
     5  C    4.291248   2.790990   2.409406   1.392834   0.000000
     6  C    3.794934   2.425899   2.794308   2.423231   1.393644
     7  C    2.508518   1.400059   2.418512   2.794483   2.408396
     8  O    5.692461   4.191779   3.671999   2.388876   1.404084
     9  C    6.525191   5.057423   4.744739   3.556367   2.401824
    10  O    6.400205   5.030885   4.932647   3.955931   2.796629
    11  C    7.945422   6.459412   6.057185   4.769446   3.713414
    12  C    8.757054   7.273513   6.650957   5.297760   4.527047
    13  C    8.759931   7.329957   7.163549   5.985525   4.762505
    14  C    8.144189   6.666602   6.207809   4.923557   3.983208
    15  H    1.094725   2.156558   2.648713   4.037588   4.811558
    16  H    1.094371   2.137055   3.131627   4.348479   4.758065
    17  H    1.095139   2.143750   3.325883   4.502234   4.790365
    18  H    2.746527   2.165735   1.087496   2.149203   3.391429
    19  H    4.681498   3.412274   2.156807   1.085992   2.157227
    20  H    4.654926   3.404400   3.879828   3.411107   2.163929
    21  H    2.718147   2.164595   3.409626   3.882658   3.390454
    22  H    8.878411   7.437813   6.870986   5.588729   4.821863
    23  H    8.445071   6.973848   6.168747   4.790140   4.284579
    24  H    9.784910   8.292517   7.657176   6.285034   5.518206
    25  H    8.930733   7.541832   7.421519   6.296275   5.088736
    26  H    9.774749   8.331188   8.108795   6.882247   5.708532
    27  H    8.413447   7.039755   7.059351   6.000733   4.674662
    28  H    7.891899   6.421488   5.767246   4.448482   3.784037
    29  H    7.713402   6.286388   6.012109   4.861896   3.812180
    30  H    9.225150   7.752946   7.284169   5.990155   5.078095
                    6          7          8          9         10
     6  C    0.000000
     7  C    1.394377   0.000000
     8  O    2.441750   3.704676   0.000000
     9  C    2.954489   4.310096   1.394111   0.000000
    10  O    2.955630   4.171402   2.329919   1.225013   0.000000
    11  C    4.318829   5.707332   2.406713   1.533570   2.439523
    12  C    5.383756   6.716592   3.212213   2.487198   3.190597
    13  C    4.990545   6.354766   3.649965   2.489147   2.830216
    14  C    4.642908   5.986698   2.682651   2.544916   3.668812
    15  H    4.573165   3.411580   6.177031   7.146608   7.130464
    16  H    4.190025   2.909688   6.150287   6.817045   6.503461
    17  H    4.073532   2.723255   6.160986   6.970073   6.863843
    18  H    3.881752   3.408574   4.535855   5.660550   5.881299
    19  H    3.407565   3.880405   2.607961   3.817948   4.385198
    20  H    1.085628   2.147174   2.703397   2.769411   2.642507
    21  H    2.146232   1.088242   4.583216   5.001012   4.711987
    22  H    5.586936   6.866042   3.673336   2.721527   3.002418
    23  H    5.363955   6.620630   3.018697   2.751833   3.581773
    24  H    6.352883   7.710079   4.153934   3.457777   4.167310
    25  H    5.247531   6.553901   4.101168   2.755092   2.648538
    26  H    6.000652   7.374329   4.502017   3.461186   3.901483
    27  H    4.625512   5.934920   3.759738   2.723500   2.965751
    28  H    4.699328   5.961390   2.515506   2.864706   4.083432
    29  H    4.206766   5.496126   2.758296   2.761224   3.791347
    30  H    5.707211   7.052403   3.765214   3.498489   4.538916
                   11         12         13         14         15
    11  C    0.000000
    12  C    1.531148   0.000000
    13  C    1.537715   2.512316   0.000000
    14  C    1.537453   2.513547   2.491284   0.000000
    15  H    8.523915   9.236069   9.466689   8.635083   0.000000
    16  H    8.304750   9.055447   9.039185   8.684917   1.777279
    17  H    8.338860   9.293704   9.048597   8.433075   1.765382
    18  H    6.916704   7.367554   8.107647   7.018382   2.425370
    19  H    4.811245   5.067958   6.187218   4.889718   4.724669
    20  H    3.994690   5.236729   4.354296   4.386068   5.519076
    21  H    6.363278   7.472100   6.798108   6.667719   3.760713
    22  H    2.182490   1.096264   2.773015   3.479475   9.399922
    23  H    2.181267   1.095950   3.477773   2.778608   8.806374
    24  H    2.181604   1.095687   2.767091   2.764026  10.252869
    25  H    2.191058   2.751621   1.095910   3.464602   9.679309
    26  H    2.189391   2.797670   1.095783   2.719862  10.453770
    27  H    2.185338   3.474956   1.096614   2.765669   9.185258
    28  H    2.193167   2.737669   3.464852   1.096087   8.254568
    29  H    2.185195   3.474572   2.783446   1.096219   8.257451
    30  H    2.186969   2.813498   2.700962   1.095104   9.708964
                   16         17         18         19         20
    16  H    0.000000
    17  H    1.783380   0.000000
    18  H    3.330319   3.633106   0.000000
    19  H    5.216538   5.427718   2.472673   0.000000
    20  H    4.973489   4.781054   4.967274   4.310204   0.000000
    21  H    2.948480   2.590148   4.316089   4.968577   2.457711
    22  H    9.045987   9.471514   7.586805   5.415265   5.421074
    23  H    8.788291   9.053061   6.765395   4.366500   5.434035
    24  H   10.116817  10.287691   8.356466   5.998772   6.134954
    25  H    9.079817   9.276096   8.363577   6.527885   4.601863
    26  H   10.093630  10.043269   9.024658   6.989608   5.364534
    27  H    8.717403   8.579404   8.065831   6.365909   3.824433
    28  H    8.496175   8.247029   6.458759   4.223477   4.692384
    29  H    8.305523   7.872006   6.888635   5.024298   3.843216
    30  H    9.774906   9.487294   8.069823   5.887534   5.376019
                   21         22         23         24         25
    21  H    0.000000
    22  H    7.577060   0.000000
    23  H    7.488145   1.764454   0.000000
    24  H    8.442101   1.771757   1.772527   0.000000
    25  H    6.949133   2.559614   3.768700   3.089001   0.000000
    26  H    7.819538   3.169929   3.803606   2.604131   1.768403
    27  H    6.243488   3.767585   4.332355   3.791121   1.765589
    28  H    6.767194   3.762640   2.550902   3.056066   4.336584
    29  H    6.072585   4.332980   3.761261   3.795608   3.800320
    30  H    7.694664   3.812712   3.201500   2.618537   3.715208
                   26         27         28         29         30
    26  H    0.000000
    27  H    1.772812   0.000000
    28  H    3.719351   3.796246   0.000000
    29  H    3.121123   2.607725   1.767413   0.000000
    30  H    2.467367   3.067461   1.764509   1.772569   0.000000
 Stoichiometry    C12H16O2
 Framework group  C1[X(C12H16O2)]
 Deg. of freedom    84
 Full point group                 C1      NOp   1
 Largest Abelian subgroup         C1      NOp   1
 Largest concise Abelian subgroup C1      NOp   1
                         Standard orientation:                         
 ---------------------------------------------------------------------
 Center     Atomic      Atomic             Coordinates (Angstroms)
 Number     Number       Type             X           Y           Z
 ---------------------------------------------------------------------
      1          6           0        5.031503   -0.338363    0.004173
      2          6           0        3.553558   -0.082526    0.051913
      3          6           0        3.032594    1.190422   -0.220196
      4          6           0        1.652784    1.408349   -0.199364
      5          6           0        0.795626    0.345180    0.074381
      6          6           0        1.298746   -0.922714    0.359965
      7          6           0        2.676376   -1.136615    0.334069
      8          8           0       -0.574898    0.632377    0.177502
      9          6           0       -1.481281   -0.261620   -0.390641
     10          8           0       -1.203448   -1.139954   -1.198103
     11          6           0       -2.904643    0.033877    0.097787
     12          6           0       -3.578972    0.970260   -0.908633
     13          6           0       -3.674376   -1.295178    0.173226
     14          6           0       -2.910740    0.672879    1.496143
     15          1           0        5.600519    0.596132    0.041071
     16          1           0        5.288274   -0.866299   -0.919408
     17          1           0        5.341231   -0.945412    0.861430
     18          1           0        3.698388    2.020951   -0.442880
     19          1           0        1.255528    2.400446   -0.392522
     20          1           0        0.635266   -1.747861    0.599791
     21          1           0        3.061880   -2.133086    0.540715
     22          1           0       -3.593895    0.530295   -1.912626
     23          1           0       -3.044886    1.924528   -0.980960
     24          1           0       -4.614143    1.183671   -0.619832
     25          1           0       -3.745338   -1.774546   -0.809724
     26          1           0       -4.694995   -1.145132    0.542770
     27          1           0       -3.172821   -2.002208    0.844876
     28          1           0       -2.455072    1.669725    1.487703
     29          1           0       -2.348722    0.060563    2.210917
     30          1           0       -3.931494    0.785153    1.876548
 ---------------------------------------------------------------------
 Rotational constants (GHZ):      1.9601544      0.3152453      0.2993446
 Leave Link  202 at Wed Sep 29 13:39:18 2021, MaxMem= 1342177280 cpu:       0.1
 (Enter /sw/target/amd/app/gaussian/Gaussian09RevA.02_gcc-4.9.2/g09/l301.exe)
 Standard basis: 6-31G(d) (6D, 7F)
 Ernie: Thresh=  0.10000D-02 Tol=  0.10000D-05 Strict=F.
 There are   242 symmetry adapted basis functions of A   symmetry.
 Integral buffers will be    131072 words long.
 Raffenetti 2 integral format.
 Two-electron integral symmetry is turned on.
   242 basis functions,   456 primitive gaussians,   242 cartesian basis functions
    52 alpha electrons       52 beta electrons
       nuclear repulsion energy       877.4474801066 Hartrees.
 IExCor=  402 DFT=T Ex+Corr=B3LYP ExCW=0 ScaHFX=  0.200000
 ScaDFX=  0.800000  0.720000  1.000000  0.810000 ScalE2=  1.000000  1.000000
 IRadAn=      0 IRanWt=     -1 IRanGd=            0 ICorTp=0
 NAtoms=   30 NActive=   30 NUniq=   30 SFac= 7.50D-01 NAtFMM=   80 NAOKFM=F Big=F
 Leave Link  301 at Wed Sep 29 13:39:19 2021, MaxMem= 1342177280 cpu:       0.1
 (Enter /sw/target/amd/app/gaussian/Gaussian09RevA.02_gcc-4.9.2/g09/l302.exe)
 NPDir=0 NMtPBC=     1 NCelOv=     1 NCel=       1 NClECP=     1 NCelD=      1
         NCelK=      1 NCelE2=     1 NClLst=     1 CellRange=     0.0.
 One-electron integrals computed using PRISM.
 NBasis=   242 RedAO= T  NBF=   242
 NBsUse=   242 1.00D-06 NBFU=   242
 Precomputing XC quadrature grid using
 IXCGrd= 2 IRadAn=           0 IRanWt=          -1 IRanGd=           0 AccXCQ= 1.00D-10.
 NRdTot=    1902 NPtTot=      242602 NUsed=      256319 NTot=      256351
 NSgBfM=   241   241   241   241   241 NAtAll=    30    30.
 Leave Link  302 at Wed Sep 29 13:39:23 2021, MaxMem= 1342177280 cpu:       2.6
 (Enter /sw/target/amd/app/gaussian/Gaussian09RevA.02_gcc-4.9.2/g09/l303.exe)
 DipDrv:  MaxL=1.
 Leave Link  303 at Wed Sep 29 13:39:24 2021, MaxMem= 1342177280 cpu:       0.2
 (Enter /sw/target/amd/app/gaussian/Gaussian09RevA.02_gcc-4.9.2/g09/l401.exe)
 Harris functional with IExCor=  402 diagonalized for initial guess.
 ExpMin= 1.61D-01 ExpMax= 5.48D+03 ExpMxC= 8.25D+02 IAcc=1 IRadAn=         1 AccDes= 0.00D+00
 HarFok:  IExCor=  402 AccDes= 0.00D+00 IRadAn=         1 IDoV= 1
 ScaDFX=  1.000000  1.000000  1.000000  1.000000
 FoFCou: FMM=F IPFlag=           0 FMFlag=      100000 FMFlg1=           0
         NFxFlg=           0 DoJE=T BraDBF=F KetDBF=T FulRan=T
         Omega=  0.000000  0.000000  1.000000  0.000000  0.000000 ICntrl=     500 IOpCl=  0
         NMat0=    1 NMatS0=    1 NMatT0=    0 NMatD0=    1 NMtDS0=    0 NMtDT0=    0
         I1Cent=           4 NGrid=           0.
 Petite list used in FoFCou.
 Harris En= -617.506419655008    
 Initial guess orbital symmetries:
       Occupied  (A) (A) (A) (A) (A) (A) (A) (A) (A) (A) (A) (A)
                 (A) (A) (A) (A) (A) (A) (A) (A) (A) (A) (A) (A)
                 (A) (A) (A) (A) (A) (A) (A) (A) (A) (A) (A) (A)
                 (A) (A) (A) (A) (A) (A) (A) (A) (A) (A) (A) (A)
                 (A) (A) (A) (A)
       Virtual   (A) (A) (A) (A) (A) (A) (A) (A) (A) (A) (A) (A)
                 (A) (A) (A) (A) (A) (A) (A) (A) (A) (A) (A) (A)
                 (A) (A) (A) (A) (A) (A) (A) (A) (A) (A) (A) (A)
                 (A) (A) (A) (A) (A) (A) (A) (A) (A) (A) (A) (A)
                 (A) (A) (A) (A) (A) (A) (A) (A) (A) (A) (A) (A)
                 (A) (A) (A) (A) (A) (A) (A) (A) (A) (A) (A) (A)
                 (A) (A) (A) (A) (A) (A) (A) (A) (A) (A) (A) (A)
                 (A) (A) (A) (A) (A) (A) (A) (A) (A) (A) (A) (A)
                 (A) (A) (A) (A) (A) (A) (A) (A) (A) (A) (A) (A)
                 (A) (A) (A) (A) (A) (A) (A) (A) (A) (A) (A) (A)
                 (A) (A) (A) (A) (A) (A) (A) (A) (A) (A) (A) (A)
                 (A) (A) (A) (A) (A) (A) (A) (A) (A) (A) (A) (A)
                 (A) (A) (A) (A) (A) (A) (A) (A) (A) (A) (A) (A)
                 (A) (A) (A) (A) (A) (A) (A) (A) (A) (A) (A) (A)
                 (A) (A) (A) (A) (A) (A) (A) (A) (A) (A) (A) (A)
                 (A) (A) (A) (A) (A) (A) (A) (A) (A) (A)
 The electronic state of the initial guess is 1-A.
 Leave Link  401 at Wed Sep 29 13:39:38 2021, MaxMem= 1342177280 cpu:      10.8
 (Enter /sw/target/amd/app/gaussian/Gaussian09RevA.02_gcc-4.9.2/g09/l502.exe)
 Closed shell SCF:
 Requested convergence on RMS density matrix=1.00D-08 within  64 cycles.
 Requested convergence on MAX density matrix=1.00D-06.
 Requested convergence on             energy=1.00D-06.
 No special actions if energy rises.
 Using DIIS extrapolation, IDIIS=  1040.
 Integral symmetry usage will be decided dynamically.
       256036 words used for storage of precomputed grid.
 Keep R1 ints in memory in canonical form, NReq=439897812.
 IEnd=      440560 IEndB=      440560 NGot=  1342177280 MDV=   909516817
 LenX=   909516817 LenY=   909457812
 Symmetry not used in FoFDir.
 MinBra= 0 MaxBra= 2 Meth= 1.
 IRaf=       0 NMat=   1 IRICut=       1 DoRegI=T DoRafI=F ISym2E= 0 JSym2E=0.
 Integral accuracy reduced to 1.0D-05 until final iterations.

 Cycle   1  Pass 0  IDiag  1:
 E= -616.915189689603    
 DIIS: error= 3.67D-02 at cycle   1 NSaved=   1.
 NSaved= 1 IEnMin= 1 EnMin= -616.915189689603     IErMin= 1 ErrMin= 3.67D-02
 ErrMax= 3.67D-02 EMaxC= 1.00D-01 BMatC= 4.62D-01 BMatP= 4.62D-01
 IDIUse=3 WtCom= 6.33D-01 WtEn= 3.67D-01
 Coeff-Com:  0.100D+01
 Coeff-En:   0.100D+01
 Coeff:      0.100D+01
 Gap=     0.262 Goal=   None    Shift=    0.000
 GapD=    0.262 DampG=1.000 DampE=0.500 DampFc=0.5000 IDamp=-1.
 Damping current iteration by 5.00D-01
 RMSDP=6.18D-03 MaxDP=1.83D-01              OVMax= 2.04D-01

 Cycle   2  Pass 0  IDiag  1:
 E= -617.072156834874     Delta-E=       -0.156967145271 Rises=F Damp=T
 DIIS: error= 1.52D-02 at cycle   2 NSaved=   2.
 NSaved= 2 IEnMin= 2 EnMin= -617.072156834874     IErMin= 2 ErrMin= 1.52D-02
 ErrMax= 1.52D-02 EMaxC= 1.00D-01 BMatC= 6.06D-02 BMatP= 4.62D-01
 IDIUse=3 WtCom= 8.48D-01 WtEn= 1.52D-01
 Coeff-Com:  0.187D+00 0.813D+00
 Coeff-En:   0.279D+00 0.721D+00
 Coeff:      0.201D+00 0.799D+00
 Gap=     0.217 Goal=   None    Shift=    0.000
 RMSDP=1.96D-03 MaxDP=6.66D-02 DE=-1.57D-01 OVMax= 1.85D-01

 Cycle   3  Pass 0  IDiag  1:
 E= -617.308073115585     Delta-E=       -0.235916280711 Rises=F Damp=F
 DIIS: error= 2.06D-02 at cycle   3 NSaved=   3.
 NSaved= 3 IEnMin= 3 EnMin= -617.308073115585     IErMin= 2 ErrMin= 1.52D-02
 ErrMax= 2.06D-02 EMaxC= 1.00D-01 BMatC= 8.39D-02 BMatP= 6.06D-02
 IDIUse=2 WtCom= 0.00D+00 WtEn= 1.00D+00
 Coeff-En:   0.000D+00 0.000D+00 0.100D+01
 Coeff:      0.000D+00 0.000D+00 0.100D+01
 Gap=     0.232 Goal=   None    Shift=    0.000
 RMSDP=3.53D-03 MaxDP=1.49D-01 DE=-2.36D-01 OVMax= 3.31D-01

 Cycle   4  Pass 0  IDiag  1:
 E= -616.931236630871     Delta-E=        0.376836484714 Rises=F Damp=F
 DIIS: error= 5.60D-02 at cycle   4 NSaved=   4.
 NSaved= 4 IEnMin= 3 EnMin= -617.308073115585     IErMin= 2 ErrMin= 1.52D-02
 ErrMax= 5.60D-02 EMaxC= 1.00D-01 BMatC= 5.59D-01 BMatP= 6.06D-02
 IDIUse=2 WtCom= 0.00D+00 WtEn= 1.00D+00
 Coeff-En:   0.000D+00 0.000D+00 0.806D+00 0.194D+00
 Coeff:      0.000D+00 0.000D+00 0.806D+00 0.194D+00
 Gap=     0.238 Goal=   None    Shift=    0.000
 RMSDP=1.89D-03 MaxDP=7.76D-02 DE= 3.77D-01 OVMax= 1.69D-01

 Cycle   5  Pass 0  IDiag  1:
 E= -617.345332075450     Delta-E=       -0.414095444578 Rises=F Damp=F
 DIIS: error= 1.44D-02 at cycle   5 NSaved=   5.
 NSaved= 5 IEnMin= 5 EnMin= -617.345332075450     IErMin= 5 ErrMin= 1.44D-02
 ErrMax= 1.44D-02 EMaxC= 1.00D-01 BMatC= 4.18D-02 BMatP= 6.06D-02
 IDIUse=3 WtCom= 8.56D-01 WtEn= 1.44D-01
 Coeff-Com: -0.524D-02 0.531D-01 0.330D+00-0.799D-01 0.702D+00
 Coeff-En:   0.000D+00 0.000D+00 0.367D+00 0.000D+00 0.633D+00
 Coeff:     -0.449D-02 0.455D-01 0.336D+00-0.684D-01 0.692D+00
 Gap=     0.217 Goal=   None    Shift=    0.000
 RMSDP=7.49D-04 MaxDP=2.74D-02 DE=-4.14D-01 OVMax= 5.64D-02

 Cycle   6  Pass 0  IDiag  1:
 E= -617.379469620485     Delta-E=       -0.034137545035 Rises=F Damp=F
 DIIS: error= 1.41D-03 at cycle   6 NSaved=   6.
 NSaved= 6 IEnMin= 6 EnMin= -617.379469620485     IErMin= 6 ErrMin= 1.41D-03
 ErrMax= 1.41D-03 EMaxC= 1.00D-01 BMatC= 4.51D-04 BMatP= 4.18D-02
 IDIUse=3 WtCom= 9.86D-01 WtEn= 1.41D-02
 Coeff-Com: -0.698D-02 0.254D-01 0.172D+00-0.636D-01 0.455D+00 0.418D+00
 Coeff-En:   0.000D+00 0.000D+00 0.000D+00 0.000D+00 0.000D+00 0.100D+01
 Coeff:     -0.688D-02 0.251D-01 0.170D+00-0.627D-01 0.449D+00 0.426D+00
 Gap=     0.217 Goal=   None    Shift=    0.000
 RMSDP=9.58D-05 MaxDP=3.53D-03 DE=-3.41D-02 OVMax= 8.98D-03

 Cycle   7  Pass 0  IDiag  1:
 E= -617.379880006362     Delta-E=       -0.000410385878 Rises=F Damp=F
 DIIS: error= 3.13D-04 at cycle   7 NSaved=   7.
 NSaved= 7 IEnMin= 7 EnMin= -617.379880006362     IErMin= 7 ErrMin= 3.13D-04
 ErrMax= 3.13D-04 EMaxC= 1.00D-01 BMatC= 1.87D-05 BMatP= 4.51D-04
 IDIUse=3 WtCom= 9.97D-01 WtEn= 3.13D-03
 Coeff-Com: -0.832D-03 0.139D-02 0.307D-01-0.124D-01 0.779D-01 0.154D+00
 Coeff-Com:  0.749D+00
 Coeff-En:   0.000D+00 0.000D+00 0.000D+00 0.000D+00 0.000D+00 0.000D+00
 Coeff-En:   0.100D+01
 Coeff:     -0.829D-03 0.138D-02 0.306D-01-0.123D-01 0.777D-01 0.153D+00
 Coeff:      0.750D+00
 Gap=     0.217 Goal=   None    Shift=    0.000
 RMSDP=2.00D-05 MaxDP=5.82D-04 DE=-4.10D-04 OVMax= 1.57D-03

 Cycle   8  Pass 0  IDiag  1:
 E= -617.379897543067     Delta-E=       -0.000017536704 Rises=F Damp=F
 DIIS: error= 6.29D-05 at cycle   8 NSaved=   8.
 NSaved= 8 IEnMin= 8 EnMin= -617.379897543067     IErMin= 8 ErrMin= 6.29D-05
 ErrMax= 6.29D-05 EMaxC= 1.00D-01 BMatC= 1.07D-06 BMatP= 1.87D-05
 IDIUse=1 WtCom= 1.00D+00 WtEn= 0.00D+00
 Coeff-Com: -0.223D-04-0.597D-03 0.890D-02-0.359D-02 0.200D-01 0.638D-01
 Coeff-Com:  0.407D+00 0.504D+00
 Coeff:     -0.223D-04-0.597D-03 0.890D-02-0.359D-02 0.200D-01 0.638D-01
 Coeff:      0.407D+00 0.504D+00
 Gap=     0.217 Goal=   None    Shift=    0.000
 RMSDP=4.92D-06 MaxDP=2.05D-04 DE=-1.75D-05 OVMax= 4.66D-04

 Initial convergence to 1.0D-05 achieved.  Increase integral accuracy.
 Cycle   9  Pass 1  IDiag  1:
 E= -617.379854536759     Delta-E=        0.000043006308 Rises=F Damp=F
 DIIS: error= 2.74D-05 at cycle   1 NSaved=   1.
 NSaved= 1 IEnMin= 1 EnMin= -617.379854536759     IErMin= 1 ErrMin= 2.74D-05
 ErrMax= 2.74D-05 EMaxC= 1.00D-01 BMatC= 1.71D-07 BMatP= 1.71D-07
 IDIUse=1 WtCom= 1.00D+00 WtEn= 0.00D+00
 Coeff-Com:  0.100D+01
 Coeff:      0.100D+01
 Gap=     0.217 Goal=   None    Shift=    0.000
 RMSDP=4.92D-06 MaxDP=2.05D-04 DE= 4.30D-05 OVMax= 3.76D-04

 Cycle  10  Pass 1  IDiag  1:
 E= -617.379854383520     Delta-E=        0.000000153240 Rises=F Damp=F
 DIIS: error= 5.47D-05 at cycle   2 NSaved=   2.
 NSaved= 2 IEnMin= 1 EnMin= -617.379854536759     IErMin= 1 ErrMin= 2.74D-05
 ErrMax= 5.47D-05 EMaxC= 1.00D-01 BMatC= 3.40D-07 BMatP= 1.71D-07
 IDIUse=1 WtCom= 1.00D+00 WtEn= 0.00D+00
 Coeff-Com:  0.600D+00 0.400D+00
 Coeff:      0.600D+00 0.400D+00
 Gap=     0.217 Goal=   None    Shift=    0.000
 RMSDP=2.98D-06 MaxDP=1.05D-04 DE= 1.53D-07 OVMax= 2.85D-04

 Cycle  11  Pass 1  IDiag  1:
 E= -617.379854725961     Delta-E=       -0.000000342441 Rises=F Damp=F
 DIIS: error= 1.18D-05 at cycle   3 NSaved=   3.
 NSaved= 3 IEnMin= 3 EnMin= -617.379854725961     IErMin= 3 ErrMin= 1.18D-05
 ErrMax= 1.18D-05 EMaxC= 1.00D-01 BMatC= 1.97D-08 BMatP= 1.71D-07
 IDIUse=1 WtCom= 1.00D+00 WtEn= 0.00D+00
 Coeff-Com:  0.563D-01 0.193D+00 0.751D+00
 Coeff:      0.563D-01 0.193D+00 0.751D+00
 Gap=     0.217 Goal=   None    Shift=    0.000
 RMSDP=8.37D-07 MaxDP=2.58D-05 DE=-3.42D-07 OVMax= 6.38D-05

 Cycle  12  Pass 1  IDiag  1:
 E= -617.379854738287     Delta-E=       -0.000000012326 Rises=F Damp=F
 DIIS: error= 5.50D-06 at cycle   4 NSaved=   4.
 NSaved= 4 IEnMin= 4 EnMin= -617.379854738287     IErMin= 4 ErrMin= 5.50D-06
 ErrMax= 5.50D-06 EMaxC= 1.00D-01 BMatC= 1.04D-08 BMatP= 1.97D-08
 IDIUse=1 WtCom= 1.00D+00 WtEn= 0.00D+00
 Coeff-Com: -0.116D-01 0.103D+00 0.536D+00 0.373D+00
 Coeff:     -0.116D-01 0.103D+00 0.536D+00 0.373D+00
 Gap=     0.217 Goal=   None    Shift=    0.000
 RMSDP=3.57D-07 MaxDP=1.82D-05 DE=-1.23D-08 OVMax= 2.93D-05

 Cycle  13  Pass 1  IDiag  1:
 E= -617.379854746276     Delta-E=       -0.000000007989 Rises=F Damp=F
 DIIS: error= 6.57D-07 at cycle   5 NSaved=   5.
 NSaved= 5 IEnMin= 5 EnMin= -617.379854746276     IErMin= 5 ErrMin= 6.57D-07
 ErrMax= 6.57D-07 EMaxC= 1.00D-01 BMatC= 1.66D-10 BMatP= 1.04D-08
 IDIUse=1 WtCom= 1.00D+00 WtEn= 0.00D+00
 Coeff-Com: -0.932D-02 0.402D-01 0.229D+00 0.188D+00 0.552D+00
 Coeff:     -0.932D-02 0.402D-01 0.229D+00 0.188D+00 0.552D+00
 Gap=     0.217 Goal=   None    Shift=    0.000
 RMSDP=6.37D-08 MaxDP=2.38D-06 DE=-7.99D-09 OVMax= 4.65D-06

 Cycle  14  Pass 1  IDiag  1:
 E= -617.379854746397     Delta-E=       -0.000000000121 Rises=F Damp=F
 DIIS: error= 2.63D-07 at cycle   6 NSaved=   6.
 NSaved= 6 IEnMin= 6 EnMin= -617.379854746397     IErMin= 6 ErrMin= 2.63D-07
 ErrMax= 2.63D-07 EMaxC= 1.00D-01 BMatC= 3.26D-11 BMatP= 1.66D-10
 IDIUse=1 WtCom= 1.00D+00 WtEn= 0.00D+00
 Coeff-Com: -0.474D-02 0.140D-01 0.867D-01 0.794D-01 0.348D+00 0.477D+00
 Coeff:     -0.474D-02 0.140D-01 0.867D-01 0.794D-01 0.348D+00 0.477D+00
 Gap=     0.217 Goal=   None    Shift=    0.000
 RMSDP=2.18D-08 MaxDP=7.99D-07 DE=-1.21D-10 OVMax= 1.55D-06

 Cycle  15  Pass 1  IDiag  1:
 E= -617.379854746411     Delta-E=       -0.000000000013 Rises=F Damp=F
 DIIS: error= 4.77D-08 at cycle   7 NSaved=   7.
 NSaved= 7 IEnMin= 7 EnMin= -617.379854746411     IErMin= 7 ErrMin= 4.77D-08
 ErrMax= 4.77D-08 EMaxC= 1.00D-01 BMatC= 9.53D-13 BMatP= 3.26D-11
 IDIUse=1 WtCom= 1.00D+00 WtEn= 0.00D+00
 Coeff-Com: -0.994D-03 0.190D-02 0.136D-01 0.159D-01 0.897D-01 0.193D+00
 Coeff-Com:  0.687D+00
 Coeff:     -0.994D-03 0.190D-02 0.136D-01 0.159D-01 0.897D-01 0.193D+00
 Coeff:      0.687D+00
 Gap=     0.217 Goal=   None    Shift=    0.000
 RMSDP=5.59D-09 MaxDP=1.53D-07 DE=-1.32D-11 OVMax= 3.45D-07

 SCF Done:  E(RB3LYP) =  -617.379854746     A.U. after   15 cycles
             Convg  =    0.5587D-08             -V/T =  2.0097
 KE= 6.114329042090D+02 PE=-3.189418521218D+03 EE= 1.083158282156D+03
 Leave Link  502 at Wed Sep 29 13:45:23 2021, MaxMem= 1342177280 cpu:     223.7
 (Enter /sw/target/amd/app/gaussian/Gaussian09RevA.02_gcc-4.9.2/g09/l508.exe)
 QCSCF skips out because SCF is already converged.
 Leave Link  508 at Wed Sep 29 13:45:26 2021, MaxMem= 1342177280 cpu:       0.0
 (Enter /sw/target/amd/app/gaussian/Gaussian09RevA.02_gcc-4.9.2/g09/l601.exe)
 Copying SCF densities to generalized density rwf, IOpCl= 0 IROHF=0.

 **********************************************************************

            Population analysis using the SCF density.

 **********************************************************************

 Orbital symmetries:
       Occupied  (A) (A) (A) (A) (A) (A) (A) (A) (A) (A) (A) (A)
                 (A) (A) (A) (A) (A) (A) (A) (A) (A) (A) (A) (A)
                 (A) (A) (A) (A) (A) (A) (A) (A) (A) (A) (A) (A)
                 (A) (A) (A) (A) (A) (A) (A) (A) (A) (A) (A) (A)
                 (A) (A) (A) (A)
       Virtual   (A) (A) (A) (A) (A) (A) (A) (A) (A) (A) (A) (A)
                 (A) (A) (A) (A) (A) (A) (A) (A) (A) (A) (A) (A)
                 (A) (A) (A) (A) (A) (A) (A) (A) (A) (A) (A) (A)
                 (A) (A) (A) (A) (A) (A) (A) (A) (A) (A) (A) (A)
                 (A) (A) (A) (A) (A) (A) (A) (A) (A) (A) (A) (A)
                 (A) (A) (A) (A) (A) (A) (A) (A) (A) (A) (A) (A)
                 (A) (A) (A) (A) (A) (A) (A) (A) (A) (A) (A) (A)
                 (A) (A) (A) (A) (A) (A) (A) (A) (A) (A) (A) (A)
                 (A) (A) (A) (A) (A) (A) (A) (A) (A) (A) (A) (A)
                 (A) (A) (A) (A) (A) (A) (A) (A) (A) (A) (A) (A)
                 (A) (A) (A) (A) (A) (A) (A) (A) (A) (A) (A) (A)
                 (A) (A) (A) (A) (A) (A) (A) (A) (A) (A) (A) (A)
                 (A) (A) (A) (A) (A) (A) (A) (A) (A) (A) (A) (A)
                 (A) (A) (A) (A) (A) (A) (A) (A) (A) (A) (A) (A)
                 (A) (A) (A) (A) (A) (A) (A) (A) (A) (A) (A) (A)
                 (A) (A) (A) (A) (A) (A) (A) (A) (A) (A)
 The electronic state is 1-A.
 Alpha  occ. eigenvalues --  -19.20105 -19.14299 -10.32002 -10.24829 -10.21294
 Alpha  occ. eigenvalues --  -10.19542 -10.19172 -10.19143 -10.19043 -10.18942
 Alpha  occ. eigenvalues --  -10.18279 -10.18237 -10.17687 -10.17609  -1.09636
 Alpha  occ. eigenvalues --   -1.01793  -0.85705  -0.82454  -0.77226  -0.74856
 Alpha  occ. eigenvalues --   -0.69841  -0.69220  -0.68328  -0.63901  -0.61552
 Alpha  occ. eigenvalues --   -0.58186  -0.55188  -0.49356  -0.48706  -0.47382
 Alpha  occ. eigenvalues --   -0.46825  -0.45078  -0.44395  -0.43170  -0.42537
 Alpha  occ. eigenvalues --   -0.42495  -0.41951  -0.40675  -0.39327  -0.38755
 Alpha  occ. eigenvalues --   -0.37748  -0.36699  -0.36278  -0.35719  -0.35142
 Alpha  occ. eigenvalues --   -0.34254  -0.33456  -0.33037  -0.31205  -0.27200
 Alpha  occ. eigenvalues --   -0.25026  -0.22924
 Alpha virt. eigenvalues --   -0.01191  -0.00289   0.01611   0.08327   0.09040
 Alpha virt. eigenvalues --    0.12135   0.12477   0.13186   0.14448   0.14943
 Alpha virt. eigenvalues --    0.15181   0.15484   0.16109   0.16526   0.17526
 Alpha virt. eigenvalues --    0.17866   0.18811   0.19570   0.19812   0.20269
 Alpha virt. eigenvalues --    0.21890   0.22212   0.23119   0.24034   0.24472
 Alpha virt. eigenvalues --    0.26713   0.30081   0.32120   0.33287   0.34204
 Alpha virt. eigenvalues --    0.35290   0.37691   0.48377   0.49215   0.49973
 Alpha virt. eigenvalues --    0.50386   0.51048   0.51981   0.52139   0.53348
 Alpha virt. eigenvalues --    0.54888   0.56144   0.57149   0.58625   0.59139
 Alpha virt. eigenvalues --    0.59703   0.60469   0.61840   0.63002   0.63252
 Alpha virt. eigenvalues --    0.64678   0.66349   0.67453   0.69164   0.69590
 Alpha virt. eigenvalues --    0.70619   0.70805   0.72158   0.72508   0.74811
 Alpha virt. eigenvalues --    0.75951   0.77959   0.80885   0.83131   0.83776
 Alpha virt. eigenvalues --    0.84545   0.85769   0.86552   0.87066   0.87717
 Alpha virt. eigenvalues --    0.89010   0.89155   0.89841   0.90225   0.91128
 Alpha virt. eigenvalues --    0.91548   0.92590   0.93607   0.94106   0.95631
 Alpha virt. eigenvalues --    0.95906   0.97881   0.98026   0.99275   1.00073
 Alpha virt. eigenvalues --    1.03258   1.03537   1.05674   1.10673   1.12786
 Alpha virt. eigenvalues --    1.13082   1.13922   1.18226   1.19090   1.19920
 Alpha virt. eigenvalues --    1.23409   1.27125   1.31767   1.34648   1.35813
 Alpha virt. eigenvalues --    1.39209   1.41393   1.43230   1.45167   1.45291
 Alpha virt. eigenvalues --    1.47641   1.49430   1.51013   1.52769   1.54355
 Alpha virt. eigenvalues --    1.63430   1.65681   1.66732   1.71319   1.73592
 Alpha virt. eigenvalues --    1.77522   1.77719   1.79688   1.82311   1.84466
 Alpha virt. eigenvalues --    1.85063   1.85731   1.86767   1.87731   1.88376
 Alpha virt. eigenvalues --    1.90075   1.91684   1.92701   1.95660   1.97494
 Alpha virt. eigenvalues --    1.98426   2.00609   2.02246   2.04279   2.06587
 Alpha virt. eigenvalues --    2.08207   2.09619   2.11178   2.13456   2.15523
 Alpha virt. eigenvalues --    2.16227   2.19269   2.20234   2.22705   2.24977
 Alpha virt. eigenvalues --    2.25994   2.26621   2.27444   2.29735   2.30577
 Alpha virt. eigenvalues --    2.32315   2.34285   2.35453   2.37673   2.40874
 Alpha virt. eigenvalues --    2.44596   2.49564   2.54197   2.57136   2.59963
 Alpha virt. eigenvalues --    2.60999   2.64217   2.64995   2.68305   2.71623
 Alpha virt. eigenvalues --    2.74441   2.77868   2.79546   2.82144   2.86189
 Alpha virt. eigenvalues --    2.88144   2.97868   3.03500   3.08699   3.24176
 Alpha virt. eigenvalues --    3.42272   4.07576   4.09472   4.13450   4.14706
 Alpha virt. eigenvalues --    4.17994   4.24201   4.30998   4.31548   4.33419
 Alpha virt. eigenvalues --    4.36531   4.43434   4.51036   4.71324   4.77803
          Condensed to atoms (all electrons):
              1          2          3          4          5          6
     1  C    5.211709   0.353467  -0.057905   0.007663   0.000423   0.007111
     2  C    0.353467   4.618635   0.562043  -0.027941  -0.032301  -0.022136
     3  C   -0.057905   0.562043   4.954824   0.490598  -0.017253  -0.044752
     4  C    0.007663  -0.027941   0.490598   4.997840   0.546866  -0.061951
     5  C    0.000423  -0.032301  -0.017253   0.546866   4.530337   0.514024
     6  C    0.007111  -0.022136  -0.044752  -0.061951   0.514024   4.990553
     7  C   -0.069996   0.543140  -0.025750  -0.046128  -0.011282   0.490088
     8  O    0.000000   0.000152   0.003333  -0.046833   0.186648  -0.047437
     9  C   -0.000000   0.000036  -0.000030  -0.000364  -0.007001  -0.001248
    10  O    0.000000   0.000009   0.000001  -0.000119   0.000702   0.002291
    11  C    0.000000   0.000000   0.000005  -0.000439   0.004730   0.000211
    12  C   -0.000000   0.000000  -0.000000   0.000021  -0.000161  -0.000005
    13  C   -0.000000   0.000000  -0.000000   0.000003  -0.000078  -0.000025
    14  C   -0.000000   0.000000  -0.000000   0.000005  -0.000269  -0.000076
    15  H    0.364636  -0.029329  -0.003243   0.000142   0.000007  -0.000185
    16  H    0.364255  -0.028282  -0.000857  -0.000189   0.000040  -0.000111
    17  H    0.364851  -0.029445   0.002096  -0.000205   0.000023   0.000076
    18  H   -0.010141  -0.040528   0.354619  -0.042974   0.003725   0.000242
    19  H   -0.000181   0.003977  -0.038610   0.347011  -0.038452   0.006117
    20  H   -0.000184   0.003571   0.000580   0.005413  -0.037004   0.348287
    21  H   -0.008478  -0.046233   0.005496   0.000541   0.003558  -0.040366
    22  H   -0.000000  -0.000000  -0.000000   0.000000  -0.000013  -0.000000
    23  H   -0.000000   0.000000   0.000000   0.000003  -0.000043   0.000002
    24  H   -0.000000   0.000000   0.000000  -0.000000   0.000004   0.000000
    25  H   -0.000000  -0.000000   0.000000  -0.000000  -0.000007   0.000002
    26  H   -0.000000  -0.000000   0.000000  -0.000000   0.000000   0.000000
    27  H   -0.000000   0.000000  -0.000000   0.000000  -0.000010  -0.000021
    28  H   -0.000000   0.000000   0.000000   0.000002   0.000182   0.000016
    29  H   -0.000000   0.000000  -0.000000   0.000006  -0.000012   0.000049
    30  H   -0.000000  -0.000000   0.000000  -0.000000  -0.000006   0.000000
              7          8          9         10         11         12
     1  C   -0.069996   0.000000  -0.000000   0.000000   0.000000  -0.000000
     2  C    0.543140   0.000152   0.000036   0.000009   0.000000   0.000000
     3  C   -0.025750   0.003333  -0.000030   0.000001   0.000005  -0.000000
     4  C   -0.046128  -0.046833  -0.000364  -0.000119  -0.000439   0.000021
     5  C   -0.011282   0.186648  -0.007001   0.000702   0.004730  -0.000161
     6  C    0.490088  -0.047437  -0.001248   0.002291   0.000211  -0.000005
     7  C    4.975207   0.003875   0.000194  -0.000253  -0.000002   0.000000
     8  O    0.003875   8.367856   0.228412  -0.066439  -0.093571  -0.000377
     9  C    0.000194   0.228412   4.404871   0.525360   0.351078  -0.035597
    10  O   -0.000253  -0.066439   0.525360   8.068306  -0.077810  -0.002486
    11  C   -0.000002  -0.093571   0.351078  -0.077810   4.985775   0.370663
    12  C    0.000000  -0.000377  -0.035597  -0.002486   0.370663   5.127027
    13  C   -0.000001   0.002464  -0.046453  -0.000589   0.373674  -0.053056
    14  C   -0.000000   0.001346  -0.043041   0.002868   0.351007  -0.056409
    15  H    0.003729  -0.000000   0.000000  -0.000000  -0.000000   0.000000
    16  H   -0.002907  -0.000000  -0.000000  -0.000000   0.000000   0.000000
    17  H   -0.003314  -0.000000   0.000000   0.000000  -0.000000  -0.000000
    18  H    0.006149  -0.000055  -0.000001  -0.000000  -0.000000   0.000000
    19  H    0.000416  -0.001445   0.000043   0.000008  -0.000013  -0.000002
    20  H   -0.036773  -0.006681   0.003877   0.003695  -0.000466   0.000010
    21  H    0.357359  -0.000051  -0.000015  -0.000004  -0.000000  -0.000000
    22  H    0.000000   0.000070  -0.003644   0.003154  -0.031153   0.367773
    23  H   -0.000000   0.002568  -0.004712  -0.000103  -0.030846   0.367330
    24  H   -0.000000  -0.000078   0.004240  -0.000048  -0.030078   0.372527
    25  H    0.000000   0.000095  -0.006063   0.006765  -0.025910  -0.004456
    26  H    0.000000  -0.000046   0.005000   0.000361  -0.029721  -0.004764
    27  H    0.000000   0.000094  -0.003512   0.000769  -0.031757   0.005394
    28  H   -0.000001   0.004516  -0.006810  -0.000011  -0.023145  -0.004520
    29  H    0.000002   0.001509  -0.003113   0.000069  -0.032535   0.005366
    30  H    0.000000   0.000497   0.003909  -0.000053  -0.025552  -0.004506
             13         14         15         16         17         18
     1  C   -0.000000  -0.000000   0.364636   0.364255   0.364851  -0.010141
     2  C    0.000000   0.000000  -0.029329  -0.028282  -0.029445  -0.040528
     3  C   -0.000000  -0.000000  -0.003243  -0.000857   0.002096   0.354619
     4  C    0.000003   0.000005   0.000142  -0.000189  -0.000205  -0.042974
     5  C   -0.000078  -0.000269   0.000007   0.000040   0.000023   0.003725
     6  C   -0.000025  -0.000076  -0.000185  -0.000111   0.000076   0.000242
     7  C   -0.000001  -0.000000   0.003729  -0.002907  -0.003314   0.006149
     8  O    0.002464   0.001346  -0.000000  -0.000000  -0.000000  -0.000055
     9  C   -0.046453  -0.043041   0.000000  -0.000000   0.000000  -0.000001
    10  O   -0.000589   0.002868  -0.000000  -0.000000   0.000000  -0.000000
    11  C    0.373674   0.351007  -0.000000   0.000000  -0.000000  -0.000000
    12  C   -0.053056  -0.056409   0.000000   0.000000  -0.000000   0.000000
    13  C    5.134831  -0.067301   0.000000  -0.000000   0.000000   0.000000
    14  C   -0.067301   5.158666  -0.000000   0.000000  -0.000000   0.000000
    15  H    0.000000  -0.000000   0.560386  -0.027837  -0.028222   0.006206
    16  H   -0.000000   0.000000  -0.027837   0.556101  -0.029725   0.000292
    17  H    0.000000  -0.000000  -0.028222  -0.029725   0.561660   0.000048
    18  H    0.000000   0.000000   0.006206   0.000292   0.000048   0.599880
    19  H    0.000000  -0.000010  -0.000008   0.000003   0.000003  -0.005803
    20  H    0.000065  -0.000011   0.000003   0.000000  -0.000003   0.000015
    21  H    0.000000   0.000000   0.000034   0.001122   0.003648  -0.000173
    22  H   -0.005006   0.005992   0.000000   0.000000  -0.000000   0.000000
    23  H    0.005780  -0.004967   0.000000  -0.000000   0.000000  -0.000000
    24  H   -0.005151  -0.005135   0.000000  -0.000000   0.000000  -0.000000
    25  H    0.366795   0.005811   0.000000   0.000000  -0.000000   0.000000
    26  H    0.365729  -0.005140  -0.000000   0.000000  -0.000000  -0.000000
    27  H    0.370559  -0.003572   0.000000   0.000000   0.000000   0.000000
    28  H    0.005555   0.365561   0.000000  -0.000000   0.000000  -0.000000
    29  H   -0.002996   0.371261   0.000000  -0.000000   0.000000   0.000000
    30  H   -0.005828   0.361901  -0.000000   0.000000  -0.000000   0.000000
             19         20         21         22         23         24
     1  C   -0.000181  -0.000184  -0.008478  -0.000000  -0.000000  -0.000000
     2  C    0.003977   0.003571  -0.046233  -0.000000   0.000000   0.000000
     3  C   -0.038610   0.000580   0.005496  -0.000000   0.000000   0.000000
     4  C    0.347011   0.005413   0.000541   0.000000   0.000003  -0.000000
     5  C   -0.038452  -0.037004   0.003558  -0.000013  -0.000043   0.000004
     6  C    0.006117   0.348287  -0.040366  -0.000000   0.000002   0.000000
     7  C    0.000416  -0.036773   0.357359   0.000000  -0.000000  -0.000000
     8  O   -0.001445  -0.006681  -0.000051   0.000070   0.002568  -0.000078
     9  C    0.000043   0.003877  -0.000015  -0.003644  -0.004712   0.004240
    10  O    0.000008   0.003695  -0.000004   0.003154  -0.000103  -0.000048
    11  C   -0.000013  -0.000466  -0.000000  -0.031153  -0.030846  -0.030078
    12  C   -0.000002   0.000010  -0.000000   0.367773   0.367330   0.372527
    13  C    0.000000   0.000065   0.000000  -0.005006   0.005780  -0.005151
    14  C   -0.000010  -0.000011   0.000000   0.005992  -0.004967  -0.005135
    15  H   -0.000008   0.000003   0.000034   0.000000   0.000000   0.000000
    16  H    0.000003   0.000000   0.001122   0.000000  -0.000000  -0.000000
    17  H    0.000003  -0.000003   0.003648  -0.000000   0.000000   0.000000
    18  H   -0.005803   0.000015  -0.000173   0.000000  -0.000000  -0.000000
    19  H    0.588173  -0.000151   0.000018  -0.000000   0.000031  -0.000000
    20  H   -0.000151   0.574434  -0.005454  -0.000000  -0.000000  -0.000000
    21  H    0.000018  -0.005454   0.598864   0.000000   0.000000   0.000000
    22  H   -0.000000  -0.000000   0.000000   0.555549  -0.029439  -0.028682
    23  H    0.000031  -0.000000   0.000000  -0.029439   0.566381  -0.029098
    24  H   -0.000000  -0.000000   0.000000  -0.028682  -0.029098   0.563543
    25  H   -0.000000  -0.000003   0.000000   0.004343  -0.000044  -0.000236
    26  H   -0.000000  -0.000000  -0.000000  -0.000162  -0.000034   0.003310
    27  H   -0.000000   0.000151  -0.000000  -0.000049  -0.000195  -0.000008
    28  H    0.000043  -0.000000   0.000000  -0.000051   0.004346  -0.000167
    29  H    0.000000   0.000108  -0.000000  -0.000188  -0.000049  -0.000009
    30  H   -0.000000   0.000000   0.000000  -0.000087  -0.000161   0.003439
             25         26         27         28         29         30
     1  C   -0.000000  -0.000000  -0.000000  -0.000000  -0.000000  -0.000000
     2  C   -0.000000  -0.000000   0.000000   0.000000   0.000000  -0.000000
     3  C    0.000000   0.000000  -0.000000   0.000000  -0.000000   0.000000
     4  C   -0.000000  -0.000000   0.000000   0.000002   0.000006  -0.000000
     5  C   -0.000007   0.000000  -0.000010   0.000182  -0.000012  -0.000006
     6  C    0.000002   0.000000  -0.000021   0.000016   0.000049   0.000000
     7  C    0.000000   0.000000   0.000000  -0.000001   0.000002   0.000000
     8  O    0.000095  -0.000046   0.000094   0.004516   0.001509   0.000497
     9  C   -0.006063   0.005000  -0.003512  -0.006810  -0.003113   0.003909
    10  O    0.006765   0.000361   0.000769  -0.000011   0.000069  -0.000053
    11  C   -0.025910  -0.029721  -0.031757  -0.023145  -0.032535  -0.025552
    12  C   -0.004456  -0.004764   0.005394  -0.004520   0.005366  -0.004506
    13  C    0.366795   0.365729   0.370559   0.005555  -0.002996  -0.005828
    14  C    0.005811  -0.005140  -0.003572   0.365561   0.371261   0.361901
    15  H    0.000000  -0.000000   0.000000   0.000000   0.000000  -0.000000
    16  H    0.000000   0.000000   0.000000  -0.000000  -0.000000   0.000000
    17  H   -0.000000  -0.000000   0.000000   0.000000   0.000000  -0.000000
    18  H    0.000000  -0.000000   0.000000  -0.000000   0.000000   0.000000
    19  H   -0.000000  -0.000000  -0.000000   0.000043   0.000000  -0.000000
    20  H   -0.000003  -0.000000   0.000151  -0.000000   0.000108   0.000000
    21  H    0.000000  -0.000000  -0.000000   0.000000  -0.000000   0.000000
    22  H    0.004343  -0.000162  -0.000049  -0.000051  -0.000188  -0.000087
    23  H   -0.000044  -0.000034  -0.000195   0.004346  -0.000049  -0.000161
    24  H   -0.000236   0.003310  -0.000008  -0.000167  -0.000009   0.003439
    25  H    0.545368  -0.029750  -0.027547  -0.000195  -0.000063  -0.000007
    26  H   -0.029750   0.581142  -0.030286   0.000021  -0.000182   0.003330
    27  H   -0.027547  -0.030286   0.572054  -0.000056   0.003656  -0.000150
    28  H   -0.000195   0.000021  -0.000056   0.555702  -0.028007  -0.030479
    29  H   -0.000063  -0.000182   0.003656  -0.028007   0.569751  -0.030101
    30  H   -0.000007   0.003330  -0.000150  -0.030479  -0.030101   0.582586
 Mulliken atomic charges:
              1
     1  C   -0.527231
     2  C    0.171165
     3  C   -0.185193
     4  C   -0.168971
     5  C    0.352621
     6  C   -0.140756
     7  C   -0.183752
     8  O   -0.540421
     9  C    0.634585
    10  O   -0.466443
    11  C   -0.004147
    12  C   -0.449771
    13  C   -0.438972
    14  C   -0.438486
    15  H    0.153680
    16  H    0.168096
    17  H    0.158508
    18  H    0.128500
    19  H    0.138835
    20  H    0.146523
    21  H    0.130136
    22  H    0.161594
    23  H    0.153249
    24  H    0.151627
    25  H    0.165101
    26  H    0.141192
    27  H    0.144486
    28  H    0.157499
    29  H    0.145476
    30  H    0.141271
 Sum of Mulliken atomic charges =  -0.00000
 Mulliken charges with hydrogens summed into heavy atoms:
              1
     1  C   -0.046947
     2  C    0.171165
     3  C   -0.056693
     4  C   -0.030137
     5  C    0.352621
     6  C    0.005768
     7  C   -0.053616
     8  O   -0.540421
     9  C    0.634585
    10  O   -0.466443
    11  C   -0.004147
    12  C    0.016698
    13  C    0.011806
    14  C    0.005760
 Sum of Mulliken charges with hydrogens summed into heavy atoms =  -0.00000
 Electronic spatial extent (au):  <R**2>=           3854.5427
 Charge=             -0.0000 electrons
 Dipole moment (field-independent basis, Debye):
    X=              0.2087    Y=              0.9014    Z=              1.1854  Tot=              1.5037
 Quadrupole moment (field-independent basis, Debye-Ang):
   XX=            -71.1445   YY=            -81.4262   ZZ=            -87.5254
   XY=             -1.7010   XZ=             -1.4585   YZ=             -4.5102
 Traceless Quadrupole moment (field-independent basis, Debye-Ang):
   XX=              8.8875   YY=             -1.3941   ZZ=             -7.4934
   XY=             -1.7010   XZ=             -1.4585   YZ=             -4.5102
 Octapole moment (field-independent basis, Debye-Ang**2):
  XXX=              0.2706  YYY=              2.8282  ZZZ=             -3.0439  XYY=              8.5537
  XXY=              1.9139  XXZ=             -2.2365  XZZ=             -6.5153  YZZ=              0.4626
  YYZ=              1.7170  XYZ=             -0.2397
 Hexadecapole moment (field-independent basis, Debye-Ang**3):
 XXXX=          -4127.3173 YYYY=           -548.5522 ZZZZ=           -336.8345 XXXY=             -3.5427
 XXXZ=             -4.7406 YYYX=              2.7885 YYYZ=             -7.9595 ZZZX=              5.7134
 ZZZY=              2.6000 XXYY=           -797.2524 XXZZ=           -791.0319 YYZZ=           -155.7562
 XXYZ=             -8.1187 YYXZ=             -2.1831 ZZXY=             -5.1818
 N-N= 8.774474801066D+02 E-N=-3.189418530746D+03  KE= 6.114329042090D+02
 No NMR shielding tensors so no spin-rotation constants.
 Leave Link  601 at Wed Sep 29 13:45:28 2021, MaxMem= 1342177280 cpu:       1.6
 (Enter /sw/target/amd/app/gaussian/Gaussian09RevA.02_gcc-4.9.2/g09/l701.exe)
 Compute integral first derivatives.
 ... and contract with generalized density number  0.
 Leave Link  701 at Wed Sep 29 13:45:31 2021, MaxMem= 1342177280 cpu:       1.6
 (Enter /sw/target/amd/app/gaussian/Gaussian09RevA.02_gcc-4.9.2/g09/l702.exe)
 L702 exits ... SP integral derivatives will be done elsewhere.
 Leave Link  702 at Wed Sep 29 13:45:31 2021, MaxMem= 1342177280 cpu:       0.0
 (Enter /sw/target/amd/app/gaussian/Gaussian09RevA.02_gcc-4.9.2/g09/l703.exe)
 Compute integral first derivatives, UseDBF=F ICtDFT=           0.
 Integral derivatives from FoFDir, PRISM(SPDF).
 Calling FoFJK, ICntrl=      2127 FMM=F ISym2X=0 I1Cent= 0 IOpClX= 0 NMat=1 NMatS=1 NMatT=0.
 FoFCou: FMM=F IPFlag=           0 FMFlag=      100000 FMFlg1=         800
         NFxFlg=           0 DoJE=F BraDBF=F KetDBF=F FulRan=T
         Omega=  0.000000  0.000000  1.000000  0.000000  0.000000 ICntrl=    2127 IOpCl=  0
         NMat0=    1 NMatS0=    1 NMatT0=    0 NMatD0=    1 NMtDS0=    0 NMtDT0=    0
         I1Cent=           0 NGrid=           0.
 Symmetry not used in FoFCou.
 Leave Link  703 at Wed Sep 29 13:47:09 2021, MaxMem= 1342177280 cpu:      87.1
 (Enter /sw/target/amd/app/gaussian/Gaussian09RevA.02_gcc-4.9.2/g09/l716.exe)
 Dipole        = 8.21033495D-02 3.54642615D-01 4.66368856D-01
 ***** Axes restored to original set *****
 -------------------------------------------------------------------
 Center     Atomic                   Forces (Hartrees/Bohr)
 Number     Number              X              Y              Z
 -------------------------------------------------------------------
      1        6           0.000030171   -0.002506251   -0.003305342
      2        6           0.000907211   -0.003321866    0.001804590
      3        6          -0.003397031    0.007176235   -0.000992531
      4        6           0.001578812   -0.001345092    0.001397114
      5        6          -0.003719902   -0.003519679   -0.001118461
      6        6           0.003301905    0.004424602   -0.000870728
      7        6          -0.007570674   -0.003248111    0.001854712
      8        8           0.008815443    0.016273594    0.010192690
      9        6           0.009475244    0.004543397    0.011384375
     10        8          -0.016253713   -0.018762814   -0.021855531
     11        6          -0.006092632    0.006227298   -0.006346395
     12        6           0.001165826   -0.006734770    0.008588586
     13        6           0.004690582    0.006465531    0.005411955
     14        6           0.001675759   -0.007239859   -0.005266038
     15        1           0.001267828   -0.000178175    0.001229436
     16        1           0.004321697    0.000010013   -0.001230722
     17        1           0.003395201    0.000928402    0.000926212
     18        1           0.000640994    0.000861949   -0.000687623
     19        1          -0.001489862    0.001890172    0.000915667
     20        1          -0.001170661   -0.001762933    0.001439890
     21        1          -0.000105685   -0.001351382   -0.000512506
     22        1          -0.000083698    0.001023275   -0.000406533
     23        1          -0.000805182   -0.000430707   -0.000737931
     24        1           0.000085757    0.001003579   -0.001721869
     25        1           0.000742834   -0.001004967   -0.001299979
     26        1          -0.000406099   -0.002813547   -0.000986094
     27        1          -0.000824730   -0.000047909   -0.000066444
     28        1           0.000834362    0.001420563   -0.000082557
     29        1          -0.001054893    0.000135615   -0.000065140
     30        1           0.000045137    0.001883840    0.002407198
 -------------------------------------------------------------------
 Cartesian Forces:  Max     0.021855531 RMS     0.005283038
 Leave Link  716 at Wed Sep 29 13:47:10 2021, MaxMem= 1342177280 cpu:       0.1
 (Enter /sw/target/amd/app/gaussian/Gaussian09RevA.02_gcc-4.9.2/g09/l103.exe)

 GradGradGradGradGradGradGradGradGradGradGradGradGradGradGradGradGradGrad
 Berny optimization.
 Internal  Forces:  Max     0.032327292 RMS     0.003815641
 Search for a local minimum.
 Step number   1 out of a maximum of  159
 All quantities printed in internal units (Hartrees-Bohrs-Radians)
 RMS Force = .38156D-02 SwitMx=.10000D-02 MixMth= 1
 Mixed Optimization -- RFO/linear search
 Second derivative matrix not updated -- first step.
     Eigenvalues ---    0.00267   0.00271   0.00322   0.00354   0.00698
     Eigenvalues ---    0.00757   0.01549   0.01638   0.01770   0.02080
     Eigenvalues ---    0.02096   0.02106   0.02126   0.02140   0.02155
     Eigenvalues ---    0.02168   0.02175   0.04786   0.05077   0.05377
     Eigenvalues ---    0.05385   0.05418   0.05429   0.05457   0.05494
     Eigenvalues ---    0.05517   0.07267   0.07367   0.14755   0.15287
     Eigenvalues ---    0.16000   0.16000   0.16000   0.16000   0.16000
     Eigenvalues ---    0.16000   0.16000   0.16000   0.16000   0.16000
     Eigenvalues ---    0.16000   0.16000   0.16000   0.16000   0.16000
     Eigenvalues ---    0.16000   0.21995   0.22972   0.23977   0.24861
     Eigenvalues ---    0.24987   0.24990   0.25000   0.25000   0.28722
     Eigenvalues ---    0.28746   0.29096   0.29318   0.32306   0.34059
     Eigenvalues ---    0.34099   0.34104   0.34119   0.34134   0.34138
     Eigenvalues ---    0.34153   0.34164   0.34225   0.34229   0.34272
     Eigenvalues ---    0.34312   0.35017   0.35104   0.35280   0.35323
     Eigenvalues ---    0.41901   0.42125   0.44950   0.45605   0.46192
     Eigenvalues ---    0.46342   0.46611   0.46713   0.931961000.00000
     Eigenvalues --- 1000.000001000.000001000.000001000.000001000.00000
     Eigenvalues --- 1000.000001000.000001000.000001000.000001000.00000
     Eigenvalues --- 1000.000001000.000001000.000001000.000001000.00000
     Eigenvalues --- 1000.000001000.000001000.000001000.000001000.00000
     Eigenvalues --- 1000.000001000.000001000.000001000.000001000.00000
     Eigenvalues --- 1000.000001000.000001000.000001000.000001000.00000
     Eigenvalues --- 1000.000001000.000001000.000001000.000001000.00000
     Eigenvalues --- 1000.000001000.000001000.000001000.000001000.00000
     Eigenvalues --- 1000.000001000.000001000.000001000.000001000.00000
     Eigenvalues --- 1000.000001000.000001000.000001000.000001000.00000
     Eigenvalues --- 1000.000001000.000001000.000001000.000001000.00000
     Eigenvalues --- 1000.000001000.000001000.000001000.000001000.00000
     Eigenvalues --- 1000.000001000.000001000.000001000.00000
 RFO step:  Lambda=-7.37442376D-03 EMin= 2.67055951D-03
 Linear search not attempted -- first point.
 Maximum step size (   0.300) exceeded in Quadratic search.
    -- Step size scaled by   0.872
 Iteration  1 RMS(Cart)=  0.14568956 RMS(Int)=  0.00541911
 Iteration  2 RMS(Cart)=  0.01242593 RMS(Int)=  0.00021318
 Iteration  3 RMS(Cart)=  0.00005411 RMS(Int)=  0.00021212
 Iteration  4 RMS(Cart)=  0.00000001 RMS(Int)=  0.00021212
 Variable       Old X    -DE/DX   Delta X   Delta X   Delta X     New X
                                 (Linear)    (Quad)   (Total)
    R1        2.83588   0.00948   0.00000   0.02502   0.02502   2.86090
    R2        2.06873   0.00005   0.00000   0.00011   0.00011   2.06884
    R3        2.06806   0.00184   0.00000   0.00457   0.00457   2.07264
    R4        2.06951   0.00053   0.00000   0.00133   0.00133   2.07084
    R5        2.64956  -0.00268   0.00000  -0.00527  -0.00525   2.64430
    R6        2.64573   0.00171   0.00000   0.00327   0.00328   2.64901
    R7        2.64008  -0.00015   0.00000  -0.00053  -0.00053   2.63955
    R8        2.05507  -0.00061   0.00000  -0.00148  -0.00148   2.05359
    R9        2.63207  -0.00274   0.00000  -0.00507  -0.00508   2.62699
   R10        2.05223  -0.00024   0.00000  -0.00058  -0.00058   2.05165
   R11        2.63361  -0.00017   0.00000  -0.00014  -0.00015   2.63345
   R12        2.65333  -0.00180   0.00000  -0.00344  -0.00344   2.64990
   R13        2.63499   0.00030   0.00000   0.00080   0.00080   2.63579
   R14        2.05154  -0.00130   0.00000  -0.00314  -0.00314   2.04840
   R15        2.05648  -0.00094   0.00000  -0.00229  -0.00229   2.05419
   R16        2.63449  -0.01629   0.00000  -0.03000  -0.03000   2.60449
   R17        2.31494  -0.03233   0.00000  -0.03001  -0.03001   2.28493
   R18        2.89803   0.00001   0.00000   0.00002   0.00002   2.89805
   R19        2.89345   0.00672   0.00000   0.01950   0.01950   2.91295
   R20        2.90586   0.00247   0.00000   0.00732   0.00732   2.91318
   R21        2.90537   0.00291   0.00000   0.00862   0.00862   2.91398
   R22        2.07164  -0.00015   0.00000  -0.00037  -0.00037   2.07127
   R23        2.07105   0.00042   0.00000   0.00106   0.00106   2.07210
   R24        2.07055   0.00002   0.00000   0.00005   0.00005   2.07060
   R25        2.07097  -0.00117   0.00000  -0.00291  -0.00291   2.06806
   R26        2.07073  -0.00030   0.00000  -0.00075  -0.00075   2.06998
   R27        2.07230  -0.00037   0.00000  -0.00092  -0.00092   2.07138
   R28        2.07130  -0.00137   0.00000  -0.00344  -0.00344   2.06787
   R29        2.07155  -0.00039   0.00000  -0.00099  -0.00099   2.07057
   R30        2.06945   0.00043   0.00000   0.00107   0.00107   2.07051
    A1        1.94476   0.00013   0.00000   0.00215   0.00209   1.94684
    A2        1.91789   0.00448   0.00000   0.02094   0.02088   1.93876
    A3        1.92637   0.00301   0.00000   0.01659   0.01649   1.94286
    A4        1.89472  -0.00282   0.00000  -0.01641  -0.01643   1.87829
    A5        1.87527  -0.00062   0.00000   0.00135   0.00126   1.87653
    A6        1.90377  -0.00451   0.00000  -0.02638  -0.02648   1.87729
    A7        2.11127   0.00189   0.00000   0.00687   0.00685   2.11811
    A8        2.08874   0.00445   0.00000   0.01555   0.01553   2.10427
    A9        2.08273  -0.00633   0.00000  -0.02210  -0.02211   2.06061
   A10        2.10099   0.00389   0.00000   0.01344   0.01342   2.11441
   A11        2.10090  -0.00303   0.00000  -0.01235  -0.01236   2.08855
   A12        2.08127  -0.00086   0.00000  -0.00104  -0.00104   2.08022
   A13        2.08480   0.00065   0.00000   0.00128   0.00125   2.08605
   A14        2.09570   0.00225   0.00000   0.01278   0.01280   2.10850
   A15        2.10268  -0.00290   0.00000  -0.01408  -0.01407   2.08862
   A16        2.10894  -0.00103   0.00000  -0.00331  -0.00340   2.10554
[...]
 ZZZY=              5.1666 XXYY=           -809.2165 XXZZ=           -797.6222 YYZZ=           -154.7353
 XXYZ=             -8.9206 YYXZ=             -4.9750 ZZXY=             -4.1227
 N-N= 8.776835947562D+02 E-N=-3.189868566967D+03  KE= 6.117290812653D+02
 No NMR shielding tensors so no spin-rotation constants.
 Leave Link  601 at Wed Sep 29 22:36:14 2021, MaxMem= 1342177280 cpu:       1.7
 (Enter /sw/target/amd/app/gaussian/Gaussian09RevA.02_gcc-4.9.2/g09/l604.exe)
 Evaluate density.
 Using the total density.
 Monte-Carlo method of calculating molar volume:
 based on  0.001 e/bohr**3 density envelope.
 Number of points per bohr**3 =   20 CutOff= 1.00D-04
 Using the CI density.
 There are       420 points.  Will hold       420 in memory.
 LenV=  1342015154 MDV=  1342177280.
 Box volume = 9277.047 fraction occupied=0.193
 Integrated density= 8.2184190315355920D+01 error=-2.1815809684644080D+01
 Molar volume = 1789.145 bohr**3/mol (159.661 cm**3/mol)
 Recommended a0 for SCRF calculation =  4.89 angstrom (  9.23 bohr)
 Leave Link  604 at Wed Sep 29 22:36:15 2021, MaxMem= 1342177280 cpu:       0.4
 (Enter /sw/target/amd/app/gaussian/Gaussian09RevA.02_gcc-4.9.2/g09/l607.exe)
 ******************************Gaussian NBO Version 3.1******************************
             N A T U R A L   A T O M I C   O R B I T A L   A N D
          N A T U R A L   B O N D   O R B I T A L   A N A L Y S I S
 ******************************Gaussian NBO Version 3.1******************************
       /RESON  / : Allow strongly delocalized NBO set

 Analyzing the CI density

 Job title: Cc1ccc(cc1)OC(=O)C(C)(C)C_conf_0                                

 Storage needed:    178664 in NPA (1342172480 available)


 NATURAL POPULATIONS:  Natural atomic orbital occupancies 
                                                          
   NAO  Atom  No  lang   Type(AO)    Occupancy
 --------------------------------------------
     1    C    1  S      Cor( 1S)     1.99940
     2    C    1  S      Val( 2S)     1.10056
     3    C    1  S      Ryd( 3S)     0.00023
     4    C    1  S      Ryd( 4S)     0.00001
     5    C    1  px     Val( 2p)     1.09141
     6    C    1  px     Ryd( 3p)     0.00093
     7    C    1  py     Val( 2p)     1.25425
     8    C    1  py     Ryd( 3p)     0.00285
     9    C    1  pz     Val( 2p)     1.24056
    10    C    1  pz     Ryd( 3p)     0.00041
    11    C    1  dxy    Ryd( 3d)     0.00069
    12    C    1  dxz    Ryd( 3d)     0.00057
    13    C    1  dyz    Ryd( 3d)     0.00067
    14    C    1  dx2y2  Ryd( 3d)     0.00065
    15    C    1  dz2    Ryd( 3d)     0.00077

    16    C    2  S      Cor( 1S)     1.99906
    17    C    2  S      Val( 2S)     0.89494
    18    C    2  S      Ryd( 3S)     0.00048
    19    C    2  S      Ryd( 4S)     0.00005
    20    C    2  px     Val( 2p)     1.05723
    21    C    2  px     Ryd( 3p)     0.00447
    22    C    2  py     Val( 2p)     1.07511
    23    C    2  py     Ryd( 3p)     0.00429
    24    C    2  pz     Val( 2p)     0.96131
    25    C    2  pz     Ryd( 3p)     0.00313
    26    C    2  dxy    Ryd( 3d)     0.00086
    27    C    2  dxz    Ryd( 3d)     0.00058
    28    C    2  dyz    Ryd( 3d)     0.00078
    29    C    2  dx2y2  Ryd( 3d)     0.00067
    30    C    2  dz2    Ryd( 3d)     0.00042

    31    C    3  S      Cor( 1S)     1.99907
    32    C    3  S      Val( 2S)     0.95716
    33    C    3  S      Ryd( 3S)     0.00056
    34    C    3  S      Ryd( 4S)     0.00005
    35    C    3  px     Val( 2p)     1.08995
    36    C    3  px     Ryd( 3p)     0.00408
    37    C    3  py     Val( 2p)     1.13966
    38    C    3  py     Ryd( 3p)     0.00471
    39    C    3  pz     Val( 2p)     1.03921
    40    C    3  pz     Ryd( 3p)     0.00497
    41    C    3  dxy    Ryd( 3d)     0.00080
    42    C    3  dxz    Ryd( 3d)     0.00061
    43    C    3  dyz    Ryd( 3d)     0.00047
    44    C    3  dx2y2  Ryd( 3d)     0.00069
    45    C    3  dz2    Ryd( 3d)     0.00042

    46    C    4  S      Cor( 1S)     1.99904
    47    C    4  S      Val( 2S)     0.96832
    48    C    4  S      Ryd( 3S)     0.00076
    49    C    4  S      Ryd( 4S)     0.00005
    50    C    4  px     Val( 2p)     1.08681
    51    C    4  px     Ryd( 3p)     0.00507
    52    C    4  py     Val( 2p)     1.16020
    53    C    4  py     Ryd( 3p)     0.00451
    54    C    4  pz     Val( 2p)     1.02679
    55    C    4  pz     Ryd( 3p)     0.00523
    56    C    4  dxy    Ryd( 3d)     0.00083
    57    C    4  dxz    Ryd( 3d)     0.00066
    58    C    4  dyz    Ryd( 3d)     0.00046
    59    C    4  dx2y2  Ryd( 3d)     0.00058
    60    C    4  dz2    Ryd( 3d)     0.00047

    61    C    5  S      Cor( 1S)     1.99873
    62    C    5  S      Val( 2S)     0.84692
    63    C    5  S      Ryd( 3S)     0.00137
    64    C    5  S      Ryd( 4S)     0.00011
    65    C    5  px     Val( 2p)     0.73796
    66    C    5  px     Ryd( 3p)     0.00665
    67    C    5  py     Val( 2p)     1.07995
    68    C    5  py     Ryd( 3p)     0.00603
    69    C    5  pz     Val( 2p)     0.99894
    70    C    5  pz     Ryd( 3p)     0.00356
    71    C    5  dxy    Ryd( 3d)     0.00136
    72    C    5  dxz    Ryd( 3d)     0.00134
    73    C    5  dyz    Ryd( 3d)     0.00097
    74    C    5  dx2y2  Ryd( 3d)     0.00168
    75    C    5  dz2    Ryd( 3d)     0.00062

    76    C    6  S      Cor( 1S)     1.99904
    77    C    6  S      Val( 2S)     0.96720
    78    C    6  S      Ryd( 3S)     0.00078
    79    C    6  S      Ryd( 4S)     0.00005
    80    C    6  px     Val( 2p)     1.10497
    81    C    6  px     Ryd( 3p)     0.00449
    82    C    6  py     Val( 2p)     1.14368
    83    C    6  py     Ryd( 3p)     0.00466
    84    C    6  pz     Val( 2p)     1.04521
    85    C    6  pz     Ryd( 3p)     0.00525
    86    C    6  dxy    Ryd( 3d)     0.00076
    87    C    6  dxz    Ryd( 3d)     0.00063
    88    C    6  dyz    Ryd( 3d)     0.00053
    89    C    6  dx2y2  Ryd( 3d)     0.00062
    90    C    6  dz2    Ryd( 3d)     0.00043

    91    C    7  S      Cor( 1S)     1.99907
    92    C    7  S      Val( 2S)     0.95777
    93    C    7  S      Ryd( 3S)     0.00061
    94    C    7  S      Ryd( 4S)     0.00005
    95    C    7  px     Val( 2p)     1.07482
    96    C    7  px     Ryd( 3p)     0.00415
    97    C    7  py     Val( 2p)     1.15779
    98    C    7  py     Ryd( 3p)     0.00467
    99    C    7  pz     Val( 2p)     1.02133
   100    C    7  pz     Ryd( 3p)     0.00475
   101    C    7  dxy    Ryd( 3d)     0.00078
   102    C    7  dxz    Ryd( 3d)     0.00066
   103    C    7  dyz    Ryd( 3d)     0.00042
   104    C    7  dx2y2  Ryd( 3d)     0.00073
   105    C    7  dz2    Ryd( 3d)     0.00044

   106    O    8  S      Cor( 1S)     1.99969
   107    O    8  S      Val( 2S)     1.59856
   108    O    8  S      Ryd( 3S)     0.00133
   109    O    8  S      Ryd( 4S)     0.00010
   110    O    8  px     Val( 2p)     1.43361
   111    O    8  px     Ryd( 3p)     0.00091
   112    O    8  py     Val( 2p)     1.76825
   113    O    8  py     Ryd( 3p)     0.00229
   114    O    8  pz     Val( 2p)     1.71068
   115    O    8  pz     Ryd( 3p)     0.00140
   116    O    8  dxy    Ryd( 3d)     0.00095
   117    O    8  dxz    Ryd( 3d)     0.00083
   118    O    8  dyz    Ryd( 3d)     0.00114
   119    O    8  dx2y2  Ryd( 3d)     0.00115
   120    O    8  dz2    Ryd( 3d)     0.00116

   121    C    9  S      Cor( 1S)     1.99927
   122    C    9  S      Val( 2S)     0.77657
   123    C    9  S      Ryd( 3S)     0.00663
   124    C    9  S      Ryd( 4S)     0.00049
   125    C    9  px     Val( 2p)     0.86160
   126    C    9  px     Ryd( 3p)     0.00586
   127    C    9  py     Val( 2p)     0.74130
   128    C    9  py     Ryd( 3p)     0.01665
   129    C    9  pz     Val( 2p)     0.76029
   130    C    9  pz     Ryd( 3p)     0.00971
   131    C    9  dxy    Ryd( 3d)     0.00277
   132    C    9  dxz    Ryd( 3d)     0.00191
   133    C    9  dyz    Ryd( 3d)     0.00115
   134    C    9  dx2y2  Ryd( 3d)     0.00193
   135    C    9  dz2    Ryd( 3d)     0.00176

   136    O   10  S      Cor( 1S)     1.99977
   137    O   10  S      Val( 2S)     1.69644
   138    O   10  S      Ryd( 3S)     0.00056
   139    O   10  S      Ryd( 4S)     0.00013
   140    O   10  px     Val( 2p)     1.78866
   141    O   10  px     Ryd( 3p)     0.00169
   142    O   10  py     Val( 2p)     1.55604
   143    O   10  py     Ryd( 3p)     0.00069
   144    O   10  pz     Val( 2p)     1.50157
   145    O   10  pz     Ryd( 3p)     0.00083
   146    O   10  dxy    Ryd( 3d)     0.00329
   147    O   10  dxz    Ryd( 3d)     0.00184
   148    O   10  dyz    Ryd( 3d)     0.00441
   149    O   10  dx2y2  Ryd( 3d)     0.00342
   150    O   10  dz2    Ryd( 3d)     0.00320

   151    C   11  S      Cor( 1S)     1.99905
   152    C   11  S      Val( 2S)     0.94074
   153    C   11  S      Ryd( 3S)     0.00046
   154    C   11  S      Ryd( 4S)     0.00003
   155    C   11  px     Val( 2p)     1.06069
   156    C   11  px     Ryd( 3p)     0.00209
   157    C   11  py     Val( 2p)     1.06922
   158    C   11  py     Ryd( 3p)     0.00330
   159    C   11  pz     Val( 2p)     1.06614
   160    C   11  pz     Ryd( 3p)     0.00270
   161    C   11  dxy    Ryd( 3d)     0.00073
   162    C   11  dxz    Ryd( 3d)     0.00057
   163    C   11  dyz    Ryd( 3d)     0.00071
   164    C   11  dx2y2  Ryd( 3d)     0.00097
   165    C   11  dz2    Ryd( 3d)     0.00097

   166    C   12  S      Cor( 1S)     1.99938
   167    C   12  S      Val( 2S)     1.09567
   168    C   12  S      Ryd( 3S)     0.00059
   169    C   12  S      Ryd( 4S)     0.00002
   170    C   12  px     Val( 2p)     1.24617
   171    C   12  px     Ryd( 3p)     0.00192
   172    C   12  py     Val( 2p)     1.09141
   173    C   12  py     Ryd( 3p)     0.00165
   174    C   12  pz     Val( 2p)     1.22686
   175    C   12  pz     Ryd( 3p)     0.00228
   176    C   12  dxy    Ryd( 3d)     0.00080
   177    C   12  dxz    Ryd( 3d)     0.00030
   178    C   12  dyz    Ryd( 3d)     0.00047
   179    C   12  dx2y2  Ryd( 3d)     0.00065
   180    C   12  dz2    Ryd( 3d)     0.00113

   181    C   13  S      Cor( 1S)     1.99939
   182    C   13  S      Val( 2S)     1.09066
   183    C   13  S      Ryd( 3S)     0.00058
   184    C   13  S      Ryd( 4S)     0.00002
   185    C   13  px     Val( 2p)     1.16503
   186    C   13  px     Ryd( 3p)     0.00246
   187    C   13  py     Val( 2p)     1.18100
   188    C   13  py     Ryd( 3p)     0.00224
   189    C   13  pz     Val( 2p)     1.22272
   190    C   13  pz     Ryd( 3p)     0.00242
   191    C   13  dxy    Ryd( 3d)     0.00048
   192    C   13  dxz    Ryd( 3d)     0.00028
   193    C   13  dyz    Ryd( 3d)     0.00043
   194    C   13  dx2y2  Ryd( 3d)     0.00098
   195    C   13  dz2    Ryd( 3d)     0.00115

   196    C   14  S      Cor( 1S)     1.99938
   197    C   14  S      Val( 2S)     1.09593
   198    C   14  S      Ryd( 3S)     0.00058
   199    C   14  S      Ryd( 4S)     0.00002
   200    C   14  px     Val( 2p)     1.24630
   201    C   14  px     Ryd( 3p)     0.00192
   202    C   14  py     Val( 2p)     1.25161
   203    C   14  py     Ryd( 3p)     0.00237
   204    C   14  pz     Val( 2p)     1.06695
   205    C   14  pz     Ryd( 3p)     0.00153
   206    C   14  dxy    Ryd( 3d)     0.00060
   207    C   14  dxz    Ryd( 3d)     0.00050
   208    C   14  dyz    Ryd( 3d)     0.00075
   209    C   14  dx2y2  Ryd( 3d)     0.00081
   210    C   14  dz2    Ryd( 3d)     0.00070

   211    H   15  S      Val( 1S)     0.75862
   212    H   15  S      Ryd( 2S)     0.00146

   213    H   16  S      Val( 1S)     0.74858
   214    H   16  S      Ryd( 2S)     0.00159

   215    H   17  S      Val( 1S)     0.75741
   216    H   17  S      Ryd( 2S)     0.00151

   217    H   18  S      Val( 1S)     0.76907
   218    H   18  S      Ryd( 2S)     0.00102

   219    H   19  S      Val( 1S)     0.75800
   220    H   19  S      Ryd( 2S)     0.00122

   221    H   20  S      Val( 1S)     0.74910
   222    H   20  S      Ryd( 2S)     0.00106

   223    H   21  S      Val( 1S)     0.76858
   224    H   21  S      Ryd( 2S)     0.00103

   225    H   22  S      Val( 1S)     0.76262
   226    H   22  S      Ryd( 2S)     0.00092

   227    H   23  S      Val( 1S)     0.75699
   228    H   23  S      Ryd( 2S)     0.00115

   229    H   24  S      Val( 1S)     0.76491
   230    H   24  S      Ryd( 2S)     0.00110

   231    H   25  S      Val( 1S)     0.75565
   232    H   25  S      Ryd( 2S)     0.00105

   233    H   26  S      Val( 1S)     0.76941
   234    H   26  S      Ryd( 2S)     0.00092

   235    H   27  S      Val( 1S)     0.75698
   236    H   27  S      Ryd( 2S)     0.00104

   237    H   28  S      Val( 1S)     0.75535
   238    H   28  S      Ryd( 2S)     0.00105

   239    H   29  S      Val( 1S)     0.76358
   240    H   29  S      Ryd( 2S)     0.00094

   241    H   30  S      Val( 1S)     0.76484
   242    H   30  S      Ryd( 2S)     0.00122

 WARNING:  1 low occupancy (<1.9990e) core orbital  found on  C    5


 Summary of Natural Population Analysis:                  
                                                          
                                       Natural Population 
                Natural  -----------------------------------------------
    Atom  No    Charge         Core      Valence    Rydberg      Total
 -----------------------------------------------------------------------
      C    1   -0.69395      1.99940     4.68678    0.00777     6.69395
      C    2   -0.00340      1.99906     3.98860    0.01574     6.00340
      C    3   -0.24241      1.99907     4.22598    0.01736     6.24241
      C    4   -0.25977      1.99904     4.24212    0.01861     6.25977
      C    5    0.31381      1.99873     3.66376    0.02370     5.68619
      C    6   -0.27830      1.99904     4.26106    0.01820     6.27830
      C    7   -0.22805      1.99907     4.21172    0.01727     6.22805
      O    8   -0.52207      1.99969     6.51111    0.01126     8.52207
      C    9    0.81211      1.99927     3.13976    0.04885     5.18789
      O   10   -0.56255      1.99977     6.54271    0.02007     8.56255
      C   11   -0.14836      1.99905     4.13679    0.01251     6.14836
      C   12   -0.66929      1.99938     4.66011    0.00981     6.66929
      C   13   -0.66985      1.99939     4.65941    0.01105     6.66985
      C   14   -0.66994      1.99938     4.66079    0.00978     6.66994
      H   15    0.23993      0.00000     0.75862    0.00146     0.76007
      H   16    0.24982      0.00000     0.74858    0.00159     0.75018
      H   17    0.24108      0.00000     0.75741    0.00151     0.75892
      H   18    0.22991      0.00000     0.76907    0.00102     0.77009
      H   19    0.24078      0.00000     0.75800    0.00122     0.75922
      H   20    0.24984      0.00000     0.74910    0.00106     0.75016
      H   21    0.23039      0.00000     0.76858    0.00103     0.76961
      H   22    0.23646      0.00000     0.76262    0.00092     0.76354
      H   23    0.24186      0.00000     0.75699    0.00115     0.75814
      H   24    0.23399      0.00000     0.76491    0.00110     0.76601
      H   25    0.24330      0.00000     0.75565    0.00105     0.75670
      H   26    0.22967      0.00000     0.76941    0.00092     0.77033
      H   27    0.24198      0.00000     0.75698    0.00104     0.75802
      H   28    0.24360      0.00000     0.75535    0.00105     0.75640
      H   29    0.23547      0.00000     0.76358    0.00094     0.76453
      H   30    0.23394      0.00000     0.76484    0.00122     0.76606
 =======================================================================
   * Total *   -0.00000     27.98936    75.75040    0.26024   104.00000

                                 Natural Population      
 --------------------------------------------------------
   Core                      27.98936 ( 99.9620% of  28)
   Valence                   75.75040 ( 99.6716% of  76)
   Natural Minimal Basis    103.73976 ( 99.7498% of 104)
   Natural Rydberg Basis      0.26024 (  0.2502% of 104)
 --------------------------------------------------------

    Atom  No          Natural Electron Configuration
 ----------------------------------------------------------------------------
      C    1      [core]2S( 1.10)2p( 3.59)
      C    2      [core]2S( 0.89)2p( 3.09)3p( 0.01)
      C    3      [core]2S( 0.96)2p( 3.27)3p( 0.01)
      C    4      [core]2S( 0.97)2p( 3.27)3p( 0.01)
      C    5      [core]2S( 0.85)2p( 2.82)3p( 0.02)3d( 0.01)
      C    6      [core]2S( 0.97)2p( 3.29)3p( 0.01)
      C    7      [core]2S( 0.96)2p( 3.25)3p( 0.01)
      O    8      [core]2S( 1.60)2p( 4.91)3d( 0.01)
      C    9      [core]2S( 0.78)2p( 2.36)3S( 0.01)3p( 0.03)3d( 0.01)
      O   10      [core]2S( 1.70)2p( 4.85)3d( 0.02)
      C   11      [core]2S( 0.94)2p( 3.20)3p( 0.01)
      C   12      [core]2S( 1.10)2p( 3.56)3p( 0.01)
      C   13      [core]2S( 1.09)2p( 3.57)3p( 0.01)
      C   14      [core]2S( 1.10)2p( 3.56)3p( 0.01)
      H   15            1S( 0.76)
      H   16            1S( 0.75)
      H   17            1S( 0.76)
      H   18            1S( 0.77)
      H   19            1S( 0.76)
      H   20            1S( 0.75)
      H   21            1S( 0.77)
      H   22            1S( 0.76)
      H   23            1S( 0.76)
      H   24            1S( 0.76)
      H   25            1S( 0.76)
      H   26            1S( 0.77)
      H   27            1S( 0.76)
      H   28            1S( 0.76)
      H   29            1S( 0.76)
      H   30            1S( 0.76)


 NBO analysis skipped by request.
 Leave Link  607 at Wed Sep 29 22:36:37 2021, MaxMem= 1342177280 cpu:      19.6
 (Enter /sw/target/amd/app/gaussian/Gaussian09RevA.02_gcc-4.9.2/g09/l9999.exe)
 1\1\GINC-HERMITE\SP\RTD-B3LYP-FC\6-31G(d)\C12H16O2\JSCHLEINITZ\29-Sep-
 2021\0\\#p TD(NStates=10, Root=1) b3lyp/6-31G* volume pop=NPA density=
 current Geom=AllCheck Guess=Read\\Cc1ccc(cc1)OC(=O)C(C)(C)C_conf_0\\0,
 1\C,0,0.441618287,-1.3681571249,-2.2463384604\C,0,-0.9680922863,-0.958
 6589171,-1.8873888549\C,0,-1.821630307,-1.8305409854,-1.199929454\C,0,
 -3.1112370458,-1.4431437183,-0.8385207352\C,0,-3.5627218209,-0.1686406
 181,-1.1705944525\C,0,-2.7421732629,0.7193354589,-1.8643996282\C,0,-1.
 4541945544,0.3147207713,-2.2128899621\O,0,-4.8929741243,0.1207473742,-
 0.854449453\C,0,-5.2315128112,1.3001768649,-0.239880409\O,0,-4.4308104
 577,2.1529044584,0.0587041303\C,0,-6.7434656175,1.362885007,0.00446457
 82\C,0,-7.1557913438,0.1909428774,0.923641261\C,0,-7.0746520322,2.7046
 28022,0.6765277821\C,0,-7.4794497428,1.2481148597,-1.349261938\H,0,0.5
 234655003,-2.452507595,-2.3765426639\H,0,1.1532884089,-1.0800998845,-1
 .460947899\H,0,0.7739377303,-0.8907896007,-3.1745125903\H,0,-1.4756823
 057,-2.8289510497,-0.9425686361\H,0,-3.774937944,-2.1203358836,-0.3098
 519207\H,0,-3.0997820586,1.7084341031,-2.1222935543\H,0,-0.8142009348,
 1.008139261,-2.7536981392\H,0,-6.6362516165,0.2410157938,1.8875643571\
 H,0,-6.9331326844,-0.7751803817,0.4623839114\H,0,-8.2330779888,0.23926
 0685,1.1201063812\H,0,-6.5507893525,2.8103360032,1.6311879134\H,0,-8.1
 526051278,2.7695594596,0.8626274341\H,0,-6.7811649195,3.5480765643,0.0
 442020037\H,0,-7.258773928,0.2987209829,-1.8447839049\H,0,-7.196347766
 3,2.0634262933,-2.0251970344\H,0,-8.5614984761,1.3090530668,-1.1851352
 606\\Version=AM64L-G09RevA.02\State=1-A\HF=-617.3850952\RMSD=2.115e-09
 \Dipole=-0.1586301,-0.5448523,-0.24611\Quadrupole=5.6967273,-2.7800088
 ,-2.9167185,-3.0720754,-3.2785553,-2.6386347\PG=C01 [X(C12H16O2)]\\@


 The hours that make us happy make us wise.
                         -- John Masefield
 Job cpu time:  0 days  3 hours 49 minutes 13.0 seconds.
 File lengths (MBytes):  RWF=    198 Int=      0 D2E=      0 Chk=     27 Scr=      1
 Normal termination of Gaussian 09 at Wed Sep 29 22:36:43 2021.
