 Entering Gaussian System, Link 0=g09
 Input=C12H12N2O2_9e1b_conf_0.com
 Output=C12H12N2O2_9e1b_conf_0.log
 Initial command:
 /sw/target/amd/app/gaussian/Gaussian09RevA.02_gcc-4.9.2/g09/l1.exe /home/jschleinitz/gaussian/Gau-661763.inp -scrdir=/home/jschleinitz/gaussian/
 Entering Link 1 = /sw/target/amd/app/gaussian/Gaussian09RevA.02_gcc-4.9.2/g09/l1.exe PID=    661773.
  
 Copyright (c) 1988,1990,1992,1993,1995,1998,2003,2009, Gaussian, Inc.
                  All Rights Reserved.
  
 This is part of the Gaussian(R) 09 program.  It is based on
 the Gaussian(R) 03 system (copyright 2003, Gaussian, Inc.),
 the Gaussian(R) 98 system (copyright 1998, Gaussian, Inc.),
 the Gaussian(R) 94 system (copyright 1995, Gaussian, Inc.),
 the Gaussian 92(TM) system (copyright 1992, Gaussian, Inc.),
 the Gaussian 90(TM) system (copyright 1990, Gaussian, Inc.),
 the Gaussian 88(TM) system (copyright 1988, Gaussian, Inc.),
 the Gaussian 86(TM) system (copyright 1986, Carnegie Mellon
 University), and the Gaussian 82(TM) system (copyright 1983,
 Carnegie Mellon University). Gaussian is a federally registered
 trademark of Gaussian, Inc.
  
 This software contains proprietary and confidential information,
 including trade secrets, belonging to Gaussian, Inc.
  
 This software is provided under written license and may be
 used, copied, transmitted, or stored only in accord with that
 written license.
  
 The following legend is applicable only to US Government
 contracts under FAR:
  
                    RESTRICTED RIGHTS LEGEND
  
 Use, reproduction and disclosure by the US Government is
 subject to restrictions as set forth in subparagraphs (a)
 and (c) of the Commercial Computer Software - Restricted
 Rights clause in FAR 52.227-19.
  
 Gaussian, Inc.
 340 Quinnipiac St., Bldg. 40, Wallingford CT 06492
  
  
 ---------------------------------------------------------------
 Warning -- This program may not be used in any manner that
 competes with the business of Gaussian, Inc. or will provide
 assistance to any competitor of Gaussian, Inc.  The licensee
 of this program is prohibited from giving any competitor of
 Gaussian, Inc. access to this program.  By using this program,
 the user acknowledges that Gaussian, Inc. is engaged in the
 business of creating and licensing software in the field of
 computational chemistry and represents and warrants to the
 licensee that it is not a competitor of Gaussian, Inc. and that
 it will not use this program in any manner prohibited above.
 ---------------------------------------------------------------
  

 Cite this work as:
 Gaussian 09, Revision A.02,
 M. J. Frisch, G. W. Trucks, H. B. Schlegel, G. E. Scuseria, 
 M. A. Robb, J. R. Cheeseman, G. Scalmani, V. Barone, B. Mennucci, 
 G. A. Petersson, H. Nakatsuji, M. Caricato, X. Li, H. P. Hratchian, 
 A. F. Izmaylov, J. Bloino, G. Zheng, J. L. Sonnenberg, M. Hada, 
 M. Ehara, K. Toyota, R. Fukuda, J. Hasegawa, M. Ishida, T. Nakajima, 
 Y. Honda, O. Kitao, H. Nakai, T. Vreven, J. A. Montgomery, Jr., 
 J. E. Peralta, F. Ogliaro, M. Bearpark, J. J. Heyd, E. Brothers, 
 K. N. Kudin, V. N. Staroverov, R. Kobayashi, J. Normand, 
 K. Raghavachari, A. Rendell, J. C. Burant, S. S. Iyengar, J. Tomasi, 
 M. Cossi, N. Rega, J. M. Millam, M. Klene, J. E. Knox, J. B. Cross, 
 V. Bakken, C. Adamo, J. Jaramillo, R. Gomperts, R. E. Stratmann, 
 O. Yazyev, A. J. Austin, R. Cammi, C. Pomelli, J. W. Ochterski, 
 R. L. Martin, K. Morokuma, V. G. Zakrzewski, G. A. Voth, 
 P. Salvador, J. J. Dannenberg, S. Dapprich, A. D. Daniels, 
 O. Farkas, J. B. Foresman, J. V. Ortiz, J. Cioslowski, 
 and D. J. Fox, Gaussian, Inc., Wallingford CT, 2009.
 
 ******************************************
 Gaussian 09:  AM64L-G09RevA.02 11-Jun-2009
                29-Sep-2021 
 ******************************************
 %nproc=4
 Will use up to    4 processors via shared memory.
 %mem=8gb
 %chk=C12H12N2O2_9e1b_conf_0.chk
 -----------------------------------
 #p opt b3lyp/6-31G* scf=(xqc,tight)
 -----------------------------------
 1/14=-1,18=20,19=15,26=3,38=1/1,3;
 2/9=110,12=2,17=6,18=5,40=1/2;
 3/5=1,6=6,7=1,11=2,16=1,25=1,30=1,71=1,74=-5/1,2,3;
 4//1;
 5/5=2,8=3,13=1,32=2,38=5/2,8;
 6/7=2,8=2,9=2,10=2,28=1/1;
 7//1,2,3,16;
 1/14=-1,18=20,19=15/3(2);
 2/9=110/2;
 99//99;
 2/9=110/2;
 3/5=1,6=6,7=1,11=2,16=1,25=1,30=1,71=1,74=-5/1,2,3;
 4/5=5,16=3/1;
 5/5=2,8=3,13=1,32=2,38=5/2,8;
 7//1,2,3,16;
 1/14=-1,18=20,19=15/3(-5);
 2/9=110/2;
 6/7=2,8=2,9=2,10=2,19=2,28=1/1;
 99/9=1/99;
 Leave Link    1 at Wed Sep 29 21:51:43 2021, MaxMem= 1073741824 cpu:       0.1
 (Enter /sw/target/amd/app/gaussian/Gaussian09RevA.02_gcc-4.9.2/g09/l101.exe)
 --------------------------------
 O=C(N(C)C)Oc1cccc2c1cccn2_conf_0
 --------------------------------
 Symbolic Z-matrix:
 Charge =  0 Multiplicity = 1
 O                     3.28015   0.21591  -0.88961 
 C                     2.83305   0.65321   0.16451 
 N                     1.48428   0.90275   0.38834 
 C                     0.51552   0.6014   -0.64809 
 C                     0.96933   1.48473   1.61669 
 O                     3.61601   0.95889   1.27675 
 C                     5.02197   1.00959   1.14449 
 C                     5.5928    1.80021   0.14666 
 C                     6.97223   1.94957   0.11122 
 C                     7.76258   1.32742   1.08195 
 C                     7.21368   0.54682   2.09164 
 C                     5.81301   0.37703   2.13031 
 C                     5.28712  -0.41734   3.16786 
 C                     6.13545  -0.99289   4.10608 
 C                     7.48975  -0.75631   3.98271 
 N                     8.03599  -0.00586   3.00182 
 H                     0.97718   0.14055  -1.52406 
 H                     0.02856   1.53287  -0.9543 
 H                    -0.23495  -0.08231  -0.24086 
 H                     1.76072   1.80987   2.29457 
 H                     0.35229   0.73737   2.12355 
 H                     0.35395   2.35342   1.36417 
 H                     4.97485   2.30178  -0.59217 
 H                     7.43698   2.55789  -0.6602 
 H                     8.84189   1.46141   1.05494 
 H                     4.21716  -0.59285   3.24086 
 H                     5.7502   -1.60905   4.91014 
 H                     8.19941  -1.17578   4.69016 
 
 NAtoms=     28 NQM=     28 NQMF=      0 NMic=      0 NMicF=      0 NTot=     28.
                    Isotopes and Nuclear Properties:
 (Nuclear quadrupole moments (NQMom) in fm**2, nuclear magnetic moments (NMagM)
  in nuclear magnetons)

  Atom         1           2           3           4           5           6           7           8           9          10
 IAtWgt=          16          12          14          12          12          16          12          12          12          12
 AtmWgt=  15.9949146  12.0000000  14.0030740  12.0000000  12.0000000  15.9949146  12.0000000  12.0000000  12.0000000  12.0000000
 NucSpn=           0           0           2           0           0           0           0           0           0           0
 AtZEff=   0.0000000   0.0000000   0.0000000   0.0000000   0.0000000   0.0000000   0.0000000   0.0000000   0.0000000   0.0000000
 NQMom=    0.0000000   0.0000000   2.0440000   0.0000000   0.0000000   0.0000000   0.0000000   0.0000000   0.0000000   0.0000000
 NMagM=    0.0000000   0.0000000   0.4037610   0.0000000   0.0000000   0.0000000   0.0000000   0.0000000   0.0000000   0.0000000

  Atom        11          12          13          14          15          16          17          18          19          20
 IAtWgt=          12          12          12          12          12          14           1           1           1           1
 AtmWgt=  12.0000000  12.0000000  12.0000000  12.0000000  12.0000000  14.0030740   1.0078250   1.0078250   1.0078250   1.0078250
 NucSpn=           0           0           0           0           0           2           1           1           1           1
 AtZEff=   0.0000000   0.0000000   0.0000000   0.0000000   0.0000000   0.0000000   0.0000000   0.0000000   0.0000000   0.0000000
 NQMom=    0.0000000   0.0000000   0.0000000   0.0000000   0.0000000   2.0440000   0.0000000   0.0000000   0.0000000   0.0000000
 NMagM=    0.0000000   0.0000000   0.0000000   0.0000000   0.0000000   0.4037610   2.7928460   2.7928460   2.7928460   2.7928460

  Atom        21          22          23          24          25          26          27          28
 IAtWgt=           1           1           1           1           1           1           1           1
 AtmWgt=   1.0078250   1.0078250   1.0078250   1.0078250   1.0078250   1.0078250   1.0078250   1.0078250
 NucSpn=           1           1           1           1           1           1           1           1
 AtZEff=   0.0000000   0.0000000   0.0000000   0.0000000   0.0000000   0.0000000   0.0000000   0.0000000
 NQMom=    0.0000000   0.0000000   0.0000000   0.0000000   0.0000000   0.0000000   0.0000000   0.0000000
 NMagM=    2.7928460   2.7928460   2.7928460   2.7928460   2.7928460   2.7928460   2.7928460   2.7928460
 Leave Link  101 at Wed Sep 29 21:51:44 2021, MaxMem= 1073741824 cpu:       0.2
 (Enter /sw/target/amd/app/gaussian/Gaussian09RevA.02_gcc-4.9.2/g09/l103.exe)

 GradGradGradGradGradGradGradGradGradGradGradGradGradGradGradGradGradGrad
 Berny optimization.
 Initialization pass.
                           ----------------------------
                           !    Initial Parameters    !
                           ! (Angstroms and Degrees)  !
 --------------------------                            --------------------------
 ! Name  Definition              Value          Derivative Info.                !
 --------------------------------------------------------------------------------
 ! R1    R(1,2)                  1.2257         estimate D2E/DX2                !
 ! R2    R(2,3)                  1.3898         estimate D2E/DX2                !
 ! R3    R(2,6)                  1.3941         estimate D2E/DX2                !
 ! R4    R(3,4)                  1.4504         estimate D2E/DX2                !
 ! R5    R(3,5)                  1.4535         estimate D2E/DX2                !
 ! R6    R(4,17)                 1.0922         estimate D2E/DX2                !
 ! R7    R(4,18)                 1.0948         estimate D2E/DX2                !
 ! R8    R(4,19)                 1.0938         estimate D2E/DX2                !
 ! R9    R(5,20)                 1.0916         estimate D2E/DX2                !
 ! R10   R(5,21)                 1.0937         estimate D2E/DX2                !
 ! R11   R(5,22)                 1.0941         estimate D2E/DX2                !
 ! R12   R(6,7)                  1.4131         estimate D2E/DX2                !
 ! R13   R(7,8)                  1.3952         estimate D2E/DX2                !
 ! R14   R(7,12)                 1.4134         estimate D2E/DX2                !
 ! R15   R(8,9)                  1.3879         estimate D2E/DX2                !
 ! R16   R(8,23)                 1.086          estimate D2E/DX2                !
 ! R17   R(9,10)                 1.3979         estimate D2E/DX2                !
 ! R18   R(9,24)                 1.0868         estimate D2E/DX2                !
 ! R19   R(10,11)                1.3893         estimate D2E/DX2                !
 ! R20   R(10,25)                1.0879         estimate D2E/DX2                !
 ! R21   R(11,12)                1.4115         estimate D2E/DX2                !
 ! R22   R(11,16)                1.3454         estimate D2E/DX2                !
 ! R23   R(12,13)                1.4086         estimate D2E/DX2                !
 ! R24   R(13,14)                1.3897         estimate D2E/DX2                !
 ! R25   R(13,26)                1.0867         estimate D2E/DX2                !
 ! R26   R(14,15)                1.3803         estimate D2E/DX2                !
 ! R27   R(14,27)                1.0838         estimate D2E/DX2                !
 ! R28   R(15,16)                1.3504         estimate D2E/DX2                !
 ! R29   R(15,28)                1.0863         estimate D2E/DX2                !
 ! A1    A(1,2,3)              123.8194         estimate D2E/DX2                !
 ! A2    A(1,2,6)              124.0213         estimate D2E/DX2                !
 ! A3    A(3,2,6)              112.1593         estimate D2E/DX2                !
 ! A4    A(2,3,4)              119.7249         estimate D2E/DX2                !
 ! A5    A(2,3,5)              123.4916         estimate D2E/DX2                !
 ! A6    A(4,3,5)              116.773          estimate D2E/DX2                !
 ! A7    A(3,4,17)             112.2392         estimate D2E/DX2                !
 ! A8    A(3,4,18)             108.6748         estimate D2E/DX2                !
 ! A9    A(3,4,19)             108.7896         estimate D2E/DX2                !
 ! A10   A(17,4,18)            108.8266         estimate D2E/DX2                !
 ! A11   A(17,4,19)            108.9575         estimate D2E/DX2                !
 ! A12   A(18,4,19)            109.3157         estimate D2E/DX2                !
 ! A13   A(3,5,20)             112.7814         estimate D2E/DX2                !
 ! A14   A(3,5,21)             108.5368         estimate D2E/DX2                !
 ! A15   A(3,5,22)             108.7914         estimate D2E/DX2                !
 ! A16   A(20,5,21)            108.9515         estimate D2E/DX2                !
 ! A17   A(20,5,22)            108.3373         estimate D2E/DX2                !
 ! A18   A(21,5,22)            109.401          estimate D2E/DX2                !
 ! A19   A(2,6,7)              119.4714         estimate D2E/DX2                !
 ! A20   A(6,7,8)              119.6266         estimate D2E/DX2                !
 ! A21   A(6,7,12)             118.3926         estimate D2E/DX2                !
 ! A22   A(8,7,12)             121.5644         estimate D2E/DX2                !
 ! A23   A(7,8,9)              119.0696         estimate D2E/DX2                !
 ! A24   A(7,8,23)             121.0303         estimate D2E/DX2                !
 ! A25   A(9,8,23)             119.8987         estimate D2E/DX2                !
 ! A26   A(8,9,10)             119.7555         estimate D2E/DX2                !
 ! A27   A(8,9,24)             120.2231         estimate D2E/DX2                !
 ! A28   A(10,9,24)            120.0169         estimate D2E/DX2                !
 ! A29   A(9,10,11)            122.099          estimate D2E/DX2                !
 ! A30   A(9,10,25)            119.2659         estimate D2E/DX2                !
 ! A31   A(11,10,25)           118.6335         estimate D2E/DX2                !
 ! A32   A(10,11,12)           118.6579         estimate D2E/DX2                !
 ! A33   A(10,11,16)           118.7512         estimate D2E/DX2                !
 ! A34   A(12,11,16)           122.5871         estimate D2E/DX2                !
 ! A35   A(7,12,11)            118.8452         estimate D2E/DX2                !
 ! A36   A(7,12,13)            123.8626         estimate D2E/DX2                !
 ! A37   A(11,12,13)           117.2913         estimate D2E/DX2                !
 ! A38   A(12,13,14)           120.1963         estimate D2E/DX2                !
 ! A39   A(12,13,26)           120.5406         estimate D2E/DX2                !
 ! A40   A(14,13,26)           119.2619         estimate D2E/DX2                !
 ! A41   A(13,14,15)           117.8797         estimate D2E/DX2                !
 ! A42   A(13,14,27)           121.2888         estimate D2E/DX2                !
 ! A43   A(15,14,27)           120.8314         estimate D2E/DX2                !
 ! A44   A(14,15,16)           123.8499         estimate D2E/DX2                !
 ! A45   A(14,15,28)           121.1026         estimate D2E/DX2                !
 ! A46   A(16,15,28)           115.0476         estimate D2E/DX2                !
 ! A47   A(11,16,15)           118.1932         estimate D2E/DX2                !
 ! D1    D(1,2,3,4)              2.0129         estimate D2E/DX2                !
 ! D2    D(1,2,3,5)           -176.7688         estimate D2E/DX2                !
 ! D3    D(6,2,3,4)           -178.0306         estimate D2E/DX2                !
 ! D4    D(6,2,3,5)              3.1877         estimate D2E/DX2                !
 ! D5    D(1,2,6,7)             11.9657         estimate D2E/DX2                !
 ! D6    D(3,2,6,7)           -167.9907         estimate D2E/DX2                !
 ! D7    D(2,3,4,17)             2.8536         estimate D2E/DX2                !
 ! D8    D(2,3,4,18)          -117.5586         estimate D2E/DX2                !
 ! D9    D(2,3,4,19)           123.5073         estimate D2E/DX2                !
 ! D10   D(5,3,4,17)          -178.2843         estimate D2E/DX2                !
 ! D11   D(5,3,4,18)            61.3035         estimate D2E/DX2                !
 ! D12   D(5,3,4,19)           -57.6307         estimate D2E/DX2                !
 ! D13   D(2,3,5,20)             6.6272         estimate D2E/DX2                !
 ! D14   D(2,3,5,21)          -114.1929         estimate D2E/DX2                !
 ! D15   D(2,3,5,22)           126.8488         estimate D2E/DX2                !
 ! D16   D(4,3,5,20)          -172.1879         estimate D2E/DX2                !
 ! D17   D(4,3,5,21)            66.992          estimate D2E/DX2                !
 ! D18   D(4,3,5,22)           -51.9663         estimate D2E/DX2                !
 ! D19   D(2,6,7,8)             52.5888         estimate D2E/DX2                !
 ! D20   D(2,6,7,12)          -134.699          estimate D2E/DX2                !
 ! D21   D(6,7,8,9)            173.5277         estimate D2E/DX2                !
 ! D22   D(6,7,8,23)            -6.0272         estimate D2E/DX2                !
 ! D23   D(12,7,8,9)             1.0534         estimate D2E/DX2                !
 ! D24   D(12,7,8,23)         -178.5015         estimate D2E/DX2                !
 ! D25   D(6,7,12,11)         -173.0105         estimate D2E/DX2                !
 ! D26   D(6,7,12,13)            6.6354         estimate D2E/DX2                !
 ! D27   D(8,7,12,11)           -0.4463         estimate D2E/DX2                !
 ! D28   D(8,7,12,13)          179.1996         estimate D2E/DX2                !
 ! D29   D(7,8,9,10)            -1.0184         estimate D2E/DX2                !
 ! D30   D(7,8,9,24)           179.7557         estimate D2E/DX2                !
 ! D31   D(23,8,9,10)          178.5416         estimate D2E/DX2                !
 ! D32   D(23,8,9,24)           -0.6843         estimate D2E/DX2                !
 ! D33   D(8,9,10,11)            0.4025         estimate D2E/DX2                !
 ! D34   D(8,9,10,25)         -179.1355         estimate D2E/DX2                !
 ! D35   D(24,9,10,11)         179.6301         estimate D2E/DX2                !
 ! D36   D(24,9,10,25)           0.0921         estimate D2E/DX2                !
 ! D37   D(9,10,11,12)           0.2086         estimate D2E/DX2                !
 ! D38   D(9,10,11,16)        -179.1063         estimate D2E/DX2                !
 ! D39   D(25,10,11,12)        179.7494         estimate D2E/DX2                !
 ! D40   D(25,10,11,16)          0.4346         estimate D2E/DX2                !
 ! D41   D(10,11,12,7)          -0.1863         estimate D2E/DX2                !
 ! D42   D(10,11,12,13)       -179.8554         estimate D2E/DX2                !
 ! D43   D(16,11,12,7)         179.1008         estimate D2E/DX2                !
 ! D44   D(16,11,12,13)         -0.5684         estimate D2E/DX2                !
 ! D45   D(10,11,16,15)        179.634          estimate D2E/DX2                !
 ! D46   D(12,11,16,15)          0.3476         estimate D2E/DX2                !
 ! D47   D(7,12,13,14)        -179.327          estimate D2E/DX2                !
 ! D48   D(7,12,13,26)           1.0823         estimate D2E/DX2                !
 ! D49   D(11,12,13,14)          0.324          estimate D2E/DX2                !
 ! D50   D(11,12,13,26)       -179.2667         estimate D2E/DX2                !
 ! D51   D(12,13,14,15)          0.108          estimate D2E/DX2                !
 ! D52   D(12,13,14,27)       -179.8513         estimate D2E/DX2                !
 ! D53   D(26,13,14,15)        179.7039         estimate D2E/DX2                !
 ! D54   D(26,13,14,27)         -0.2554         estimate D2E/DX2                !
 ! D55   D(13,14,15,16)         -0.356          estimate D2E/DX2                !
 ! D56   D(13,14,15,28)        179.6584         estimate D2E/DX2                !
 ! D57   D(27,14,15,16)        179.6034         estimate D2E/DX2                !
 ! D58   D(27,14,15,28)         -0.3821         estimate D2E/DX2                !
 ! D59   D(14,15,16,11)          0.1316         estimate D2E/DX2                !
 ! D60   D(28,15,16,11)       -179.8821         estimate D2E/DX2                !
 --------------------------------------------------------------------------------
 Trust Radius=3.00D-01 FncErr=1.00D-07 GrdErr=1.00D-06
 Number of steps in this run= 146 maximum allowed number of steps= 168.
 GradGradGradGradGradGradGradGradGradGradGradGradGradGradGradGradGradGrad

 Leave Link  103 at Wed Sep 29 21:51:44 2021, MaxMem= 1073741824 cpu:       0.0
 (Enter /sw/target/amd/app/gaussian/Gaussian09RevA.02_gcc-4.9.2/g09/l202.exe)
                          Input orientation:                          
 ---------------------------------------------------------------------
 Center     Atomic      Atomic             Coordinates (Angstroms)
 Number     Number       Type             X           Y           Z
 ---------------------------------------------------------------------
      1          8           0        3.280147    0.215913   -0.889606
      2          6           0        2.833046    0.653214    0.164512
      3          7           0        1.484283    0.902747    0.388344
      4          6           0        0.515517    0.601397   -0.648093
      5          6           0        0.969329    1.484731    1.616690
      6          8           0        3.616009    0.958889    1.276751
      7          6           0        5.021971    1.009589    1.144493
      8          6           0        5.592800    1.800206    0.146661
      9          6           0        6.972230    1.949569    0.111219
     10          6           0        7.762581    1.327423    1.081948
     11          6           0        7.213683    0.546823    2.091642
     12          6           0        5.813007    0.377030    2.130313
     13          6           0        5.287123   -0.417336    3.167865
     14          6           0        6.135450   -0.992891    4.106078
     15          6           0        7.489751   -0.756314    3.982712
     16          7           0        8.035988   -0.005860    3.001820
     17          1           0        0.977185    0.140550   -1.524065
     18          1           0        0.028559    1.532869   -0.954297
     19          1           0       -0.234946   -0.082307   -0.240862
     20          1           0        1.760723    1.809872    2.294572
     21          1           0        0.352286    0.737369    2.123551
     22          1           0        0.353947    2.353415    1.364173
     23          1           0        4.974850    2.301776   -0.592174
     24          1           0        7.436981    2.557888   -0.660203
     25          1           0        8.841890    1.461414    1.054942
     26          1           0        4.217165   -0.592846    3.240863
     27          1           0        5.750195   -1.609054    4.910144
     28          1           0        8.199406   -1.175784    4.690156
 ---------------------------------------------------------------------
                    Distance matrix (angstroms):
                    1          2          3          4          5
     1  O    0.000000
     2  C    1.225682   0.000000
     3  N    2.308685   1.389794   0.000000
     4  C    2.801804   2.456410   1.450352   0.000000
     5  C    3.637485   2.504731   1.453519   2.472947   0.000000
     6  O    2.314718   1.394110   2.310125   3.666862   2.719739
     7  C    2.793104   2.424615   3.619173   4.867044   4.107631
     8  C    2.988678   2.988671   4.212334   5.277081   4.861789
     9  C    4.199845   4.337768   5.593765   6.639524   6.206234
    10  C    5.021424   5.059305   6.330756   7.485994   6.816082
    11  C    4.946721   4.786975   5.987816   7.237027   6.332235
    12  C    3.944775   3.580617   4.695603   5.986091   4.995200
    13  C    4.570780   4.023518   4.891825   6.194157   4.966623
    14  C    5.879696   5.399211   6.248868   7.531769   6.246957
    15  C    6.511948   6.184685   7.192887   8.481019   7.289461
    16  N    6.149017   5.962827   7.112009   8.381415   7.353783
    17  H    2.389948   2.560925   2.120235   1.092173   3.416317
    18  H    3.508758   3.144944   2.078189   1.094774   2.738126
    19  H    3.586876   3.180863   2.078937   1.093838   2.712266
    20  H    3.871478   2.650450   2.129084   3.416172   1.091579
    21  H    4.233603   3.162132   2.078391   2.779774   1.093709
    22  H    4.267445   3.236634   2.081908   2.672993   1.094108
    23  H    2.703943   2.806716   3.886226   4.772846   4.646594
    24  H    4.776687   5.050164   6.266862   7.192681   6.940203
    25  H    6.022087   6.127991   7.408836   8.542158   7.892612
    26  H    4.311945   3.596163   4.224016   5.500217   4.183622
    27  H    6.562677   6.012373   6.704762   7.948707   6.578375
    28  H    7.567672   7.254275   8.241284   9.523519   8.294488
                    6          7          8          9         10
     6  O    0.000000
     7  C    1.413079   0.000000
     8  C    2.427472   1.395203   0.000000
     9  C    3.688378   2.398902   1.387946   0.000000
    10  C    4.167473   2.759688   2.409614   1.397868   0.000000
    11  C    3.711752   2.432045   2.825099   2.438867   1.389283
    12  C    2.427742   1.413403   2.451285   2.809523   2.408974
    13  C    2.874532   2.490071   3.760134   4.217216   3.677380
    14  C    4.261704   3.744428   4.875740   5.031618   4.144487
    15  C    5.026930   4.154977   4.984928   4.751641   3.582014
    16  N    4.841779   3.683083   4.169290   3.648405   2.353360
    17  H    3.934163   4.923081   5.181668   6.472038   7.364888
    18  H    4.263428   5.441774   5.678411   7.037296   8.000225
    19  H    4.268148   5.544963   6.136501   7.496391   8.227855
    20  H    2.280837   3.549489   4.392998   5.652111   6.142110
    21  H    3.379057   4.778976   5.700938   7.024427   7.506369
    22  H    3.548717   4.862569   5.406843   6.747937   7.484663
    23  H    2.672577   2.165174   1.085961   2.146705   3.394628
    24  H    4.572572   3.389164   2.150840   1.086801   2.157580
    25  H    5.254671   3.847590   3.390626   2.150474   1.087930
    26  H    2.574298   2.758673   4.146463   4.883537   4.573656
    27  H    4.934636   4.644106   5.859914   6.098102   5.227588
    28  H    6.100466   5.238670   6.024471   5.678068   4.413165
                   11         12         13         14         15
    11  C    0.000000
    12  C    1.411460   0.000000
    13  C    2.408213   1.408576   0.000000
    14  C    2.755223   2.425758   1.389664   0.000000
    15  C    2.313120   2.743596   2.372857   1.380333   0.000000
    16  N    1.345388   2.418217   2.784447   2.409494   1.350446
    17  H    7.220271   6.065936   6.395390   7.719514   8.575691
    18  H    7.866132   6.656622   6.960460   8.323519   9.234923
    19  H    7.830610   6.512388   6.498069   7.765758   8.829711
    20  H    5.601004   4.301282   4.261290   5.502297   6.500530
    21  H    6.864116   5.472601   5.174606   6.353676   7.525355
    22  H    7.130846   5.856143   5.938568   7.220913   8.212604
    23  H    3.910895   3.437890   4.650696   5.854519   6.050307
    24  H    3.415684   3.896205   5.303579   6.084361   5.704680
    25  H    2.135950   3.392115   4.542082   4.760027   3.913877
    26  H    3.405683   2.172716   1.086712   2.142068   3.359596
    27  H    3.838431   3.417006   2.161056   1.083789   2.147871
    28  H    3.269755   3.828697   3.372537   2.152791   1.086297
                   16         17         18         19         20
    16  N    0.000000
    17  H    8.386404   0.000000
    18  H    9.062972   1.778505   0.000000
    19  H    8.884210   1.779195   1.785278   0.000000
    20  H    6.570848   4.240584   3.692190   3.740516   0.000000
    21  H    7.769365   3.748571   3.195428   2.570439   1.778540
    22  H    8.201331   3.691492   2.480822   2.975849   1.772033
    23  H    5.254764   4.639034   5.018779   5.740143   4.348089
    24  H    4.510214   6.951169   7.484776   8.124342   6.442835
    25  H    2.567626   8.381501   9.039743   9.297911   7.197294
    26  H    3.871060   5.808604   6.297813   5.674887   3.564074
    27  H    3.381831   8.200108   8.774990   8.042744   5.869085
    28  H    2.060559   9.618199  10.293657   9.831018   7.490634
                   21         22         23         24         25
    21  H    0.000000
    22  H    1.785570   0.000000
    23  H    5.584856   5.018237   0.000000
    24  H    7.826651   7.369482   2.476350   0.000000
    25  H    8.587173   8.540285   4.286398   2.473409   0.000000
    26  H    4.237351   5.208346   4.862622   5.959250   5.512379
    27  H    6.512160   7.575920   6.794943   7.158031   5.817983
    28  H    8.474957   9.223265   7.098886   6.568709   4.536780
                   26         27         28
    26  H    0.000000
    27  H    2.483819   0.000000
    28  H    4.277676   2.496948   0.000000
 Stoichiometry    C12H12N2O2
 Framework group  C1[X(C12H12N2O2)]
 Deg. of freedom    78
 Full point group                 C1      NOp   1
 Largest Abelian subgroup         C1      NOp   1
 Largest concise Abelian subgroup C1      NOp   1
                         Standard orientation:                         
 ---------------------------------------------------------------------
 Center     Atomic      Atomic             Coordinates (Angstroms)
 Number     Number       Type             X           Y           Z
 ---------------------------------------------------------------------
      1          8           0       -2.144799    1.019740   -1.280486
      2          6           0       -2.174658    0.205639   -0.364710
      3          7           0       -3.335858   -0.413429    0.082391
      4          6           0       -4.598021   -0.135879   -0.575963
      5          6           0       -3.373858   -1.326425    1.212749
      6          8           0       -1.050609   -0.206350    0.349658
      7          6           0        0.163561    0.501788    0.204314
      8          6           0        0.181075    1.885140    0.384924
      9          6           0        1.398652    2.551306    0.373888
     10          6           0        2.583271    1.828769    0.204614
     11          6           0        2.589240    0.449728    0.036333
     12          6           0        1.356173   -0.237114    0.032817
     13          6           0        1.395948   -1.634880   -0.136752
     14          6           0        2.614316   -2.286532   -0.285396
     15          6           0        3.762988   -1.521594   -0.258164
     16          7           0        3.769911   -0.180131   -0.102811
     17          1           0       -4.479857    0.533234   -1.431046
     18          1           0       -5.275216    0.330625    0.146747
     19          1           0       -5.030756   -1.079603   -0.920359
     20          1           0       -2.420744   -1.384131    1.741699
     21          1           0       -3.637644   -2.322609    0.846369
     22          1           0       -4.138100   -0.983991    1.916840
     23          1           0       -0.738782    2.441143    0.539964
     24          1           0        1.433782    3.629127    0.508815
     25          1           0        3.534182    2.357270    0.211400
     26          1           0        0.477152   -2.214737   -0.159594
     27          1           0        2.665401   -3.360799   -0.419334
     28          1           0        4.743351   -1.977399   -0.363858
 ---------------------------------------------------------------------
 Rotational constants (GHZ):      1.1084076      0.3159458      0.2636772
 Leave Link  202 at Wed Sep 29 21:51:44 2021, MaxMem= 1073741824 cpu:       0.0
 (Enter /sw/target/amd/app/gaussian/Gaussian09RevA.02_gcc-4.9.2/g09/l301.exe)
 Standard basis: 6-31G(d) (6D, 7F)
 Ernie: Thresh=  0.10000D-02 Tol=  0.10000D-05 Strict=F.
 There are   264 symmetry adapted basis functions of A   symmetry.
 Integral buffers will be    131072 words long.
 Raffenetti 2 integral format.
 Two-electron integral symmetry is turned on.
   264 basis functions,   496 primitive gaussians,   264 cartesian basis functions
    57 alpha electrons       57 beta electrons
       nuclear repulsion energy      1045.1233474088 Hartrees.
 IExCor=  402 DFT=T Ex+Corr=B3LYP ExCW=0 ScaHFX=  0.200000
 ScaDFX=  0.800000  0.720000  1.000000  0.810000 ScalE2=  1.000000  1.000000
 IRadAn=      0 IRanWt=     -1 IRanGd=            0 ICorTp=0
 NAtoms=   28 NActive=   28 NUniq=   28 SFac= 7.50D-01 NAtFMM=   80 NAOKFM=F Big=F
 Leave Link  301 at Wed Sep 29 21:51:45 2021, MaxMem= 1073741824 cpu:       0.1
 (Enter /sw/target/amd/app/gaussian/Gaussian09RevA.02_gcc-4.9.2/g09/l302.exe)
 NPDir=0 NMtPBC=     1 NCelOv=     1 NCel=       1 NClECP=     1 NCelD=      1
         NCelK=      1 NCelE2=     1 NClLst=     1 CellRange=     0.0.
 One-electron integrals computed using PRISM.
 NBasis=   264 RedAO= T  NBF=   264
 NBsUse=   264 1.00D-06 NBFU=   264
 Precomputing XC quadrature grid using
 IXCGrd= 2 IRadAn=           0 IRanWt=          -1 IRanGd=           0 AccXCQ= 1.00D-10.
 NRdTot=    1773 NPtTot=      226022 NUsed=      238810 NTot=      238842
 NSgBfM=   262   262   262   262   262 NAtAll=    28    28.
 Leave Link  302 at Wed Sep 29 21:51:49 2021, MaxMem= 1073741824 cpu:       2.2
 (Enter /sw/target/amd/app/gaussian/Gaussian09RevA.02_gcc-4.9.2/g09/l303.exe)
 DipDrv:  MaxL=1.
 Leave Link  303 at Wed Sep 29 21:51:50 2021, MaxMem= 1073741824 cpu:       0.2
 (Enter /sw/target/amd/app/gaussian/Gaussian09RevA.02_gcc-4.9.2/g09/l401.exe)
 Harris functional with IExCor=  402 diagonalized for initial guess.
 ExpMin= 1.61D-01 ExpMax= 5.48D+03 ExpMxC= 8.25D+02 IAcc=1 IRadAn=         1 AccDes= 0.00D+00
 HarFok:  IExCor=  402 AccDes= 0.00D+00 IRadAn=         1 IDoV= 1
 ScaDFX=  1.000000  1.000000  1.000000  1.000000
 FoFCou: FMM=F IPFlag=           0 FMFlag=      100000 FMFlg1=           0
         NFxFlg=           0 DoJE=T BraDBF=F KetDBF=T FulRan=T
         Omega=  0.000000  0.000000  1.000000  0.000000  0.000000 ICntrl=     500 IOpCl=  0
         NMat0=    1 NMatS0=    1 NMatT0=    0 NMatD0=    1 NMtDS0=    0 NMtDT0=    0
         I1Cent=           4 NGrid=           0.
 Petite list used in FoFCou.
 Harris En= -724.551704898623    
 Initial guess orbital symmetries:
       Occupied  (A) (A) (A) (A) (A) (A) (A) (A) (A) (A) (A) (A)
                 (A) (A) (A) (A) (A) (A) (A) (A) (A) (A) (A) (A)
                 (A) (A) (A) (A) (A) (A) (A) (A) (A) (A) (A) (A)
                 (A) (A) (A) (A) (A) (A) (A) (A) (A) (A) (A) (A)
                 (A) (A) (A) (A) (A) (A) (A) (A) (A)
       Virtual   (A) (A) (A) (A) (A) (A) (A) (A) (A) (A) (A) (A)
                 (A) (A) (A) (A) (A) (A) (A) (A) (A) (A) (A) (A)
                 (A) (A) (A) (A) (A) (A) (A) (A) (A) (A) (A) (A)
                 (A) (A) (A) (A) (A) (A) (A) (A) (A) (A) (A) (A)
                 (A) (A) (A) (A) (A) (A) (A) (A) (A) (A) (A) (A)
                 (A) (A) (A) (A) (A) (A) (A) (A) (A) (A) (A) (A)
                 (A) (A) (A) (A) (A) (A) (A) (A) (A) (A) (A) (A)
                 (A) (A) (A) (A) (A) (A) (A) (A) (A) (A) (A) (A)
                 (A) (A) (A) (A) (A) (A) (A) (A) (A) (A) (A) (A)
                 (A) (A) (A) (A) (A) (A) (A) (A) (A) (A) (A) (A)
                 (A) (A) (A) (A) (A) (A) (A) (A) (A) (A) (A) (A)
                 (A) (A) (A) (A) (A) (A) (A) (A) (A) (A) (A) (A)
                 (A) (A) (A) (A) (A) (A) (A) (A) (A) (A) (A) (A)
                 (A) (A) (A) (A) (A) (A) (A) (A) (A) (A) (A) (A)
                 (A) (A) (A) (A) (A) (A) (A) (A) (A) (A) (A) (A)
                 (A) (A) (A) (A) (A) (A) (A) (A) (A) (A) (A) (A)
                 (A) (A) (A) (A) (A) (A) (A) (A) (A) (A) (A) (A)
                 (A) (A) (A)
 The electronic state of the initial guess is 1-A.
 Leave Link  401 at Wed Sep 29 21:52:04 2021, MaxMem= 1073741824 cpu:      10.0
 (Enter /sw/target/amd/app/gaussian/Gaussian09RevA.02_gcc-4.9.2/g09/l502.exe)
 Closed shell SCF:
 Requested convergence on RMS density matrix=1.00D-08 within  64 cycles.
 Requested convergence on MAX density matrix=1.00D-06.
 Requested convergence on             energy=1.00D-06.
 No special actions if energy rises.
 Using DIIS extrapolation, IDIIS=  1040.
 Integral symmetry usage will be decided dynamically.
       238545 words used for storage of precomputed grid.
 Keep R1 ints in memory in canonical form, NReq=621579131.
 IEnd=      456747 IEndB=      456747 NGot=  1073741824 MDV=   461541544
 LenX=   461541544 LenY=   461471407
 Symmetry not used in FoFDir.
 MinBra= 0 MaxBra= 2 Meth= 1.
 IRaf=       0 NMat=   1 IRICut=       1 DoRegI=T DoRafI=F ISym2E= 0 JSym2E=0.
 Integral accuracy reduced to 1.0D-05 until final iterations.

 Cycle   1  Pass 0  IDiag  1:
 E= -724.074386460072    
 DIIS: error= 4.24D-02 at cycle   1 NSaved=   1.
 NSaved= 1 IEnMin= 1 EnMin= -724.074386460072     IErMin= 1 ErrMin= 4.24D-02
 ErrMax= 4.24D-02 EMaxC= 1.00D-01 BMatC= 4.06D-01 BMatP= 4.06D-01
 IDIUse=3 WtCom= 5.76D-01 WtEn= 4.24D-01
 Coeff-Com:  0.100D+01
 Coeff-En:   0.100D+01
 Coeff:      0.100D+01
 Gap=     0.183 Goal=   None    Shift=    0.000
 GapD=    0.183 DampG=1.000 DampE=0.500 DampFc=0.5000 IDamp=-1.
 Damping current iteration by 5.00D-01
 RMSDP=6.11D-03 MaxDP=1.94D-01              OVMax= 2.40D-01

 Cycle   2  Pass 0  IDiag  1:
 E= -724.184486082075     Delta-E=       -0.110099622003 Rises=F Damp=T
 DIIS: error= 1.34D-02 at cycle   2 NSaved=   2.
 NSaved= 2 IEnMin= 2 EnMin= -724.184486082075     IErMin= 2 ErrMin= 1.34D-02
 ErrMax= 1.34D-02 EMaxC= 1.00D-01 BMatC= 7.19D-02 BMatP= 4.06D-01
 IDIUse=3 WtCom= 8.66D-01 WtEn= 1.34D-01
 Coeff-Com:  0.218D+00 0.782D+00
 Coeff-En:   0.330D+00 0.670D+00
 Coeff:      0.233D+00 0.767D+00
 Gap=     0.189 Goal=   None    Shift=    0.000
 RMSDP=2.15D-03 MaxDP=6.20D-02 DE=-1.10D-01 OVMax= 2.93D-01

 Cycle   3  Pass 0  IDiag  1:
 E= -724.395860839710     Delta-E=       -0.211374757635 Rises=F Damp=F
 DIIS: error= 1.63D-02 at cycle   3 NSaved=   3.
 NSaved= 3 IEnMin= 3 EnMin= -724.395860839710     IErMin= 2 ErrMin= 1.34D-02
 ErrMax= 1.63D-02 EMaxC= 1.00D-01 BMatC= 7.84D-02 BMatP= 7.19D-02
 IDIUse=3 WtCom= 8.37D-01 WtEn= 1.63D-01
 Coeff-Com:  0.622D-01 0.499D+00 0.439D+00
 Coeff-En:   0.000D+00 0.000D+00 0.100D+01
 Coeff:      0.521D-01 0.417D+00 0.530D+00
 Gap=     0.163 Goal=   None    Shift=    0.000
 RMSDP=1.52D-03 MaxDP=5.33D-02 DE=-2.11D-01 OVMax= 1.10D-01

 Cycle   4  Pass 0  IDiag  1:
 E= -724.448993087589     Delta-E=       -0.053132247879 Rises=F Damp=F
 DIIS: error= 8.06D-03 at cycle   4 NSaved=   4.
 NSaved= 4 IEnMin= 4 EnMin= -724.448993087589     IErMin= 4 ErrMin= 8.06D-03
 ErrMax= 8.06D-03 EMaxC= 1.00D-01 BMatC= 2.03D-02 BMatP= 7.19D-02
 IDIUse=3 WtCom= 9.19D-01 WtEn= 8.06D-02
 Coeff-Com:  0.189D-01 0.106D+00 0.338D+00 0.537D+00
 Coeff-En:   0.000D+00 0.000D+00 0.242D+00 0.758D+00
 Coeff:      0.174D-01 0.975D-01 0.330D+00 0.555D+00
 Gap=     0.161 Goal=   None    Shift=    0.000
 RMSDP=5.86D-04 MaxDP=1.87D-02 DE=-5.31D-02 OVMax= 4.32D-02

 Cycle   5  Pass 0  IDiag  1:
 E= -724.465466858668     Delta-E=       -0.016473771079 Rises=F Damp=F
 DIIS: error= 1.27D-03 at cycle   5 NSaved=   5.
 NSaved= 5 IEnMin= 5 EnMin= -724.465466858668     IErMin= 5 ErrMin= 1.27D-03
 ErrMax= 1.27D-03 EMaxC= 1.00D-01 BMatC= 9.59D-04 BMatP= 2.03D-02
 IDIUse=3 WtCom= 9.87D-01 WtEn= 1.27D-02
 Coeff-Com:  0.465D-02 0.869D-02 0.137D+00 0.315D+00 0.535D+00
 Coeff-En:   0.000D+00 0.000D+00 0.000D+00 0.000D+00 0.100D+01
 Coeff:      0.459D-02 0.857D-02 0.135D+00 0.311D+00 0.541D+00
 Gap=     0.160 Goal=   None    Shift=    0.000
 RMSDP=1.59D-04 MaxDP=7.01D-03 DE=-1.65D-02 OVMax= 1.25D-02

 Cycle   6  Pass 0  IDiag  1:
 E= -724.466265871431     Delta-E=       -0.000799012764 Rises=F Damp=F
 DIIS: error= 4.94D-04 at cycle   6 NSaved=   6.
 NSaved= 6 IEnMin= 6 EnMin= -724.466265871431     IErMin= 6 ErrMin= 4.94D-04
 ErrMax= 4.94D-04 EMaxC= 1.00D-01 BMatC= 9.89D-05 BMatP= 9.59D-04
 IDIUse=3 WtCom= 9.95D-01 WtEn= 4.94D-03
 Coeff-Com:  0.145D-02-0.405D-02 0.487D-01 0.128D+00 0.318D+00 0.508D+00
 Coeff-En:   0.000D+00 0.000D+00 0.000D+00 0.000D+00 0.575D-01 0.943D+00
 Coeff:      0.144D-02-0.403D-02 0.484D-01 0.127D+00 0.316D+00 0.510D+00
 Gap=     0.160 Goal=   None    Shift=    0.000
 RMSDP=5.44D-05 MaxDP=2.93D-03 DE=-7.99D-04 OVMax= 4.90D-03

 Cycle   7  Pass 0  IDiag  1:
 E= -724.466345520464     Delta-E=       -0.000079649033 Rises=F Damp=F
 DIIS: error= 1.59D-04 at cycle   7 NSaved=   7.
 NSaved= 7 IEnMin= 7 EnMin= -724.466345520464     IErMin= 7 ErrMin= 1.59D-04
 ErrMax= 1.59D-04 EMaxC= 1.00D-01 BMatC= 1.74D-05 BMatP= 9.89D-05
 IDIUse=3 WtCom= 9.98D-01 WtEn= 1.59D-03
 Coeff-Com:  0.389D-03-0.344D-02 0.131D-01 0.381D-01 0.136D+00 0.341D+00
 Coeff-Com:  0.475D+00
 Coeff-En:   0.000D+00 0.000D+00 0.000D+00 0.000D+00 0.000D+00 0.142D+00
 Coeff-En:   0.858D+00
 Coeff:      0.388D-03-0.343D-02 0.130D-01 0.381D-01 0.136D+00 0.340D+00
 Coeff:      0.476D+00
 Gap=     0.160 Goal=   None    Shift=    0.000
 RMSDP=1.86D-05 MaxDP=8.23D-04 DE=-7.96D-05 OVMax= 1.75D-03

 Cycle   8  Pass 0  IDiag  1:
 E= -724.466360987090     Delta-E=       -0.000015466626 Rises=F Damp=F
 DIIS: error= 5.55D-05 at cycle   8 NSaved=   8.
 NSaved= 8 IEnMin= 8 EnMin= -724.466360987090     IErMin= 8 ErrMin= 5.55D-05
 ErrMax= 5.55D-05 EMaxC= 1.00D-01 BMatC= 7.45D-07 BMatP= 1.74D-05
 IDIUse=1 WtCom= 1.00D+00 WtEn= 0.00D+00
 Coeff-Com:  0.166D-03-0.153D-02 0.338D-02 0.100D-01 0.491D-01 0.139D+00
 Coeff-Com:  0.242D+00 0.558D+00
 Coeff:      0.166D-03-0.153D-02 0.338D-02 0.100D-01 0.491D-01 0.139D+00
 Coeff:      0.242D+00 0.558D+00
 Gap=     0.160 Goal=   None    Shift=    0.000
 RMSDP=4.41D-06 MaxDP=1.39D-04 DE=-1.55D-05 OVMax= 3.73D-04

 Initial convergence to 1.0D-05 achieved.  Increase integral accuracy.
 Cycle   9  Pass 1  IDiag  1:
 E= -724.466306804861     Delta-E=        0.000054182229 Rises=F Damp=F
 DIIS: error= 2.72D-05 at cycle   1 NSaved=   1.
 NSaved= 1 IEnMin= 1 EnMin= -724.466306804861     IErMin= 1 ErrMin= 2.72D-05
 ErrMax= 2.72D-05 EMaxC= 1.00D-01 BMatC= 2.90D-07 BMatP= 2.90D-07
 IDIUse=1 WtCom= 1.00D+00 WtEn= 0.00D+00
 Coeff-Com:  0.100D+01
 Coeff:      0.100D+01
 Gap=     0.160 Goal=   None    Shift=    0.000
 RMSDP=4.41D-06 MaxDP=1.39D-04 DE= 5.42D-05 OVMax= 3.42D-04

 Cycle  10  Pass 1  IDiag  1:
 E= -724.466306679991     Delta-E=        0.000000124869 Rises=F Damp=F
 DIIS: error= 3.83D-05 at cycle   2 NSaved=   2.
 NSaved= 2 IEnMin= 1 EnMin= -724.466306804861     IErMin= 1 ErrMin= 2.72D-05
 ErrMax= 3.83D-05 EMaxC= 1.00D-01 BMatC= 5.06D-07 BMatP= 2.90D-07
 IDIUse=1 WtCom= 1.00D+00 WtEn= 0.00D+00
 Coeff-Com:  0.584D+00 0.416D+00
 Coeff:      0.584D+00 0.416D+00
 Gap=     0.160 Goal=   None    Shift=    0.000
 RMSDP=3.24D-06 MaxDP=1.20D-04 DE= 1.25D-07 OVMax= 2.72D-04

 Cycle  11  Pass 1  IDiag  1:
 E= -724.466307110319     Delta-E=       -0.000000430328 Rises=F Damp=F
 DIIS: error= 1.24D-05 at cycle   3 NSaved=   3.
 NSaved= 3 IEnMin= 3 EnMin= -724.466307110319     IErMin= 3 ErrMin= 1.24D-05
 ErrMax= 1.24D-05 EMaxC= 1.00D-01 BMatC= 4.16D-08 BMatP= 2.90D-07
 IDIUse=1 WtCom= 1.00D+00 WtEn= 0.00D+00
 Coeff-Com:  0.325D-01 0.220D+00 0.748D+00
 Coeff:      0.325D-01 0.220D+00 0.748D+00
 Gap=     0.160 Goal=   None    Shift=    0.000
 RMSDP=9.84D-07 MaxDP=4.06D-05 DE=-4.30D-07 OVMax= 8.51D-05

 Cycle  12  Pass 1  IDiag  1:
 E= -724.466307140267     Delta-E=       -0.000000029948 Rises=F Damp=F
 DIIS: error= 3.68D-06 at cycle   4 NSaved=   4.
 NSaved= 4 IEnMin= 4 EnMin= -724.466307140267     IErMin= 4 ErrMin= 3.68D-06
 ErrMax= 3.68D-06 EMaxC= 1.00D-01 BMatC= 8.86D-09 BMatP= 4.16D-08
 IDIUse=1 WtCom= 1.00D+00 WtEn= 0.00D+00
 Coeff-Com: -0.138D-01 0.117D+00 0.480D+00 0.417D+00
 Coeff:     -0.138D-01 0.117D+00 0.480D+00 0.417D+00
 Gap=     0.160 Goal=   None    Shift=    0.000
 RMSDP=3.98D-07 MaxDP=1.57D-05 DE=-2.99D-08 OVMax= 2.92D-05

 Cycle  13  Pass 1  IDiag  1:
 E= -724.466307147693     Delta-E=       -0.000000007426 Rises=F Damp=F
 DIIS: error= 6.92D-07 at cycle   5 NSaved=   5.
 NSaved= 5 IEnMin= 5 EnMin= -724.466307147693     IErMin= 5 ErrMin= 6.92D-07
 ErrMax= 6.92D-07 EMaxC= 1.00D-01 BMatC= 3.54D-10 BMatP= 8.86D-09
 IDIUse=1 WtCom= 1.00D+00 WtEn= 0.00D+00
 Coeff-Com: -0.982D-02 0.524D-01 0.225D+00 0.237D+00 0.495D+00
 Coeff:     -0.982D-02 0.524D-01 0.225D+00 0.237D+00 0.495D+00
 Gap=     0.160 Goal=   None    Shift=    0.000
 RMSDP=9.49D-08 MaxDP=4.26D-06 DE=-7.43D-09 OVMax= 6.46D-06

 Cycle  14  Pass 1  IDiag  1:
 E= -724.466307148002     Delta-E=       -0.000000000309 Rises=F Damp=F
 DIIS: error= 2.57D-07 at cycle   6 NSaved=   6.
 NSaved= 6 IEnMin= 6 EnMin= -724.466307148002     IErMin= 6 ErrMin= 2.57D-07
 ErrMax= 2.57D-07 EMaxC= 1.00D-01 BMatC= 2.51D-11 BMatP= 3.54D-10
 IDIUse=1 WtCom= 1.00D+00 WtEn= 0.00D+00
 Coeff-Com: -0.362D-02 0.161D-01 0.701D-01 0.794D-01 0.261D+00 0.577D+00
 Coeff:     -0.362D-02 0.161D-01 0.701D-01 0.794D-01 0.261D+00 0.577D+00
 Gap=     0.160 Goal=   None    Shift=    0.000
 RMSDP=2.53D-08 MaxDP=9.03D-07 DE=-3.09D-10 OVMax= 1.54D-06

 Cycle  15  Pass 1  IDiag  1:
 E= -724.466307148035     Delta-E=       -0.000000000033 Rises=F Damp=F
 DIIS: error= 6.45D-08 at cycle   7 NSaved=   7.
 NSaved= 7 IEnMin= 7 EnMin= -724.466307148035     IErMin= 7 ErrMin= 6.45D-08
 ErrMax= 6.45D-08 EMaxC= 1.00D-01 BMatC= 2.03D-12 BMatP= 2.51D-11
 IDIUse=1 WtCom= 1.00D+00 WtEn= 0.00D+00
 Coeff-Com: -0.101D-02 0.378D-02 0.167D-01 0.188D-01 0.886D-01 0.282D+00
 Coeff-Com:  0.591D+00
 Coeff:     -0.101D-02 0.378D-02 0.167D-01 0.188D-01 0.886D-01 0.282D+00
 Coeff:      0.591D+00
 Gap=     0.160 Goal=   None    Shift=    0.000
 RMSDP=8.57D-09 MaxDP=3.12D-07 DE=-3.34D-11 OVMax= 8.70D-07

 SCF Done:  E(RB3LYP) =  -724.466307148     A.U. after   15 cycles
             Convg  =    0.8571D-08             -V/T =  2.0095
 KE= 7.176780034625D+02 PE=-3.775621022186D+03 EE= 1.288353364166D+03
 Leave Link  502 at Wed Sep 29 22:04:48 2021, MaxMem= 1073741824 cpu:     303.0
 (Enter /sw/target/amd/app/gaussian/Gaussian09RevA.02_gcc-4.9.2/g09/l508.exe)
 QCSCF skips out because SCF is already converged.
 Leave Link  508 at Wed Sep 29 22:04:49 2021, MaxMem= 1073741824 cpu:       0.0
 (Enter /sw/target/amd/app/gaussian/Gaussian09RevA.02_gcc-4.9.2/g09/l601.exe)
 Copying SCF densities to generalized density rwf, IOpCl= 0 IROHF=0.

 **********************************************************************

            Population analysis using the SCF density.

 **********************************************************************

 Orbital symmetries:
       Occupied  (A) (A) (A) (A) (A) (A) (A) (A) (A) (A) (A) (A)
                 (A) (A) (A) (A) (A) (A) (A) (A) (A) (A) (A) (A)
                 (A) (A) (A) (A) (A) (A) (A) (A) (A) (A) (A) (A)
                 (A) (A) (A) (A) (A) (A) (A) (A) (A) (A) (A) (A)
                 (A) (A) (A) (A) (A) (A) (A) (A) (A)
       Virtual   (A) (A) (A) (A) (A) (A) (A) (A) (A) (A) (A) (A)
                 (A) (A) (A) (A) (A) (A) (A) (A) (A) (A) (A) (A)
                 (A) (A) (A) (A) (A) (A) (A) (A) (A) (A) (A) (A)
                 (A) (A) (A) (A) (A) (A) (A) (A) (A) (A) (A) (A)
                 (A) (A) (A) (A) (A) (A) (A) (A) (A) (A) (A) (A)
                 (A) (A) (A) (A) (A) (A) (A) (A) (A) (A) (A) (A)
                 (A) (A) (A) (A) (A) (A) (A) (A) (A) (A) (A) (A)
                 (A) (A) (A) (A) (A) (A) (A) (A) (A) (A) (A) (A)
                 (A) (A) (A) (A) (A) (A) (A) (A) (A) (A) (A) (A)
                 (A) (A) (A) (A) (A) (A) (A) (A) (A) (A) (A) (A)
                 (A) (A) (A) (A) (A) (A) (A) (A) (A) (A) (A) (A)
                 (A) (A) (A) (A) (A) (A) (A) (A) (A) (A) (A) (A)
                 (A) (A) (A) (A) (A) (A) (A) (A) (A) (A) (A) (A)
                 (A) (A) (A) (A) (A) (A) (A) (A) (A) (A) (A) (A)
                 (A) (A) (A) (A) (A) (A) (A) (A) (A) (A) (A) (A)
                 (A) (A) (A) (A) (A) (A) (A) (A) (A) (A) (A) (A)
                 (A) (A) (A) (A) (A) (A) (A) (A) (A) (A) (A) (A)
                 (A) (A) (A)
 The electronic state is 1-A.
 Alpha  occ. eigenvalues --  -19.20223 -19.12026 -14.37508 -14.32567 -10.34040
 Alpha  occ. eigenvalues --  -10.26010 -10.22649 -10.22306 -10.22250 -10.22013
 Alpha  occ. eigenvalues --  -10.21012 -10.20550 -10.19840 -10.19712 -10.19582
 Alpha  occ. eigenvalues --  -10.18510  -1.10061  -1.01245  -0.94285  -0.94024
 Alpha  occ. eigenvalues --   -0.84968  -0.80868  -0.76051  -0.74775  -0.72933
 Alpha  occ. eigenvalues --   -0.70149  -0.65359  -0.63207  -0.62261  -0.56411
 Alpha  occ. eigenvalues --   -0.53954  -0.52412  -0.51421  -0.50191  -0.48803
 Alpha  occ. eigenvalues --   -0.48165  -0.46265  -0.44538  -0.44122  -0.42751
 Alpha  occ. eigenvalues --   -0.41667  -0.41420  -0.41018  -0.40717  -0.40552
 Alpha  occ. eigenvalues --   -0.40238  -0.38681  -0.36460  -0.35933  -0.33949
 Alpha  occ. eigenvalues --   -0.31687  -0.29631  -0.27446  -0.25642  -0.25365
 Alpha  occ. eigenvalues --   -0.24522  -0.21809
 Alpha virt. eigenvalues --   -0.05785  -0.01043   0.02225   0.04618   0.08276
 Alpha virt. eigenvalues --    0.09201   0.09576   0.10507   0.12141   0.13585
 Alpha virt. eigenvalues --    0.14415   0.15290   0.15352   0.16809   0.17399
 Alpha virt. eigenvalues --    0.17578   0.18073   0.18689   0.19661   0.19989
 Alpha virt. eigenvalues --    0.22427   0.24414   0.24941   0.27309   0.29743
 Alpha virt. eigenvalues --    0.30833   0.31590   0.34121   0.35958   0.37009
 Alpha virt. eigenvalues --    0.39091   0.43455   0.44729   0.48036   0.48943
 Alpha virt. eigenvalues --    0.49800   0.49903   0.50862   0.51431   0.53469
 Alpha virt. eigenvalues --    0.53937   0.54952   0.55928   0.56993   0.57855
 Alpha virt. eigenvalues --    0.58850   0.59339   0.59648   0.59958   0.60729
 Alpha virt. eigenvalues --    0.62352   0.62692   0.63684   0.65170   0.66331
 Alpha virt. eigenvalues --    0.67174   0.67969   0.68728   0.69991   0.70740
 Alpha virt. eigenvalues --    0.71172   0.74252   0.78576   0.79488   0.80120
 Alpha virt. eigenvalues --    0.81145   0.82430   0.82831   0.83950   0.84727
 Alpha virt. eigenvalues --    0.85213   0.85903   0.87489   0.87791   0.88355
 Alpha virt. eigenvalues --    0.88639   0.89239   0.90438   0.91419   0.93170
 Alpha virt. eigenvalues --    0.95445   0.96005   0.97668   0.98832   1.00085
 Alpha virt. eigenvalues --    1.00225   1.03016   1.04107   1.04706   1.06724
 Alpha virt. eigenvalues --    1.11286   1.12011   1.13206   1.14800   1.17575
 Alpha virt. eigenvalues --    1.18900   1.21987   1.23280   1.23575   1.25215
 Alpha virt. eigenvalues --    1.27289   1.30355   1.34674   1.35756   1.38392
 Alpha virt. eigenvalues --    1.39434   1.40310   1.41857   1.42933   1.44400
 Alpha virt. eigenvalues --    1.46508   1.46918   1.47928   1.49095   1.49886
 Alpha virt. eigenvalues --    1.50970   1.51734   1.58494   1.60530   1.68157
 Alpha virt. eigenvalues --    1.71708   1.72286   1.75400   1.77282   1.78126
 Alpha virt. eigenvalues --    1.78590   1.80424   1.82731   1.84560   1.86638
 Alpha virt. eigenvalues --    1.89067   1.89753   1.90801   1.91919   1.93954
 Alpha virt. eigenvalues --    1.94293   1.95384   1.96009   1.98033   1.99134
 Alpha virt. eigenvalues --    2.01871   2.04620   2.06151   2.06554   2.07265
 Alpha virt. eigenvalues --    2.09821   2.12275   2.14430   2.15248   2.18072
 Alpha virt. eigenvalues --    2.19383   2.19750   2.20907   2.26092   2.26572
 Alpha virt. eigenvalues --    2.26893   2.28067   2.30632   2.32399   2.32913
 Alpha virt. eigenvalues --    2.36735   2.37776   2.39361   2.41678   2.42954
 Alpha virt. eigenvalues --    2.45160   2.50528   2.56647   2.58929   2.59858
 Alpha virt. eigenvalues --    2.61581   2.63891   2.64617   2.65282   2.69333
 Alpha virt. eigenvalues --    2.69932   2.72618   2.74674   2.77450   2.79987
 Alpha virt. eigenvalues --    2.82138   2.83937   2.91617   2.93980   2.95573
 Alpha virt. eigenvalues --    3.01555   3.08762   3.20300   3.21912   3.41635
 Alpha virt. eigenvalues --    3.48566   3.97937   4.06005   4.08368   4.10039
 Alpha virt. eigenvalues --    4.12476   4.14099   4.21334   4.22684   4.25668
 Alpha virt. eigenvalues --    4.31584   4.35005   4.38326   4.48665   4.50461
 Alpha virt. eigenvalues --    4.54117   4.83238
          Condensed to atoms (all electrons):
              1          2          3          4          5          6
     1  O    8.086808   0.557825  -0.086967  -0.007261   0.002459  -0.072938
     2  C    0.557825   4.163664   0.327152  -0.029343  -0.026242   0.246325
     3  N   -0.086967   0.327152   6.939214   0.302813   0.290432  -0.087320
     4  C   -0.007261  -0.029343   0.302813   4.967232  -0.052624   0.002376
     5  C    0.002459  -0.026242   0.290432  -0.052624   4.980189  -0.005221
     6  O   -0.072938   0.246325  -0.087320   0.002376  -0.005221   8.377741
     7  C    0.001396  -0.007900   0.001147  -0.000016   0.000471   0.204902
     8  C    0.004364  -0.003445   0.000066  -0.000003  -0.000015  -0.060129
     9  C   -0.000143   0.000133  -0.000004  -0.000000  -0.000000   0.004294
    10  C    0.000010   0.000007   0.000000   0.000000   0.000000   0.000011
    11  C   -0.000030   0.000068   0.000002  -0.000000  -0.000000   0.002968
    12  C   -0.001000  -0.001848  -0.000158   0.000003   0.000007  -0.056142
    13  C    0.000087  -0.000058  -0.000067  -0.000000  -0.000030  -0.001909
    14  C    0.000000   0.000010  -0.000000   0.000000  -0.000000   0.000458
    15  C   -0.000000   0.000000  -0.000000   0.000000   0.000000  -0.000007
    16  N    0.000000   0.000001  -0.000000   0.000000  -0.000000  -0.000026
    17  H    0.016261  -0.001481  -0.027859   0.372095   0.004055   0.000306
    18  H    0.000554   0.001636  -0.050704   0.379086  -0.002069  -0.000026
    19  H    0.000468   0.001168  -0.050273   0.378695  -0.000697  -0.000024
    20  H    0.000131  -0.005860  -0.023641   0.003688   0.374745   0.011890
    21  H   -0.000038  -0.000123  -0.051461  -0.000834   0.377256   0.000256
    22  H   -0.000019   0.001818  -0.047407  -0.002323   0.373491   0.000261
    23  H    0.003536   0.003121  -0.000447   0.000020   0.000004  -0.006564
    24  H   -0.000002  -0.000014  -0.000000   0.000000  -0.000000  -0.000054
    25  H    0.000000   0.000000   0.000000  -0.000000   0.000000   0.000002
    26  H   -0.000017   0.000098  -0.000007  -0.000001   0.000121   0.009146
    27  H   -0.000000  -0.000000  -0.000000   0.000000  -0.000000  -0.000003
    28  H    0.000000   0.000000   0.000000   0.000000  -0.000000  -0.000000
              7          8          9         10         11         12
     1  O    0.001396   0.004364  -0.000143   0.000010  -0.000030  -0.001000
     2  C   -0.007900  -0.003445   0.000133   0.000007   0.000068  -0.001848
     3  N    0.001147   0.000066  -0.000004   0.000000   0.000002  -0.000158
     4  C   -0.000016  -0.000003  -0.000000   0.000000  -0.000000   0.000003
     5  C    0.000471  -0.000015  -0.000000   0.000000  -0.000000   0.000007
     6  O    0.204902  -0.060129   0.004294   0.000011   0.002968  -0.056142
     7  C    4.851203   0.454746   0.013238  -0.066029   0.034895   0.352633
     8  C    0.454746   5.054557   0.451293  -0.018290  -0.061040  -0.018176
     9  C    0.013238   0.451293   4.920574   0.517077   0.005942  -0.044049
    10  C   -0.066029  -0.018290   0.517077   5.056000   0.465462  -0.054778
    11  C    0.034895  -0.061040   0.005942   0.465462   4.702801   0.390954
    12  C    0.352633  -0.018176  -0.044049  -0.054778   0.390954   4.980794
    13  C   -0.106706   0.014326  -0.001644   0.014219  -0.072760   0.434367
    14  C    0.008127  -0.000366   0.000055   0.000749  -0.029740  -0.005992
    15  C    0.000411   0.000021  -0.000179   0.004582  -0.060980  -0.034527
    16  N    0.012283  -0.000743   0.005838  -0.084465   0.389559  -0.046808
    17  H   -0.000005  -0.000003   0.000000  -0.000000   0.000000   0.000000
    18  H    0.000002   0.000000   0.000000  -0.000000   0.000000   0.000000
    19  H   -0.000000   0.000000  -0.000000   0.000000   0.000000  -0.000000
    20  H    0.000274  -0.000002  -0.000000   0.000000  -0.000002  -0.000057
    21  H    0.000004   0.000000  -0.000000   0.000000  -0.000000  -0.000006
    22  H   -0.000005   0.000002   0.000000  -0.000000   0.000000   0.000001
    23  H   -0.031144   0.352878  -0.040864   0.004218   0.000449   0.005022
    24  H    0.003426  -0.039647   0.359533  -0.034540   0.003295   0.000723
    25  H    0.000018   0.005516  -0.046296   0.342198  -0.032673   0.008273
    26  H   -0.012106   0.000378  -0.000027  -0.000144   0.004837  -0.042701
    27  H   -0.000069   0.000002  -0.000000   0.000009   0.000406   0.004172
    28  H    0.000041  -0.000001   0.000004  -0.000409   0.003097   0.001357
             13         14         15         16         17         18
     1  O    0.000087   0.000000  -0.000000   0.000000   0.016261   0.000554
     2  C   -0.000058   0.000010   0.000000   0.000001  -0.001481   0.001636
     3  N   -0.000067  -0.000000  -0.000000  -0.000000  -0.027859  -0.050704
     4  C   -0.000000   0.000000   0.000000   0.000000   0.372095   0.379086
     5  C   -0.000030  -0.000000   0.000000  -0.000000   0.004055  -0.002069
     6  O   -0.001909   0.000458  -0.000007  -0.000026   0.000306  -0.000026
     7  C   -0.106706   0.008127   0.000411   0.012283  -0.000005   0.000002
     8  C    0.014326  -0.000366   0.000021  -0.000743  -0.000003   0.000000
     9  C   -0.001644   0.000055  -0.000179   0.005838   0.000000   0.000000
    10  C    0.014219   0.000749   0.004582  -0.084465  -0.000000  -0.000000
    11  C   -0.072760  -0.029740  -0.060980   0.389559   0.000000   0.000000
    12  C    0.434367  -0.005992  -0.034527  -0.046808   0.000000   0.000000
    13  C    5.132264   0.505537  -0.030712  -0.068449  -0.000000  -0.000000
    14  C    0.505537   4.976672   0.468865  -0.020469  -0.000000  -0.000000
    15  C   -0.030712   0.468865   4.790512   0.480485   0.000000   0.000000
    16  N   -0.068449  -0.020469   0.480485   6.893744   0.000000  -0.000000
    17  H   -0.000000  -0.000000   0.000000   0.000000   0.478944  -0.024600
    18  H   -0.000000  -0.000000   0.000000  -0.000000  -0.024600   0.577807
    19  H    0.000000   0.000000  -0.000000  -0.000000  -0.023743  -0.043507
    20  H    0.000061   0.000001   0.000000   0.000000  -0.000174   0.000027
    21  H    0.000003   0.000000  -0.000000   0.000000  -0.000088  -0.001690
    22  H    0.000000  -0.000000   0.000000  -0.000000  -0.000055   0.007868
    23  H   -0.000100   0.000001  -0.000000   0.000002   0.000003   0.000001
    24  H    0.000011   0.000000   0.000002  -0.000117   0.000000  -0.000000
    25  H   -0.000123   0.000017   0.000214   0.001113  -0.000000  -0.000000
    26  H    0.363439  -0.048800   0.005222  -0.000277  -0.000000  -0.000000
    27  H   -0.038635   0.352948  -0.037518   0.004738   0.000000  -0.000000
    28  H    0.003153  -0.065147   0.375358  -0.050874   0.000000  -0.000000
             19         20         21         22         23         24
     1  O    0.000468   0.000131  -0.000038  -0.000019   0.003536  -0.000002
     2  C    0.001168  -0.005860  -0.000123   0.001818   0.003121  -0.000014
     3  N   -0.050273  -0.023641  -0.051461  -0.047407  -0.000447  -0.000000
     4  C    0.378695   0.003688  -0.000834  -0.002323   0.000020   0.000000
     5  C   -0.000697   0.374745   0.377256   0.373491   0.000004  -0.000000
     6  O   -0.000024   0.011890   0.000256   0.000261  -0.006564  -0.000054
     7  C   -0.000000   0.000274   0.000004  -0.000005  -0.031144   0.003426
     8  C    0.000000  -0.000002   0.000000   0.000002   0.352878  -0.039647
     9  C   -0.000000  -0.000000  -0.000000   0.000000  -0.040864   0.359533
    10  C    0.000000   0.000000   0.000000  -0.000000   0.004218  -0.034540
    11  C    0.000000  -0.000002  -0.000000   0.000000   0.000449   0.003295
    12  C   -0.000000  -0.000057  -0.000006   0.000001   0.005022   0.000723
    13  C    0.000000   0.000061   0.000003   0.000000  -0.000100   0.000011
    14  C    0.000000   0.000001   0.000000  -0.000000   0.000001   0.000000
    15  C   -0.000000   0.000000  -0.000000   0.000000  -0.000000   0.000002
    16  N   -0.000000   0.000000   0.000000  -0.000000   0.000002  -0.000117
    17  H   -0.023743  -0.000174  -0.000088  -0.000055   0.000003   0.000000
    18  H   -0.043507   0.000027  -0.001690   0.007868   0.000001  -0.000000
    19  H    0.577930  -0.000070   0.006800  -0.002392  -0.000000   0.000000
    20  H   -0.000070   0.491961  -0.026599  -0.024137   0.000007   0.000000
    21  H    0.006800  -0.026599   0.583430  -0.043895  -0.000001  -0.000000
    22  H   -0.002392  -0.024137  -0.043895   0.580264   0.000003   0.000000
    23  H   -0.000000   0.000007  -0.000001   0.000003   0.563329  -0.005155
    24  H    0.000000   0.000000  -0.000000   0.000000  -0.005155   0.576502
    25  H    0.000000  -0.000000   0.000000  -0.000000  -0.000153  -0.005780
    26  H    0.000000   0.000157   0.000007   0.000000  -0.000000   0.000000
    27  H    0.000000  -0.000000  -0.000000   0.000000  -0.000000   0.000000
    28  H   -0.000000  -0.000000  -0.000000  -0.000000  -0.000000  -0.000000
             25         26         27         28
     1  O    0.000000  -0.000017  -0.000000   0.000000
     2  C    0.000000   0.000098  -0.000000   0.000000
     3  N    0.000000  -0.000007  -0.000000   0.000000
     4  C   -0.000000  -0.000001   0.000000   0.000000
     5  C    0.000000   0.000121  -0.000000  -0.000000
     6  O    0.000002   0.009146  -0.000003  -0.000000
     7  C    0.000018  -0.012106  -0.000069   0.000041
     8  C    0.005516   0.000378   0.000002  -0.000001
     9  C   -0.046296  -0.000027  -0.000000   0.000004
    10  C    0.342198  -0.000144   0.000009  -0.000409
    11  C   -0.032673   0.004837   0.000406   0.003097
    12  C    0.008273  -0.042701   0.004172   0.001357
    13  C   -0.000123   0.363439  -0.038635   0.003153
    14  C    0.000017  -0.048800   0.352948  -0.065147
    15  C    0.000214   0.005222  -0.037518   0.375358
    16  N    0.001113  -0.000277   0.004738  -0.050874
    17  H   -0.000000  -0.000000   0.000000   0.000000
    18  H   -0.000000  -0.000000  -0.000000  -0.000000
    19  H    0.000000   0.000000   0.000000  -0.000000
    20  H   -0.000000   0.000157  -0.000000  -0.000000
    21  H    0.000000   0.000007  -0.000000  -0.000000
    22  H   -0.000000   0.000000   0.000000  -0.000000
    23  H   -0.000153  -0.000000  -0.000000  -0.000000
    24  H   -0.005780   0.000000   0.000000  -0.000000
    25  H    0.587090   0.000003  -0.000001  -0.000037
    26  H    0.000003   0.576751  -0.005666  -0.000187
    27  H   -0.000001  -0.005666   0.581799  -0.001984
    28  H   -0.000037  -0.000187  -0.001984   0.592742
 Mulliken atomic charges:
              1
     1  O   -0.505483
     2  C    0.773290
     3  N   -0.434510
     4  C   -0.313601
     5  C   -0.316333
     6  O   -0.570572
     7  C    0.284762
     8  C   -0.136289
     9  C   -0.144774
    10  C   -0.145887
    11  C    0.252492
    12  C    0.127938
    13  C   -0.146273
    14  C   -0.142923
    15  C    0.038252
    16  N   -0.515532
    17  H    0.206343
    18  H    0.155616
    19  H    0.155645
    20  H    0.197599
    21  H    0.156980
    22  H    0.156525
    23  H    0.151835
    24  H    0.141816
    25  H    0.140620
    26  H    0.149775
    27  H    0.139802
    28  H    0.142888
 Sum of Mulliken atomic charges =  -0.00000
 Mulliken charges with hydrogens summed into heavy atoms:
              1
     1  O   -0.505483
     2  C    0.773290
     3  N   -0.434510
     4  C    0.204004
     5  C    0.194771
     6  O   -0.570572
     7  C    0.284762
     8  C    0.015546
     9  C   -0.002959
    10  C   -0.005268
    11  C    0.252492
    12  C    0.127938
    13  C    0.003502
    14  C   -0.003121
    15  C    0.181141
    16  N   -0.515532
 Sum of Mulliken charges with hydrogens summed into heavy atoms =  -0.00000
 Electronic spatial extent (au):  <R**2>=           4132.8790
 Charge=             -0.0000 electrons
 Dipole moment (field-independent basis, Debye):
    X=             -3.0237    Y=             -2.2844    Z=              1.9114  Tot=              4.2444
 Quadrupole moment (field-independent basis, Debye-Ang):
   XX=            -85.2274   YY=            -81.4500   ZZ=            -95.5884
   XY=              1.0537   XZ=             -4.4617   YZ=              3.6066
 Traceless Quadrupole moment (field-independent basis, Debye-Ang):
   XX=              2.1945   YY=              5.9719   ZZ=             -8.1665
   XY=              1.0537   XZ=             -4.4617   YZ=              3.6066
 Octapole moment (field-independent basis, Debye-Ang**2):
  XXX=           -118.1032  YYY=              0.6737  ZZZ=              1.7174  XYY=             12.9691
  XXY=            -29.0665  XXZ=              3.0611  XZZ=            -13.1154  YZZ=             -5.5076
  YYZ=              3.9515  XYZ=              0.7337
 Hexadecapole moment (field-independent basis, Debye-Ang**3):
 XXXX=          -3948.1256 YYYY=          -1033.7563 ZZZZ=           -275.8217 XXXY=            -51.3802
 XXXZ=             -1.9850 YYYX=             -7.0796 YYYZ=             18.9253 ZZZX=             -3.9229
 ZZZY=             -9.1943 XXYY=           -794.5188 XXZZ=           -733.9776 YYZZ=           -251.2939
 XXYZ=             14.7231 YYXZ=            -10.6731 ZZXY=              8.2857
 N-N= 1.045123347409D+03 E-N=-3.775621034867D+03  KE= 7.176780034625D+02
 No NMR shielding tensors so no spin-rotation constants.
 Leave Link  601 at Wed Sep 29 22:04:51 2021, MaxMem= 1073741824 cpu:       1.3
 (Enter /sw/target/amd/app/gaussian/Gaussian09RevA.02_gcc-4.9.2/g09/l701.exe)
 Compute integral first derivatives.
 ... and contract with generalized density number  0.
 Leave Link  701 at Wed Sep 29 22:04:54 2021, MaxMem= 1073741824 cpu:       1.3
 (Enter /sw/target/amd/app/gaussian/Gaussian09RevA.02_gcc-4.9.2/g09/l702.exe)
 L702 exits ... SP integral derivatives will be done elsewhere.
 Leave Link  702 at Wed Sep 29 22:04:54 2021, MaxMem= 1073741824 cpu:       0.1
 (Enter /sw/target/amd/app/gaussian/Gaussian09RevA.02_gcc-4.9.2/g09/l703.exe)
 Compute integral first derivatives, UseDBF=F ICtDFT=           0.
 Integral derivatives from FoFDir, PRISM(SPDF).
 Calling FoFJK, ICntrl=      2127 FMM=F ISym2X=0 I1Cent= 0 IOpClX= 0 NMat=1 NMatS=1 NMatT=0.
 FoFCou: FMM=F IPFlag=           0 FMFlag=      100000 FMFlg1=         800
         NFxFlg=           0 DoJE=F BraDBF=F KetDBF=F FulRan=T
         Omega=  0.000000  0.000000  1.000000  0.000000  0.000000 ICntrl=    2127 IOpCl=  0
         NMat0=    1 NMatS0=    1 NMatT0=    0 NMatD0=    1 NMtDS0=    0 NMtDT0=    0
         I1Cent=           0 NGrid=           0.
 Symmetry not used in FoFCou.
 Leave Link  703 at Wed Sep 29 22:07:19 2021, MaxMem= 1073741824 cpu:     105.9
 (Enter /sw/target/amd/app/gaussian/Gaussian09RevA.02_gcc-4.9.2/g09/l716.exe)
 Dipole        =-1.18961903D+00-8.98740126D-01 7.52008691D-01
 ***** Axes restored to original set *****
 -------------------------------------------------------------------
 Center     Atomic                   Forces (Hartrees/Bohr)
 Number     Number              X              Y              Z
 -------------------------------------------------------------------
      1        8          -0.003617734    0.006237195    0.017203651
      2        6          -0.008542740   -0.003301074   -0.016332659
      3        7           0.036624935   -0.001244736    0.004239137
      4        6          -0.000354416    0.000772723    0.000624620
      5        6          -0.001643584   -0.001905948   -0.001266494
      6        8           0.002869449   -0.005044949   -0.002426688
      7        6          -0.013085527    0.016689679   -0.018118468
      8        6          -0.020150416   -0.008051932    0.008031254
      9        6           0.023553178   -0.008775931    0.014772123
     10        6           0.013123349    0.023692366   -0.031646496
     11        6           0.000678541   -0.000940154    0.002594549
     12        6          -0.022751573   -0.005731165    0.002990400
     13        6          -0.004944775   -0.010126620    0.012740474
     14        6          -0.026354874    0.003298945   -0.008672027
     15        6           0.035281650    0.019546004   -0.022245897
     16        7           0.002269287   -0.021262831    0.029976144
     17        1           0.004087611    0.001357432    0.004668097
     18        1          -0.003891469    0.000243050   -0.001993993
     19        1          -0.003951574   -0.000860212   -0.001133935
     20        1           0.001019378   -0.002725467   -0.004509405
     21        1          -0.004062346    0.001269940    0.004434095
     22        1          -0.003111399    0.001442183    0.001548887
     23        1          -0.001647288   -0.002788784    0.002149490
     24        1          -0.000277800   -0.000554475    0.000659930
     25        1          -0.001213459   -0.001839503    0.002072538
     26        1           0.000352911    0.002094018   -0.002278279
     27        1          -0.001123701   -0.000626892    0.000686023
     28        1           0.000864384   -0.000862861    0.001232931
 -------------------------------------------------------------------
 Cartesian Forces:  Max     0.036624935 RMS     0.011608411
 Leave Link  716 at Wed Sep 29 22:07:19 2021, MaxMem= 1073741824 cpu:       0.1
 (Enter /sw/target/amd/app/gaussian/Gaussian09RevA.02_gcc-4.9.2/g09/l103.exe)

 GradGradGradGradGradGradGradGradGradGradGradGradGradGradGradGradGradGrad
 Berny optimization.
 Internal  Forces:  Max     0.028999870 RMS     0.006819843
 Search for a local minimum.
 Step number   1 out of a maximum of  146
 All quantities printed in internal units (Hartrees-Bohrs-Radians)
 RMS Force = .68198D-02 SwitMx=.10000D-02 MixMth= 1
 Mixed Optimization -- RFO/linear search
 Second derivative matrix not updated -- first step.
     Eigenvalues ---    0.00984   0.01026   0.01225   0.01519   0.01770
     Eigenvalues ---    0.01808   0.01827   0.01969   0.01980   0.02003
     Eigenvalues ---    0.02074   0.02109   0.02149   0.02166   0.02185
     Eigenvalues ---    0.02193   0.02210   0.02232   0.02282   0.02348
     Eigenvalues ---    0.02352   0.07316   0.07397   0.07762   0.07785
     Eigenvalues ---    0.15998   0.16000   0.16000   0.16000   0.16000
     Eigenvalues ---    0.16000   0.16000   0.16000   0.16000   0.16000
     Eigenvalues ---    0.16000   0.16000   0.22062   0.22120   0.23355
     Eigenvalues ---    0.23508   0.24795   0.24869   0.24942   0.24994
     Eigenvalues ---    0.24997   0.25000   0.25000   0.25000   0.34267
     Eigenvalues ---    0.34342   0.34373   0.34388   0.34563   0.34631
     Eigenvalues ---    0.35053   0.35185   0.35195   0.35244   0.35284
     Eigenvalues ---    0.35540   0.37788   0.38199   0.38816   0.41222
     Eigenvalues ---    0.42749   0.43520   0.44418   0.45253   0.46007
     Eigenvalues ---    0.46611   0.46884   0.47277   0.47355   0.47978
     Eigenvalues ---    0.53283   0.54939   0.929091000.000001000.00000
     Eigenvalues --- 1000.000001000.000001000.000001000.000001000.00000
     Eigenvalues --- 1000.000001000.000001000.000001000.000001000.00000
     Eigenvalues --- 1000.000001000.000001000.000001000.000001000.00000
     Eigenvalues --- 1000.000001000.000001000.000001000.000001000.00000
     Eigenvalues --- 1000.000001000.000001000.000001000.000001000.00000
     Eigenvalues --- 1000.000001000.000001000.000001000.000001000.00000
     Eigenvalues --- 1000.000001000.000001000.000001000.000001000.00000
     Eigenvalues --- 1000.000001000.000001000.000001000.000001000.00000
     Eigenvalues --- 1000.000001000.000001000.000001000.000001000.00000
     Eigenvalues --- 1000.000001000.000001000.000001000.000001000.00000
     Eigenvalues --- 1000.000001000.000001000.000001000.000001000.00000
     Eigenvalues --- 1000.00000
 RFO step:  Lambda=-1.58422028D-02 EMin= 9.83830321D-03
 Linear search not attempted -- first point.
 Iteration  1 RMS(Cart)=  0.08419968 RMS(Int)=  0.00159655
 Iteration  2 RMS(Cart)=  0.00360196 RMS(Int)=  0.00023000
 Iteration  3 RMS(Cart)=  0.00000436 RMS(Int)=  0.00022998
 Iteration  4 RMS(Cart)=  0.00000000 RMS(Int)=  0.00022998
 Variable       Old X    -DE/DX   Delta X   Delta X   Delta X     New X
                                 (Linear)    (Quad)   (Total)
    R1        2.31620  -0.01834   0.00000  -0.01941  -0.01941   2.29680
    R2        2.62633  -0.02322   0.00000  -0.04746  -0.04746   2.57887
    R3        2.63449  -0.01329   0.00000  -0.02758  -0.02758   2.60690
    R4        2.74077   0.00089   0.00000   0.00223   0.00223   2.74300
    R5        2.74675   0.00216   0.00000   0.00550   0.00550   2.75225
    R6        2.06391  -0.00259   0.00000  -0.00716  -0.00716   2.05675
    R7        2.06882   0.00250   0.00000   0.00696   0.00696   2.07578
    R8        2.06706   0.00283   0.00000   0.00786   0.00786   2.07491
    R9        2.06278  -0.00287   0.00000  -0.00794  -0.00794   2.05485
   R10        2.06681   0.00348   0.00000   0.00967   0.00967   2.07648
   R11        2.06756   0.00254   0.00000   0.00707   0.00707   2.07463
   R12        2.67033  -0.01475   0.00000  -0.03270  -0.03270   2.63764
   R13        2.63655  -0.01346   0.00000  -0.03037  -0.03032   2.60623
   R14        2.67095   0.00053   0.00000   0.00083   0.00078   2.67173
   R15        2.62284   0.02275   0.00000   0.04417   0.04428   2.66712
   R16        2.05217  -0.00181   0.00000  -0.00492  -0.00492   2.04725
   R17        2.64159  -0.01459   0.00000  -0.03037  -0.03032   2.61127
   R18        2.05376  -0.00090   0.00000  -0.00244  -0.00244   2.05131
   R19        2.62537   0.02267   0.00000   0.04850   0.04845   2.67382
   R20        2.05589  -0.00148   0.00000  -0.00404  -0.00404   2.05184
   R21        2.66727   0.02315   0.00000   0.05540   0.05523   2.72250
   R22        2.54241   0.01600   0.00000   0.02853   0.02850   2.57091
   R23        2.66182   0.00246   0.00000   0.00658   0.00654   2.66836
   R24        2.62608  -0.00870   0.00000  -0.01866  -0.01863   2.60746
   R25        2.05359  -0.00084   0.00000  -0.00228  -0.00228   2.05131
   R26        2.60845   0.02900   0.00000   0.05532   0.05539   2.66384
   R27        2.04807   0.00127   0.00000   0.00341   0.00341   2.05148
   R28        2.55197  -0.02506   0.00000  -0.04537  -0.04533   2.50664
   R29        2.05280   0.00170   0.00000   0.00462   0.00462   2.05742
    A1        2.16106   0.00898   0.00000   0.03380   0.03357   2.19462
    A2        2.16458   0.00116   0.00000   0.00436   0.00414   2.16872
    A3        1.95755  -0.01014   0.00000  -0.03812  -0.03835   1.91920
    A4        2.08959  -0.00441   0.00000  -0.01655  -0.01657   2.07302
    A5        2.15533   0.00494   0.00000   0.01866   0.01864   2.17398
    A6        2.03807  -0.00052   0.00000  -0.00192  -0.00194   2.03614
    A7        1.95894  -0.01039   0.00000  -0.06214  -0.06178   1.89717
    A8        1.89673   0.00595   0.00000   0.03567   0.03548   1.93221
    A9        1.89874   0.00506   0.00000   0.02983   0.02956   1.92830
   A10        1.89938   0.00147   0.00000   0.00604   0.00647   1.90586
   A11        1.90167   0.00165   0.00000   0.00568   0.00596   1.90762
   A12        1.90792  -0.00370   0.00000  -0.01466  -0.01544   1.89248
   A13        1.96841  -0.00853   0.00000  -0.05054  -0.05021   1.91820
   A14        1.89432   0.00786   0.00000   0.04647   0.04641   1.94074
   A15        1.89877   0.00350   0.00000   0.02003   0.01974   1.91850
   A16        1.90156  -0.00009   0.00000  -0.00092  -0.00039   1.90117
   A17        1.89084   0.00157   0.00000   0.00542   0.00552   1.89636
   A18        1.90941  -0.00439   0.00000  -0.02071  -0.02137   1.88804
   A19        2.08517  -0.00473   0.00000  -0.01778  -0.01778   2.06739
   A20        2.08788   0.00997   0.00000   0.04111   0.04093   2.12880
   A21        2.06634  -0.01009   0.00000  -0.03499  -0.03532   2.03102
   A22        2.12170   0.00029   0.00000  -0.00149  -0.00172   2.11998
   A23        2.07816   0.00381   0.00000   0.00798   0.00813   2.08629
   A24        2.11238  -0.00533   0.00000  -0.02342  -0.02354   2.08884
   A25        2.09263   0.00152   0.00000   0.01554   0.01541   2.10804
   A26        2.09013   0.00596   0.00000   0.02252   0.02270   2.11283
   A27        2.09829  -0.00286   0.00000  -0.01056  -0.01066   2.08763
   A28        2.09469  -0.00310   0.00000  -0.01189  -0.01199   2.08270
   A29        2.13103  -0.00890   0.00000  -0.03139  -0.03137   2.09966
   A30        2.08158   0.00716   0.00000   0.03111   0.03109   2.11268
   A31        2.07055   0.00174   0.00000   0.00032   0.00030   2.07085
   A32        2.07097   0.00036   0.00000   0.00738   0.00729   2.07826
   A33        2.07260   0.00138   0.00000  -0.00241  -0.00230   2.07030
   A34        2.13955  -0.00173   0.00000  -0.00485  -0.00492   2.13463
   A35        2.07424  -0.00152   0.00000  -0.00492  -0.00500   2.06924
   A36        2.16181   0.00006   0.00000  -0.00536  -0.00523   2.15658
   A37        2.04712   0.00146   0.00000   0.01030   0.01024   2.05736
   A38        2.09782  -0.00594   0.00000  -0.02358  -0.02360   2.07422
   A39        2.10383  -0.00009   0.00000  -0.00559  -0.00558   2.09825
   A40        2.08151   0.00603   0.00000   0.02920   0.02920   2.11072
   A41        2.05739   0.00594   0.00000   0.02014   0.02023   2.07762
   A42        2.11689  -0.00371   0.00000  -0.01431  -0.01435   2.10254
   A43        2.10891  -0.00222   0.00000  -0.00584  -0.00588   2.10303
   A44        2.16159   0.00322   0.00000   0.00837   0.00845   2.17004
   A45        2.11364  -0.00196   0.00000  -0.00617  -0.00621   2.10743
   A46        2.00796  -0.00126   0.00000  -0.00220  -0.00225   2.00571
   A47        2.06286  -0.00294   0.00000  -0.01036  -0.01038   2.05248
    D1        0.03513  -0.00065   0.00000  -0.01821  -0.01832   0.01681
    D2       -3.08520  -0.00094   0.00000  -0.02860  -0.02873  -3.11393
    D3       -3.10722   0.00063   0.00000   0.01955   0.01968  -3.08754
    D4        0.05564   0.00034   0.00000   0.00915   0.00927   0.06491
    D5        0.20884  -0.00080   0.00000  -0.02396  -0.02422   0.18462
    D6       -2.93199  -0.00208   0.00000  -0.06182  -0.06155  -2.99355
    D7        0.04981  -0.00006   0.00000  -0.00454  -0.00454   0.04526
    D8       -2.05178   0.00067   0.00000   0.00318   0.00372  -2.04806
    D9        2.15561  -0.00120   0.00000  -0.01685  -0.01722   2.13839
   D10       -3.11165   0.00028   0.00000   0.00544   0.00532  -3.10633
   D11        1.06995   0.00101   0.00000   0.01315   0.01358   1.08353
   D12       -1.00584  -0.00087   0.00000  -0.00688  -0.00736  -1.01321
   D13        0.11567   0.00027   0.00000   0.00269   0.00256   0.11823
   D14       -1.99304   0.00044   0.00000   0.00422   0.00475  -1.98829
   D15        2.21393  -0.00080   0.00000  -0.00905  -0.00931   2.20462
   D16       -3.00524   0.00004   0.00000  -0.00725  -0.00747  -3.01272
   D17        1.16923   0.00021   0.00000  -0.00571  -0.00528   1.16395
   D18       -0.90698  -0.00103   0.00000  -0.01899  -0.01934  -0.92632
   D19        0.91785  -0.00057   0.00000  -0.01448  -0.01449   0.90336
[...]
 Box volume =10172.615 fraction occupied=0.166
 Integrated density= 5.3132908574328928D+02 error= 4.1732908574328928D+02
 Molar volume = 1691.520 bohr**3/mol (150.949 cm**3/mol)
 Recommended a0 for SCRF calculation =  4.81 angstrom (  9.08 bohr)
 Leave Link  604 at Thu Sep 30 06:47:51 2021, MaxMem= 1073741824 cpu:       0.3
 (Enter /sw/target/amd/app/gaussian/Gaussian09RevA.02_gcc-4.9.2/g09/l607.exe)
 ******************************Gaussian NBO Version 3.1******************************
             N A T U R A L   A T O M I C   O R B I T A L   A N D
          N A T U R A L   B O N D   O R B I T A L   A N A L Y S I S
 ******************************Gaussian NBO Version 3.1******************************
       /RESON  / : Allow strongly delocalized NBO set

 Analyzing the CI density

 Job title: O=C(N(C)C)Oc1cccc2c1cccn2_conf_0                                

 Storage needed:    211732 in NPA (1073737624 available)


 NATURAL POPULATIONS:  Natural atomic orbital occupancies 
                                                          
   NAO  Atom  No  lang   Type(AO)    Occupancy
 --------------------------------------------
     1    O    1  S      Cor( 1S)     1.99978
     2    O    1  S      Val( 2S)     1.70376
     3    O    1  S      Ryd( 3S)     0.00044
     4    O    1  S      Ryd( 4S)     0.00012
     5    O    1  px     Val( 2p)     1.79972
     6    O    1  px     Ryd( 3p)     0.00095
     7    O    1  py     Val( 2p)     1.55706
     8    O    1  py     Ryd( 3p)     0.00060
     9    O    1  pz     Val( 2p)     1.55220
    10    O    1  pz     Ryd( 3p)     0.00073
    11    O    1  dxy    Ryd( 3d)     0.00299
    12    O    1  dxz    Ryd( 3d)     0.00225
    13    O    1  dyz    Ryd( 3d)     0.00449
    14    O    1  dx2y2  Ryd( 3d)     0.00277
    15    O    1  dz2    Ryd( 3d)     0.00399

    16    C    2  S      Cor( 1S)     1.99936
    17    C    2  S      Val( 2S)     0.69446
    18    C    2  S      Ryd( 3S)     0.00259
    19    C    2  S      Ryd( 4S)     0.00047
    20    C    2  px     Val( 2p)     0.75328
    21    C    2  px     Ryd( 3p)     0.00626
    22    C    2  py     Val( 2p)     0.79181
    23    C    2  py     Ryd( 3p)     0.01321
    24    C    2  pz     Val( 2p)     0.78009
    25    C    2  pz     Ryd( 3p)     0.01066
    26    C    2  dxy    Ryd( 3d)     0.00303
    27    C    2  dxz    Ryd( 3d)     0.00321
    28    C    2  dyz    Ryd( 3d)     0.00087
    29    C    2  dx2y2  Ryd( 3d)     0.00218
    30    C    2  dz2    Ryd( 3d)     0.00230

    31    N    3  S      Cor( 1S)     1.99932
    32    N    3  S      Val( 2S)     1.20795
    33    N    3  S      Ryd( 3S)     0.00118
    34    N    3  S      Ryd( 4S)     0.00004
    35    N    3  px     Val( 2p)     1.31413
    36    N    3  px     Ryd( 3p)     0.00132
    37    N    3  py     Val( 2p)     1.44431
    38    N    3  py     Ryd( 3p)     0.00233
    39    N    3  pz     Val( 2p)     1.49541
    40    N    3  pz     Ryd( 3p)     0.00308
    41    N    3  dxy    Ryd( 3d)     0.00069
    42    N    3  dxz    Ryd( 3d)     0.00074
    43    N    3  dyz    Ryd( 3d)     0.00055
    44    N    3  dx2y2  Ryd( 3d)     0.00060
    45    N    3  dz2    Ryd( 3d)     0.00043

    46    C    4  S      Cor( 1S)     1.99946
    47    C    4  S      Val( 2S)     1.08877
    48    C    4  S      Ryd( 3S)     0.00094
    49    C    4  S      Ryd( 4S)     0.00002
    50    C    4  px     Val( 2p)     0.94910
    51    C    4  px     Ryd( 3p)     0.00205
    52    C    4  py     Val( 2p)     1.25121
    53    C    4  py     Ryd( 3p)     0.00244
    54    C    4  pz     Val( 2p)     1.17080
    55    C    4  pz     Ryd( 3p)     0.00191
    56    C    4  dxy    Ryd( 3d)     0.00066
    57    C    4  dxz    Ryd( 3d)     0.00146
    58    C    4  dyz    Ryd( 3d)     0.00103
    59    C    4  dx2y2  Ryd( 3d)     0.00109
    60    C    4  dz2    Ryd( 3d)     0.00037

    61    C    5  S      Cor( 1S)     1.99946
    62    C    5  S      Val( 2S)     1.08736
    63    C    5  S      Ryd( 3S)     0.00101
    64    C    5  S      Ryd( 4S)     0.00002
    65    C    5  px     Val( 2p)     1.26863
    66    C    5  px     Ryd( 3p)     0.00313
    67    C    5  py     Val( 2p)     1.01789
    68    C    5  py     Ryd( 3p)     0.00143
    69    C    5  pz     Val( 2p)     1.08890
    70    C    5  pz     Ryd( 3p)     0.00141
    71    C    5  dxy    Ryd( 3d)     0.00023
    72    C    5  dxz    Ryd( 3d)     0.00111
    73    C    5  dyz    Ryd( 3d)     0.00129
    74    C    5  dx2y2  Ryd( 3d)     0.00140
    75    C    5  dz2    Ryd( 3d)     0.00059

    76    O    6  S      Cor( 1S)     1.99969
    77    O    6  S      Val( 2S)     1.60006
    78    O    6  S      Ryd( 3S)     0.00093
    79    O    6  S      Ryd( 4S)     0.00012
    80    O    6  px     Val( 2p)     1.42315
    81    O    6  px     Ryd( 3p)     0.00087
    82    O    6  py     Val( 2p)     1.78265
    83    O    6  py     Ryd( 3p)     0.00188
    84    O    6  pz     Val( 2p)     1.70095
    85    O    6  pz     Ryd( 3p)     0.00134
    86    O    6  dxy    Ryd( 3d)     0.00106
    87    O    6  dxz    Ryd( 3d)     0.00071
    88    O    6  dyz    Ryd( 3d)     0.00123
    89    O    6  dx2y2  Ryd( 3d)     0.00098
    90    O    6  dz2    Ryd( 3d)     0.00116

    91    C    7  S      Cor( 1S)     1.99865
    92    C    7  S      Val( 2S)     0.83771
    93    C    7  S      Ryd( 3S)     0.00121
    94    C    7  S      Ryd( 4S)     0.00017
    95    C    7  px     Val( 2p)     0.80091
    96    C    7  px     Ryd( 3p)     0.00567
    97    C    7  py     Val( 2p)     1.01054
    98    C    7  py     Ryd( 3p)     0.00612
    99    C    7  pz     Val( 2p)     0.92743
   100    C    7  pz     Ryd( 3p)     0.00276
   101    C    7  dxy    Ryd( 3d)     0.00169
   102    C    7  dxz    Ryd( 3d)     0.00121
   103    C    7  dyz    Ryd( 3d)     0.00106
   104    C    7  dx2y2  Ryd( 3d)     0.00150
   105    C    7  dz2    Ryd( 3d)     0.00052

   106    C    8  S      Cor( 1S)     1.99901
   107    C    8  S      Val( 2S)     0.97218
   108    C    8  S      Ryd( 3S)     0.00075
   109    C    8  S      Ryd( 4S)     0.00005
   110    C    8  px     Val( 2p)     1.16691
   111    C    8  px     Ryd( 3p)     0.00430
   112    C    8  py     Val( 2p)     1.10066
   113    C    8  py     Ryd( 3p)     0.00437
   114    C    8  pz     Val( 2p)     0.98716
   115    C    8  pz     Ryd( 3p)     0.00178
   116    C    8  dxy    Ryd( 3d)     0.00061
   117    C    8  dxz    Ryd( 3d)     0.00049
   118    C    8  dyz    Ryd( 3d)     0.00069
   119    C    8  dx2y2  Ryd( 3d)     0.00081
   120    C    8  dz2    Ryd( 3d)     0.00044

   121    C    9  S      Cor( 1S)     1.99914
   122    C    9  S      Val( 2S)     0.96831
   123    C    9  S      Ryd( 3S)     0.00058
   124    C    9  S      Ryd( 4S)     0.00004
   125    C    9  px     Val( 2p)     1.05166
   126    C    9  px     Ryd( 3p)     0.00469
   127    C    9  py     Val( 2p)     1.19922
   128    C    9  py     Ryd( 3p)     0.00511
   129    C    9  pz     Val( 2p)     1.00693
   130    C    9  pz     Ryd( 3p)     0.00138
   131    C    9  dxy    Ryd( 3d)     0.00066
   132    C    9  dxz    Ryd( 3d)     0.00065
   133    C    9  dyz    Ryd( 3d)     0.00041
   134    C    9  dx2y2  Ryd( 3d)     0.00084
   135    C    9  dz2    Ryd( 3d)     0.00045

   136    C   10  S      Cor( 1S)     1.99903
   137    C   10  S      Val( 2S)     0.97827
   138    C   10  S      Ryd( 3S)     0.00089
   139    C   10  S      Ryd( 4S)     0.00006
   140    C   10  px     Val( 2p)     1.17524
   141    C   10  px     Ryd( 3p)     0.00510
   142    C   10  py     Val( 2p)     1.07302
   143    C   10  py     Ryd( 3p)     0.00465
   144    C   10  pz     Val( 2p)     0.87295
   145    C   10  pz     Ryd( 3p)     0.00211
   146    C   10  dxy    Ryd( 3d)     0.00076
   147    C   10  dxz    Ryd( 3d)     0.00050
   148    C   10  dyz    Ryd( 3d)     0.00058
   149    C   10  dx2y2  Ryd( 3d)     0.00081
   150    C   10  dz2    Ryd( 3d)     0.00044

   151    C   11  S      Cor( 1S)     1.99904
   152    C   11  S      Val( 2S)     0.84038
   153    C   11  S      Ryd( 3S)     0.00164
   154    C   11  S      Ryd( 4S)     0.00013
   155    C   11  px     Val( 2p)     0.97231
   156    C   11  px     Ryd( 3p)     0.01009
   157    C   11  py     Val( 2p)     1.03264
   158    C   11  py     Ryd( 3p)     0.00514
   159    C   11  pz     Val( 2p)     0.97236
   160    C   11  pz     Ryd( 3p)     0.00072
   161    C   11  dxy    Ryd( 3d)     0.00081
   162    C   11  dxz    Ryd( 3d)     0.00113
   163    C   11  dyz    Ryd( 3d)     0.00074
   164    C   11  dx2y2  Ryd( 3d)     0.00145
   165    C   11  dz2    Ryd( 3d)     0.00034

   166    C   12  S      Cor( 1S)     1.99894
   167    C   12  S      Val( 2S)     0.88335
   168    C   12  S      Ryd( 3S)     0.00086
   169    C   12  S      Ryd( 4S)     0.00006
   170    C   12  px     Val( 2p)     1.07799
   171    C   12  px     Ryd( 3p)     0.00517
   172    C   12  py     Val( 2p)     1.11827
   173    C   12  py     Ryd( 3p)     0.00461
   174    C   12  pz     Val( 2p)     1.01524
   175    C   12  pz     Ryd( 3p)     0.00081
   176    C   12  dxy    Ryd( 3d)     0.00085
   177    C   12  dxz    Ryd( 3d)     0.00035
   178    C   12  dyz    Ryd( 3d)     0.00117
   179    C   12  dx2y2  Ryd( 3d)     0.00050
   180    C   12  dz2    Ryd( 3d)     0.00039

   181    C   13  S      Cor( 1S)     1.99907
   182    C   13  S      Val( 2S)     0.93720
   183    C   13  S      Ryd( 3S)     0.00082
   184    C   13  S      Ryd( 4S)     0.00006
   185    C   13  px     Val( 2p)     1.17541
   186    C   13  px     Ryd( 3p)     0.00462
   187    C   13  py     Val( 2p)     1.05971
   188    C   13  py     Ryd( 3p)     0.00459
   189    C   13  pz     Val( 2p)     1.12025
   190    C   13  pz     Ryd( 3p)     0.00550
   191    C   13  dxy    Ryd( 3d)     0.00066
   192    C   13  dxz    Ryd( 3d)     0.00043
   193    C   13  dyz    Ryd( 3d)     0.00034
   194    C   13  dx2y2  Ryd( 3d)     0.00073
   195    C   13  dz2    Ryd( 3d)     0.00043

   196    C   14  S      Cor( 1S)     1.99908
   197    C   14  S      Val( 2S)     0.97271
   198    C   14  S      Ryd( 3S)     0.00068
   199    C   14  S      Ryd( 4S)     0.00004
   200    C   14  px     Val( 2p)     1.06943
   201    C   14  px     Ryd( 3p)     0.00457
   202    C   14  py     Val( 2p)     1.19269
   203    C   14  py     Ryd( 3p)     0.00419
   204    C   14  pz     Val( 2p)     1.01869
   205    C   14  pz     Ryd( 3p)     0.00248
   206    C   14  dxy    Ryd( 3d)     0.00063
   207    C   14  dxz    Ryd( 3d)     0.00087
   208    C   14  dyz    Ryd( 3d)     0.00035
   209    C   14  dx2y2  Ryd( 3d)     0.00081
   210    C   14  dz2    Ryd( 3d)     0.00045

   211    C   15  S      Cor( 1S)     1.99925
   212    C   15  S      Val( 2S)     0.92757
   213    C   15  S      Ryd( 3S)     0.00155
   214    C   15  S      Ryd( 4S)     0.00008
   215    C   15  px     Val( 2p)     1.13778
   216    C   15  px     Ryd( 3p)     0.00628
   217    C   15  py     Val( 2p)     0.93977
   218    C   15  py     Ryd( 3p)     0.00996
   219    C   15  pz     Val( 2p)     0.96961
   220    C   15  pz     Ryd( 3p)     0.00247
   221    C   15  dxy    Ryd( 3d)     0.00157
   222    C   15  dxz    Ryd( 3d)     0.00045
   223    C   15  dyz    Ryd( 3d)     0.00123
   224    C   15  dx2y2  Ryd( 3d)     0.00091
   225    C   15  dz2    Ryd( 3d)     0.00037

   226    N   16  S      Cor( 1S)     1.99940
   227    N   16  S      Val( 2S)     1.35378
   228    N   16  S      Ryd( 3S)     0.00073
   229    N   16  S      Ryd( 4S)     0.00002
   230    N   16  px     Val( 2p)     1.52608
   231    N   16  px     Ryd( 3p)     0.00548
   232    N   16  py     Val( 2p)     1.32529
   233    N   16  py     Ryd( 3p)     0.00393
   234    N   16  pz     Val( 2p)     1.29173
   235    N   16  pz     Ryd( 3p)     0.00306
   236    N   16  dxy    Ryd( 3d)     0.00248
   237    N   16  dxz    Ryd( 3d)     0.00210
   238    N   16  dyz    Ryd( 3d)     0.00104
   239    N   16  dx2y2  Ryd( 3d)     0.00271
   240    N   16  dz2    Ryd( 3d)     0.00187

   241    H   17  S      Val( 1S)     0.73317
   242    H   17  S      Ryd( 2S)     0.00139

   243    H   18  S      Val( 1S)     0.77303
   244    H   18  S      Ryd( 2S)     0.00120

   245    H   19  S      Val( 1S)     0.77293
   246    H   19  S      Ryd( 2S)     0.00130

   247    H   20  S      Val( 1S)     0.74093
   248    H   20  S      Ryd( 2S)     0.00093

   249    H   21  S      Val( 1S)     0.77170
   250    H   21  S      Ryd( 2S)     0.00152

   251    H   22  S      Val( 1S)     0.76988
   252    H   22  S      Ryd( 2S)     0.00133

   253    H   23  S      Val( 1S)     0.73818
   254    H   23  S      Ryd( 2S)     0.00113

   255    H   24  S      Val( 1S)     0.75338
   256    H   24  S      Ryd( 2S)     0.00076

   257    H   25  S      Val( 1S)     0.74515
   258    H   25  S      Ryd( 2S)     0.00163

   259    H   26  S      Val( 1S)     0.76910
   260    H   26  S      Ryd( 2S)     0.00106

   261    H   27  S      Val( 1S)     0.76729
   262    H   27  S      Ryd( 2S)     0.00098

   263    H   28  S      Val( 1S)     0.78591
   264    H   28  S      Ryd( 2S)     0.00111

 WARNING:  1 low occupancy (<1.9990e) core orbital  found on  C    7
           1 low occupancy (<1.9990e) core orbital  found on  C   12


 Summary of Natural Population Analysis:                  
                                                          
                                       Natural Population 
                Natural  -----------------------------------------------
    Atom  No    Charge         Core      Valence    Rydberg      Total
 -----------------------------------------------------------------------
      O    1   -0.63185      1.99978     6.61274    0.01933     8.63185
      C    2    0.93621      1.99936     3.01965    0.04477     5.06379
      N    3   -0.47206      1.99932     5.46179    0.01096     7.47206
      C    4   -0.47131      1.99946     4.45988    0.01196     6.47131
      C    5   -0.47386      1.99946     4.46279    0.01162     6.47386
      O    6   -0.51677      1.99969     6.50681    0.01028     8.51677
      C    7    0.40284      1.99865     3.57659    0.02191     5.59716
      C    8   -0.24024      1.99901     4.22692    0.01430     6.24024
      C    9   -0.24005      1.99914     4.22611    0.01480     6.24005
      C   10   -0.11440      1.99903     4.09947    0.01589     6.11440
      C   11    0.16110      1.99904     3.81769    0.02217     5.83890
      C   12   -0.10854      1.99894     4.09485    0.01476     6.10854
      C   13   -0.30982      1.99907     4.29257    0.01819     6.30982
      C   14   -0.26768      1.99908     4.25352    0.01508     6.26768
      C   15    0.00113      1.99925     3.97474    0.02488     5.99887
      N   16   -0.51970      1.99940     5.49689    0.02341     7.51970
      H   17    0.26543      0.00000     0.73317    0.00139     0.73457
      H   18    0.22577      0.00000     0.77303    0.00120     0.77423
      H   19    0.22577      0.00000     0.77293    0.00130     0.77423
      H   20    0.25815      0.00000     0.74093    0.00093     0.74185
      H   21    0.22678      0.00000     0.77170    0.00152     0.77322
      H   22    0.22879      0.00000     0.76988    0.00133     0.77121
      H   23    0.26069      0.00000     0.73818    0.00113     0.73931
      H   24    0.24586      0.00000     0.75338    0.00076     0.75414
      H   25    0.25322      0.00000     0.74515    0.00163     0.74678
      H   26    0.22984      0.00000     0.76910    0.00106     0.77016
      H   27    0.23172      0.00000     0.76729    0.00098     0.76828
      H   28    0.21298      0.00000     0.78591    0.00111     0.78702
 =======================================================================
   * Total *   -0.00000     31.98768    81.70364    0.30867   114.00000

                                 Natural Population      
 --------------------------------------------------------
   Core                      31.98768 ( 99.9615% of  32)
   Valence                   81.70364 ( 99.6386% of  82)
   Natural Minimal Basis    113.69133 ( 99.7292% of 114)
   Natural Rydberg Basis      0.30867 (  0.2708% of 114)
 --------------------------------------------------------

    Atom  No          Natural Electron Configuration
 ----------------------------------------------------------------------------
      O    1      [core]2S( 1.70)2p( 4.91)3d( 0.02)
      C    2      [core]2S( 0.69)2p( 2.33)3p( 0.03)3d( 0.01)
      N    3      [core]2S( 1.21)2p( 4.25)3p( 0.01)
      C    4      [core]2S( 1.09)2p( 3.37)3p( 0.01)
      C    5      [core]2S( 1.09)2p( 3.38)3p( 0.01)
      O    6      [core]2S( 1.60)2p( 4.91)3d( 0.01)
      C    7      [core]2S( 0.84)2p( 2.74)3p( 0.01)3d( 0.01)
      C    8      [core]2S( 0.97)2p( 3.25)3p( 0.01)
      C    9      [core]2S( 0.97)2p( 3.26)3p( 0.01)
      C   10      [core]2S( 0.98)2p( 3.12)3p( 0.01)
      C   11      [core]2S( 0.84)2p( 2.98)3p( 0.02)
      C   12      [core]2S( 0.88)2p( 3.21)3p( 0.01)
      C   13      [core]2S( 0.94)2p( 3.36)3p( 0.01)
      C   14      [core]2S( 0.97)2p( 3.28)3p( 0.01)
      C   15      [core]2S( 0.93)2p( 3.05)3p( 0.02)
      N   16      [core]2S( 1.35)2p( 4.14)3p( 0.01)3d( 0.01)
      H   17            1S( 0.73)
      H   18            1S( 0.77)
      H   19            1S( 0.77)
      H   20            1S( 0.74)
      H   21            1S( 0.77)
      H   22            1S( 0.77)
      H   23            1S( 0.74)
      H   24            1S( 0.75)
      H   25            1S( 0.75)
      H   26            1S( 0.77)
      H   27            1S( 0.77)
      H   28            1S( 0.79)


 NBO analysis skipped by request.
 Leave Link  607 at Thu Sep 30 06:48:13 2021, MaxMem= 1073741824 cpu:      15.8
 (Enter /sw/target/amd/app/gaussian/Gaussian09RevA.02_gcc-4.9.2/g09/l9999.exe)
 1\1\GINC-HERMITE\SP\RTD-B3LYP-FC\6-31G(d)\C12H12N2O2\JSCHLEINITZ\30-Se
 p-2021\0\\#p TD(NStates=10, Root=1) b3lyp/6-31G* volume pop=NPA densit
 y=current Geom=AllCheck Guess=Read\\O=C(N(C)C)Oc1cccc2c1cccn2_conf_0\\
 0,1\O,0,3.2969064914,0.5051534836,-0.9872540521\C,0,2.8568199402,0.814
 9467935,0.1017612028\N,0,1.5355611968,0.9339953685,0.4206623486\C,0,0.
 5456800166,0.5973848465,-0.5914120416\C,0,1.0234093378,1.2830249823,1.
 7372737025\O,0,3.6486703426,1.0978162145,1.2013223939\C,0,5.0328279395
 ,1.1292405962,1.0713297021\C,0,5.6729857735,1.8252635458,0.0722026134\
 C,0,7.0869125091,1.8800364845,0.0567987659\C,0,7.8359752405,1.25904789
 01,1.0299569659\C,0,7.1941907368,0.5400569617,2.0709713838\C,0,5.76336
 73627,0.4643811136,2.0948478777\C,0,5.1582844701,-0.2719132633,3.14412
 27337\C,0,5.9585509982,-0.8739694046,4.0857263754\C,0,7.3648532539,-0.
 7343885909,3.9767310531\N,0,7.9709495887,-0.0624605421,3.0195407349\H,
 0,1.0591826185,0.3623098464,-1.5222725226\H,0,-0.1343230384,1.44362128
 83,-0.7520165304\H,0,-0.0502732717,-0.2696415156,-0.2759686207\H,0,1.8
 295904786,1.6367582185,2.3753158603\H,0,0.5410758541,0.4172955973,2.21
 27761859\H,0,0.2738151005,2.0783260673,1.6398947289\H,0,5.0967689694,2
 .3138162137,-0.7031081888\H,0,7.5783838753,2.4285562518,-0.7417121985\
 H,0,8.9202520359,1.2961236777,1.0341752093\H,0,4.0772592845,-0.3517475
 824,3.1867139881\H,0,5.5330715992,-1.4489741603,4.9028004584\H,0,8.010
 4079099,-1.2037680745,4.7189677245\\Version=AM64L-G09RevA.02\State=1-A
 \HF=-724.4751396\RMSD=4.761e-09\Dipole=-2.0938932,0.939161,-0.5156859\
 Quadrupole=6.7308172,-1.6011678,-5.1296493,2.6191616,-5.2385321,-3.134
 5419\PG=C01 [X(C12H12N2O2)]\\@


 KNOWLEDGE IS EXPERIMENT'S DAUGHTER.
 -- LEONARDO DA VINCI, IN "PENSIERI" CA. 1492
 Job cpu time:  0 days  3 hours 16 minutes 40.8 seconds.
 File lengths (MBytes):  RWF=    231 Int=      0 D2E=      0 Chk=     32 Scr=      1
 Normal termination of Gaussian 09 at Thu Sep 30 06:48:16 2021.
