 Entering Gaussian System, Link 0=g09
 Input=C12H9F3O_6168_conf_0.com
 Output=C12H9F3O_6168_conf_0.log
 Initial command:
 /sw/target/amd/app/gaussian/Gaussian09RevA.02_gcc-4.9.2/g09/l1.exe /home/jschleinitz/gaussian/Gau-383193.inp -scrdir=/home/jschleinitz/gaussian/
 Entering Link 1 = /sw/target/amd/app/gaussian/Gaussian09RevA.02_gcc-4.9.2/g09/l1.exe PID=    383195.
  
 Copyright (c) 1988,1990,1992,1993,1995,1998,2003,2009, Gaussian, Inc.
                  All Rights Reserved.
  
 This is part of the Gaussian(R) 09 program.  It is based on
 the Gaussian(R) 03 system (copyright 2003, Gaussian, Inc.),
 the Gaussian(R) 98 system (copyright 1998, Gaussian, Inc.),
 the Gaussian(R) 94 system (copyright 1995, Gaussian, Inc.),
 the Gaussian 92(TM) system (copyright 1992, Gaussian, Inc.),
 the Gaussian 90(TM) system (copyright 1990, Gaussian, Inc.),
 the Gaussian 88(TM) system (copyright 1988, Gaussian, Inc.),
 the Gaussian 86(TM) system (copyright 1986, Carnegie Mellon
 University), and the Gaussian 82(TM) system (copyright 1983,
 Carnegie Mellon University). Gaussian is a federally registered
 trademark of Gaussian, Inc.
  
 This software contains proprietary and confidential information,
 including trade secrets, belonging to Gaussian, Inc.
  
 This software is provided under written license and may be
 used, copied, transmitted, or stored only in accord with that
 written license.
  
 The following legend is applicable only to US Government
 contracts under FAR:
  
                    RESTRICTED RIGHTS LEGEND
  
 Use, reproduction and disclosure by the US Government is
 subject to restrictions as set forth in subparagraphs (a)
 and (c) of the Commercial Computer Software - Restricted
 Rights clause in FAR 52.227-19.
  
 Gaussian, Inc.
 340 Quinnipiac St., Bldg. 40, Wallingford CT 06492
  
  
 ---------------------------------------------------------------
 Warning -- This program may not be used in any manner that
 competes with the business of Gaussian, Inc. or will provide
 assistance to any competitor of Gaussian, Inc.  The licensee
 of this program is prohibited from giving any competitor of
 Gaussian, Inc. access to this program.  By using this program,
 the user acknowledges that Gaussian, Inc. is engaged in the
 business of creating and licensing software in the field of
 computational chemistry and represents and warrants to the
 licensee that it is not a competitor of Gaussian, Inc. and that
 it will not use this program in any manner prohibited above.
 ---------------------------------------------------------------
  

 Cite this work as:
 Gaussian 09, Revision A.02,
 M. J. Frisch, G. W. Trucks, H. B. Schlegel, G. E. Scuseria, 
 M. A. Robb, J. R. Cheeseman, G. Scalmani, V. Barone, B. Mennucci, 
 G. A. Petersson, H. Nakatsuji, M. Caricato, X. Li, H. P. Hratchian, 
 A. F. Izmaylov, J. Bloino, G. Zheng, J. L. Sonnenberg, M. Hada, 
 M. Ehara, K. Toyota, R. Fukuda, J. Hasegawa, M. Ishida, T. Nakajima, 
 Y. Honda, O. Kitao, H. Nakai, T. Vreven, J. A. Montgomery, Jr., 
 J. E. Peralta, F. Ogliaro, M. Bearpark, J. J. Heyd, E. Brothers, 
 K. N. Kudin, V. N. Staroverov, R. Kobayashi, J. Normand, 
 K. Raghavachari, A. Rendell, J. C. Burant, S. S. Iyengar, J. Tomasi, 
 M. Cossi, N. Rega, J. M. Millam, M. Klene, J. E. Knox, J. B. Cross, 
 V. Bakken, C. Adamo, J. Jaramillo, R. Gomperts, R. E. Stratmann, 
 O. Yazyev, A. J. Austin, R. Cammi, C. Pomelli, J. W. Ochterski, 
 R. L. Martin, K. Morokuma, V. G. Zakrzewski, G. A. Voth, 
 P. Salvador, J. J. Dannenberg, S. Dapprich, A. D. Daniels, 
 O. Farkas, J. B. Foresman, J. V. Ortiz, J. Cioslowski, 
 and D. J. Fox, Gaussian, Inc., Wallingford CT, 2009.
 
 ******************************************
 Gaussian 09:  AM64L-G09RevA.02 11-Jun-2009
                28-Sep-2021 
 ******************************************
 %nproc=4
 Will use up to    4 processors via shared memory.
 %mem=8gb
 %chk=C12H9F3O_6168_conf_0.chk
 -----------------------------------
 #p opt b3lyp/6-31G* scf=(xqc,tight)
 -----------------------------------
 1/14=-1,18=20,19=15,26=3,38=1/1,3;
 2/9=110,12=2,17=6,18=5,40=1/2;
 3/5=1,6=6,7=1,11=2,16=1,25=1,30=1,71=1,74=-5/1,2,3;
 4//1;
 5/5=2,8=3,13=1,32=2,38=5/2,8;
 6/7=2,8=2,9=2,10=2,28=1/1;
 7//1,2,3,16;
 1/14=-1,18=20,19=15/3(2);
 2/9=110/2;
 99//99;
 2/9=110/2;
 3/5=1,6=6,7=1,11=2,16=1,25=1,30=1,71=1,74=-5/1,2,3;
 4/5=5,16=3/1;
 5/5=2,8=3,13=1,32=2,38=5/2,8;
 7//1,2,3,16;
 1/14=-1,18=20,19=15/3(-5);
 2/9=110/2;
 6/7=2,8=2,9=2,10=2,19=2,28=1/1;
 99/9=1/99;
 Leave Link    1 at Tue Sep 28 22:59:52 2021, MaxMem= 1073741824 cpu:       0.1
 (Enter /sw/target/amd/app/gaussian/Gaussian09RevA.02_gcc-4.9.2/g09/l101.exe)
 -----------------------------------
 COc1ccc2c(c1)ccc(c2)C(F)(F)F_conf_0
 -----------------------------------
 Symbolic Z-matrix:
 Charge =  0 Multiplicity = 1
 C                     1.4338   -0.7542    0.62511 
 O                     2.48887   0.14707   0.31241 
 C                     3.11639   0.75176   1.36718 
 C                     2.81635   0.56165   2.71401 
 C                     3.53802   1.2451    3.6979 
 C                     4.57019   2.12858   3.35088 
 C                     4.87922   2.32561   1.98812 
 C                     4.14422   1.63113   1.01239 
 C                     5.91273   3.21055   1.64098 
 C                     6.63255   3.89237   2.62587 
 C                     6.33406   3.70398   3.98106 
 C                     5.30051   2.81948   4.33084 
 C                     7.09585   4.42727   5.063 
 F                     8.06955   5.25369   4.58921 
 F                     6.28859   5.2069    5.83506 
 F                     7.71822   3.57202   5.92144 
 H                     1.03883  -1.14786  -0.3163 
 H                     0.61548  -0.24021   1.14039 
 H                     1.80062  -1.60236   1.21283 
 H                     2.02825  -0.11043   3.03688 
 H                     3.28426   1.07895   4.7427 
 H                     4.36921   1.77116  -0.04298 
 H                     6.16513   3.37501   0.59483 
 H                     7.4288    4.57216   2.32608 
 H                     5.0668    2.671     5.38499 
 
 NAtoms=     25 NQM=     25 NQMF=      0 NMic=      0 NMicF=      0 NTot=     25.
                    Isotopes and Nuclear Properties:
 (Nuclear quadrupole moments (NQMom) in fm**2, nuclear magnetic moments (NMagM)
  in nuclear magnetons)

  Atom         1           2           3           4           5           6           7           8           9          10
 IAtWgt=          12          16          12          12          12          12          12          12          12          12
 AtmWgt=  12.0000000  15.9949146  12.0000000  12.0000000  12.0000000  12.0000000  12.0000000  12.0000000  12.0000000  12.0000000
 NucSpn=           0           0           0           0           0           0           0           0           0           0
 AtZEff=   0.0000000   0.0000000   0.0000000   0.0000000   0.0000000   0.0000000   0.0000000   0.0000000   0.0000000   0.0000000
 NQMom=    0.0000000   0.0000000   0.0000000   0.0000000   0.0000000   0.0000000   0.0000000   0.0000000   0.0000000   0.0000000
 NMagM=    0.0000000   0.0000000   0.0000000   0.0000000   0.0000000   0.0000000   0.0000000   0.0000000   0.0000000   0.0000000

  Atom        11          12          13          14          15          16          17          18          19          20
 IAtWgt=          12          12          12          19          19          19           1           1           1           1
 AtmWgt=  12.0000000  12.0000000  12.0000000  18.9984032  18.9984032  18.9984032   1.0078250   1.0078250   1.0078250   1.0078250
 NucSpn=           0           0           0           1           1           1           1           1           1           1
 AtZEff=   0.0000000   0.0000000   0.0000000   0.0000000   0.0000000   0.0000000   0.0000000   0.0000000   0.0000000   0.0000000
 NQMom=    0.0000000   0.0000000   0.0000000   0.0000000   0.0000000   0.0000000   0.0000000   0.0000000   0.0000000   0.0000000
 NMagM=    0.0000000   0.0000000   0.0000000   2.6288670   2.6288670   2.6288670   2.7928460   2.7928460   2.7928460   2.7928460

  Atom        21          22          23          24          25
 IAtWgt=           1           1           1           1           1
 AtmWgt=   1.0078250   1.0078250   1.0078250   1.0078250   1.0078250
 NucSpn=           1           1           1           1           1
 AtZEff=   0.0000000   0.0000000   0.0000000   0.0000000   0.0000000
 NQMom=    0.0000000   0.0000000   0.0000000   0.0000000   0.0000000
 NMagM=    2.7928460   2.7928460   2.7928460   2.7928460   2.7928460
 Leave Link  101 at Tue Sep 28 22:59:52 2021, MaxMem= 1073741824 cpu:       0.2
 (Enter /sw/target/amd/app/gaussian/Gaussian09RevA.02_gcc-4.9.2/g09/l103.exe)

 GradGradGradGradGradGradGradGradGradGradGradGradGradGradGradGradGradGrad
 Berny optimization.
 Initialization pass.
                           ----------------------------
                           !    Initial Parameters    !
                           ! (Angstroms and Degrees)  !
 --------------------------                            --------------------------
 ! Name  Definition              Value          Derivative Info.                !
 --------------------------------------------------------------------------------
 ! R1    R(1,2)                  1.4224         estimate D2E/DX2                !
 ! R2    R(1,17)                 1.0942         estimate D2E/DX2                !
 ! R3    R(1,18)                 1.0951         estimate D2E/DX2                !
 ! R4    R(1,19)                 1.0951         estimate D2E/DX2                !
 ! R5    R(2,3)                  1.3682         estimate D2E/DX2                !
 ! R6    R(3,4)                  1.3929         estimate D2E/DX2                !
 ! R7    R(3,8)                  1.3984         estimate D2E/DX2                !
 ! R8    R(4,5)                  1.3986         estimate D2E/DX2                !
 ! R9    R(4,20)                 1.0849         estimate D2E/DX2                !
 ! R10   R(5,6)                  1.4023         estimate D2E/DX2                !
 ! R11   R(5,21)                 1.0879         estimate D2E/DX2                !
 ! R12   R(6,7)                  1.4112         estimate D2E/DX2                !
 ! R13   R(6,12)                 1.4039         estimate D2E/DX2                !
 ! R14   R(7,8)                  1.4052         estimate D2E/DX2                !
 ! R15   R(7,9)                  1.4042         estimate D2E/DX2                !
 ! R16   R(8,22)                 1.0881         estimate D2E/DX2                !
 ! R17   R(9,10)                 1.3975         estimate D2E/DX2                !
 ! R18   R(9,23)                 1.0887         estimate D2E/DX2                !
 ! R19   R(10,11)                1.4004         estimate D2E/DX2                !
 ! R20   R(10,24)                1.089          estimate D2E/DX2                !
 ! R21   R(11,12)                1.4046         estimate D2E/DX2                !
 ! R22   R(11,13)                1.508          estimate D2E/DX2                !
 ! R23   R(12,25)                1.0899         estimate D2E/DX2                !
 ! R24   R(13,14)                1.3622         estimate D2E/DX2                !
 ! R25   R(13,15)                1.3622         estimate D2E/DX2                !
 ! R26   R(13,16)                1.3622         estimate D2E/DX2                !
 ! A1    A(2,1,17)             107.8528         estimate D2E/DX2                !
 ! A2    A(2,1,18)             111.1189         estimate D2E/DX2                !
 ! A3    A(2,1,19)             111.1156         estimate D2E/DX2                !
 ! A4    A(17,1,18)            107.6955         estimate D2E/DX2                !
 ! A5    A(17,1,19)            107.6979         estimate D2E/DX2                !
 ! A6    A(18,1,19)            111.1778         estimate D2E/DX2                !
 ! A7    A(1,2,3)              116.7922         estimate D2E/DX2                !
 ! A8    A(2,3,4)              125.8961         estimate D2E/DX2                !
 ! A9    A(2,3,8)              114.7981         estimate D2E/DX2                !
 ! A10   A(4,3,8)              119.3058         estimate D2E/DX2                !
 ! A11   A(3,4,5)              120.1586         estimate D2E/DX2                !
 ! A12   A(3,4,20)             121.9235         estimate D2E/DX2                !
 ! A13   A(5,4,20)             117.918          estimate D2E/DX2                !
 ! A14   A(4,5,6)              120.9052         estimate D2E/DX2                !
 ! A15   A(4,5,21)             118.7256         estimate D2E/DX2                !
 ! A16   A(6,5,21)             120.3692         estimate D2E/DX2                !
 ! A17   A(5,6,7)              119.218          estimate D2E/DX2                !
 ! A18   A(5,6,12)             121.347          estimate D2E/DX2                !
 ! A19   A(7,6,12)             119.435          estimate D2E/DX2                !
 ! A20   A(6,7,8)              119.1438         estimate D2E/DX2                !
 ! A21   A(6,7,9)              119.2027         estimate D2E/DX2                !
 ! A22   A(8,7,9)              121.6535         estimate D2E/DX2                !
 ! A23   A(3,8,7)              121.2686         estimate D2E/DX2                !
 ! A24   A(3,8,22)             118.6173         estimate D2E/DX2                !
 ! A25   A(7,8,22)             120.1141         estimate D2E/DX2                !
 ! A26   A(7,9,10)             120.8199         estimate D2E/DX2                !
 ! A27   A(7,9,23)             120.2257         estimate D2E/DX2                !
 ! A28   A(10,9,23)            118.9544         estimate D2E/DX2                !
 ! A29   A(9,10,11)            120.4364         estimate D2E/DX2                !
 ! A30   A(9,10,24)            119.1521         estimate D2E/DX2                !
 ! A31   A(11,10,24)           120.4115         estimate D2E/DX2                !
 ! A32   A(10,11,12)           118.8512         estimate D2E/DX2                !
 ! A33   A(10,11,13)           121.4736         estimate D2E/DX2                !
 ! A34   A(12,11,13)           119.6752         estimate D2E/DX2                !
 ! A35   A(6,12,11)            121.2549         estimate D2E/DX2                !
 ! A36   A(6,12,25)            119.7701         estimate D2E/DX2                !
 ! A37   A(11,12,25)           118.975          estimate D2E/DX2                !
 ! A38   A(11,13,14)           113.7372         estimate D2E/DX2                !
 ! A39   A(11,13,15)           112.4442         estimate D2E/DX2                !
 ! A40   A(11,13,16)           112.4451         estimate D2E/DX2                !
 ! A41   A(14,13,15)           105.8732         estimate D2E/DX2                !
 ! A42   A(14,13,16)           105.8726         estimate D2E/DX2                !
 ! A43   A(15,13,16)           105.8374         estimate D2E/DX2                !
 ! D1    D(17,1,2,3)           179.9052         estimate D2E/DX2                !
 ! D2    D(18,1,2,3)            62.083          estimate D2E/DX2                !
 ! D3    D(19,1,2,3)           -62.2715         estimate D2E/DX2                !
 ! D4    D(1,2,3,4)              0.1301         estimate D2E/DX2                !
 ! D5    D(1,2,3,8)           -179.8591         estimate D2E/DX2                !
 ! D6    D(2,3,4,5)           -179.9895         estimate D2E/DX2                !
 ! D7    D(2,3,4,20)             0.0367         estimate D2E/DX2                !
 ! D8    D(8,3,4,5)             -0.0008         estimate D2E/DX2                !
 ! D9    D(8,3,4,20)          -179.9746         estimate D2E/DX2                !
 ! D10   D(2,3,8,7)            179.9971         estimate D2E/DX2                !
 ! D11   D(2,3,8,22)            -0.0143         estimate D2E/DX2                !
 ! D12   D(4,3,8,7)              0.0072         estimate D2E/DX2                !
 ! D13   D(4,3,8,22)           179.9958         estimate D2E/DX2                !
 ! D14   D(3,4,5,6)             -0.0029         estimate D2E/DX2                !
 ! D15   D(3,4,5,21)          -179.9861         estimate D2E/DX2                !
 ! D16   D(20,4,5,6)           179.972          estimate D2E/DX2                !
 ! D17   D(20,4,5,21)           -0.0112         estimate D2E/DX2                !
 ! D18   D(4,5,6,7)              0.0002         estimate D2E/DX2                !
 ! D19   D(4,5,6,12)           179.9965         estimate D2E/DX2                !
 ! D20   D(21,5,6,7)           179.9832         estimate D2E/DX2                !
 ! D21   D(21,5,6,12)           -0.0206         estimate D2E/DX2                !
 ! D22   D(5,6,7,8)              0.006          estimate D2E/DX2                !
 ! D23   D(5,6,7,9)            179.9898         estimate D2E/DX2                !
 ! D24   D(12,6,7,8)          -179.9904         estimate D2E/DX2                !
 ! D25   D(12,6,7,9)            -0.0066         estimate D2E/DX2                !
 ! D26   D(5,6,12,11)          179.9993         estimate D2E/DX2                !
 ! D27   D(5,6,12,25)            0.0369         estimate D2E/DX2                !
 ! D28   D(7,6,12,11)           -0.0045         estimate D2E/DX2                !
 ! D29   D(7,6,12,25)         -179.9668         estimate D2E/DX2                !
 ! D30   D(6,7,8,3)             -0.0098         estimate D2E/DX2                !
 ! D31   D(6,7,8,22)          -179.9982         estimate D2E/DX2                !
 ! D32   D(9,7,8,3)           -179.9931         estimate D2E/DX2                !
 ! D33   D(9,7,8,22)             0.0184         estimate D2E/DX2                !
 ! D34   D(6,7,9,10)             0.0127         estimate D2E/DX2                !
 ! D35   D(6,7,9,23)           179.9974         estimate D2E/DX2                !
 ! D36   D(8,7,9,10)           179.9961         estimate D2E/DX2                !
 ! D37   D(8,7,9,23)            -0.0192         estimate D2E/DX2                !
 ! D38   D(7,9,10,11)           -0.0077         estimate D2E/DX2                !
 ! D39   D(7,9,10,24)          179.9882         estimate D2E/DX2                !
 ! D40   D(23,9,10,11)        -179.9926         estimate D2E/DX2                !
 ! D41   D(23,9,10,24)           0.0034         estimate D2E/DX2                !
 ! D42   D(9,10,11,12)          -0.0034         estimate D2E/DX2                !
 ! D43   D(9,10,11,13)         179.9863         estimate D2E/DX2                !
 ! D44   D(24,10,11,12)       -179.9993         estimate D2E/DX2                !
 ! D45   D(24,10,11,13)         -0.0097         estimate D2E/DX2                !
 ! D46   D(10,11,12,6)           0.0095         estimate D2E/DX2                !
 ! D47   D(10,11,12,25)        179.9721         estimate D2E/DX2                !
 ! D48   D(13,11,12,6)        -179.9803         estimate D2E/DX2                !
 ! D49   D(13,11,12,25)         -0.0177         estimate D2E/DX2                !
 ! D50   D(10,11,13,14)          0.0385         estimate D2E/DX2                !
 ! D51   D(10,11,13,15)        120.3646         estimate D2E/DX2                !
 ! D52   D(10,11,13,16)       -120.2874         estimate D2E/DX2                !
 ! D53   D(12,11,13,14)       -179.9719         estimate D2E/DX2                !
 ! D54   D(12,11,13,15)        -59.6459         estimate D2E/DX2                !
 ! D55   D(12,11,13,16)         59.7021         estimate D2E/DX2                !
 --------------------------------------------------------------------------------
 Trust Radius=3.00D-01 FncErr=1.00D-07 GrdErr=1.00D-06
 Number of steps in this run= 134 maximum allowed number of steps= 150.
 GradGradGradGradGradGradGradGradGradGradGradGradGradGradGradGradGradGrad

 Leave Link  103 at Tue Sep 28 22:59:53 2021, MaxMem= 1073741824 cpu:       0.0
 (Enter /sw/target/amd/app/gaussian/Gaussian09RevA.02_gcc-4.9.2/g09/l202.exe)
                          Input orientation:                          
 ---------------------------------------------------------------------
 Center     Atomic      Atomic             Coordinates (Angstroms)
 Number     Number       Type             X           Y           Z
 ---------------------------------------------------------------------
      1          6           0        1.433795   -0.754200    0.625107
      2          8           0        2.488870    0.147073    0.312408
      3          6           0        3.116389    0.751760    1.367184
      4          6           0        2.816352    0.561652    2.714009
      5          6           0        3.538023    1.245104    3.697899
      6          6           0        4.570192    2.128579    3.350884
      7          6           0        4.879218    2.325614    1.988116
      8          6           0        4.144225    1.631133    1.012386
      9          6           0        5.912733    3.210550    1.640975
     10          6           0        6.632552    3.892365    2.625873
     11          6           0        6.334055    3.703984    3.981063
     12          6           0        5.300511    2.819476    4.330844
     13          6           0        7.095848    4.427266    5.062999
     14          9           0        8.069546    5.253687    4.589215
     15          9           0        6.288589    5.206899    5.835062
     16          9           0        7.718216    3.572019    5.921442
     17          1           0        1.038830   -1.147863   -0.316300
     18          1           0        0.615478   -0.240207    1.140393
     19          1           0        1.800616   -1.602362    1.212826
     20          1           0        2.028249   -0.110435    3.036880
     21          1           0        3.284256    1.078954    4.742697
     22          1           0        4.369206    1.771157   -0.042982
     23          1           0        6.165131    3.375012    0.594826
     24          1           0        7.428802    4.572160    2.326081
     25          1           0        5.066802    2.670996    5.384986
 ---------------------------------------------------------------------
                    Distance matrix (angstroms):
                    1          2          3          4          5
     1  C    0.000000
     2  O    1.422413   0.000000
     3  C    2.376913   1.368202   0.000000
     4  C    2.829566   2.459025   1.392874   0.000000
     5  C    4.226943   3.710518   2.419380   1.398555   0.000000
     6  C    5.057397   4.182177   2.818553   2.436560   1.402256
     7  C    4.818090   3.642499   2.443387   2.809608   2.426863
     8  C    3.631285   2.330794   1.398437   2.408850   2.780015
     9  C    6.067300   4.782554   3.733652   4.213744   3.705829
    10  C    7.254014   6.045613   4.879663   5.066044   4.211098
    11  C    7.426332   6.395005   5.089339   4.884047   3.734176
    12  C    6.438567   5.585239   4.222455   3.725986   2.446555
    13  C    8.865738   7.881142   6.557781   6.226942   4.964652
    14  F    9.789895   8.689794   7.428499   7.288871   6.115381
    15  F    9.286946   8.398774   7.062085   6.586025   5.275310
    16  F    9.287696   8.398665   7.062007   6.586214   5.275670
    17  H    1.094173   2.043220   3.280081   3.907018   5.299627
    18  H    1.095149   2.084501   2.699997   2.821895   4.157915
    19  H    1.095148   2.084459   2.701291   2.822804   4.159595
    20  H    2.566020   2.775109   2.171476   1.084920   2.133975
    21  H    4.872290   4.596575   3.395486   2.145253   1.087937
    22  H    3.929429   2.509903   2.144130   3.387515   3.868048
    23  H    6.279876   4.900432   4.095463   4.860067   4.589909
    24  H    8.197776   6.931031   5.840535   6.124488   5.299939
    25  H    6.898345   6.224706   4.861102   4.080193   2.686372
                    6          7          8          9         10
     6  C    0.000000
     7  C    1.411190   0.000000
     8  C    2.428471   1.405193   0.000000
     9  C    2.428347   1.404198   2.453020   0.000000
    10  C    2.808899   2.436314   3.729381   1.397510   0.000000
    11  C    2.447497   2.826357   4.231443   2.428374   1.400403
    12  C    1.403933   2.431000   3.709626   2.786243   2.415027
    13  C    3.820240   4.334200   5.739155   3.819739   2.537784
    14  F    4.852344   5.051487   6.428432   4.185494   2.787985
    15  F    4.312781   5.008704   6.375155   4.660154   3.484997
    16  F    4.312928   5.008442   6.374895   4.659702   3.484546
    17  H    6.054240   5.667800   4.373980   6.825073   8.083935
    18  H    5.112453   5.047925   3.996292   6.341863   7.449160
    19  H    5.114857   5.050530   3.998521   6.344836   7.452271
    20  H    3.401949   3.893875   3.407196   5.297802   6.114813
    21  H    2.166215   3.418447   3.867773   4.590564   4.858736
    22  H    3.418549   2.166309   1.088129   2.700008   4.092072
    23  H    3.419544   2.167041   2.701764   1.088660   2.147391
    24  H    3.897815   3.414904   4.600422   2.149840   1.089041
    25  H    2.162963   3.419532   4.588256   3.876124   3.399415
                   11         12         13         14         15
    11  C    0.000000
    12  C    1.404605   0.000000
    13  C    1.507995   2.518784   0.000000
    14  F    2.404861   3.695902   1.362179   0.000000
    15  F    2.387076   2.989775   1.362196   2.173967   0.000000
    16  F    2.387129   2.990254   1.362246   2.173999   2.173506
    17  H    8.369418   7.449674   9.833940  10.699293  10.285048
    18  H    7.505210   6.441287   8.897603   9.881314   9.159425
    19  H    7.508163   6.443908   8.900546   9.884578   9.374060
    20  H    5.829343   4.578910   7.097636   8.226835   7.365755
    21  H    4.095381   2.695241   5.083505   6.352240   5.221035
    22  H    4.877438   4.593110   6.368715   6.875884   7.073879
    23  H    3.406371   3.874793   4.683806   4.807427   5.552578
    24  H    2.165910   3.408900   2.760901   2.448838   3.743786
    25  H    2.154993   1.089900   2.702811   4.039804   2.850638
                   16         17         18         19         20
    16  F    0.000000
    17  H   10.285957   0.000000
    18  H    9.372320   1.767772   0.000000
    19  H    9.163148   1.767799   1.807004   0.000000
    20  H    7.365928   3.646782   2.368423   2.367453   0.000000
    21  H    5.221573   5.966079   4.673238   4.674466   2.429406
    22  H    7.073424   4.436979   4.420004   4.422141   4.301862
    23  H    5.551912   6.896775   6.645757   6.648696   5.935129
    24  H    3.743082   8.973994   8.425326   8.428554   7.183168
    25  H    2.851250   7.956940   6.804848   6.807090   4.741599
                   21         22         23         24         25
    21  H    0.000000
    22  H    4.955703   0.000000
    23  H    5.547626   2.490883   0.000000
    24  H    5.934626   4.776945   2.455050   0.000000
    25  H    2.474794   5.546097   4.964635   4.307014   0.000000
 Stoichiometry    C12H9F3O
 Framework group  C1[X(C12H9F3O)]
 Deg. of freedom    69
 Full point group                 C1      NOp   1
 Largest Abelian subgroup         C1      NOp   1
 Largest concise Abelian subgroup C1      NOp   1
                         Standard orientation:                         
 ---------------------------------------------------------------------
 Center     Atomic      Atomic             Coordinates (Angstroms)
 Number     Number       Type             X           Y           Z
 ---------------------------------------------------------------------
      1          6           0        5.466396   -0.407557   -0.001961
      2          8           0        4.444771    0.582157    0.000873
      3          6           0        3.152020    0.134081    0.000812
      4          6           0        2.749914   -1.199489    0.000794
      5          6           0        1.389315   -1.523106    0.000507
      6          6           0        0.410233   -0.519253    0.000296
      7          6           0        0.810978    0.833840    0.000369
      8          6           0        2.182082    1.141477    0.000525
      9          6           0       -0.169729    1.838820   -0.000062
     10          6           0       -1.528741    1.513059   -0.000294
     11          6           0       -1.937166    0.173537   -0.000262
     12          6           0       -0.958061   -0.833572   -0.000066
     13          6           0       -3.397016   -0.204467   -0.000200
     14          9           0       -4.240411    0.865213   -0.001018
     15          9           0       -3.740986   -0.950955   -1.086486
     16          9           0       -3.741300   -0.949541    1.087020
     17          1           0        6.431988    0.107074   -0.003251
     18          1           0        5.416371   -1.023707   -0.905957
     19          1           0        5.419646   -1.025413    0.901044
     20          1           0        3.465921   -2.014587    0.001418
     21          1           0        1.101387   -2.572250    0.000731
     22          1           0        2.508709    2.179427    0.000612
     23          1           0        0.120739    2.888015    0.000030
     24          1           0       -2.266332    2.314289   -0.000433
     25          1           0       -1.273675   -1.876774    0.000424
 ---------------------------------------------------------------------
 Rotational constants (GHZ):      1.7605357      0.2255637      0.2075876
 Leave Link  202 at Tue Sep 28 22:59:53 2021, MaxMem= 1073741824 cpu:       0.0
 (Enter /sw/target/amd/app/gaussian/Gaussian09RevA.02_gcc-4.9.2/g09/l301.exe)
 Standard basis: 6-31G(d) (6D, 7F)
 Ernie: Thresh=  0.10000D-02 Tol=  0.10000D-05 Strict=F.
 There are   258 symmetry adapted basis functions of A   symmetry.
 Integral buffers will be    131072 words long.
 Raffenetti 2 integral format.
 Two-electron integral symmetry is turned on.
   258 basis functions,   484 primitive gaussians,   258 cartesian basis functions
    58 alpha electrons       58 beta electrons
       nuclear repulsion energy      1053.3999672180 Hartrees.
 IExCor=  402 DFT=T Ex+Corr=B3LYP ExCW=0 ScaHFX=  0.200000
 ScaDFX=  0.800000  0.720000  1.000000  0.810000 ScalE2=  1.000000  1.000000
 IRadAn=      0 IRanWt=     -1 IRanGd=            0 ICorTp=0
 NAtoms=   25 NActive=   25 NUniq=   25 SFac= 7.50D-01 NAtFMM=   80 NAOKFM=F Big=F
 Leave Link  301 at Tue Sep 28 22:59:53 2021, MaxMem= 1073741824 cpu:       0.1
 (Enter /sw/target/amd/app/gaussian/Gaussian09RevA.02_gcc-4.9.2/g09/l302.exe)
 NPDir=0 NMtPBC=     1 NCelOv=     1 NCel=       1 NClECP=     1 NCelD=      1
         NCelK=      1 NCelE2=     1 NClLst=     1 CellRange=     0.0.
 One-electron integrals computed using PRISM.
 NBasis=   258 RedAO= T  NBF=   258
 NBsUse=   258 1.00D-06 NBFU=   258
 Precomputing XC quadrature grid using
 IXCGrd= 2 IRadAn=           0 IRanWt=          -1 IRanGd=           0 AccXCQ= 1.00D-10.
 NRdTot=    1584 NPtTot=      201810 NUsed=      213236 NTot=      213268
 NSgBfM=   254   254   254   254   254 NAtAll=    25    25.
 Leave Link  302 at Tue Sep 28 22:59:56 2021, MaxMem= 1073741824 cpu:       1.9
 (Enter /sw/target/amd/app/gaussian/Gaussian09RevA.02_gcc-4.9.2/g09/l303.exe)
 DipDrv:  MaxL=1.
 Leave Link  303 at Tue Sep 28 22:59:57 2021, MaxMem= 1073741824 cpu:       0.2
 (Enter /sw/target/amd/app/gaussian/Gaussian09RevA.02_gcc-4.9.2/g09/l401.exe)
 Harris functional with IExCor=  402 diagonalized for initial guess.
 ExpMin= 1.61D-01 ExpMax= 7.00D+03 ExpMxC= 1.05D+03 IAcc=1 IRadAn=         1 AccDes= 0.00D+00
 HarFok:  IExCor=  402 AccDes= 0.00D+00 IRadAn=         1 IDoV= 1
 ScaDFX=  1.000000  1.000000  1.000000  1.000000
 FoFCou: FMM=F IPFlag=           0 FMFlag=      100000 FMFlg1=           0
         NFxFlg=           0 DoJE=T BraDBF=F KetDBF=T FulRan=T
         Omega=  0.000000  0.000000  1.000000  0.000000  0.000000 ICntrl=     500 IOpCl=  0
         NMat0=    1 NMatS0=    1 NMatT0=    0 NMatD0=    1 NMtDS0=    0 NMtDT0=    0
         I1Cent=           4 NGrid=           0.
 Petite list used in FoFCou.
 Harris En= -837.502256704389    
 Initial guess orbital symmetries:
       Occupied  (A) (A) (A) (A) (A) (A) (A) (A) (A) (A) (A) (A)
                 (A) (A) (A) (A) (A) (A) (A) (A) (A) (A) (A) (A)
                 (A) (A) (A) (A) (A) (A) (A) (A) (A) (A) (A) (A)
                 (A) (A) (A) (A) (A) (A) (A) (A) (A) (A) (A) (A)
                 (A) (A) (A) (A) (A) (A) (A) (A) (A) (A)
       Virtual   (A) (A) (A) (A) (A) (A) (A) (A) (A) (A) (A) (A)
                 (A) (A) (A) (A) (A) (A) (A) (A) (A) (A) (A) (A)
                 (A) (A) (A) (A) (A) (A) (A) (A) (A) (A) (A) (A)
                 (A) (A) (A) (A) (A) (A) (A) (A) (A) (A) (A) (A)
                 (A) (A) (A) (A) (A) (A) (A) (A) (A) (A) (A) (A)
                 (A) (A) (A) (A) (A) (A) (A) (A) (A) (A) (A) (A)
                 (A) (A) (A) (A) (A) (A) (A) (A) (A) (A) (A) (A)
                 (A) (A) (A) (A) (A) (A) (A) (A) (A) (A) (A) (A)
                 (A) (A) (A) (A) (A) (A) (A) (A) (A) (A) (A) (A)
                 (A) (A) (A) (A) (A) (A) (A) (A) (A) (A) (A) (A)
                 (A) (A) (A) (A) (A) (A) (A) (A) (A) (A) (A) (A)
                 (A) (A) (A) (A) (A) (A) (A) (A) (A) (A) (A) (A)
                 (A) (A) (A) (A) (A) (A) (A) (A) (A) (A) (A) (A)
                 (A) (A) (A) (A) (A) (A) (A) (A) (A) (A) (A) (A)
                 (A) (A) (A) (A) (A) (A) (A) (A) (A) (A) (A) (A)
                 (A) (A) (A) (A) (A) (A) (A) (A) (A) (A) (A) (A)
                 (A) (A) (A) (A) (A) (A) (A) (A)
 The electronic state of the initial guess is 1-A.
 Leave Link  401 at Tue Sep 28 23:00:07 2021, MaxMem= 1073741824 cpu:       8.5
 (Enter /sw/target/amd/app/gaussian/Gaussian09RevA.02_gcc-4.9.2/g09/l502.exe)
 Closed shell SCF:
 Requested convergence on RMS density matrix=1.00D-08 within  64 cycles.
 Requested convergence on MAX density matrix=1.00D-06.
 Requested convergence on             energy=1.00D-06.
 No special actions if energy rises.
 Using DIIS extrapolation, IDIIS=  1040.
 Integral symmetry usage will be decided dynamically.
       212998 words used for storage of precomputed grid.
 Keep R1 ints in memory in canonical form, NReq=567272754.
 IEnd=      421714 IEndB=      421714 NGot=  1073741824 MDV=   515226963
 LenX=   515226963 LenY=   515159958
 Symmetry not used in FoFDir.
 MinBra= 0 MaxBra= 2 Meth= 1.
 IRaf=       0 NMat=   1 IRICut=       1 DoRegI=T DoRafI=F ISym2E= 0 JSym2E=0.
 Integral accuracy reduced to 1.0D-05 until final iterations.

 Cycle   1  Pass 0  IDiag  1:
 E= -837.127994510997    
 DIIS: error= 2.96D-02 at cycle   1 NSaved=   1.
 NSaved= 1 IEnMin= 1 EnMin= -837.127994510997     IErMin= 1 ErrMin= 2.96D-02
 ErrMax= 2.96D-02 EMaxC= 1.00D-01 BMatC= 3.44D-01 BMatP= 3.44D-01
 IDIUse=3 WtCom= 7.04D-01 WtEn= 2.96D-01
 Coeff-Com:  0.100D+01
 Coeff-En:   0.100D+01
 Coeff:      0.100D+01
 Gap=     0.164 Goal=   None    Shift=    0.000
 GapD=    0.164 DampG=1.000 DampE=0.500 DampFc=0.5000 IDamp=-1.
 Damping current iteration by 5.00D-01
 RMSDP=4.90D-03 MaxDP=1.41D-01              OVMax= 1.61D-01

 Cycle   2  Pass 0  IDiag  1:
 E= -837.261090729374     Delta-E=       -0.133096218377 Rises=F Damp=T
 DIIS: error= 6.95D-03 at cycle   2 NSaved=   2.
 NSaved= 2 IEnMin= 2 EnMin= -837.261090729374     IErMin= 2 ErrMin= 6.95D-03
 ErrMax= 6.95D-03 EMaxC= 1.00D-01 BMatC= 2.51D-02 BMatP= 3.44D-01
 IDIUse=3 WtCom= 9.30D-01 WtEn= 6.95D-02
 Coeff-Com:  0.968D-01 0.903D+00
 Coeff-En:   0.152D+00 0.848D+00
 Coeff:      0.101D+00 0.899D+00
 Gap=     0.173 Goal=   None    Shift=    0.000
 RMSDP=1.78D-03 MaxDP=4.37D-02 DE=-1.33D-01 OVMax= 1.23D-01

 Cycle   3  Pass 0  IDiag  1:
 E= -837.429403497288     Delta-E=       -0.168312767914 Rises=F Damp=F
 DIIS: error= 7.34D-03 at cycle   3 NSaved=   3.
 NSaved= 3 IEnMin= 3 EnMin= -837.429403497288     IErMin= 2 ErrMin= 6.95D-03
 ErrMax= 7.34D-03 EMaxC= 1.00D-01 BMatC= 1.90D-02 BMatP= 2.51D-02
 IDIUse=3 WtCom= 9.27D-01 WtEn= 7.34D-02
 Coeff-Com: -0.561D-02 0.459D+00 0.547D+00
 Coeff-En:   0.000D+00 0.000D+00 0.100D+01
 Coeff:     -0.520D-02 0.425D+00 0.580D+00
 Gap=     0.154 Goal=   None    Shift=    0.000
 RMSDP=8.09D-04 MaxDP=2.76D-02 DE=-1.68D-01 OVMax= 5.22D-02

 Cycle   4  Pass 0  IDiag  1:
 E= -837.442576417573     Delta-E=       -0.013172920285 Rises=F Damp=F
 DIIS: error= 4.04D-03 at cycle   4 NSaved=   4.
 NSaved= 4 IEnMin= 4 EnMin= -837.442576417573     IErMin= 4 ErrMin= 4.04D-03
 ErrMax= 4.04D-03 EMaxC= 1.00D-01 BMatC= 4.53D-03 BMatP= 1.90D-02
 IDIUse=3 WtCom= 9.60D-01 WtEn= 4.04D-02
 Coeff-Com: -0.132D-01 0.123D+00 0.348D+00 0.541D+00
 Coeff-En:   0.000D+00 0.000D+00 0.229D+00 0.771D+00
 Coeff:     -0.127D-01 0.118D+00 0.344D+00 0.551D+00
 Gap=     0.154 Goal=   None    Shift=    0.000
 RMSDP=3.32D-04 MaxDP=1.13D-02 DE=-1.32D-02 OVMax= 2.37D-02

 Cycle   5  Pass 0  IDiag  1:
 E= -837.446809905529     Delta-E=       -0.004233487956 Rises=F Damp=F
 DIIS: error= 1.04D-03 at cycle   5 NSaved=   5.
 NSaved= 5 IEnMin= 5 EnMin= -837.446809905529     IErMin= 5 ErrMin= 1.04D-03
 ErrMax= 1.04D-03 EMaxC= 1.00D-01 BMatC= 4.17D-04 BMatP= 4.53D-03
 IDIUse=3 WtCom= 9.90D-01 WtEn= 1.04D-02
 Coeff-Com: -0.632D-02 0.283D-01 0.144D+00 0.317D+00 0.517D+00
 Coeff-En:   0.000D+00 0.000D+00 0.000D+00 0.414D-01 0.959D+00
 Coeff:     -0.625D-02 0.280D-01 0.142D+00 0.315D+00 0.521D+00
 Gap=     0.154 Goal=   None    Shift=    0.000
 RMSDP=9.86D-05 MaxDP=3.71D-03 DE=-4.23D-03 OVMax= 8.66D-03

 Cycle   6  Pass 0  IDiag  1:
 E= -837.447215629632     Delta-E=       -0.000405724104 Rises=F Damp=F
 DIIS: error= 3.35D-04 at cycle   6 NSaved=   6.
 NSaved= 6 IEnMin= 6 EnMin= -837.447215629632     IErMin= 6 ErrMin= 3.35D-04
 ErrMax= 3.35D-04 EMaxC= 1.00D-01 BMatC= 2.84D-05 BMatP= 4.17D-04
 IDIUse=3 WtCom= 9.97D-01 WtEn= 3.35D-03
 Coeff-Com: -0.213D-02 0.455D-02 0.441D-01 0.114D+00 0.279D+00 0.561D+00
 Coeff-En:   0.000D+00 0.000D+00 0.000D+00 0.000D+00 0.000D+00 0.100D+01
 Coeff:     -0.212D-02 0.454D-02 0.439D-01 0.113D+00 0.278D+00 0.562D+00
 Gap=     0.154 Goal=   None    Shift=    0.000
 RMSDP=2.77D-05 MaxDP=1.05D-03 DE=-4.06D-04 OVMax= 2.69D-03

 Cycle   7  Pass 0  IDiag  1:
 E= -837.447241050372     Delta-E=       -0.000025420740 Rises=F Damp=F
 DIIS: error= 1.37D-04 at cycle   7 NSaved=   7.
 NSaved= 7 IEnMin= 7 EnMin= -837.447241050372     IErMin= 7 ErrMin= 1.37D-04
 ErrMax= 1.37D-04 EMaxC= 1.00D-01 BMatC= 2.33D-06 BMatP= 2.84D-05
 IDIUse=3 WtCom= 9.99D-01 WtEn= 1.37D-03
 Coeff-Com: -0.949D-03 0.115D-02 0.185D-01 0.509D-01 0.141D+00 0.327D+00
 Coeff-Com:  0.463D+00
 Coeff-En:   0.000D+00 0.000D+00 0.000D+00 0.000D+00 0.000D+00 0.000D+00
 Coeff-En:   0.100D+01
 Coeff:     -0.948D-03 0.115D-02 0.185D-01 0.508D-01 0.140D+00 0.327D+00
 Coeff:      0.464D+00
 Gap=     0.154 Goal=   None    Shift=    0.000
 RMSDP=8.56D-06 MaxDP=3.69D-04 DE=-2.54D-05 OVMax= 1.04D-03

 Initial convergence to 1.0D-05 achieved.  Increase integral accuracy.
 Cycle   8  Pass 1  IDiag  1:
 E= -837.447258723403     Delta-E=       -0.000017673031 Rises=F Damp=F
 DIIS: error= 4.69D-05 at cycle   1 NSaved=   1.
 NSaved= 1 IEnMin= 1 EnMin= -837.447258723403     IErMin= 1 ErrMin= 4.69D-05
 ErrMax= 4.69D-05 EMaxC= 1.00D-01 BMatC= 4.37D-07 BMatP= 4.37D-07
 IDIUse=1 WtCom= 1.00D+00 WtEn= 0.00D+00
 Coeff-Com:  0.100D+01
 Coeff:      0.100D+01
 Gap=     0.154 Goal=   None    Shift=    0.000
 RMSDP=8.56D-06 MaxDP=3.69D-04 DE=-1.77D-05 OVMax= 8.79D-04

 Cycle   9  Pass 1  IDiag  1:
 E= -837.447257687473     Delta-E=        0.000001035930 Rises=F Damp=F
 DIIS: error= 1.04D-04 at cycle   2 NSaved=   2.
 NSaved= 2 IEnMin= 1 EnMin= -837.447258723403     IErMin= 1 ErrMin= 4.69D-05
 ErrMax= 1.04D-04 EMaxC= 1.00D-01 BMatC= 1.30D-06 BMatP= 4.37D-07
 IDIUse=3 WtCom= 4.95D-01 WtEn= 5.05D-01
 Coeff-Com:  0.647D+00 0.353D+00
 Coeff-En:   0.737D+00 0.263D+00
 Coeff:      0.692D+00 0.308D+00
 Gap=     0.154 Goal=   None    Shift=    0.000
 RMSDP=5.06D-06 MaxDP=2.03D-04 DE= 1.04D-06 OVMax= 6.27D-04

 Cycle  10  Pass 1  IDiag  1:
 E= -837.447259189020     Delta-E=       -0.000001501548 Rises=F Damp=F
 DIIS: error= 6.22D-06 at cycle   3 NSaved=   3.
 NSaved= 3 IEnMin= 3 EnMin= -837.447259189020     IErMin= 3 ErrMin= 6.22D-06
 ErrMax= 6.22D-06 EMaxC= 1.00D-01 BMatC= 6.14D-09 BMatP= 4.37D-07
 IDIUse=1 WtCom= 1.00D+00 WtEn= 0.00D+00
 Coeff-Com:  0.748D-01 0.222D-01 0.903D+00
 Coeff:      0.748D-01 0.222D-01 0.903D+00
 Gap=     0.154 Goal=   None    Shift=    0.000
 RMSDP=6.64D-07 MaxDP=1.67D-05 DE=-1.50D-06 OVMax= 3.20D-05

 Cycle  11  Pass 1  IDiag  1:
 E= -837.447259188857     Delta-E=        0.000000000163 Rises=F Damp=F
 DIIS: error= 4.77D-06 at cycle   4 NSaved=   4.
 NSaved= 4 IEnMin= 3 EnMin= -837.447259189020     IErMin= 4 ErrMin= 4.77D-06
 ErrMax= 4.77D-06 EMaxC= 1.00D-01 BMatC= 5.53D-09 BMatP= 6.14D-09
 IDIUse=1 WtCom= 1.00D+00 WtEn= 0.00D+00
 Coeff-Com: -0.768D-02-0.155D-01 0.501D+00 0.522D+00
 Coeff:     -0.768D-02-0.155D-01 0.501D+00 0.522D+00
 Gap=     0.154 Goal=   None    Shift=    0.000
 RMSDP=3.64D-07 MaxDP=1.55D-05 DE= 1.63D-10 OVMax= 3.25D-05

 Cycle  12  Pass 1  IDiag  1:
 E= -837.447259193333     Delta-E=       -0.000000004477 Rises=F Damp=F
 DIIS: error= 1.77D-06 at cycle   5 NSaved=   5.
 NSaved= 5 IEnMin= 5 EnMin= -837.447259193333     IErMin= 5 ErrMin= 1.77D-06
 ErrMax= 1.77D-06 EMaxC= 1.00D-01 BMatC= 5.26D-10 BMatP= 5.53D-09
 IDIUse=1 WtCom= 1.00D+00 WtEn= 0.00D+00
 Coeff-Com: -0.872D-02-0.110D-01 0.258D+00 0.326D+00 0.436D+00
 Coeff:     -0.872D-02-0.110D-01 0.258D+00 0.326D+00 0.436D+00
 Gap=     0.154 Goal=   None    Shift=    0.000
 RMSDP=1.06D-07 MaxDP=3.81D-06 DE=-4.48D-09 OVMax= 9.09D-06

 Cycle  13  Pass 1  IDiag  1:
 E= -837.447259193894     Delta-E=       -0.000000000560 Rises=F Damp=F
 DIIS: error= 1.90D-07 at cycle   6 NSaved=   6.
 NSaved= 6 IEnMin= 6 EnMin= -837.447259193894     IErMin= 6 ErrMin= 1.90D-07
 ErrMax= 1.90D-07 EMaxC= 1.00D-01 BMatC= 1.38D-11 BMatP= 5.26D-10
 IDIUse=1 WtCom= 1.00D+00 WtEn= 0.00D+00
 Coeff-Com: -0.348D-02-0.415D-02 0.879D-01 0.120D+00 0.206D+00 0.593D+00
 Coeff:     -0.348D-02-0.415D-02 0.879D-01 0.120D+00 0.206D+00 0.593D+00
 Gap=     0.154 Goal=   None    Shift=    0.000
 RMSDP=2.10D-08 MaxDP=6.29D-07 DE=-5.60D-10 OVMax= 1.72D-06

 Cycle  14  Pass 1  IDiag  1:
 E= -837.447259193922     Delta-E=       -0.000000000028 Rises=F Damp=F
 DIIS: error= 1.06D-07 at cycle   7 NSaved=   7.
 NSaved= 7 IEnMin= 7 EnMin= -837.447259193922     IErMin= 7 ErrMin= 1.06D-07
 ErrMax= 1.06D-07 EMaxC= 1.00D-01 BMatC= 2.71D-12 BMatP= 1.38D-11
 IDIUse=1 WtCom= 1.00D+00 WtEn= 0.00D+00
 Coeff-Com: -0.783D-03-0.852D-03 0.138D-01 0.226D-01 0.559D-01 0.339D+00
 Coeff-Com:  0.571D+00
 Coeff:     -0.783D-03-0.852D-03 0.138D-01 0.226D-01 0.559D-01 0.339D+00
 Coeff:      0.571D+00
 Gap=     0.154 Goal=   None    Shift=    0.000
 RMSDP=7.54D-09 MaxDP=2.93D-07 DE=-2.80D-11 OVMax= 7.17D-07

 SCF Done:  E(RB3LYP) =  -837.447259194     A.U. after   14 cycles
             Convg  =    0.7540D-08             -V/T =  2.0084
 KE= 8.304492270079D+02 PE=-4.069421167386D+03 EE= 1.348124713966D+03
 Leave Link  502 at Tue Sep 28 23:07:22 2021, MaxMem= 1073741824 cpu:     231.1
 (Enter /sw/target/amd/app/gaussian/Gaussian09RevA.02_gcc-4.9.2/g09/l508.exe)
 QCSCF skips out because SCF is already converged.
 Leave Link  508 at Tue Sep 28 23:07:23 2021, MaxMem= 1073741824 cpu:       0.0
 (Enter /sw/target/amd/app/gaussian/Gaussian09RevA.02_gcc-4.9.2/g09/l601.exe)
 Copying SCF densities to generalized density rwf, IOpCl= 0 IROHF=0.

 **********************************************************************

            Population analysis using the SCF density.

 **********************************************************************

 Orbital symmetries:
       Occupied  (A) (A) (A) (A) (A) (A) (A) (A) (A) (A) (A) (A)
                 (A) (A) (A) (A) (A) (A) (A) (A) (A) (A) (A) (A)
                 (A) (A) (A) (A) (A) (A) (A) (A) (A) (A) (A) (A)
                 (A) (A) (A) (A) (A) (A) (A) (A) (A) (A) (A) (A)
                 (A) (A) (A) (A) (A) (A) (A) (A) (A) (A)
       Virtual   (A) (A) (A) (A) (A) (A) (A) (A) (A) (A) (A) (A)
                 (A) (A) (A) (A) (A) (A) (A) (A) (A) (A) (A) (A)
                 (A) (A) (A) (A) (A) (A) (A) (A) (A) (A) (A) (A)
                 (A) (A) (A) (A) (A) (A) (A) (A) (A) (A) (A) (A)
                 (A) (A) (A) (A) (A) (A) (A) (A) (A) (A) (A) (A)
                 (A) (A) (A) (A) (A) (A) (A) (A) (A) (A) (A) (A)
                 (A) (A) (A) (A) (A) (A) (A) (A) (A) (A) (A) (A)
                 (A) (A) (A) (A) (A) (A) (A) (A) (A) (A) (A) (A)
                 (A) (A) (A) (A) (A) (A) (A) (A) (A) (A) (A) (A)
                 (A) (A) (A) (A) (A) (A) (A) (A) (A) (A) (A) (A)
                 (A) (A) (A) (A) (A) (A) (A) (A) (A) (A) (A) (A)
                 (A) (A) (A) (A) (A) (A) (A) (A) (A) (A) (A) (A)
                 (A) (A) (A) (A) (A) (A) (A) (A) (A) (A) (A) (A)
                 (A) (A) (A) (A) (A) (A) (A) (A) (A) (A) (A) (A)
                 (A) (A) (A) (A) (A) (A) (A) (A) (A) (A) (A) (A)
                 (A) (A) (A) (A) (A) (A) (A) (A) (A) (A) (A) (A)
                 (A) (A) (A) (A) (A) (A) (A) (A)
 The electronic state is 1-A.
 Alpha  occ. eigenvalues --  -24.71688 -24.71100 -24.71098 -19.18862 -10.42689
 Alpha  occ. eigenvalues --  -10.25947 -10.24925 -10.21412 -10.20923 -10.20687
 Alpha  occ. eigenvalues --  -10.20611 -10.20443 -10.20405 -10.20358 -10.19927
 Alpha  occ. eigenvalues --  -10.19176  -1.28676  -1.20110  -1.19760  -1.07301
 Alpha  occ. eigenvalues --   -0.88875  -0.83764  -0.78743  -0.77313  -0.73963
 Alpha  occ. eigenvalues --   -0.71405  -0.67869  -0.64352  -0.61516  -0.61241
 Alpha  occ. eigenvalues --   -0.56700  -0.56620  -0.56106  -0.54048  -0.51798
 Alpha  occ. eigenvalues --   -0.49071  -0.47971  -0.47662  -0.45761  -0.44924
 Alpha  occ. eigenvalues --   -0.44545  -0.44054  -0.42733  -0.41662  -0.41137
 Alpha  occ. eigenvalues --   -0.40097  -0.40028  -0.39889  -0.39283  -0.38608
 Alpha  occ. eigenvalues --   -0.36246  -0.35647  -0.35313  -0.33751  -0.31353
 Alpha  occ. eigenvalues --   -0.28895  -0.24774  -0.21094
 Alpha virt. eigenvalues --   -0.05666  -0.01495   0.02112   0.08394   0.08445
 Alpha virt. eigenvalues --    0.09873   0.11237   0.11798   0.13432   0.13737
 Alpha virt. eigenvalues --    0.14508   0.16011   0.17374   0.18180   0.18317
 Alpha virt. eigenvalues --    0.18966   0.22010   0.22608   0.23360   0.25226
 Alpha virt. eigenvalues --    0.26163   0.27214   0.31730   0.32974   0.34923
 Alpha virt. eigenvalues --    0.35184   0.39065   0.46304   0.47833   0.48207
 Alpha virt. eigenvalues --    0.49114   0.49730   0.50860   0.50991   0.53166
 Alpha virt. eigenvalues --    0.53864   0.54040   0.55196   0.55569   0.56087
 Alpha virt. eigenvalues --    0.57838   0.58186   0.58521   0.59625   0.60270
 Alpha virt. eigenvalues --    0.60654   0.61127   0.62241   0.64522   0.66697
 Alpha virt. eigenvalues --    0.66768   0.68661   0.73087   0.73666   0.73917
 Alpha virt. eigenvalues --    0.77378   0.80669   0.81413   0.82864   0.82963
 Alpha virt. eigenvalues --    0.83613   0.83873   0.85108   0.85742   0.86458
 Alpha virt. eigenvalues --    0.89750   0.91390   0.92656   0.93168   0.95475
 Alpha virt. eigenvalues --    0.96290   0.99236   1.01688   1.03016   1.03907
 Alpha virt. eigenvalues --    1.05861   1.07739   1.09104   1.10206   1.11204
 Alpha virt. eigenvalues --    1.11935   1.14883   1.17669   1.20675   1.21286
 Alpha virt. eigenvalues --    1.22001   1.23218   1.24664   1.25858   1.31748
 Alpha virt. eigenvalues --    1.33481   1.34790   1.35737   1.36235   1.37967
 Alpha virt. eigenvalues --    1.38720   1.39262   1.39416   1.40984   1.41324
 Alpha virt. eigenvalues --    1.45773   1.45874   1.47539   1.48264   1.48749
 Alpha virt. eigenvalues --    1.49871   1.50962   1.51278   1.58231   1.61870
 Alpha virt. eigenvalues --    1.67441   1.67727   1.69560   1.73445   1.75530
 Alpha virt. eigenvalues --    1.77043   1.80864   1.83820   1.83877   1.85406
 Alpha virt. eigenvalues --    1.86123   1.86764   1.88495   1.89527   1.90829
 Alpha virt. eigenvalues --    1.92628   1.93313   1.93869   1.95696   1.97065
 Alpha virt. eigenvalues --    1.99254   1.99964   2.00401   2.00774   2.03151
 Alpha virt. eigenvalues --    2.05387   2.05777   2.08162   2.08525   2.09427
 Alpha virt. eigenvalues --    2.11171   2.12339   2.13044   2.17353   2.17772
 Alpha virt. eigenvalues --    2.18795   2.21266   2.24175   2.25828   2.25963
 Alpha virt. eigenvalues --    2.28256   2.31538   2.32555   2.33946   2.37090
 Alpha virt. eigenvalues --    2.37949   2.40048   2.42046   2.45932   2.51082
 Alpha virt. eigenvalues --    2.55295   2.60019   2.62477   2.63113   2.66558
 Alpha virt. eigenvalues --    2.67901   2.68887   2.74320   2.75920   2.77234
 Alpha virt. eigenvalues --    2.81513   2.82203   2.85221   2.88249   2.94290
 Alpha virt. eigenvalues --    2.96611   2.99956   3.03142   3.03857   3.09260
 Alpha virt. eigenvalues --    3.12366   3.16014   3.38249   3.49242   4.04314
 Alpha virt. eigenvalues --    4.07455   4.09117   4.10500   4.12083   4.19196
 Alpha virt. eigenvalues --    4.26071   4.28401   4.28797   4.33985   4.39830
 Alpha virt. eigenvalues --    4.49904   4.63567   4.72503   4.85209   5.57149
          Condensed to atoms (all electrons):
              1          2          3          4          5          6
     1  C    4.899454   0.245326  -0.043180  -0.005993   0.000454  -0.000046
     2  O    0.245326   8.198307   0.276099  -0.060437   0.003479   0.000366
     3  C   -0.043180   0.276099   4.556507   0.418587   0.013072  -0.037015
     4  C   -0.005993  -0.060437   0.418587   5.147733   0.459303  -0.003244
     5  C    0.000454   0.003479   0.013072   0.459303   5.145719   0.443024
     6  C   -0.000046   0.000366  -0.037015  -0.003244   0.443024   4.718115
     7  C   -0.000036   0.001964   0.010790  -0.039500  -0.026453   0.485141
     8  C    0.003964  -0.049475   0.495147  -0.056781  -0.076239  -0.031750
     9  C    0.000004  -0.000081   0.008207  -0.000757   0.017363  -0.027075
    10  C   -0.000000   0.000000  -0.000341   0.000054  -0.000334  -0.037983
    11  C    0.000000  -0.000000   0.000053  -0.000369   0.008783   0.001101
    12  C   -0.000000   0.000001  -0.000934   0.009580  -0.097340   0.389853
    13  C   -0.000000  -0.000000  -0.000000   0.000002  -0.000189   0.003457
    14  F    0.000000  -0.000000   0.000000   0.000000   0.000000  -0.000027
    15  F    0.000000   0.000000   0.000000  -0.000000  -0.000001   0.000322
    16  F    0.000000   0.000000   0.000000  -0.000000  -0.000001   0.000320
    17  H    0.384750  -0.030625   0.003279   0.000158   0.000002   0.000000
    18  H    0.365266  -0.035459  -0.005314   0.004370  -0.000136  -0.000001
    19  H    0.365315  -0.035467  -0.005322   0.004336  -0.000134  -0.000001
    20  H    0.005950  -0.006971  -0.043692   0.352155  -0.033148   0.002441
    21  H   -0.000005  -0.000046   0.002846  -0.040124   0.354268  -0.036304
    22  H   -0.000213   0.000484  -0.037998   0.007514  -0.000075   0.005033
    23  H    0.000000  -0.000002   0.000162   0.000010  -0.000201   0.004308
    24  H    0.000000  -0.000000   0.000003  -0.000001   0.000011   0.000888
    25  H    0.000000  -0.000000   0.000009   0.000233  -0.008123  -0.036582
              7          8          9         10         11         12
     1  C   -0.000036   0.003964   0.000004  -0.000000   0.000000  -0.000000
     2  O    0.001964  -0.049475  -0.000081   0.000000  -0.000000   0.000001
     3  C    0.010790   0.495147   0.008207  -0.000341   0.000053  -0.000934
     4  C   -0.039500  -0.056781  -0.000757   0.000054  -0.000369   0.009580
     5  C   -0.026453  -0.076239   0.017363  -0.000334   0.008783  -0.097340
     6  C    0.485141  -0.031750  -0.027075  -0.037983   0.001101   0.389853
     7  C    4.662215   0.426174   0.442205  -0.005736  -0.032009  -0.032412
     8  C    0.426174   5.289552  -0.096886   0.008473  -0.000697   0.018338
     9  C    0.442205  -0.096886   5.175781   0.460655  -0.014540  -0.078780
    10  C   -0.005736   0.008473   0.460655   5.033622   0.475670  -0.048930
    11  C   -0.032009  -0.000697  -0.014540   0.475670   5.105857   0.415981
    12  C   -0.032412   0.018338  -0.078780  -0.048930   0.415981   5.322694
    13  C    0.000373   0.000001   0.004833  -0.032952   0.285693  -0.013560
    14  F   -0.000007   0.000000   0.000614   0.003983  -0.045686   0.003085
    15  F   -0.000005  -0.000000  -0.000021   0.001401  -0.053074   0.002624
    16  F   -0.000005  -0.000000  -0.000021   0.001397  -0.053077   0.002610
    17  H    0.000001  -0.000087  -0.000000   0.000000   0.000000  -0.000000
    18  H    0.000005   0.000068  -0.000000  -0.000000   0.000000   0.000000
    19  H    0.000005   0.000063  -0.000000  -0.000000   0.000000   0.000000
    20  H    0.001039   0.004040   0.000011  -0.000001   0.000003  -0.000207
    21  H    0.004316   0.000656  -0.000208   0.000016   0.000217  -0.008132
    22  H   -0.042338   0.344956  -0.008903   0.000218   0.000009  -0.000149
    23  H   -0.038656  -0.007898   0.356424  -0.041755   0.003533   0.000772
    24  H    0.002512  -0.000181  -0.031969   0.354811  -0.042679   0.004600
    25  H    0.004495  -0.000182   0.000467   0.004532  -0.050506   0.354306
             13         14         15         16         17         18
     1  C   -0.000000   0.000000   0.000000   0.000000   0.384750   0.365266
     2  O   -0.000000  -0.000000   0.000000   0.000000  -0.030625  -0.035459
     3  C   -0.000000   0.000000   0.000000   0.000000   0.003279  -0.005314
     4  C    0.000002   0.000000  -0.000000  -0.000000   0.000158   0.004370
     5  C   -0.000189   0.000000  -0.000001  -0.000001   0.000002  -0.000136
     6  C    0.003457  -0.000027   0.000322   0.000320   0.000000  -0.000001
     7  C    0.000373  -0.000007  -0.000005  -0.000005   0.000001   0.000005
     8  C    0.000001   0.000000  -0.000000  -0.000000  -0.000087   0.000068
     9  C    0.004833   0.000614  -0.000021  -0.000021  -0.000000  -0.000000
    10  C   -0.032952   0.003983   0.001401   0.001397   0.000000  -0.000000
    11  C    0.285693  -0.045686  -0.053074  -0.053077   0.000000   0.000000
    12  C   -0.013560   0.003085   0.002624   0.002610  -0.000000   0.000000
    13  C    4.127680   0.284927   0.281656   0.281675  -0.000000   0.000000
    14  F    0.284927   9.101692  -0.038943  -0.038946   0.000000  -0.000000
    15  F    0.281656  -0.038943   9.116600  -0.040003   0.000000  -0.000000
    16  F    0.281675  -0.038946  -0.040003   9.116618   0.000000   0.000000
    17  H   -0.000000   0.000000   0.000000   0.000000   0.535851  -0.033202
    18  H    0.000000  -0.000000  -0.000000   0.000000  -0.033202   0.592378
    19  H    0.000000  -0.000000   0.000000  -0.000000  -0.033242  -0.045539
    20  H   -0.000000   0.000000   0.000000   0.000000  -0.000123   0.001783
    21  H   -0.000002  -0.000000   0.000000   0.000000  -0.000000   0.000002
    22  H    0.000000  -0.000000  -0.000000  -0.000000  -0.000026   0.000030
    23  H   -0.000108   0.000001   0.000000   0.000000  -0.000000  -0.000000
    24  H   -0.006073   0.008271   0.000132   0.000132  -0.000000  -0.000000
    25  H   -0.002918   0.000065   0.001891   0.001891  -0.000000   0.000000
             19         20         21         22         23         24
     1  C    0.365315   0.005950  -0.000005  -0.000213   0.000000   0.000000
     2  O   -0.035467  -0.006971  -0.000046   0.000484  -0.000002  -0.000000
     3  C   -0.005322  -0.043692   0.002846  -0.037998   0.000162   0.000003
     4  C    0.004336   0.352155  -0.040124   0.007514   0.000010  -0.000001
     5  C   -0.000134  -0.033148   0.354268  -0.000075  -0.000201   0.000011
     6  C   -0.000001   0.002441  -0.036304   0.005033   0.004308   0.000888
     7  C    0.000005   0.001039   0.004316  -0.042338  -0.038656   0.002512
     8  C    0.000063   0.004040   0.000656   0.344956  -0.007898  -0.000181
     9  C   -0.000000   0.000011  -0.000208  -0.008903   0.356424  -0.031969
    10  C   -0.000000  -0.000001   0.000016   0.000218  -0.041755   0.354811
    11  C    0.000000   0.000003   0.000217   0.000009   0.003533  -0.042679
    12  C    0.000000  -0.000207  -0.008132  -0.000149   0.000772   0.004600
    13  C    0.000000  -0.000000  -0.000002   0.000000  -0.000108  -0.006073
    14  F   -0.000000   0.000000  -0.000000  -0.000000   0.000001   0.008271
    15  F    0.000000   0.000000   0.000000  -0.000000   0.000000   0.000132
    16  F   -0.000000   0.000000   0.000000  -0.000000   0.000000   0.000132
    17  H   -0.033242  -0.000123  -0.000000  -0.000026  -0.000000  -0.000000
    18  H   -0.045539   0.001783   0.000002   0.000030  -0.000000  -0.000000
    19  H    0.592438   0.001789   0.000002   0.000030  -0.000000  -0.000000
    20  H    0.001789   0.580505  -0.005061  -0.000167  -0.000000  -0.000000
    21  H    0.000002  -0.005061   0.579523   0.000017   0.000002  -0.000000
    22  H    0.000030  -0.000167   0.000017   0.584629   0.005683  -0.000012
    23  H   -0.000000  -0.000000   0.000002   0.005683   0.582883  -0.004722
    24  H   -0.000000  -0.000000  -0.000000  -0.000012  -0.004722   0.562676
    25  H    0.000000  -0.000013   0.006066   0.000002   0.000020  -0.000175
             25
     1  C    0.000000
     2  O   -0.000000
     3  C    0.000009
     4  C    0.000233
     5  C   -0.008123
     6  C   -0.036582
     7  C    0.004495
     8  C   -0.000182
     9  C    0.000467
    10  C    0.004532
    11  C   -0.050506
    12  C    0.354306
    13  C   -0.002918
    14  F    0.000065
    15  F    0.001891
    16  F    0.001891
    17  H   -0.000000
    18  H    0.000000
    19  H    0.000000
    20  H   -0.000013
    21  H    0.006066
    22  H    0.000002
    23  H    0.000020
    24  H   -0.000175
    25  H    0.573347
 Mulliken atomic charges:
              1
     1  C   -0.221010
     2  O   -0.507462
     3  C    0.389033
     4  C   -0.196831
     5  C   -0.203103
     6  C    0.155661
     7  C    0.175918
     8  C   -0.271256
     9  C   -0.207323
    10  C   -0.176801
    11  C   -0.004264
    12  C   -0.243999
    13  C    0.785504
    14  F   -0.279028
    15  F   -0.272579
    16  F   -0.272591
    17  H    0.173264
    18  H    0.155749
    19  H    0.155728
    20  H    0.139669
    21  H    0.141953
    22  H    0.141276
    23  H    0.139544
    24  H    0.151775
    25  H    0.151173
 Sum of Mulliken atomic charges =  -0.00000
 Mulliken charges with hydrogens summed into heavy atoms:
              1
     1  C    0.263732
     2  O   -0.507462
     3  C    0.389033
     4  C   -0.057162
     5  C   -0.061151
     6  C    0.155661
     7  C    0.175918
     8  C   -0.129981
     9  C   -0.067779
    10  C   -0.025025
    11  C   -0.004264
    12  C   -0.092826
    13  C    0.785504
    14  F   -0.279028
    15  F   -0.272579
    16  F   -0.272591
 Sum of Mulliken charges with hydrogens summed into heavy atoms =  -0.00000
 Electronic spatial extent (au):  <R**2>=           4828.6851
 Charge=             -0.0000 electrons
 Dipole moment (field-independent basis, Debye):
    X=              4.3269    Y=             -0.7907    Z=             -0.0024  Tot=              4.3986
 Quadrupole moment (field-independent basis, Debye-Ang):
   XX=            -84.6040   YY=            -81.5940   ZZ=            -92.7814
   XY=             -8.2605   XZ=             -0.0154   YZ=             -0.0028
 Traceless Quadrupole moment (field-independent basis, Debye-Ang):
   XX=              1.7225   YY=              4.7325   ZZ=             -6.4550
   XY=             -8.2605   XZ=             -0.0154   YZ=             -0.0028
 Octapole moment (field-independent basis, Debye-Ang**2):
  XXX=             80.2296  YYY=             -3.0515  ZZZ=             -0.0094  XYY=            -17.6597
  XXY=            -26.0867  XXZ=             -0.0934  XZZ=            -20.3901  YZZ=             -2.0531
  YYZ=              0.0085  XYZ=             -0.0075
 Hexadecapole moment (field-independent basis, Debye-Ang**3):
 XXXX=          -4387.3958 YYYY=           -635.5756 ZZZZ=           -158.1618 XXXY=           -129.1283
 XXXZ=             -0.4955 YYYX=             22.9332 YYYZ=             -0.0140 ZZZX=              0.0053
 ZZZY=              0.0090 XXYY=           -915.8135 XXZZ=           -852.3150 YYZZ=           -152.3944
 XXYZ=             -0.0418 YYXZ=              0.0179 ZZXY=              6.4675
 N-N= 1.053399967218D+03 E-N=-4.069421164492D+03  KE= 8.304492270079D+02
 No NMR shielding tensors so no spin-rotation constants.
 Leave Link  601 at Tue Sep 28 23:07:25 2021, MaxMem= 1073741824 cpu:       1.3
 (Enter /sw/target/amd/app/gaussian/Gaussian09RevA.02_gcc-4.9.2/g09/l701.exe)
 Compute integral first derivatives.
 ... and contract with generalized density number  0.
 Leave Link  701 at Tue Sep 28 23:07:28 2021, MaxMem= 1073741824 cpu:       1.2
 (Enter /sw/target/amd/app/gaussian/Gaussian09RevA.02_gcc-4.9.2/g09/l702.exe)
 L702 exits ... SP integral derivatives will be done elsewhere.
 Leave Link  702 at Tue Sep 28 23:07:28 2021, MaxMem= 1073741824 cpu:       0.1
 (Enter /sw/target/amd/app/gaussian/Gaussian09RevA.02_gcc-4.9.2/g09/l703.exe)
 Compute integral first derivatives, UseDBF=F ICtDFT=           0.
 Integral derivatives from FoFDir, PRISM(SPDF).
 Calling FoFJK, ICntrl=      2127 FMM=F ISym2X=0 I1Cent= 0 IOpClX= 0 NMat=1 NMatS=1 NMatT=0.
 FoFCou: FMM=F IPFlag=           0 FMFlag=      100000 FMFlg1=         800
         NFxFlg=           0 DoJE=F BraDBF=F KetDBF=F FulRan=T
         Omega=  0.000000  0.000000  1.000000  0.000000  0.000000 ICntrl=    2127 IOpCl=  0
         NMat0=    1 NMatS0=    1 NMatT0=    0 NMatD0=    1 NMtDS0=    0 NMtDT0=    0
         I1Cent=           0 NGrid=           0.
 Symmetry not used in FoFCou.
 Leave Link  703 at Tue Sep 28 23:09:12 2021, MaxMem= 1073741824 cpu:      89.3
 (Enter /sw/target/amd/app/gaussian/Gaussian09RevA.02_gcc-4.9.2/g09/l716.exe)
 Dipole        = 1.70234257D+00-3.11082242D-01-9.62506632D-04
 ***** Axes restored to original set *****
 -------------------------------------------------------------------
 Center     Atomic                   Forces (Hartrees/Bohr)
 Number     Number              X              Y              Z
 -------------------------------------------------------------------
      1        6          -0.001570401   -0.001643169   -0.004784563
      2        8          -0.003908371   -0.003088733    0.005562688
      3        6           0.016700965    0.013255090   -0.025763812
      4        6           0.000114787    0.001734481    0.031101247
      5        6          -0.017588791   -0.016007212   -0.011261044
      6        6           0.000542423    0.001416105    0.017132320
      7        6          -0.002889112   -0.003425015   -0.017475650
      8        6          -0.009202626   -0.008296988   -0.004023938
      9        6           0.020289183    0.018263301    0.010475293
     10        6          -0.002146775   -0.003180018   -0.024416125
     11        6          -0.014677620   -0.012161006    0.012512338
     12        6           0.020614158    0.018454567    0.009317816
     13        6           0.007732957    0.007251331    0.009509022
     14        9          -0.007470375   -0.006731382   -0.003690211
     15        9          -0.000088738   -0.005551792   -0.004614000
     16        9          -0.005273392    0.000382879   -0.004948311
     17        1           0.003630487    0.003072293   -0.001432141
     18        1          -0.000291229   -0.000940844    0.003372049
     19        1          -0.001159209    0.000033454    0.003318912
     20        1          -0.000087907   -0.000156678   -0.001926555
     21        1           0.001334372    0.001139947   -0.000693738
     22        1          -0.000760160   -0.000574731    0.001436752
     23        1          -0.001502383   -0.001242169    0.001188586
     24        1          -0.001901192   -0.001535110    0.002267201
     25        1          -0.000441051   -0.000468598   -0.002164136
 -------------------------------------------------------------------
 Cartesian Forces:  Max     0.031101247 RMS     0.009658934
 Leave Link  716 at Tue Sep 28 23:09:12 2021, MaxMem= 1073741824 cpu:       0.1
 (Enter /sw/target/amd/app/gaussian/Gaussian09RevA.02_gcc-4.9.2/g09/l103.exe)

 GradGradGradGradGradGradGradGradGradGradGradGradGradGradGradGradGradGrad
 Berny optimization.
 Internal  Forces:  Max     0.020770808 RMS     0.005100826
 Search for a local minimum.
 Step number   1 out of a maximum of  134
 All quantities printed in internal units (Hartrees-Bohrs-Radians)
 RMS Force = .51008D-02 SwitMx=.10000D-02 MixMth= 1
 Mixed Optimization -- RFO/linear search
 Second derivative matrix not updated -- first step.
     Eigenvalues ---    0.00660   0.01395   0.01491   0.02000   0.02010
     Eigenvalues ---    0.02019   0.02032   0.02044   0.02064   0.02074
     Eigenvalues ---    0.02074   0.02082   0.02086   0.02104   0.02112
     Eigenvalues ---    0.02133   0.02137   0.02156   0.09990   0.10271
     Eigenvalues ---    0.10534   0.10539   0.16000   0.16000   0.16000
     Eigenvalues ---    0.16000   0.16000   0.16000   0.16000   0.16000
     Eigenvalues ---    0.16000   0.22268   0.22586   0.23499   0.23530
     Eigenvalues ---    0.24468   0.24776   0.25000   0.25000   0.25000
     Eigenvalues ---    0.25000   0.25000   0.25000   0.31553   0.34224
     Eigenvalues ---    0.34224   0.34335   0.34824   0.34924   0.34968
     Eigenvalues ---    0.35030   0.35052   0.35406   0.38802   0.40901
     Eigenvalues ---    0.41553   0.42099   0.43403   0.44669   0.44899
     Eigenvalues ---    0.45223   0.45421   0.45594   0.45758   0.46386
     Eigenvalues ---    0.51324   0.52496   0.52506   0.525091000.00000
     Eigenvalues --- 1000.000001000.000001000.000001000.000001000.00000
     Eigenvalues --- 1000.000001000.000001000.000001000.000001000.00000
     Eigenvalues --- 1000.000001000.000001000.000001000.000001000.00000
     Eigenvalues --- 1000.000001000.000001000.000001000.000001000.00000
     Eigenvalues --- 1000.000001000.000001000.000001000.000001000.00000
     Eigenvalues --- 1000.000001000.000001000.000001000.000001000.00000
     Eigenvalues --- 1000.000001000.000001000.000001000.000001000.00000
     Eigenvalues --- 1000.000001000.000001000.000001000.000001000.00000
     Eigenvalues --- 1000.000001000.000001000.000001000.000001000.00000
     Eigenvalues --- 1000.000001000.000001000.000001000.000001000.00000
     Eigenvalues --- 1000.000001000.000001000.000001000.00000
 RFO step:  Lambda=-8.40074777D-03 EMin= 6.60188192D-03
 Linear search not attempted -- first point.
 Iteration  1 RMS(Cart)=  0.02202617 RMS(Int)=  0.00024278
 Iteration  2 RMS(Cart)=  0.00029444 RMS(Int)=  0.00005454
 Iteration  3 RMS(Cart)=  0.00000003 RMS(Int)=  0.00005454
 Variable       Old X    -DE/DX   Delta X   Delta X   Delta X     New X
                                 (Linear)    (Quad)   (Total)
    R1        2.68797  -0.00068   0.00000  -0.00158  -0.00158   2.68639
    R2        2.06769  -0.00118   0.00000  -0.00336  -0.00336   2.06432
    R3        2.06953   0.00136   0.00000   0.00389   0.00389   2.07342
    R4        2.06953   0.00137   0.00000   0.00390   0.00390   2.07343
    R5        2.58553  -0.00201   0.00000  -0.00385  -0.00385   2.58168
    R6        2.63215   0.02030   0.00000   0.04095   0.04096   2.67311
    R7        2.64266  -0.00842   0.00000  -0.01870  -0.01870   2.62396
    R8        2.64289  -0.01431   0.00000  -0.03161  -0.03160   2.61129
    R9        2.05020  -0.00041   0.00000  -0.00114  -0.00114   2.04906
   R10        2.64988   0.01152   0.00000   0.02568   0.02568   2.67556
   R11        2.05590  -0.00115   0.00000  -0.00321  -0.00321   2.05269
   R12        2.66676   0.02077   0.00000   0.05087   0.05081   2.71757
   R13        2.65305   0.00852   0.00000   0.01969   0.01965   2.67270
   R14        2.65543   0.00605   0.00000   0.01423   0.01422   2.66965
   R15        2.65355   0.01252   0.00000   0.02875   0.02874   2.68229
   R16        2.05627  -0.00162   0.00000  -0.00453  -0.00453   2.05174
   R17        2.64091  -0.01650   0.00000  -0.03629  -0.03625   2.60466
   R18        2.05727  -0.00168   0.00000  -0.00469  -0.00469   2.05258
   R19        2.64638   0.01228   0.00000   0.02395   0.02401   2.67039
   R20        2.05799  -0.00297   0.00000  -0.00831  -0.00831   2.04968
   R21        2.65432  -0.01863   0.00000  -0.04216  -0.04215   2.61217
   R22        2.84970  -0.00749   0.00000  -0.02313  -0.02313   2.82657
   R23        2.05961  -0.00193   0.00000  -0.00542  -0.00542   2.05419
   R24        2.57415  -0.00814   0.00000  -0.01526  -0.01526   2.55889
   R25        2.57418  -0.00574   0.00000  -0.01076  -0.01076   2.56342
   R26        2.57427  -0.00577   0.00000  -0.01081  -0.01081   2.56346
    A1        1.88239  -0.00686   0.00000  -0.03918  -0.03910   1.84329
    A2        1.93939   0.00194   0.00000   0.01073   0.01078   1.95018
    A3        1.93933   0.00197   0.00000   0.01087   0.01092   1.95025
    A4        1.87964   0.00312   0.00000   0.02009   0.02018   1.89982
    A5        1.87968   0.00311   0.00000   0.02000   0.02009   1.89977
    A6        1.94042  -0.00332   0.00000  -0.02247  -0.02245   1.91797
    A7        2.03841   0.00648   0.00000   0.02508   0.02508   2.06349
    A8        2.19730  -0.00805   0.00000  -0.02968  -0.02967   2.16763
    A9        2.00360   0.00373   0.00000   0.01591   0.01591   2.01952
   A10        2.08228   0.00433   0.00000   0.01377   0.01376   2.09604
   A11        2.09716   0.00047   0.00000  -0.00185  -0.00184   2.09532
   A12        2.12797  -0.00217   0.00000  -0.01058  -0.01059   2.11738
   A13        2.05806   0.00170   0.00000   0.01244   0.01243   2.07049
   A14        2.11019   0.00122   0.00000   0.00637   0.00637   2.11657
   A15        2.07215   0.00092   0.00000   0.00594   0.00594   2.07809
   A16        2.10084  -0.00215   0.00000  -0.01231  -0.01231   2.08853
   A17        2.08075  -0.00320   0.00000  -0.01054  -0.01051   2.07024
   A18        2.11790   0.00528   0.00000   0.01357   0.01363   2.13154
   A19        2.08453  -0.00208   0.00000  -0.00303  -0.00312   2.08141
   A20        2.07945  -0.00082   0.00000  -0.00110  -0.00111   2.07835
   A21        2.08048  -0.00411   0.00000  -0.01057  -0.01063   2.06985
   A22        2.12325   0.00493   0.00000   0.01167   0.01173   2.13499
   A23        2.11654  -0.00201   0.00000  -0.00664  -0.00668   2.10986
   A24        2.07026   0.00041   0.00000  -0.00020  -0.00018   2.07008
   A25        2.09639   0.00160   0.00000   0.00684   0.00686   2.10325
   A26        2.10871  -0.00032   0.00000   0.00064   0.00067   2.10937
   A27        2.09833  -0.00143   0.00000  -0.00978  -0.00979   2.08855
   A28        2.07615   0.00175   0.00000   0.00913   0.00912   2.08527
   A29        2.10201   0.00109   0.00000  -0.00130  -0.00121   2.10080
   A30        2.07960   0.00101   0.00000   0.00987   0.00983   2.08942
   A31        2.10158  -0.00210   0.00000  -0.00857  -0.00861   2.09296
   A32        2.07434   0.00835   0.00000   0.02633   0.02639   2.10074
   A33        2.12011  -0.00320   0.00000  -0.00940  -0.00943   2.11068
   A34        2.08873  -0.00515   0.00000  -0.01693  -0.01696   2.07176
   A35        2.11630  -0.00293   0.00000  -0.01207  -0.01210   2.10420
   A36        2.09038   0.00027   0.00000  -0.00108  -0.00107   2.08931
   A37        2.07650   0.00267   0.00000   0.01315   0.01316   2.08967
   A38        1.98509  -0.00928   0.00000  -0.03496  -0.03521   1.94988
   A39        1.96252  -0.00407   0.00000  -0.01621  -0.01641   1.94611
   A40        1.96254  -0.00407   0.00000  -0.01625  -0.01646   1.94608
   A41        1.84784   0.00774   0.00000   0.03080   0.03057   1.87841
   A42        1.84783   0.00773   0.00000   0.03076   0.03053   1.87836
   A43        1.84721   0.00399   0.00000   0.01367   0.01352   1.86073
    D1        3.13994   0.00000   0.00000   0.00012   0.00012   3.14006
    D2        1.08355  -0.00072   0.00000  -0.00658  -0.00652   1.07703
    D3       -1.08684   0.00073   0.00000   0.00678   0.00672  -1.08012
    D4        0.00227  -0.00001   0.00000  -0.00034  -0.00034   0.00193
    D5       -3.13913  -0.00002   0.00000  -0.00071  -0.00071  -3.13984
    D6       -3.14141  -0.00001   0.00000  -0.00031  -0.00031   3.14147
    D7        0.00064  -0.00002   0.00000  -0.00056  -0.00056   0.00008
    D8       -0.00001   0.00000   0.00000   0.00008   0.00008   0.00007
    D9       -3.14115  -0.00001   0.00000  -0.00017  -0.00017  -3.14132
   D10        3.14154   0.00001   0.00000   0.00020   0.00021  -3.14143
   D11       -0.00025   0.00001   0.00000   0.00035   0.00035   0.00010
   D12        0.00013  -0.00000   0.00000  -0.00014  -0.00014  -0.00001
   D13        3.14152   0.00000   0.00000   0.00000   0.00000   3.14152
   D14       -0.00005   0.00000   0.00000   0.00001   0.00001  -0.00004
   D15       -3.14135  -0.00001   0.00000  -0.00018  -0.00018  -3.14153
   D16        3.14110   0.00001   0.00000   0.00024   0.00025   3.14135
   D17       -0.00020   0.00000   0.00000   0.00005   0.00005  -0.00014
   D18        0.00000  -0.00000   0.00000  -0.00004  -0.00004  -0.00004
   D19        3.14153   0.00000   0.00000   0.00001   0.00001   3.14154
   D20        3.14130   0.00000   0.00000   0.00016   0.00016   3.14146
   D21       -0.00036   0.00001   0.00000   0.00021   0.00021  -0.00015
   D22        0.00010  -0.00000   0.00000  -0.00002  -0.00002   0.00009
   D23        3.14141   0.00000   0.00000   0.00013   0.00013   3.14154
   D24       -3.14142  -0.00000   0.00000  -0.00007  -0.00007  -3.14149
   D25       -0.00011   0.00000   0.00000   0.00008   0.00008  -0.00003
   D26        3.14158   0.00000   0.00000   0.00006   0.00006  -3.14155
   D27        0.00064  -0.00001   0.00000  -0.00046  -0.00046   0.00019
   D28       -0.00008   0.00000   0.00000   0.00010   0.00010   0.00003
   D29       -3.14101  -0.00001   0.00000  -0.00041  -0.00041  -3.14142
   D30       -0.00017   0.00000   0.00000   0.00011   0.00011  -0.00006
   D31       -3.14156  -0.00000   0.00000  -0.00004  -0.00004   3.14159
   D32       -3.14147  -0.00000   0.00000  -0.00004  -0.00004  -3.14151
   D33        0.00032  -0.00000   0.00000  -0.00018  -0.00018   0.00014
   D34        0.00022  -0.00001   0.00000  -0.00021  -0.00021   0.00002
   D35        3.14155   0.00000   0.00000   0.00004   0.00004   3.14158
   D36        3.14152  -0.00000   0.00000  -0.00006  -0.00006   3.14147
   D37       -0.00034   0.00000   0.00000   0.00019   0.00019  -0.00015
   D38       -0.00014   0.00000   0.00000   0.00015   0.00015   0.00001
   D39        3.14139   0.00001   0.00000   0.00023   0.00023  -3.14157
   D40       -3.14146  -0.00000   0.00000  -0.00009  -0.00009  -3.14156
   D41        0.00006  -0.00000   0.00000  -0.00001  -0.00001   0.00005
   D42       -0.00006   0.00000   0.00000   0.00004   0.00004  -0.00002
   D43        3.14135   0.00000   0.00000   0.00012   0.00012   3.14147
   D44       -3.14158  -0.00000   0.00000  -0.00005  -0.00004   3.14156
   D45       -0.00017   0.00000   0.00000   0.00003   0.00004  -0.00013
   D46        0.00017  -0.00000   0.00000  -0.00016  -0.00016   0.00000
   D47        3.14111   0.00001   0.00000   0.00034   0.00034   3.14145
   D48       -3.14125  -0.00001   0.00000  -0.00024  -0.00024  -3.14149
   D49       -0.00031   0.00001   0.00000   0.00026   0.00026  -0.00005
   D50        0.00067  -0.00000   0.00000  -0.00001  -0.00001   0.00066
   D51        2.10076   0.00030   0.00000   0.00266   0.00269   2.10345
   D52       -2.09941  -0.00030   0.00000  -0.00260  -0.00263  -2.10204
   D53       -3.14110  -0.00000   0.00000   0.00007   0.00007  -3.14103
   D54       -1.04102   0.00030   0.00000   0.00275   0.00277  -1.03824
   D55        1.04200  -0.00030   0.00000  -0.00251  -0.00254   1.03945
         Item               Value     Threshold  Converged?
 Maximum Force            0.020771     0.000450     NO 
 RMS     Force            0.005101     0.000300     NO 
 Maximum Displacement     0.083647     0.001800     NO 
 RMS     Displacement     0.022090     0.001200     NO 
 Predicted change in Energy=-4.303913D-03
 GradGradGradGradGradGradGradGradGradGradGradGradGradGradGradGradGradGrad

 Leave Link  103 at Tue Sep 28 23:09:21 2021, MaxMem= 1073741824 cpu:       4.8
 (Enter /sw/target/amd/app/gaussian/Gaussian09RevA.02_gcc-4.9.2/g09/l202.exe)
                          Input orientation:                          
 ---------------------------------------------------------------------
 Center     Atomic      Atomic             Coordinates (Angstroms)
 Number     Number       Type             X           Y           Z
 ---------------------------------------------------------------------
      1          6           0        1.430586   -0.756755    0.638680
      2          8           0        2.484775    0.144810    0.327643
      3          6           0        3.130689    0.764523    1.359711
      4          6           0        2.820264    0.566189    2.725454
      5          6           0        3.530535    1.238956    3.701347
      6          6           0        4.575043    2.133656    3.364987
      7          6           0        4.889595    2.334236    1.976142
      8          6           0        4.149492    1.635292    0.996604
      9          6           0        5.936771    3.231333    1.639467
     10          6           0        6.639405    3.897798    2.620238
     11          6           0        6.327114    3.697799    3.983817
     12          6           0        5.313559    2.831608    4.348753
     13          6           0        7.081472    4.414277    5.058476
     14          9           0        8.037957    5.223615    4.544951
     15          9           0        6.258656    5.180830    5.817071
     16          9           0        7.689624    3.544599    5.903441
     17          1           0        1.065784   -1.125454   -0.322725
     18          1           0        0.607048   -0.254224    1.161277
     19          1           0        1.785792   -1.607868    1.233077
     20          1           0        2.028994   -0.109176    3.031265
     21          1           0        3.278742    1.074591    4.745138
     22          1           0        4.367406    1.769283   -0.058562
     23          1           0        6.188953    3.395869    0.595859
     24          1           0        7.436123    4.579181    2.342018
     25          1           0        5.082103    2.685406    5.400744
 ---------------------------------------------------------------------
                    Distance matrix (angstroms):
                    1          2          3          4          5
     1  C    0.000000
     2  O    1.421576   0.000000
     3  C    2.392597   1.366167   0.000000
     4  C    2.834786   2.457562   1.414551   0.000000
     5  C    4.215753   3.697654   2.422441   1.381834   0.000000
     6  C    5.067034   4.189294   2.825211   2.438279   1.415847
     7  C    4.827813   3.646134   2.436747   2.823046   2.454183
     8  C    3.639017   2.332451   1.388541   2.428734   2.802824
     9  C    6.100174   4.812876   3.746666   4.242048   3.743112
    10  C    7.261076   6.049947   4.870054   5.069174   4.231230
    11  C    7.416803   6.383956   5.070224   4.867078   3.734508
    12  C    6.458984   5.602698   4.239356   3.739485   2.476863
    13  C    8.843453   7.857400   6.527652   6.197472   4.953142
    14  F    9.730422   8.626573   7.355985   7.226790   6.075033
    15  F    9.240179   8.350898   7.011134   6.532652   5.239972
    16  F    9.240937   8.350960   7.011291   6.533085   5.240538
    17  H    1.092392   2.012483   3.265952   3.902724   5.278123
    18  H    1.097206   2.092853   2.728734   2.831617   4.150701
    19  H    1.097211   2.092909   2.730023   2.832639   4.152215
    20  H    2.549885   2.753510   2.184302   1.084318   2.126286
    21  H    4.861327   4.583572   3.402818   2.132556   1.086239
[...]
 XXYZ=             -0.0078 YYXZ=             -0.0071 ZZXY=              7.5390
 N-N= 1.054562655345D+03 E-N=-4.071789631190D+03  KE= 8.305662191198D+02
 No NMR shielding tensors so no spin-rotation constants.
 Leave Link  601 at Wed Sep 29 04:54:13 2021, MaxMem= 1073741824 cpu:       1.3
 (Enter /sw/target/amd/app/gaussian/Gaussian09RevA.02_gcc-4.9.2/g09/l604.exe)
 Evaluate density.
 Using the total density.
 Monte-Carlo method of calculating molar volume:
 based on  0.001 e/bohr**3 density envelope.
 Number of points per bohr**3 =   20 CutOff= 1.00D-04
 Using the CI density.
 There are       395 points.  Will hold       395 in memory.
 LenV=  1073571512 MDV=  1073741824.
 Box volume = 7713.604 fraction occupied=0.213
 Integrated density= 5.5749609952705846D+01 error=-6.0250390047294154D+01
 Molar volume = 1640.361 bohr**3/mol (146.384 cm**3/mol)
 Recommended a0 for SCRF calculation =  4.76 angstrom (  9.00 bohr)
 Leave Link  604 at Wed Sep 29 04:54:14 2021, MaxMem= 1073741824 cpu:       0.4
 (Enter /sw/target/amd/app/gaussian/Gaussian09RevA.02_gcc-4.9.2/g09/l607.exe)
 ******************************Gaussian NBO Version 3.1******************************
             N A T U R A L   A T O M I C   O R B I T A L   A N D
          N A T U R A L   B O N D   O R B I T A L   A N A L Y S I S
 ******************************Gaussian NBO Version 3.1******************************
       /RESON  / : Allow strongly delocalized NBO set

 Analyzing the CI density

 Job title: COc1ccc2c(c1)ccc(c2)C(F)(F)F_conf_0                             

 Storage needed:    201850 in NPA (1073738449 available)


 NATURAL POPULATIONS:  Natural atomic orbital occupancies 
                                                          
   NAO  Atom  No  lang   Type(AO)    Occupancy
 --------------------------------------------
     1    C    1  S      Cor( 1S)     1.99941
     2    C    1  S      Val( 2S)     1.10583
     3    C    1  S      Ryd( 3S)     0.00146
     4    C    1  S      Ryd( 4S)     0.00003
     5    C    1  px     Val( 2p)     0.95828
     6    C    1  px     Ryd( 3p)     0.00236
     7    C    1  py     Val( 2p)     1.01227
     8    C    1  py     Ryd( 3p)     0.00336
     9    C    1  pz     Val( 2p)     1.23506
    10    C    1  pz     Ryd( 3p)     0.00027
    11    C    1  dxy    Ryd( 3d)     0.00195
    12    C    1  dxz    Ryd( 3d)     0.00064
    13    C    1  dyz    Ryd( 3d)     0.00159
    14    C    1  dx2y2  Ryd( 3d)     0.00110
    15    C    1  dz2    Ryd( 3d)     0.00112

    16    O    2  S      Cor( 1S)     1.99975
    17    O    2  S      Val( 2S)     1.59494
    18    O    2  S      Ryd( 3S)     0.00080
    19    O    2  S      Ryd( 4S)     0.00006
    20    O    2  px     Val( 2p)     1.39453
    21    O    2  px     Ryd( 3p)     0.00083
    22    O    2  py     Val( 2p)     1.71780
    23    O    2  py     Ryd( 3p)     0.00236
    24    O    2  pz     Val( 2p)     1.72507
    25    O    2  pz     Ryd( 3p)     0.00214
    26    O    2  dxy    Ryd( 3d)     0.00131
    27    O    2  dxz    Ryd( 3d)     0.00051
    28    O    2  dyz    Ryd( 3d)     0.00150
    29    O    2  dx2y2  Ryd( 3d)     0.00133
    30    O    2  dz2    Ryd( 3d)     0.00076

    31    C    3  S      Cor( 1S)     1.99881
    32    C    3  S      Val( 2S)     0.84318
    33    C    3  S      Ryd( 3S)     0.00166
    34    C    3  S      Ryd( 4S)     0.00013
    35    C    3  px     Val( 2p)     0.76944
    36    C    3  px     Ryd( 3p)     0.00598
    37    C    3  py     Val( 2p)     1.06635
    38    C    3  py     Ryd( 3p)     0.00694
    39    C    3  pz     Val( 2p)     0.93204
    40    C    3  pz     Ryd( 3p)     0.00099
    41    C    3  dxy    Ryd( 3d)     0.00163
    42    C    3  dxz    Ryd( 3d)     0.00177
    43    C    3  dyz    Ryd( 3d)     0.00128
    44    C    3  dx2y2  Ryd( 3d)     0.00154
    45    C    3  dz2    Ryd( 3d)     0.00048

    46    C    4  S      Cor( 1S)     1.99905
    47    C    4  S      Val( 2S)     0.95289
    48    C    4  S      Ryd( 3S)     0.00068
    49    C    4  S      Ryd( 4S)     0.00005
    50    C    4  px     Val( 2p)     1.14466
    51    C    4  px     Ryd( 3p)     0.00392
    52    C    4  py     Val( 2p)     1.11752
    53    C    4  py     Ryd( 3p)     0.00417
    54    C    4  pz     Val( 2p)     1.14919
    55    C    4  pz     Ryd( 3p)     0.00289
    56    C    4  dxy    Ryd( 3d)     0.00073
    57    C    4  dxz    Ryd( 3d)     0.00058
    58    C    4  dyz    Ryd( 3d)     0.00035
    59    C    4  dx2y2  Ryd( 3d)     0.00059
    60    C    4  dz2    Ryd( 3d)     0.00046

    61    C    5  S      Cor( 1S)     1.99907
    62    C    5  S      Val( 2S)     0.94631
    63    C    5  S      Ryd( 3S)     0.00076
    64    C    5  S      Ryd( 4S)     0.00005
    65    C    5  px     Val( 2p)     1.06071
    66    C    5  px     Ryd( 3p)     0.00426
    67    C    5  py     Val( 2p)     1.17885
    68    C    5  py     Ryd( 3p)     0.00502
    69    C    5  pz     Val( 2p)     0.99178
    70    C    5  pz     Ryd( 3p)     0.00306
    71    C    5  dxy    Ryd( 3d)     0.00071
    72    C    5  dxz    Ryd( 3d)     0.00073
    73    C    5  dyz    Ryd( 3d)     0.00031
    74    C    5  dx2y2  Ryd( 3d)     0.00077
    75    C    5  dz2    Ryd( 3d)     0.00043

    76    C    6  S      Cor( 1S)     1.99903
    77    C    6  S      Val( 2S)     0.86920
    78    C    6  S      Ryd( 3S)     0.00050
    79    C    6  S      Ryd( 4S)     0.00006
    80    C    6  px     Val( 2p)     1.09614
    81    C    6  px     Ryd( 3p)     0.00497
    82    C    6  py     Val( 2p)     1.07613
    83    C    6  py     Ryd( 3p)     0.00546
    84    C    6  pz     Val( 2p)     0.98438
    85    C    6  pz     Ryd( 3p)     0.00081
    86    C    6  dxy    Ryd( 3d)     0.00071
    87    C    6  dxz    Ryd( 3d)     0.00104
    88    C    6  dyz    Ryd( 3d)     0.00049
    89    C    6  dx2y2  Ryd( 3d)     0.00072
    90    C    6  dz2    Ryd( 3d)     0.00034

    91    C    7  S      Cor( 1S)     1.99904
    92    C    7  S      Val( 2S)     0.87225
    93    C    7  S      Ryd( 3S)     0.00051
    94    C    7  S      Ryd( 4S)     0.00007
    95    C    7  px     Val( 2p)     1.08629
    96    C    7  px     Ryd( 3p)     0.00487
    97    C    7  py     Val( 2p)     1.08882
    98    C    7  py     Ryd( 3p)     0.00572
    99    C    7  pz     Val( 2p)     0.99130
   100    C    7  pz     Ryd( 3p)     0.00058
   101    C    7  dxy    Ryd( 3d)     0.00065
   102    C    7  dxz    Ryd( 3d)     0.00087
   103    C    7  dyz    Ryd( 3d)     0.00065
   104    C    7  dx2y2  Ryd( 3d)     0.00077
   105    C    7  dz2    Ryd( 3d)     0.00034

   106    C    8  S      Cor( 1S)     1.99900
   107    C    8  S      Val( 2S)     0.95864
   108    C    8  S      Ryd( 3S)     0.00091
   109    C    8  S      Ryd( 4S)     0.00007
   110    C    8  px     Val( 2p)     1.06420
   111    C    8  px     Ryd( 3p)     0.00469
   112    C    8  py     Val( 2p)     1.18295
   113    C    8  py     Ryd( 3p)     0.00424
   114    C    8  pz     Val( 2p)     0.98402
   115    C    8  pz     Ryd( 3p)     0.00302
   116    C    8  dxy    Ryd( 3d)     0.00084
   117    C    8  dxz    Ryd( 3d)     0.00055
   118    C    8  dyz    Ryd( 3d)     0.00043
   119    C    8  dx2y2  Ryd( 3d)     0.00060
   120    C    8  dz2    Ryd( 3d)     0.00044

   121    C    9  S      Cor( 1S)     1.99907
   122    C    9  S      Val( 2S)     0.94249
   123    C    9  S      Ryd( 3S)     0.00070
   124    C    9  S      Ryd( 4S)     0.00005
   125    C    9  px     Val( 2p)     1.06431
   126    C    9  px     Ryd( 3p)     0.00430
   127    C    9  py     Val( 2p)     1.16937
   128    C    9  py     Ryd( 3p)     0.00466
   129    C    9  pz     Val( 2p)     1.04963
   130    C    9  pz     Ryd( 3p)     0.00362
   131    C    9  dxy    Ryd( 3d)     0.00073
   132    C    9  dxz    Ryd( 3d)     0.00062
   133    C    9  dyz    Ryd( 3d)     0.00028
   134    C    9  dx2y2  Ryd( 3d)     0.00074
   135    C    9  dz2    Ryd( 3d)     0.00043

   136    C   10  S      Cor( 1S)     1.99906
   137    C   10  S      Val( 2S)     0.94971
   138    C   10  S      Ryd( 3S)     0.00070
   139    C   10  S      Ryd( 4S)     0.00004
   140    C   10  px     Val( 2p)     1.13803
   141    C   10  px     Ryd( 3p)     0.00543
   142    C   10  py     Val( 2p)     1.11689
   143    C   10  py     Ryd( 3p)     0.00480
   144    C   10  pz     Val( 2p)     1.02818
   145    C   10  pz     Ryd( 3p)     0.00243
   146    C   10  dxy    Ryd( 3d)     0.00078
   147    C   10  dxz    Ryd( 3d)     0.00067
   148    C   10  dyz    Ryd( 3d)     0.00046
   149    C   10  dx2y2  Ryd( 3d)     0.00061
   150    C   10  dz2    Ryd( 3d)     0.00043

   151    C   11  S      Cor( 1S)     1.99885
   152    C   11  S      Val( 2S)     0.90914
   153    C   11  S      Ryd( 3S)     0.00090
   154    C   11  S      Ryd( 4S)     0.00007
   155    C   11  px     Val( 2p)     1.07865
   156    C   11  px     Ryd( 3p)     0.00527
   157    C   11  py     Val( 2p)     1.10894
   158    C   11  py     Ryd( 3p)     0.00444
   159    C   11  pz     Val( 2p)     1.01730
   160    C   11  pz     Ryd( 3p)     0.00225
   161    C   11  dxy    Ryd( 3d)     0.00070
   162    C   11  dxz    Ryd( 3d)     0.00043
   163    C   11  dyz    Ryd( 3d)     0.00104
   164    C   11  dx2y2  Ryd( 3d)     0.00089
   165    C   11  dz2    Ryd( 3d)     0.00048

   166    C   12  S      Cor( 1S)     1.99901
   167    C   12  S      Val( 2S)     0.93343
   168    C   12  S      Ryd( 3S)     0.00074
   169    C   12  S      Ryd( 4S)     0.00005
   170    C   12  px     Val( 2p)     1.05301
   171    C   12  px     Ryd( 3p)     0.00454
   172    C   12  py     Val( 2p)     1.18674
   173    C   12  py     Ryd( 3p)     0.00480
   174    C   12  pz     Val( 2p)     1.06380
   175    C   12  pz     Ryd( 3p)     0.00413
   176    C   12  dxy    Ryd( 3d)     0.00068
   177    C   12  dxz    Ryd( 3d)     0.00044
   178    C   12  dyz    Ryd( 3d)     0.00038
   179    C   12  dx2y2  Ryd( 3d)     0.00070
   180    C   12  dz2    Ryd( 3d)     0.00044

   181    C   13  S      Cor( 1S)     1.99904
   182    C   13  S      Val( 2S)     0.79604
   183    C   13  S      Ryd( 3S)     0.00490
   184    C   13  S      Ryd( 4S)     0.00031
   185    C   13  px     Val( 2p)     0.84732
   186    C   13  px     Ryd( 3p)     0.01369
   187    C   13  py     Val( 2p)     0.58388
   188    C   13  py     Ryd( 3p)     0.01805
   189    C   13  pz     Val( 2p)     0.58394
   190    C   13  pz     Ryd( 3p)     0.01582
   191    C   13  dxy    Ryd( 3d)     0.00323
   192    C   13  dxz    Ryd( 3d)     0.00324
   193    C   13  dyz    Ryd( 3d)     0.00428
   194    C   13  dx2y2  Ryd( 3d)     0.00286
   195    C   13  dz2    Ryd( 3d)     0.00365

   196    F   14  S      Cor( 1S)     1.99993
   197    F   14  S      Val( 2S)     1.84231
   198    F   14  S      Ryd( 3S)     0.00078
   199    F   14  S      Ryd( 4S)     0.00004
   200    F   14  px     Val( 2p)     1.83510
   201    F   14  px     Ryd( 3p)     0.00036
   202    F   14  py     Val( 2p)     1.75020
   203    F   14  py     Ryd( 3p)     0.00015
   204    F   14  pz     Val( 2p)     1.93148
   205    F   14  pz     Ryd( 3p)     0.00023
   206    F   14  dxy    Ryd( 3d)     0.00113
   207    F   14  dxz    Ryd( 3d)     0.00059
   208    F   14  dyz    Ryd( 3d)     0.00096
   209    F   14  dx2y2  Ryd( 3d)     0.00138
   210    F   14  dz2    Ryd( 3d)     0.00039

   211    F   15  S      Cor( 1S)     1.99993
   212    F   15  S      Val( 2S)     1.84628
   213    F   15  S      Ryd( 3S)     0.00092
   214    F   15  S      Ryd( 4S)     0.00003
   215    F   15  px     Val( 2p)     1.92573
   216    F   15  px     Ryd( 3p)     0.00045
   217    F   15  py     Val( 2p)     1.84024
   218    F   15  py     Ryd( 3p)     0.00022
   219    F   15  pz     Val( 2p)     1.74641
   220    F   15  pz     Ryd( 3p)     0.00015
   221    F   15  dxy    Ryd( 3d)     0.00054
   222    F   15  dxz    Ryd( 3d)     0.00095
   223    F   15  dyz    Ryd( 3d)     0.00111
   224    F   15  dx2y2  Ryd( 3d)     0.00056
   225    F   15  dz2    Ryd( 3d)     0.00127

   226    F   16  S      Cor( 1S)     1.99993
   227    F   16  S      Val( 2S)     1.84629
   228    F   16  S      Ryd( 3S)     0.00092
   229    F   16  S      Ryd( 4S)     0.00003
   230    F   16  px     Val( 2p)     1.92565
   231    F   16  px     Ryd( 3p)     0.00045
   232    F   16  py     Val( 2p)     1.84088
   233    F   16  py     Ryd( 3p)     0.00022
   234    F   16  pz     Val( 2p)     1.74582
   235    F   16  pz     Ryd( 3p)     0.00015
   236    F   16  dxy    Ryd( 3d)     0.00053
   237    F   16  dxz    Ryd( 3d)     0.00095
   238    F   16  dyz    Ryd( 3d)     0.00111
   239    F   16  dx2y2  Ryd( 3d)     0.00056
   240    F   16  dz2    Ryd( 3d)     0.00128

   241    H   17  S      Val( 1S)     0.76358
   242    H   17  S      Ryd( 2S)     0.00050

   243    H   18  S      Val( 1S)     0.77804
   244    H   18  S      Ryd( 2S)     0.00182

   245    H   19  S      Val( 1S)     0.77804
   246    H   19  S      Ryd( 2S)     0.00182

   247    H   20  S      Val( 1S)     0.76293
   248    H   20  S      Ryd( 2S)     0.00083

   249    H   21  S      Val( 1S)     0.76127
   250    H   21  S      Ryd( 2S)     0.00110

   251    H   22  S      Val( 1S)     0.75120
   252    H   22  S      Ryd( 2S)     0.00160

   253    H   23  S      Val( 1S)     0.76768
   254    H   23  S      Ryd( 2S)     0.00108

   255    H   24  S      Val( 1S)     0.75074
   256    H   24  S      Ryd( 2S)     0.00133

   257    H   25  S      Val( 1S)     0.76002
   258    H   25  S      Ryd( 2S)     0.00158

 WARNING:  1 low occupancy (<1.9990e) core orbital  found on  C    3
           1 low occupancy (<1.9990e) core orbital  found on  C    8
           1 low occupancy (<1.9990e) core orbital  found on  C   11


 Summary of Natural Population Analysis:                  
                                                          
                                       Natural Population 
                Natural  -----------------------------------------------
    Atom  No    Charge         Core      Valence    Rydberg      Total
 -----------------------------------------------------------------------
      C    1   -0.32472      1.99941     4.31144    0.01387     6.32472
      O    2   -0.44369      1.99975     6.43233    0.01161     8.44369
      C    3    0.36777      1.99881     3.61101    0.02242     5.63223
      C    4   -0.37773      1.99905     4.36426    0.01442     6.37773
      C    5   -0.19281      1.99907     4.17765    0.01609     6.19281
      C    6   -0.03999      1.99903     4.02585    0.01511     6.03999
      C    7   -0.05274      1.99904     4.03866    0.01504     6.05274
      C    8   -0.20459      1.99900     4.18982    0.01578     6.20459
      C    9   -0.24099      1.99907     4.22580    0.01612     6.24099
      C   10   -0.24821      1.99906     4.23280    0.01635     6.24821
      C   11   -0.12937      1.99885     4.11403    0.01649     6.12937
      C   12   -0.25290      1.99901     4.23698    0.01691     6.25290
      C   13    1.11975      1.99904     2.81118    0.07004     4.88025
      F   14   -0.36504      1.99993     7.35909    0.00602     9.36504
      F   15   -0.36479      1.99993     7.35866    0.00620     9.36479
      F   16   -0.36478      1.99993     7.35865    0.00620     9.36478
      H   17    0.23591      0.00000     0.76358    0.00050     0.76409
      H   18    0.22014      0.00000     0.77804    0.00182     0.77986
      H   19    0.22014      0.00000     0.77804    0.00182     0.77986
      H   20    0.23624      0.00000     0.76293    0.00083     0.76376
      H   21    0.23763      0.00000     0.76127    0.00110     0.76237
      H   22    0.24720      0.00000     0.75120    0.00160     0.75280
      H   23    0.23124      0.00000     0.76768    0.00108     0.76876
      H   24    0.24793      0.00000     0.75074    0.00133     0.75207
      H   25    0.23840      0.00000     0.76002    0.00158     0.76160
 =======================================================================
   * Total *   -0.00000     31.98797    83.72171    0.29032   116.00000

                                 Natural Population      
 --------------------------------------------------------
   Core                      31.98797 ( 99.9624% of  32)
   Valence                   83.72171 ( 99.6687% of  84)
   Natural Minimal Basis    115.70968 ( 99.7497% of 116)
   Natural Rydberg Basis      0.29032 (  0.2503% of 116)
 --------------------------------------------------------

    Atom  No          Natural Electron Configuration
 ----------------------------------------------------------------------------
      C    1      [core]2S( 1.11)2p( 3.21)3p( 0.01)3d( 0.01)
      O    2      [core]2S( 1.59)2p( 4.84)3p( 0.01)3d( 0.01)
      C    3      [core]2S( 0.84)2p( 2.77)3p( 0.01)3d( 0.01)
      C    4      [core]2S( 0.95)2p( 3.41)3p( 0.01)
      C    5      [core]2S( 0.95)2p( 3.23)3p( 0.01)
      C    6      [core]2S( 0.87)2p( 3.16)3p( 0.01)
      C    7      [core]2S( 0.87)2p( 3.17)3p( 0.01)
      C    8      [core]2S( 0.96)2p( 3.23)3p( 0.01)
      C    9      [core]2S( 0.94)2p( 3.28)3p( 0.01)
      C   10      [core]2S( 0.95)2p( 3.28)3p( 0.01)
      C   11      [core]2S( 0.91)2p( 3.20)3p( 0.01)
      C   12      [core]2S( 0.93)2p( 3.30)3p( 0.01)
      C   13      [core]2S( 0.80)2p( 2.02)3p( 0.05)3d( 0.02)
      F   14      [core]2S( 1.84)2p( 5.52)
      F   15      [core]2S( 1.85)2p( 5.51)
      F   16      [core]2S( 1.85)2p( 5.51)
      H   17            1S( 0.76)
      H   18            1S( 0.78)
      H   19            1S( 0.78)
      H   20            1S( 0.76)
      H   21            1S( 0.76)
      H   22            1S( 0.75)
      H   23            1S( 0.77)
      H   24            1S( 0.75)
      H   25            1S( 0.76)


 NBO analysis skipped by request.
 Leave Link  607 at Wed Sep 29 04:54:37 2021, MaxMem= 1073741824 cpu:      17.1
 (Enter /sw/target/amd/app/gaussian/Gaussian09RevA.02_gcc-4.9.2/g09/l9999.exe)
 1\1\GINC-HERMITE\SP\RTD-B3LYP-FC\6-31G(d)\C12H9F3O1\JSCHLEINITZ\29-Sep
 -2021\0\\#p TD(NStates=10, Root=1) b3lyp/6-31G* volume pop=NPA density
 =current Geom=AllCheck Guess=Read\\COc1ccc2c(c1)ccc(c2)C(F)(F)F_conf_0
 \\0,1\C,0,1.4274345657,-0.7602122911,0.636968833\O,0,2.480522913,0.141
 9468948,0.331330737\C,0,3.1319899207,0.7658795929,1.3539549623\C,0,2.8
 186768321,0.5654852171,2.7257472487\C,0,3.5274824171,1.2366126563,3.69
 68210677\C,0,4.5740844934,2.1330535369,3.3628581635\C,0,4.8866025278,2
 .3319190954,1.9758385148\C,0,4.1478618354,1.6341279389,0.9944509393\C,
 0,5.9367792532,3.231437415,1.6405355187\C,0,6.640025442,3.8978938108,2
 .6153983954\C,0,6.326957129,3.6975375156,3.983837569\C,0,5.3154559137,
 2.8332434012,4.3456216737\C,0,7.087164991,4.419011976,5.0622473509\F,0
 ,8.0444904834,5.2304784861,4.5615860723\F,0,6.2707089628,5.1856876944,
 5.8247567647\F,0,7.6970005917,3.5556061174,5.9098672388\H,0,1.06497231
 82,-1.1276204871,-0.3246067468\H,0,0.604977579,-0.2603675125,1.1650202
 189\H,0,1.7810325203,-1.608836515,1.2369143803\H,0,2.0245367879,-0.112
 837231,3.0154975839\H,0,3.2844407911,1.0803081909,4.7450139668\H,0,4.3
 697369508,1.7716273488,-0.0596925012\H,0,6.1785738653,3.3866510615,0.5
 922512443\H,0,7.4382456532,4.5809009024,2.3474445168\H,0,5.0767286071,
 2.6808405705,5.3952102255\\Version=AM64L-G09RevA.02\State=1-A\HF=-837.
 4519729\RMSD=6.826e-09\Dipole=-1.719445,-1.5659571,-1.2129933\Quadrupo
 le=2.0948747,-0.0194724,-2.0754022,8.0289449,0.528452,0.7252645\PG=C01
  [X(C12H9F3O1)]\\@


 NEVER LOSE YOUR IGNORANCE, IT CAN'T BE REPLACED.
   -- ANDY CAPP
 Job cpu time:  0 days  3 hours 51 minutes 56.0 seconds.
 File lengths (MBytes):  RWF=    228 Int=      0 D2E=      0 Chk=     31 Scr=      1
 Normal termination of Gaussian 09 at Wed Sep 29 04:54:41 2021.
