 Entering Gaussian System, Link 0=g09
 Input=C12H13F3O2_c0b9_conf_0.com
 Output=C12H13F3O2_c0b9_conf_0.log
 Initial command:
 /sw/target/amd/app/gaussian/Gaussian09RevA.02_gcc-4.9.2/g09/l1.exe /home/jschleinitz/gaussian/Gau-1155309.inp -scrdir=/home/jschleinitz/gaussian/
 Entering Link 1 = /sw/target/amd/app/gaussian/Gaussian09RevA.02_gcc-4.9.2/g09/l1.exe PID=   1155321.
  
 Copyright (c) 1988,1990,1992,1993,1995,1998,2003,2009, Gaussian, Inc.
                  All Rights Reserved.
  
 This is part of the Gaussian(R) 09 program.  It is based on
 the Gaussian(R) 03 system (copyright 2003, Gaussian, Inc.),
 the Gaussian(R) 98 system (copyright 1998, Gaussian, Inc.),
 the Gaussian(R) 94 system (copyright 1995, Gaussian, Inc.),
 the Gaussian 92(TM) system (copyright 1992, Gaussian, Inc.),
 the Gaussian 90(TM) system (copyright 1990, Gaussian, Inc.),
 the Gaussian 88(TM) system (copyright 1988, Gaussian, Inc.),
 the Gaussian 86(TM) system (copyright 1986, Carnegie Mellon
 University), and the Gaussian 82(TM) system (copyright 1983,
 Carnegie Mellon University). Gaussian is a federally registered
 trademark of Gaussian, Inc.
  
 This software contains proprietary and confidential information,
 including trade secrets, belonging to Gaussian, Inc.
  
 This software is provided under written license and may be
 used, copied, transmitted, or stored only in accord with that
 written license.
  
 The following legend is applicable only to US Government
 contracts under FAR:
  
                    RESTRICTED RIGHTS LEGEND
  
 Use, reproduction and disclosure by the US Government is
 subject to restrictions as set forth in subparagraphs (a)
 and (c) of the Commercial Computer Software - Restricted
 Rights clause in FAR 52.227-19.
  
 Gaussian, Inc.
 340 Quinnipiac St., Bldg. 40, Wallingford CT 06492
  
  
 ---------------------------------------------------------------
 Warning -- This program may not be used in any manner that
 competes with the business of Gaussian, Inc. or will provide
 assistance to any competitor of Gaussian, Inc.  The licensee
 of this program is prohibited from giving any competitor of
 Gaussian, Inc. access to this program.  By using this program,
 the user acknowledges that Gaussian, Inc. is engaged in the
 business of creating and licensing software in the field of
 computational chemistry and represents and warrants to the
 licensee that it is not a competitor of Gaussian, Inc. and that
 it will not use this program in any manner prohibited above.
 ---------------------------------------------------------------
  

 Cite this work as:
 Gaussian 09, Revision A.02,
 M. J. Frisch, G. W. Trucks, H. B. Schlegel, G. E. Scuseria, 
 M. A. Robb, J. R. Cheeseman, G. Scalmani, V. Barone, B. Mennucci, 
 G. A. Petersson, H. Nakatsuji, M. Caricato, X. Li, H. P. Hratchian, 
 A. F. Izmaylov, J. Bloino, G. Zheng, J. L. Sonnenberg, M. Hada, 
 M. Ehara, K. Toyota, R. Fukuda, J. Hasegawa, M. Ishida, T. Nakajima, 
 Y. Honda, O. Kitao, H. Nakai, T. Vreven, J. A. Montgomery, Jr., 
 J. E. Peralta, F. Ogliaro, M. Bearpark, J. J. Heyd, E. Brothers, 
 K. N. Kudin, V. N. Staroverov, R. Kobayashi, J. Normand, 
 K. Raghavachari, A. Rendell, J. C. Burant, S. S. Iyengar, J. Tomasi, 
 M. Cossi, N. Rega, J. M. Millam, M. Klene, J. E. Knox, J. B. Cross, 
 V. Bakken, C. Adamo, J. Jaramillo, R. Gomperts, R. E. Stratmann, 
 O. Yazyev, A. J. Austin, R. Cammi, C. Pomelli, J. W. Ochterski, 
 R. L. Martin, K. Morokuma, V. G. Zakrzewski, G. A. Voth, 
 P. Salvador, J. J. Dannenberg, S. Dapprich, A. D. Daniels, 
 O. Farkas, J. B. Foresman, J. V. Ortiz, J. Cioslowski, 
 and D. J. Fox, Gaussian, Inc., Wallingford CT, 2009.
 
 ******************************************
 Gaussian 09:  AM64L-G09RevA.02 11-Jun-2009
                29-Sep-2021 
 ******************************************
 %nproc=5
 Will use up to    5 processors via shared memory.
 %mem=10gb
 %chk=C12H13F3O2_c0b9_conf_0.chk
 -----------------------------------
 #p opt b3lyp/6-31G* scf=(xqc,tight)
 -----------------------------------
 1/14=-1,18=20,19=15,26=3,38=1/1,3;
 2/9=110,12=2,17=6,18=5,40=1/2;
 3/5=1,6=6,7=1,11=2,16=1,25=1,30=1,71=1,74=-5/1,2,3;
 4//1;
 5/5=2,8=3,13=1,32=2,38=5/2,8;
 6/7=2,8=2,9=2,10=2,28=1/1;
 7//1,2,3,16;
 1/14=-1,18=20,19=15/3(2);
 2/9=110/2;
 99//99;
 2/9=110/2;
 3/5=1,6=6,7=1,11=2,16=1,25=1,30=1,71=1,74=-5/1,2,3;
 4/5=5,16=3/1;
 5/5=2,8=3,13=1,32=2,38=5/2,8;
 7//1,2,3,16;
 1/14=-1,18=20,19=15/3(-5);
 2/9=110/2;
 6/7=2,8=2,9=2,10=2,19=2,28=1/1;
 99/9=1/99;
 Leave Link    1 at Wed Sep 29 04:38:54 2021, MaxMem= 1342177280 cpu:       0.1
 (Enter /sw/target/amd/app/gaussian/Gaussian09RevA.02_gcc-4.9.2/g09/l101.exe)
 ---------------------------------------
 O=C(C(C)(C)C)Oc1ccc(cc1)C(F)(F)F_conf_0
 ---------------------------------------
 Symbolic Z-matrix:
 Charge =  0 Multiplicity = 1
 O                     3.38816   0.76103  -0.26485 
 C                     3.32643   0.62947   0.95385 
 C                     2.3081    1.35913   1.83044 
 C                     1.02081   1.55929   1.01286 
 C                     1.97435   0.55469   3.09547 
 C                     2.89405   2.72172   2.21396 
 O                     4.17095  -0.16286   1.72805 
 C                     5.16417  -0.98129   1.15473 
 C                     5.87059  -0.63043   0.00837 
 C                     6.84678  -1.49219  -0.48947 
 C                     7.13123  -2.70312   0.16085 
 C                     6.42332  -3.03352   1.32807 
 C                     5.44769  -2.16923   1.8312 
 C                     8.18222  -3.63589  -0.39003 
 F                     8.77666  -3.17544  -1.5267 
 F                     9.19419  -3.86032   0.49335 
 F                     7.67884  -4.86159  -0.70396 
 H                     0.6132    0.5988    0.67584 
 H                     1.20678   2.16192   0.11527 
 H                     0.24923   2.06969   1.59856 
 H                     1.59318  -0.44085   2.84026 
 H                     1.21884   1.06333   3.70371 
 H                     2.85893   0.41419   3.72737 
 H                     3.11931   3.32168   1.32438 
 H                     3.82991   2.6072    2.77256 
 H                     2.19637   3.29359   2.83603 
 H                     5.67615   0.29716  -0.52035 
 H                     7.38189  -1.21251  -1.39527 
 H                     6.62898  -3.9693    1.84655 
 H                     4.90684  -2.42737   2.73761 
 
 NAtoms=     30 NQM=     30 NQMF=      0 NMic=      0 NMicF=      0 NTot=     30.
                    Isotopes and Nuclear Properties:
 (Nuclear quadrupole moments (NQMom) in fm**2, nuclear magnetic moments (NMagM)
  in nuclear magnetons)

  Atom         1           2           3           4           5           6           7           8           9          10
 IAtWgt=          16          12          12          12          12          12          16          12          12          12
 AtmWgt=  15.9949146  12.0000000  12.0000000  12.0000000  12.0000000  12.0000000  15.9949146  12.0000000  12.0000000  12.0000000
 NucSpn=           0           0           0           0           0           0           0           0           0           0
 AtZEff=   0.0000000   0.0000000   0.0000000   0.0000000   0.0000000   0.0000000   0.0000000   0.0000000   0.0000000   0.0000000
 NQMom=    0.0000000   0.0000000   0.0000000   0.0000000   0.0000000   0.0000000   0.0000000   0.0000000   0.0000000   0.0000000
 NMagM=    0.0000000   0.0000000   0.0000000   0.0000000   0.0000000   0.0000000   0.0000000   0.0000000   0.0000000   0.0000000

  Atom        11          12          13          14          15          16          17          18          19          20
 IAtWgt=          12          12          12          12          19          19          19           1           1           1
 AtmWgt=  12.0000000  12.0000000  12.0000000  12.0000000  18.9984032  18.9984032  18.9984032   1.0078250   1.0078250   1.0078250
 NucSpn=           0           0           0           0           1           1           1           1           1           1
 AtZEff=   0.0000000   0.0000000   0.0000000   0.0000000   0.0000000   0.0000000   0.0000000   0.0000000   0.0000000   0.0000000
 NQMom=    0.0000000   0.0000000   0.0000000   0.0000000   0.0000000   0.0000000   0.0000000   0.0000000   0.0000000   0.0000000
 NMagM=    0.0000000   0.0000000   0.0000000   0.0000000   2.6288670   2.6288670   2.6288670   2.7928460   2.7928460   2.7928460

  Atom        21          22          23          24          25          26          27          28          29          30
 IAtWgt=           1           1           1           1           1           1           1           1           1           1
 AtmWgt=   1.0078250   1.0078250   1.0078250   1.0078250   1.0078250   1.0078250   1.0078250   1.0078250   1.0078250   1.0078250
 NucSpn=           1           1           1           1           1           1           1           1           1           1
 AtZEff=   0.0000000   0.0000000   0.0000000   0.0000000   0.0000000   0.0000000   0.0000000   0.0000000   0.0000000   0.0000000
 NQMom=    0.0000000   0.0000000   0.0000000   0.0000000   0.0000000   0.0000000   0.0000000   0.0000000   0.0000000   0.0000000
 NMagM=    2.7928460   2.7928460   2.7928460   2.7928460   2.7928460   2.7928460   2.7928460   2.7928460   2.7928460   2.7928460
 Leave Link  101 at Wed Sep 29 04:38:55 2021, MaxMem= 1342177280 cpu:       0.2
 (Enter /sw/target/amd/app/gaussian/Gaussian09RevA.02_gcc-4.9.2/g09/l103.exe)

 GradGradGradGradGradGradGradGradGradGradGradGradGradGradGradGradGradGrad
 Berny optimization.
 Initialization pass.
                           ----------------------------
                           !    Initial Parameters    !
                           ! (Angstroms and Degrees)  !
 --------------------------                            --------------------------
 ! Name  Definition              Value          Derivative Info.                !
 --------------------------------------------------------------------------------
 ! R1    R(1,2)                  1.2273         estimate D2E/DX2                !
 ! R2    R(2,3)                  1.529          estimate D2E/DX2                !
 ! R3    R(2,7)                  1.393          estimate D2E/DX2                !
 ! R4    R(3,4)                  1.5381         estimate D2E/DX2                !
 ! R5    R(3,5)                  1.5358         estimate D2E/DX2                !
 ! R6    R(3,6)                  1.532          estimate D2E/DX2                !
 ! R7    R(4,18)                 1.0965         estimate D2E/DX2                !
 ! R8    R(4,19)                 1.097          estimate D2E/DX2                !
 ! R9    R(4,20)                 1.0949         estimate D2E/DX2                !
 ! R10   R(5,21)                 1.0961         estimate D2E/DX2                !
 ! R11   R(5,22)                 1.0952         estimate D2E/DX2                !
 ! R12   R(5,23)                 1.0961         estimate D2E/DX2                !
 ! R13   R(6,24)                 1.0964         estimate D2E/DX2                !
 ! R14   R(6,25)                 1.0959         estimate D2E/DX2                !
 ! R15   R(6,26)                 1.0958         estimate D2E/DX2                !
 ! R16   R(7,8)                  1.4089         estimate D2E/DX2                !
 ! R17   R(8,9)                  1.3915         estimate D2E/DX2                !
 ! R18   R(8,13)                 1.3961         estimate D2E/DX2                !
 ! R19   R(9,10)                 1.3941         estimate D2E/DX2                !
 ! R20   R(9,27)                 1.0853         estimate D2E/DX2                !
 ! R21   R(10,11)                1.4036         estimate D2E/DX2                !
 ! R22   R(10,28)                1.0886         estimate D2E/DX2                !
 ! R23   R(11,12)                1.4045         estimate D2E/DX2                !
 ! R24   R(11,14)                1.5093         estimate D2E/DX2                !
 ! R25   R(12,13)                1.3971         estimate D2E/DX2                !
 ! R26   R(12,29)                1.0894         estimate D2E/DX2                !
 ! R27   R(13,30)                1.0866         estimate D2E/DX2                !
 ! R28   R(14,15)                1.3629         estimate D2E/DX2                !
 ! R29   R(14,16)                1.3619         estimate D2E/DX2                !
 ! R30   R(14,17)                1.3617         estimate D2E/DX2                !
 ! A1    A(1,2,3)              123.4788         estimate D2E/DX2                !
 ! A2    A(1,2,7)              125.6162         estimate D2E/DX2                !
 ! A3    A(3,2,7)              110.8907         estimate D2E/DX2                !
 ! A4    A(2,3,4)              108.3471         estimate D2E/DX2                !
 ! A5    A(2,3,5)              111.5307         estimate D2E/DX2                !
 ! A6    A(2,3,6)              108.254          estimate D2E/DX2                !
 ! A7    A(4,3,5)              108.9127         estimate D2E/DX2                !
 ! A8    A(4,3,6)              109.7204         estimate D2E/DX2                !
 ! A9    A(5,3,6)              110.046          estimate D2E/DX2                !
 ! A10   A(3,4,18)             111.1322         estimate D2E/DX2                !
 ! A11   A(3,4,19)             111.3803         estimate D2E/DX2                !
 ! A12   A(3,4,20)             111.4758         estimate D2E/DX2                !
 ! A13   A(18,4,19)            107.0215         estimate D2E/DX2                !
 ! A14   A(18,4,20)            108.1062         estimate D2E/DX2                !
 ! A15   A(19,4,20)            107.5217         estimate D2E/DX2                !
 ! A16   A(3,5,21)             111.0699         estimate D2E/DX2                !
 ! A17   A(3,5,22)             111.3518         estimate D2E/DX2                !
 ! A18   A(3,5,23)             111.5058         estimate D2E/DX2                !
 ! A19   A(21,5,22)            108.1328         estimate D2E/DX2                !
 ! A20   A(21,5,23)            107.3633         estimate D2E/DX2                !
 ! A21   A(22,5,23)            107.2215         estimate D2E/DX2                !
 ! A22   A(3,6,24)             111.2335         estimate D2E/DX2                !
 ! A23   A(3,6,25)             111.1787         estimate D2E/DX2                !
 ! A24   A(3,6,26)             111.27           estimate D2E/DX2                !
 ! A25   A(24,6,25)            107.1756         estimate D2E/DX2                !
 ! A26   A(24,6,26)            107.809          estimate D2E/DX2                !
 ! A27   A(25,6,26)            107.9919         estimate D2E/DX2                !
 ! A28   A(2,7,8)              122.117          estimate D2E/DX2                !
 ! A29   A(7,8,9)              123.1379         estimate D2E/DX2                !
 ! A30   A(7,8,13)             116.1207         estimate D2E/DX2                !
 ! A31   A(9,8,13)             120.705          estimate D2E/DX2                !
 ! A32   A(8,9,10)             119.5926         estimate D2E/DX2                !
 ! A33   A(8,9,27)             121.73           estimate D2E/DX2                !
 ! A34   A(10,9,27)            118.6744         estimate D2E/DX2                !
 ! A35   A(9,10,11)            120.647          estimate D2E/DX2                !
 ! A36   A(9,10,28)            118.8515         estimate D2E/DX2                !
 ! A37   A(11,10,28)           120.5007         estimate D2E/DX2                !
 ! A38   A(10,11,12)           119.0671         estimate D2E/DX2                !
 ! A39   A(10,11,14)           120.3422         estimate D2E/DX2                !
 ! A40   A(12,11,14)           120.5906         estimate D2E/DX2                !
 ! A41   A(11,12,13)           120.3785         estimate D2E/DX2                !
 ! A42   A(11,12,29)           120.161          estimate D2E/DX2                !
 ! A43   A(13,12,29)           119.4601         estimate D2E/DX2                !
 ! A44   A(8,13,12)            119.5831         estimate D2E/DX2                !
 ! A45   A(8,13,30)            120.347          estimate D2E/DX2                !
 ! A46   A(12,13,30)           120.0666         estimate D2E/DX2                !
 ! A47   A(11,14,15)           113.5362         estimate D2E/DX2                !
 ! A48   A(11,14,16)           112.4888         estimate D2E/DX2                !
 ! A49   A(11,14,17)           112.5194         estimate D2E/DX2                !
 ! A50   A(15,14,16)           105.8165         estimate D2E/DX2                !
 ! A51   A(15,14,17)           105.8471         estimate D2E/DX2                !
 ! A52   A(16,14,17)           106.015          estimate D2E/DX2                !
 ! D1    D(1,2,3,4)             31.7352         estimate D2E/DX2                !
 ! D2    D(1,2,3,5)            151.599          estimate D2E/DX2                !
 ! D3    D(1,2,3,6)            -87.1934         estimate D2E/DX2                !
 ! D4    D(7,2,3,4)           -149.5734         estimate D2E/DX2                !
 ! D5    D(7,2,3,5)            -29.7096         estimate D2E/DX2                !
 ! D6    D(7,2,3,6)             91.498          estimate D2E/DX2                !
 ! D7    D(1,2,7,8)             -3.9861         estimate D2E/DX2                !
 ! D8    D(3,2,7,8)            177.3565         estimate D2E/DX2                !
 ! D9    D(2,3,4,18)            58.6857         estimate D2E/DX2                !
 ! D10   D(2,3,4,19)           -60.5464         estimate D2E/DX2                !
 ! D11   D(2,3,4,20)           179.3567         estimate D2E/DX2                !
 ! D12   D(5,3,4,18)           -62.8039         estimate D2E/DX2                !
 ! D13   D(5,3,4,19)           177.964          estimate D2E/DX2                !
 ! D14   D(5,3,4,20)            57.8671         estimate D2E/DX2                !
 ! D15   D(6,3,4,18)           176.6836         estimate D2E/DX2                !
 ! D16   D(6,3,4,19)            57.4515         estimate D2E/DX2                !
 ! D17   D(6,3,4,20)           -62.6454         estimate D2E/DX2                !
 ! D18   D(2,3,5,21)           -57.4338         estimate D2E/DX2                !
 ! D19   D(2,3,5,22)          -178.0115         estimate D2E/DX2                !
 ! D20   D(2,3,5,23)            62.2721         estimate D2E/DX2                !
 ! D21   D(4,3,5,21)            62.0957         estimate D2E/DX2                !
 ! D22   D(4,3,5,22)           -58.4821         estimate D2E/DX2                !
 ! D23   D(4,3,5,23)          -178.1985         estimate D2E/DX2                !
 ! D24   D(6,3,5,21)          -177.5925         estimate D2E/DX2                !
 ! D25   D(6,3,5,22)            61.8297         estimate D2E/DX2                !
 ! D26   D(6,3,5,23)           -57.8866         estimate D2E/DX2                !
 ! D27   D(2,3,6,24)            59.1205         estimate D2E/DX2                !
 ! D28   D(2,3,6,25)           -60.2396         estimate D2E/DX2                !
 ! D29   D(2,3,6,26)           179.343          estimate D2E/DX2                !
 ! D30   D(4,3,6,24)           -58.9352         estimate D2E/DX2                !
 ! D31   D(4,3,6,25)          -178.2954         estimate D2E/DX2                !
 ! D32   D(4,3,6,26)            61.2872         estimate D2E/DX2                !
 ! D33   D(5,3,6,24)          -178.758          estimate D2E/DX2                !
 ! D34   D(5,3,6,25)            61.8818         estimate D2E/DX2                !
 ! D35   D(5,3,6,26)           -58.5355         estimate D2E/DX2                !
 ! D36   D(2,7,8,9)             34.549          estimate D2E/DX2                !
 ! D37   D(2,7,8,13)          -147.6351         estimate D2E/DX2                !
 ! D38   D(7,8,9,10)           179.4598         estimate D2E/DX2                !
 ! D39   D(7,8,9,27)            -1.1724         estimate D2E/DX2                !
 ! D40   D(13,8,9,10)            1.7406         estimate D2E/DX2                !
 ! D41   D(13,8,9,27)         -178.8915         estimate D2E/DX2                !
 ! D42   D(7,8,13,12)         -179.8254         estimate D2E/DX2                !
 ! D43   D(7,8,13,30)            0.8325         estimate D2E/DX2                !
 ! D44   D(9,8,13,12)           -1.9525         estimate D2E/DX2                !
 ! D45   D(9,8,13,30)          178.7055         estimate D2E/DX2                !
 ! D46   D(8,9,10,11)           -0.5642         estimate D2E/DX2                !
 ! D47   D(8,9,10,28)          179.1111         estimate D2E/DX2                !
 ! D48   D(27,9,10,11)        -179.9514         estimate D2E/DX2                !
 ! D49   D(27,9,10,28)          -0.2761         estimate D2E/DX2                !
 ! D50   D(9,10,11,12)          -0.3781         estimate D2E/DX2                !
 ! D51   D(9,10,11,14)         179.5342         estimate D2E/DX2                !
 ! D52   D(28,10,11,12)        179.952          estimate D2E/DX2                !
 ! D53   D(28,10,11,14)         -0.1357         estimate D2E/DX2                !
 ! D54   D(10,11,12,13)          0.1631         estimate D2E/DX2                !
 ! D55   D(10,11,12,29)        179.9363         estimate D2E/DX2                !
 ! D56   D(14,11,12,13)       -179.7489         estimate D2E/DX2                !
 ! D57   D(14,11,12,29)          0.0243         estimate D2E/DX2                !
 ! D58   D(10,11,14,15)         -0.0263         estimate D2E/DX2                !
 ! D59   D(10,11,14,16)        120.1111         estimate D2E/DX2                !
 ! D60   D(10,11,14,17)       -120.2267         estimate D2E/DX2                !
 ! D61   D(12,11,14,15)        179.8846         estimate D2E/DX2                !
 ! D62   D(12,11,14,16)        -59.978          estimate D2E/DX2                !
 ! D63   D(12,11,14,17)         59.6842         estimate D2E/DX2                !
 ! D64   D(11,12,13,8)           0.9876         estimate D2E/DX2                !
 ! D65   D(11,12,13,30)       -179.6685         estimate D2E/DX2                !
 ! D66   D(29,12,13,8)        -178.7872         estimate D2E/DX2                !
 ! D67   D(29,12,13,30)          0.5567         estimate D2E/DX2                !
 --------------------------------------------------------------------------------
 Trust Radius=3.00D-01 FncErr=1.00D-07 GrdErr=1.00D-06
 Number of steps in this run= 159 maximum allowed number of steps= 180.
 GradGradGradGradGradGradGradGradGradGradGradGradGradGradGradGradGradGrad

 Leave Link  103 at Wed Sep 29 04:38:55 2021, MaxMem= 1342177280 cpu:       0.0
 (Enter /sw/target/amd/app/gaussian/Gaussian09RevA.02_gcc-4.9.2/g09/l202.exe)
                          Input orientation:                          
 ---------------------------------------------------------------------
 Center     Atomic      Atomic             Coordinates (Angstroms)
 Number     Number       Type             X           Y           Z
 ---------------------------------------------------------------------
      1          8           0        3.388155    0.761028   -0.264849
      2          6           0        3.326425    0.629470    0.953850
      3          6           0        2.308098    1.359126    1.830444
      4          6           0        1.020813    1.559294    1.012860
      5          6           0        1.974347    0.554688    3.095467
      6          6           0        2.894049    2.721720    2.213961
      7          8           0        4.170949   -0.162863    1.728048
      8          6           0        5.164166   -0.981289    1.154729
      9          6           0        5.870588   -0.630432    0.008370
     10          6           0        6.846781   -1.492188   -0.489467
     11          6           0        7.131227   -2.703124    0.160854
     12          6           0        6.423317   -3.033523    1.328069
     13          6           0        5.447688   -2.169232    1.831202
     14          6           0        8.182222   -3.635892   -0.390029
     15          9           0        8.776661   -3.175440   -1.526696
     16          9           0        9.194192   -3.860319    0.493352
     17          9           0        7.678837   -4.861591   -0.703958
     18          1           0        0.613197    0.598805    0.675839
     19          1           0        1.206776    2.161919    0.115267
     20          1           0        0.249235    2.069690    1.598557
     21          1           0        1.593177   -0.440847    2.840263
     22          1           0        1.218838    1.063327    3.703708
     23          1           0        2.858929    0.414189    3.727367
     24          1           0        3.119313    3.321683    1.324380
     25          1           0        3.829907    2.607203    2.772558
     26          1           0        2.196374    3.293590    2.836033
     27          1           0        5.676153    0.297157   -0.520352
     28          1           0        7.381885   -1.212506   -1.395270
     29          1           0        6.628979   -3.969295    1.846547
     30          1           0        4.906839   -2.427374    2.737610
 ---------------------------------------------------------------------
                    Distance matrix (angstroms):
                    1          2          3          4          5
     1  O    0.000000
     2  C    1.227333   0.000000
     3  C    2.431974   1.528989   0.000000
     4  C    2.806079   2.486745   1.538054   0.000000
     5  C    3.651459   2.533817   1.535836   2.501142   0.000000
     6  C    3.198899   2.480390   1.532020   2.510556   2.513749
     7  O    2.331948   1.392981   2.407727   3.660693   2.685102
     8  C    2.864452   2.451977   3.753833   4.862311   4.037404
     9  C    2.858895   2.992332   4.468740   5.415184   5.110320
    10  C    4.133948   4.356317   5.840516   6.746141   6.386083
    11  C    5.117828   5.119721   6.523189   7.498752   6.768951
    12  C    5.113532   4.811268   6.040098   7.097913   5.982666
    13  C    4.149883   3.619701   4.722959   5.845409   4.591536
    14  C    6.506278   6.601370   8.024092   8.957892   8.261196
    15  F    6.791467   7.094753   8.583414   9.435053   9.030488
    16  F    7.459341   7.402766   8.743496   9.820703   8.853781
    17  F    7.086368   7.200248   8.600311   9.407683   8.735726
    18  H    2.934554   2.727607   2.187211   1.096483   2.776558
    19  H    2.620191   2.746732   2.190712   1.097002   3.471880
    20  H    3.877847   3.458176   2.190340   1.094933   2.740800
    21  H    3.782614   2.776379   2.184204   2.769036   1.096134
    22  H    4.532855   3.491687   2.187031   2.743330   1.095201
    23  H    4.042049   2.820867   2.189666   3.472532   1.096140
    24  H    3.025703   2.725471   2.183071   2.758036   3.479074
    25  H    3.581808   2.733609   2.182012   3.476443   2.785712
    26  H    4.177282   3.452124   2.183081   2.777352   2.760106
    27  H    2.348487   2.793729   4.242383   5.061217   5.181103
    28  H    4.595929   5.035672   6.539254   7.344740   7.247838
    29  H    6.110392   5.731702   6.860200   7.919082   6.609979
    30  H    4.635415   3.876055   4.681238   5.828334   4.197650
                    6          7          8          9         10
     6  C    0.000000
     7  O    3.191771   0.000000
     8  C    4.470758   1.408899   0.000000
     9  C    4.996132   2.462659   1.391500   0.000000
    10  C    6.378842   3.720827   2.407403   1.394064   0.000000
    11  C    7.183165   4.203840   2.796754   2.430744   1.403636
    12  C    6.809064   3.670673   2.413953   2.796777   2.420428
    13  C    5.530731   2.380383   1.396141   2.422699   2.793091
    14  C    8.669762   5.713011   4.306025   3.812501   2.527600
    15  F    9.130943   6.393869   5.005443   4.156771   2.762901
    16  F    9.272299   6.358351   4.996733   4.659798   3.476250
    17  F    9.429478   6.348069   4.983475   4.656166   3.477241
    18  H    3.474892   3.787464   4.841214   5.440285   6.677406
    19  H    2.750416   4.097804   5.159572   5.436892   6.747433
    20  H    2.792653   4.514521   5.801897   6.435757   7.782958
    21  H    3.476543   2.821206   3.985607   5.133401   6.308151
    22  H    2.788539   3.757889   5.122828   6.177631   7.469077
    23  H    2.759770   2.460012   3.725579   4.898189   6.108921
    24  H    1.096381   3.662095   4.767156   4.992055   6.352748
    25  H    1.095889   2.980029   4.156308   4.720953   6.045440
    26  H    1.095792   4.132026   5.468928   6.074001   7.455797
    27  H    4.592937   2.744551   2.168514   1.085252   2.138475
    28  H    6.974622   4.600759   3.387364   2.143136   1.088594
    29  H    7.671661   4.532646   3.398892   3.886136   3.411812
    30  H    5.553260   2.586264   2.159372   3.406841   3.879687
                   11         12         13         14         15
    11  C    0.000000
    12  C    1.404525   0.000000
    13  C    2.430928   1.397138   0.000000
    14  C    1.509344   2.531493   3.816103   0.000000
    15  F    2.403822   3.702438   4.834252   1.362859   0.000000
    16  F    2.388614   3.009666   4.322720   1.361915   2.173473
    17  F    2.388882   3.007872   4.319011   1.361722   2.173758
    18  H    7.324798   6.883074   5.689393   8.738356   9.259494
    19  H    7.666150   7.461622   6.299892   9.084425   9.406732
    20  H    8.497562   8.014689   6.711669   9.971982  10.487878
    21  H    6.554932   5.686735   4.343129   8.003663   8.840292
    22  H    7.854573   7.036650   5.642596   9.345056  10.121510
    23  H    6.378886   5.508921   4.119609   7.854524   8.689658
    24  H    7.331272   7.162758   5.985678   8.773830   9.074515
    25  H    6.776377   6.374176   5.130078   8.241410   8.740304
    26  H    8.214009   7.757149   6.436082   9.708531  10.206955
    27  H    3.403376   3.881796   3.415418   4.665430   4.762857
    28  H    2.169400   3.413434   3.881568   2.742963   2.411593
    29  H    2.167257   1.089397   2.153116   2.743355   4.076949
    30  H    3.415203   2.157296   1.086613   4.687299   5.806843
                   16         17         18         19         20
    16  F    0.000000
    17  F    2.175407   0.000000
    18  H    9.672154   9.035653   0.000000
    19  H   10.010450   9.585843   1.763492   0.000000
    20  H   10.788825  10.418408   1.774086   1.767920   0.000000
    21  H    8.658880   8.315031   2.593446   3.788047   3.106575
    22  H    9.907318   9.811410   3.122591   3.752861   2.526769
    23  H    8.298543   8.408448   3.793312   4.339520   3.752735
    24  H    9.443299   9.584852   3.757032   2.542599   3.143248
    25  H    8.706272   9.093036   4.333257   3.760358   3.806365
    26  H   10.277939  10.444899   3.799310   3.108465   2.611634
    27  H    5.539747   5.536888   5.211083   4.884330   6.089589
    28  H    3.723205   3.725844   7.306537   7.197252   8.403006
    29  H    2.902297   2.898873   7.643803   8.365967   8.788172
    30  H    5.046922   5.045173   5.643050   6.452036   6.573759
                   21         22         23         24         25
    21  H    0.000000
    22  H    1.774319   0.000000
    23  H    1.766400   1.764041   0.000000
    24  H    4.334007   3.791198   3.780960   0.000000
    25  H    3.781290   3.173055   2.581428   1.764268   0.000000
    26  H    3.782840   2.585055   3.086163   1.771356   1.773016
    27  H    5.339389   6.188486   5.098388   4.369007   4.425855
    28  H    7.214176   8.316378   7.024576   6.791530   6.676640
    29  H    6.228701   7.618790   6.079942   8.108561   7.207124
    30  H    3.864865   5.169110   3.639785   6.184183   5.148590
                   26         27         28         29         30
    26  H    0.000000
    27  H    5.687952   0.000000
    28  H    8.068355   2.440100   0.000000
    29  H    8.566013   4.971187   4.321589   0.000000
    30  H    6.331330   4.316158   4.968144   2.477353   0.000000
 Stoichiometry    C12H13F3O2
 Framework group  C1[X(C12H13F3O2)]
 Deg. of freedom    84
 Full point group                 C1      NOp   1
 Largest Abelian subgroup         C1      NOp   1
 Largest concise Abelian subgroup C1      NOp   1
                         Standard orientation:                         
 ---------------------------------------------------------------------
 Center     Atomic      Atomic             Coordinates (Angstroms)
 Number     Number       Type             X           Y           Z
 ---------------------------------------------------------------------
      1          8           0       -2.282095   -1.562521    0.562787
      2          6           0       -2.559008   -0.439661    0.151875
      3          6           0       -3.990901    0.077997    0.012170
      4          6           0       -4.850039   -0.572272    1.109732
      5          6           0       -4.056103    1.604520    0.167953
      6          6           0       -4.517000   -0.332069   -1.367015
      7          8           0       -1.641008    0.517499   -0.274172
      8          6           0       -0.249937    0.308019   -0.196487
      9          6           0        0.343246   -0.937187   -0.380518
     10          6           0        1.729609   -1.058226   -0.298281
     11          6           0        2.532036    0.064921   -0.043629
     12          6           0        1.919515    1.318211    0.119996
     13          6           0        0.530605    1.442501    0.033547
     14          6           0        4.031606   -0.075786    0.054401
     15          9           0        4.471230   -1.353278   -0.124850
     16          9           0        4.687098    0.675923   -0.873001
     17          9           0        4.514219    0.317039    1.265623
     18          1           0       -4.458017   -0.341353    2.107364
     19          1           0       -4.861093   -1.665040    1.014072
     20          1           0       -5.888023   -0.226812    1.063649
     21          1           0       -3.643749    1.920091    1.133297
     22          1           0       -5.087012    1.968371    0.102342
     23          1           0       -3.481953    2.113241   -0.615040
     24          1           0       -4.499622   -1.421294   -1.490870
     25          1           0       -3.902673    0.094554   -2.167995
     26          1           0       -5.548825    0.005686   -1.515405
     27          1           0       -0.246332   -1.826676   -0.577951
     28          1           0        2.179848   -2.040593   -0.429723
     29          1           0        2.525117    2.201561    0.319306
     30          1           0        0.062450    2.415466    0.155610
 ---------------------------------------------------------------------
 Rotational constants (GHZ):      1.4657527      0.1700538      0.1633057
 Leave Link  202 at Wed Sep 29 04:38:55 2021, MaxMem= 1342177280 cpu:       0.1
 (Enter /sw/target/amd/app/gaussian/Gaussian09RevA.02_gcc-4.9.2/g09/l301.exe)
 Standard basis: 6-31G(d) (6D, 7F)
 Ernie: Thresh=  0.10000D-02 Tol=  0.10000D-05 Strict=F.
 There are   281 symmetry adapted basis functions of A   symmetry.
 Integral buffers will be    131072 words long.
 Raffenetti 2 integral format.
 Two-electron integral symmetry is turned on.
   281 basis functions,   528 primitive gaussians,   281 cartesian basis functions
    64 alpha electrons       64 beta electrons
       nuclear repulsion energy      1213.9702500811 Hartrees.
 IExCor=  402 DFT=T Ex+Corr=B3LYP ExCW=0 ScaHFX=  0.200000
 ScaDFX=  0.800000  0.720000  1.000000  0.810000 ScalE2=  1.000000  1.000000
 IRadAn=      0 IRanWt=     -1 IRanGd=            0 ICorTp=0
 NAtoms=   30 NActive=   30 NUniq=   30 SFac= 7.50D-01 NAtFMM=   80 NAOKFM=F Big=F
 Leave Link  301 at Wed Sep 29 04:38:56 2021, MaxMem= 1342177280 cpu:       0.1
 (Enter /sw/target/amd/app/gaussian/Gaussian09RevA.02_gcc-4.9.2/g09/l302.exe)
 NPDir=0 NMtPBC=     1 NCelOv=     1 NCel=       1 NClECP=     1 NCelD=      1
         NCelK=      1 NCelE2=     1 NClLst=     1 CellRange=     0.0.
 One-electron integrals computed using PRISM.
 NBasis=   281 RedAO= T  NBF=   281
 NBsUse=   281 1.00D-06 NBFU=   281
 Precomputing XC quadrature grid using
 IXCGrd= 2 IRadAn=           0 IRanWt=          -1 IRanGd=           0 AccXCQ= 1.00D-10.
 NRdTot=    1908 NPtTot=      243404 NUsed=      257163 NTot=      257195
 NSgBfM=   278   278   278   278   278 NAtAll=    30    30.
 Leave Link  302 at Wed Sep 29 04:39:00 2021, MaxMem= 1342177280 cpu:       2.6
 (Enter /sw/target/amd/app/gaussian/Gaussian09RevA.02_gcc-4.9.2/g09/l303.exe)
 DipDrv:  MaxL=1.
 Leave Link  303 at Wed Sep 29 04:39:01 2021, MaxMem= 1342177280 cpu:       0.2
 (Enter /sw/target/amd/app/gaussian/Gaussian09RevA.02_gcc-4.9.2/g09/l401.exe)
 Harris functional with IExCor=  402 diagonalized for initial guess.
 ExpMin= 1.61D-01 ExpMax= 7.00D+03 ExpMxC= 1.05D+03 IAcc=1 IRadAn=         1 AccDes= 0.00D+00
 HarFok:  IExCor=  402 AccDes= 0.00D+00 IRadAn=         1 IDoV= 1
 ScaDFX=  1.000000  1.000000  1.000000  1.000000
 FoFCou: FMM=F IPFlag=           0 FMFlag=      100000 FMFlg1=           0
         NFxFlg=           0 DoJE=T BraDBF=F KetDBF=T FulRan=T
         Omega=  0.000000  0.000000  1.000000  0.000000  0.000000 ICntrl=     500 IOpCl=  0
         NMat0=    1 NMatS0=    1 NMatT0=    0 NMatD0=    1 NMtDS0=    0 NMtDT0=    0
         I1Cent=           4 NGrid=           0.
 Petite list used in FoFCou.
 Harris En= -915.208183017493    
 Initial guess orbital symmetries:
       Occupied  (A) (A) (A) (A) (A) (A) (A) (A) (A) (A) (A) (A)
                 (A) (A) (A) (A) (A) (A) (A) (A) (A) (A) (A) (A)
                 (A) (A) (A) (A) (A) (A) (A) (A) (A) (A) (A) (A)
                 (A) (A) (A) (A) (A) (A) (A) (A) (A) (A) (A) (A)
                 (A) (A) (A) (A) (A) (A) (A) (A) (A) (A) (A) (A)
                 (A) (A) (A) (A)
       Virtual   (A) (A) (A) (A) (A) (A) (A) (A) (A) (A) (A) (A)
                 (A) (A) (A) (A) (A) (A) (A) (A) (A) (A) (A) (A)
                 (A) (A) (A) (A) (A) (A) (A) (A) (A) (A) (A) (A)
                 (A) (A) (A) (A) (A) (A) (A) (A) (A) (A) (A) (A)
                 (A) (A) (A) (A) (A) (A) (A) (A) (A) (A) (A) (A)
                 (A) (A) (A) (A) (A) (A) (A) (A) (A) (A) (A) (A)
                 (A) (A) (A) (A) (A) (A) (A) (A) (A) (A) (A) (A)
                 (A) (A) (A) (A) (A) (A) (A) (A) (A) (A) (A) (A)
                 (A) (A) (A) (A) (A) (A) (A) (A) (A) (A) (A) (A)
                 (A) (A) (A) (A) (A) (A) (A) (A) (A) (A) (A) (A)
                 (A) (A) (A) (A) (A) (A) (A) (A) (A) (A) (A) (A)
                 (A) (A) (A) (A) (A) (A) (A) (A) (A) (A) (A) (A)
                 (A) (A) (A) (A) (A) (A) (A) (A) (A) (A) (A) (A)
                 (A) (A) (A) (A) (A) (A) (A) (A) (A) (A) (A) (A)
                 (A) (A) (A) (A) (A) (A) (A) (A) (A) (A) (A) (A)
                 (A) (A) (A) (A) (A) (A) (A) (A) (A) (A) (A) (A)
                 (A) (A) (A) (A) (A) (A) (A) (A) (A) (A) (A) (A)
                 (A) (A) (A) (A) (A) (A) (A) (A) (A) (A) (A) (A)
                 (A)
 The electronic state of the initial guess is 1-A.
 Leave Link  401 at Wed Sep 29 04:39:12 2021, MaxMem= 1342177280 cpu:      11.5
 (Enter /sw/target/amd/app/gaussian/Gaussian09RevA.02_gcc-4.9.2/g09/l502.exe)
 Closed shell SCF:
 Requested convergence on RMS density matrix=1.00D-08 within  64 cycles.
 Requested convergence on MAX density matrix=1.00D-06.
 Requested convergence on             energy=1.00D-06.
 No special actions if energy rises.
 Using DIIS extrapolation, IDIIS=  1040.
 Integral symmetry usage will be decided dynamically.
       256880 words used for storage of precomputed grid.
 Keep R1 ints in memory in canonical form, NReq=796647496.
 IEnd=      503108 IEndB=      503108 NGot=  1342177280 MDV=   556825980
 LenX=   556825980 LenY=   556746578
 Symmetry not used in FoFDir.
 MinBra= 0 MaxBra= 2 Meth= 1.
 IRaf=       0 NMat=   1 IRICut=       1 DoRegI=T DoRafI=F ISym2E= 0 JSym2E=0.
 Integral accuracy reduced to 1.0D-05 until final iterations.

 Cycle   1  Pass 0  IDiag  1:
 E= -914.626249732434    
 DIIS: error= 5.01D-02 at cycle   1 NSaved=   1.
 NSaved= 1 IEnMin= 1 EnMin= -914.626249732434     IErMin= 1 ErrMin= 5.01D-02
 ErrMax= 5.01D-02 EMaxC= 1.00D-01 BMatC= 5.25D-01 BMatP= 5.25D-01
 IDIUse=3 WtCom= 4.99D-01 WtEn= 5.01D-01
 Coeff-Com:  0.100D+01
 Coeff-En:   0.100D+01
 Coeff:      0.100D+01
 Gap=     0.281 Goal=   None    Shift=    0.000
 GapD=    0.281 DampG=1.000 DampE=0.500 DampFc=0.5000 IDamp=-1.
 Damping current iteration by 5.00D-01
 RMSDP=5.17D-03 MaxDP=2.11D-01              OVMax= 2.39D-01

 Cycle   2  Pass 0  IDiag  1:
 E= -914.775608467114     Delta-E=       -0.149358734680 Rises=F Damp=T
 DIIS: error= 1.35D-02 at cycle   2 NSaved=   2.
 NSaved= 2 IEnMin= 2 EnMin= -914.775608467114     IErMin= 2 ErrMin= 1.35D-02
 ErrMax= 1.35D-02 EMaxC= 1.00D-01 BMatC= 6.70D-02 BMatP= 5.25D-01
 IDIUse=3 WtCom= 8.65D-01 WtEn= 1.35D-01
 Coeff-Com:  0.198D+00 0.802D+00
 Coeff-En:   0.307D+00 0.693D+00
 Coeff:      0.212D+00 0.788D+00
 Gap=     0.249 Goal=   None    Shift=    0.000
 RMSDP=1.53D-03 MaxDP=7.38D-02 DE=-1.49D-01 OVMax= 1.71D-01

 Cycle   3  Pass 0  IDiag  1:
 E= -915.039978663641     Delta-E=       -0.264370196527 Rises=F Damp=F
 DIIS: error= 1.67D-02 at cycle   3 NSaved=   3.
 NSaved= 3 IEnMin= 3 EnMin= -915.039978663641     IErMin= 2 ErrMin= 1.35D-02
 ErrMax= 1.67D-02 EMaxC= 1.00D-01 BMatC= 7.17D-02 BMatP= 6.70D-02
 IDIUse=3 WtCom= 8.33D-01 WtEn= 1.67D-01
 Coeff-Com:  0.804D-01 0.503D+00 0.417D+00
 Coeff-En:   0.000D+00 0.000D+00 0.100D+01
 Coeff:      0.670D-01 0.419D+00 0.514D+00
 Gap=     0.227 Goal=   None    Shift=    0.000
 RMSDP=1.23D-03 MaxDP=7.60D-02 DE=-2.64D-01 OVMax= 1.27D-01

 Cycle   4  Pass 0  IDiag  1:
 E= -915.080316197061     Delta-E=       -0.040337533421 Rises=F Damp=F
 DIIS: error= 8.92D-03 at cycle   4 NSaved=   4.
 NSaved= 4 IEnMin= 4 EnMin= -915.080316197061     IErMin= 4 ErrMin= 8.92D-03
 ErrMax= 8.92D-03 EMaxC= 1.00D-01 BMatC= 2.49D-02 BMatP= 6.70D-02
 IDIUse=3 WtCom= 9.11D-01 WtEn= 8.92D-02
 Coeff-Com:  0.179D-01 0.974D-01 0.362D+00 0.522D+00
 Coeff-En:   0.000D+00 0.000D+00 0.294D+00 0.706D+00
 Coeff:      0.163D-01 0.887D-01 0.356D+00 0.539D+00
 Gap=     0.238 Goal=   None    Shift=    0.000
 RMSDP=4.98D-04 MaxDP=3.06D-02 DE=-4.03D-02 OVMax= 4.52D-02

 Cycle   5  Pass 0  IDiag  1:
 E= -915.099032885484     Delta-E=       -0.018716688423 Rises=F Damp=F
 DIIS: error= 1.38D-03 at cycle   5 NSaved=   5.
 NSaved= 5 IEnMin= 5 EnMin= -915.099032885484     IErMin= 5 ErrMin= 1.38D-03
 ErrMax= 1.38D-03 EMaxC= 1.00D-01 BMatC= 8.57D-04 BMatP= 2.49D-02
 IDIUse=3 WtCom= 9.86D-01 WtEn= 1.38D-02
 Coeff-Com:  0.321D-02 0.711D-02 0.151D+00 0.294D+00 0.545D+00
 Coeff-En:   0.000D+00 0.000D+00 0.000D+00 0.000D+00 0.100D+01
 Coeff:      0.316D-02 0.702D-02 0.149D+00 0.290D+00 0.551D+00
 Gap=     0.221 Goal=   None    Shift=    0.000
 RMSDP=1.12D-04 MaxDP=4.92D-03 DE=-1.87D-02 OVMax= 9.19D-03

 Cycle   6  Pass 0  IDiag  1:
 E= -915.099678404286     Delta-E=       -0.000645518802 Rises=F Damp=F
 DIIS: error= 5.36D-04 at cycle   6 NSaved=   6.
 NSaved= 6 IEnMin= 6 EnMin= -915.099678404286     IErMin= 6 ErrMin= 5.36D-04
 ErrMax= 5.36D-04 EMaxC= 1.00D-01 BMatC= 7.82D-05 BMatP= 8.57D-04
 IDIUse=3 WtCom= 9.95D-01 WtEn= 5.36D-03
 Coeff-Com:  0.302D-03-0.393D-02 0.469D-01 0.102D+00 0.299D+00 0.556D+00
 Coeff-En:   0.000D+00 0.000D+00 0.000D+00 0.000D+00 0.306D-01 0.969D+00
 Coeff:      0.300D-03-0.391D-02 0.467D-01 0.101D+00 0.297D+00 0.559D+00
 Gap=     0.221 Goal=   None    Shift=    0.000
 RMSDP=3.80D-05 MaxDP=1.75D-03 DE=-6.46D-04 OVMax= 4.15D-03

 Cycle   7  Pass 0  IDiag  1:
 E= -915.099739227242     Delta-E=       -0.000060822956 Rises=F Damp=F
 DIIS: error= 1.95D-04 at cycle   7 NSaved=   7.
 NSaved= 7 IEnMin= 7 EnMin= -915.099739227242     IErMin= 7 ErrMin= 1.95D-04
 ErrMax= 1.95D-04 EMaxC= 1.00D-01 BMatC= 8.70D-06 BMatP= 7.82D-05
 IDIUse=3 WtCom= 9.98D-01 WtEn= 1.95D-03
 Coeff-Com: -0.648D-05-0.255D-02 0.139D-01 0.317D-01 0.125D+00 0.324D+00
 Coeff-Com:  0.508D+00
 Coeff-En:   0.000D+00 0.000D+00 0.000D+00 0.000D+00 0.000D+00 0.755D-01
 Coeff-En:   0.924D+00
 Coeff:     -0.646D-05-0.255D-02 0.139D-01 0.317D-01 0.125D+00 0.323D+00
 Coeff:      0.509D+00
 Gap=     0.221 Goal=   None    Shift=    0.000
 RMSDP=1.41D-05 MaxDP=6.39D-04 DE=-6.08D-05 OVMax= 1.57D-03

 Cycle   8  Pass 0  IDiag  1:
 E= -915.099747828890     Delta-E=       -0.000008601648 Rises=F Damp=F
 DIIS: error= 6.27D-05 at cycle   8 NSaved=   8.
 NSaved= 8 IEnMin= 8 EnMin= -915.099747828890     IErMin= 8 ErrMin= 6.27D-05
 ErrMax= 6.27D-05 EMaxC= 1.00D-01 BMatC= 8.04D-07 BMatP= 8.70D-06
 IDIUse=1 WtCom= 1.00D+00 WtEn= 0.00D+00
 Coeff-Com: -0.174D-04-0.921D-03 0.246D-02 0.559D-02 0.372D-01 0.114D+00
 Coeff-Com:  0.280D+00 0.562D+00
 Coeff:     -0.174D-04-0.921D-03 0.246D-02 0.559D-02 0.372D-01 0.114D+00
 Coeff:      0.280D+00 0.562D+00
 Gap=     0.221 Goal=   None    Shift=    0.000
 RMSDP=3.71D-06 MaxDP=1.59D-04 DE=-8.60D-06 OVMax= 4.00D-04

 Initial convergence to 1.0D-05 achieved.  Increase integral accuracy.
 Cycle   9  Pass 1  IDiag  1:
 E= -915.099827198874     Delta-E=       -0.000079369984 Rises=F Damp=F
 DIIS: error= 2.88D-05 at cycle   1 NSaved=   1.
 NSaved= 1 IEnMin= 1 EnMin= -915.099827198874     IErMin= 1 ErrMin= 2.88D-05
 ErrMax= 2.88D-05 EMaxC= 1.00D-01 BMatC= 2.27D-07 BMatP= 2.27D-07
 IDIUse=1 WtCom= 1.00D+00 WtEn= 0.00D+00
 Coeff-Com:  0.100D+01
 Coeff:      0.100D+01
 Gap=     0.221 Goal=   None    Shift=    0.000
 RMSDP=3.71D-06 MaxDP=1.59D-04 DE=-7.94D-05 OVMax= 1.99D-04

 Cycle  10  Pass 1  IDiag  1:
 E= -915.099827349526     Delta-E=       -0.000000150652 Rises=F Damp=F
 DIIS: error= 1.44D-05 at cycle   2 NSaved=   2.
 NSaved= 2 IEnMin= 2 EnMin= -915.099827349526     IErMin= 2 ErrMin= 1.44D-05
 ErrMax= 1.44D-05 EMaxC= 1.00D-01 BMatC= 1.22D-07 BMatP= 2.27D-07
 IDIUse=1 WtCom= 1.00D+00 WtEn= 0.00D+00
 Coeff-Com:  0.390D+00 0.610D+00
 Coeff:      0.390D+00 0.610D+00
 Gap=     0.221 Goal=   None    Shift=    0.000
 RMSDP=1.84D-06 MaxDP=8.26D-05 DE=-1.51D-07 OVMax= 2.01D-04

 Cycle  11  Pass 1  IDiag  1:
 E= -915.099827403107     Delta-E=       -0.000000053581 Rises=F Damp=F
 DIIS: error= 1.16D-05 at cycle   3 NSaved=   3.
 NSaved= 3 IEnMin= 3 EnMin= -915.099827403107     IErMin= 3 ErrMin= 1.16D-05
 ErrMax= 1.16D-05 EMaxC= 1.00D-01 BMatC= 6.66D-08 BMatP= 1.22D-07
 IDIUse=1 WtCom= 1.00D+00 WtEn= 0.00D+00
 Coeff-Com:  0.146D-01 0.420D+00 0.565D+00
 Coeff:      0.146D-01 0.420D+00 0.565D+00
 Gap=     0.221 Goal=   None    Shift=    0.000
 RMSDP=9.25D-07 MaxDP=4.70D-05 DE=-5.36D-08 OVMax= 9.20D-05

 Cycle  12  Pass 1  IDiag  1:
 E= -915.099827458491     Delta-E=       -0.000000055384 Rises=F Damp=F
 DIIS: error= 4.96D-06 at cycle   4 NSaved=   4.
 NSaved= 4 IEnMin= 4 EnMin= -915.099827458491     IErMin= 4 ErrMin= 4.96D-06
 ErrMax= 4.96D-06 EMaxC= 1.00D-01 BMatC= 7.05D-09 BMatP= 6.66D-08
 IDIUse=1 WtCom= 1.00D+00 WtEn= 0.00D+00
 Coeff-Com: -0.142D-01 0.236D+00 0.368D+00 0.410D+00
 Coeff:     -0.142D-01 0.236D+00 0.368D+00 0.410D+00
 Gap=     0.221 Goal=   None    Shift=    0.000
 RMSDP=2.80D-07 MaxDP=1.76D-05 DE=-5.54D-08 OVMax= 2.45D-05

 Cycle  13  Pass 1  IDiag  1:
 E= -915.099827464074     Delta-E=       -0.000000005583 Rises=F Damp=F
 DIIS: error= 8.03D-07 at cycle   5 NSaved=   5.
 NSaved= 5 IEnMin= 5 EnMin= -915.099827464074     IErMin= 5 ErrMin= 8.03D-07
 ErrMax= 8.03D-07 EMaxC= 1.00D-01 BMatC= 2.27D-10 BMatP= 7.05D-09
 IDIUse=1 WtCom= 1.00D+00 WtEn= 0.00D+00
 Coeff-Com: -0.877D-02 0.117D+00 0.186D+00 0.242D+00 0.465D+00
 Coeff:     -0.877D-02 0.117D+00 0.186D+00 0.242D+00 0.465D+00
 Gap=     0.221 Goal=   None    Shift=    0.000
 RMSDP=6.69D-08 MaxDP=2.48D-06 DE=-5.58D-09 OVMax= 5.95D-06

 Cycle  14  Pass 1  IDiag  1:
 E= -915.099827464260     Delta-E=       -0.000000000186 Rises=F Damp=F
 DIIS: error= 2.74D-07 at cycle   6 NSaved=   6.
 NSaved= 6 IEnMin= 6 EnMin= -915.099827464260     IErMin= 6 ErrMin= 2.74D-07
 ErrMax= 2.74D-07 EMaxC= 1.00D-01 BMatC= 2.90D-11 BMatP= 2.27D-10
 IDIUse=1 WtCom= 1.00D+00 WtEn= 0.00D+00
 Coeff-Com: -0.331D-02 0.358D-01 0.585D-01 0.889D-01 0.290D+00 0.530D+00
 Coeff:     -0.331D-02 0.358D-01 0.585D-01 0.889D-01 0.290D+00 0.530D+00
 Gap=     0.221 Goal=   None    Shift=    0.000
 RMSDP=2.28D-08 MaxDP=1.14D-06 DE=-1.86D-10 OVMax= 2.66D-06

 Cycle  15  Pass 1  IDiag  1:
 E= -915.099827464299     Delta-E=       -0.000000000039 Rises=F Damp=F
 DIIS: error= 7.08D-08 at cycle   7 NSaved=   7.
 NSaved= 7 IEnMin= 7 EnMin= -915.099827464299     IErMin= 7 ErrMin= 7.08D-08
 ErrMax= 7.08D-08 EMaxC= 1.00D-01 BMatC= 2.83D-12 BMatP= 2.90D-11
 IDIUse=1 WtCom= 1.00D+00 WtEn= 0.00D+00
 Coeff-Com: -0.678D-03 0.489D-02 0.864D-02 0.194D-01 0.107D+00 0.298D+00
 Coeff-Com:  0.562D+00
 Coeff:     -0.678D-03 0.489D-02 0.864D-02 0.194D-01 0.107D+00 0.298D+00
 Coeff:      0.562D+00
 Gap=     0.221 Goal=   None    Shift=    0.000
 RMSDP=6.48D-09 MaxDP=3.46D-07 DE=-3.91D-11 OVMax= 5.97D-07

 SCF Done:  E(RB3LYP) =  -915.099827464     A.U. after   15 cycles
             Convg  =    0.6480D-08             -V/T =  2.0088
 KE= 9.071308157011D+02 PE=-4.572367186710D+03 EE= 1.536166293463D+03
 Leave Link  502 at Wed Sep 29 04:47:34 2021, MaxMem= 1342177280 cpu:     329.6
 (Enter /sw/target/amd/app/gaussian/Gaussian09RevA.02_gcc-4.9.2/g09/l508.exe)
 QCSCF skips out because SCF is already converged.
 Leave Link  508 at Wed Sep 29 04:47:37 2021, MaxMem= 1342177280 cpu:       0.0
 (Enter /sw/target/amd/app/gaussian/Gaussian09RevA.02_gcc-4.9.2/g09/l601.exe)
 Copying SCF densities to generalized density rwf, IOpCl= 0 IROHF=0.

 **********************************************************************

            Population analysis using the SCF density.

 **********************************************************************

 Orbital symmetries:
       Occupied  (A) (A) (A) (A) (A) (A) (A) (A) (A) (A) (A) (A)
                 (A) (A) (A) (A) (A) (A) (A) (A) (A) (A) (A) (A)
                 (A) (A) (A) (A) (A) (A) (A) (A) (A) (A) (A) (A)
                 (A) (A) (A) (A) (A) (A) (A) (A) (A) (A) (A) (A)
                 (A) (A) (A) (A) (A) (A) (A) (A) (A) (A) (A) (A)
                 (A) (A) (A) (A)
       Virtual   (A) (A) (A) (A) (A) (A) (A) (A) (A) (A) (A) (A)
                 (A) (A) (A) (A) (A) (A) (A) (A) (A) (A) (A) (A)
                 (A) (A) (A) (A) (A) (A) (A) (A) (A) (A) (A) (A)
                 (A) (A) (A) (A) (A) (A) (A) (A) (A) (A) (A) (A)
                 (A) (A) (A) (A) (A) (A) (A) (A) (A) (A) (A) (A)
                 (A) (A) (A) (A) (A) (A) (A) (A) (A) (A) (A) (A)
                 (A) (A) (A) (A) (A) (A) (A) (A) (A) (A) (A) (A)
                 (A) (A) (A) (A) (A) (A) (A) (A) (A) (A) (A) (A)
                 (A) (A) (A) (A) (A) (A) (A) (A) (A) (A) (A) (A)
                 (A) (A) (A) (A) (A) (A) (A) (A) (A) (A) (A) (A)
                 (A) (A) (A) (A) (A) (A) (A) (A) (A) (A) (A) (A)
                 (A) (A) (A) (A) (A) (A) (A) (A) (A) (A) (A) (A)
                 (A) (A) (A) (A) (A) (A) (A) (A) (A) (A) (A) (A)
                 (A) (A) (A) (A) (A) (A) (A) (A) (A) (A) (A) (A)
                 (A) (A) (A) (A) (A) (A) (A) (A) (A) (A) (A) (A)
                 (A) (A) (A) (A) (A) (A) (A) (A) (A) (A) (A) (A)
                 (A) (A) (A) (A) (A) (A) (A) (A) (A) (A) (A) (A)
                 (A) (A) (A) (A) (A) (A) (A) (A) (A) (A) (A) (A)
                 (A)
 The electronic state is 1-A.
 Alpha  occ. eigenvalues --  -24.72167 -24.71665 -24.71659 -19.21888 -19.15554
 Alpha  occ. eigenvalues --  -10.43295 -10.33430 -10.27448 -10.22355 -10.22253
 Alpha  occ. eigenvalues --  -10.21966 -10.21574 -10.21428 -10.20815 -10.19125
 Alpha  occ. eigenvalues --  -10.18500 -10.18252  -1.29201  -1.20600  -1.20329
 Alpha  occ. eigenvalues --   -1.11032  -1.03129  -0.88016  -0.83497  -0.79012
 Alpha  occ. eigenvalues --   -0.77002  -0.71065  -0.70007  -0.69197  -0.66120
 Alpha  occ. eigenvalues --   -0.63729  -0.61086  -0.57437  -0.57162  -0.56809
 Alpha  occ. eigenvalues --   -0.56463  -0.50273  -0.49506  -0.48323  -0.46875
 Alpha  occ. eigenvalues --   -0.46445  -0.45178  -0.45056  -0.44627  -0.44449
 Alpha  occ. eigenvalues --   -0.44047  -0.43190  -0.41686  -0.41292  -0.40637
 Alpha  occ. eigenvalues --   -0.39793  -0.39126  -0.39078  -0.38051  -0.37585
 Alpha  occ. eigenvalues --   -0.37315  -0.37084  -0.36028  -0.34483  -0.33898
 Alpha  occ. eigenvalues --   -0.33430  -0.28364  -0.27017  -0.25999
 Alpha virt. eigenvalues --   -0.03869  -0.02190  -0.00265   0.07559   0.08007
 Alpha virt. eigenvalues --    0.11640   0.12380   0.12560   0.13256   0.14189
 Alpha virt. eigenvalues --    0.14264   0.14528   0.15277   0.15640   0.16910
 Alpha virt. eigenvalues --    0.18373   0.18915   0.19752   0.20988   0.21263
 Alpha virt. eigenvalues --    0.21455   0.21620   0.22256   0.22802   0.23908
 Alpha virt. eigenvalues --    0.25474   0.29050   0.29899   0.32136   0.32848
 Alpha virt. eigenvalues --    0.34392   0.38038   0.45750   0.47930   0.48579
 Alpha virt. eigenvalues --    0.48952   0.49369   0.49996   0.50201   0.51545
 Alpha virt. eigenvalues --    0.52541   0.54024   0.54594   0.55951   0.57010
 Alpha virt. eigenvalues --    0.57577   0.58382   0.59526   0.60207   0.61117
 Alpha virt. eigenvalues --    0.61899   0.62963   0.64347   0.66941   0.67678
 Alpha virt. eigenvalues --    0.68422   0.69478   0.70419   0.71030   0.72573
 Alpha virt. eigenvalues --    0.74659   0.77209   0.78717   0.81440   0.82097
 Alpha virt. eigenvalues --    0.83412   0.83783   0.85130   0.85724   0.87411
 Alpha virt. eigenvalues --    0.87827   0.88979   0.89240   0.89799   0.90793
 Alpha virt. eigenvalues --    0.92130   0.92496   0.93564   0.94043   0.96676
 Alpha virt. eigenvalues --    0.97124   0.97647   0.98484   0.99431   1.00929
 Alpha virt. eigenvalues --    1.04142   1.06925   1.07818   1.08568   1.10458
 Alpha virt. eigenvalues --    1.12418   1.13368   1.14184   1.16431   1.17192
 Alpha virt. eigenvalues --    1.20652   1.23506   1.24521   1.25834   1.31865
 Alpha virt. eigenvalues --    1.32804   1.33023   1.34255   1.34742   1.36289
 Alpha virt. eigenvalues --    1.38313   1.38898   1.39859   1.40505   1.42894
 Alpha virt. eigenvalues --    1.44399   1.46828   1.48317   1.48946   1.50443
 Alpha virt. eigenvalues --    1.52605   1.55802   1.59261   1.61168   1.61608
 Alpha virt. eigenvalues --    1.66356   1.66816   1.68714   1.70684   1.71954
 Alpha virt. eigenvalues --    1.72782   1.75430   1.77934   1.78392   1.79760
 Alpha virt. eigenvalues --    1.82509   1.83538   1.83788   1.84631   1.85916
 Alpha virt. eigenvalues --    1.86124   1.87106   1.90524   1.91859   1.92913
 Alpha virt. eigenvalues --    1.93494   1.95189   1.96627   1.97862   1.98100
 Alpha virt. eigenvalues --    1.99392   2.01625   2.02652   2.03544   2.04686
 Alpha virt. eigenvalues --    2.05731   2.07603   2.07985   2.08941   2.11367
 Alpha virt. eigenvalues --    2.11501   2.12659   2.14631   2.15037   2.16724
 Alpha virt. eigenvalues --    2.19688   2.21615   2.23733   2.24690   2.25544
 Alpha virt. eigenvalues --    2.26503   2.26597   2.28542   2.29302   2.32929
 Alpha virt. eigenvalues --    2.36621   2.38804   2.40424   2.44971   2.47150
 Alpha virt. eigenvalues --    2.51972   2.52646   2.57424   2.60293   2.61504
 Alpha virt. eigenvalues --    2.62387   2.63359   2.68747   2.71294   2.72647
 Alpha virt. eigenvalues --    2.73589   2.74569   2.78101   2.78712   2.80093
 Alpha virt. eigenvalues --    2.90293   2.92272   2.95879   2.99243   3.03241
 Alpha virt. eigenvalues --    3.05542   3.07111   3.10908   3.25758   3.40430
 Alpha virt. eigenvalues --    4.05511   4.06730   4.09963   4.12080   4.17114
 Alpha virt. eigenvalues --    4.26402   4.28495   4.30336   4.30739   4.31871
 Alpha virt. eigenvalues --    4.34179   4.45300   4.52924   4.65454   4.71658
 Alpha virt. eigenvalues --    4.77282   5.56899
          Condensed to atoms (all electrons):
              1          2          3          4          5          6
     1  O    8.068480   0.521391  -0.076004  -0.000498   0.002748  -0.002604
     2  C    0.521391   4.404916   0.359536  -0.046955  -0.045110  -0.039418
     3  C   -0.076004   0.359536   4.966999   0.372350   0.354890   0.373571
     4  C   -0.000498  -0.046955   0.372350   5.134237  -0.065720  -0.053920
     5  C    0.002748  -0.045110   0.354890  -0.065720   5.158833  -0.055742
     6  C   -0.002604  -0.039418   0.373571  -0.053920  -0.055742   5.129572
     7  O   -0.065271   0.227680  -0.089780   0.002553  -0.000461  -0.000851
     8  C   -0.002849  -0.007727   0.004025  -0.000074  -0.000158  -0.000036
     9  C   -0.001686  -0.002785   0.000232   0.000004   0.000009  -0.000018
    10  C    0.000212   0.000310   0.000007  -0.000000  -0.000000  -0.000001
    11  C   -0.000000   0.000018   0.000000  -0.000000   0.000000   0.000000
    12  C    0.000002  -0.000037   0.000002  -0.000000   0.000001  -0.000000
    13  C    0.000227   0.000984  -0.000367   0.000007  -0.000033   0.000002
    14  C    0.000000   0.000000   0.000000  -0.000000  -0.000000   0.000000
    15  F    0.000000   0.000000   0.000000  -0.000000  -0.000000  -0.000000
    16  F   -0.000000  -0.000000  -0.000000  -0.000000   0.000000   0.000000
    17  F   -0.000000  -0.000000   0.000000   0.000000  -0.000000  -0.000000
    18  H    0.000780  -0.003774  -0.030465   0.371198  -0.003652   0.005291
    19  H    0.006780  -0.006449  -0.025391   0.366932   0.005628  -0.004417
    20  H    0.000401   0.005051  -0.029640   0.366198  -0.004630  -0.004666
    21  H    0.000067  -0.003022  -0.032339  -0.003449   0.371521   0.005329
    22  H   -0.000055   0.003896  -0.025522  -0.004954   0.363520  -0.005213
    23  H    0.000008  -0.007629  -0.023712   0.005502   0.364838  -0.004013
    24  H    0.002778  -0.003080  -0.032031  -0.005152   0.005924   0.368290
    25  H   -0.000088  -0.004522  -0.031816   0.005789  -0.004577   0.367298
    26  H   -0.000038   0.004504  -0.029309  -0.004793  -0.005508   0.373110
    27  H    0.012371   0.001196   0.000033   0.000006  -0.000004  -0.000011
    28  H   -0.000007  -0.000010  -0.000000   0.000000   0.000000  -0.000000
    29  H   -0.000000   0.000000  -0.000000   0.000000  -0.000000  -0.000000
    30  H    0.000010  -0.000013  -0.000056   0.000001   0.000085   0.000001
              7          8          9         10         11         12
     1  O   -0.065271  -0.002849  -0.001686   0.000212  -0.000000   0.000002
     2  C    0.227680  -0.007727  -0.002785   0.000310   0.000018  -0.000037
     3  C   -0.089780   0.004025   0.000232   0.000007   0.000000   0.000002
     4  C    0.002553  -0.000074   0.000004  -0.000000  -0.000000  -0.000000
     5  C   -0.000461  -0.000158   0.000009  -0.000000   0.000000   0.000001
     6  C   -0.000851  -0.000036  -0.000018  -0.000001   0.000000  -0.000000
     7  O    8.344521   0.207852  -0.048312   0.003474   0.000073   0.003322
     8  C    0.207852   4.531458   0.504415  -0.008399  -0.034466  -0.015203
     9  C   -0.048312   0.504415   5.038604   0.452242  -0.026939  -0.035942
    10  C    0.003474  -0.008399   0.452242   5.019294   0.506685  -0.056564
    11  C    0.000073  -0.034466  -0.026939   0.506685   5.042034   0.473379
    12  C    0.003322  -0.015203  -0.035942  -0.056564   0.473379   4.988716
    13  C   -0.048870   0.531820  -0.068561  -0.039204  -0.025235   0.495182
    14  C    0.000000  -0.000085   0.005018  -0.031442   0.292690  -0.020954
    15  F   -0.000000  -0.000009   0.000704   0.004230  -0.046943   0.002972
    16  F   -0.000000  -0.000004  -0.000027   0.001355  -0.051176   0.002222
    17  F   -0.000000  -0.000007  -0.000022   0.001353  -0.051743   0.002329
    18  H    0.000063  -0.000010  -0.000001  -0.000000   0.000000   0.000000
    19  H    0.000090  -0.000005  -0.000000   0.000000  -0.000000  -0.000000
    20  H   -0.000040   0.000002  -0.000000  -0.000000   0.000000   0.000000
    21  H    0.001095  -0.000056  -0.000002  -0.000000   0.000000   0.000000
    22  H    0.000442   0.000007   0.000001  -0.000000  -0.000000   0.000000
    23  H    0.005749   0.000097   0.000010  -0.000000   0.000000  -0.000000
    24  H    0.000065  -0.000010   0.000000  -0.000000  -0.000000   0.000000
    25  H    0.002912  -0.000052  -0.000002  -0.000000   0.000000  -0.000000
    26  H   -0.000071   0.000002   0.000000   0.000000  -0.000000   0.000000
    27  H   -0.006876  -0.033049   0.354112  -0.037898   0.003913   0.000443
    28  H   -0.000044   0.003250  -0.033653   0.357374  -0.043042   0.004704
    29  H   -0.000051   0.003615   0.000377   0.004726  -0.045076   0.359615
    30  H   -0.001139  -0.036411   0.006315   0.000278   0.004081  -0.038621
             13         14         15         16         17         18
     1  O    0.000227   0.000000   0.000000  -0.000000  -0.000000   0.000780
     2  C    0.000984   0.000000   0.000000  -0.000000  -0.000000  -0.003774
     3  C   -0.000367   0.000000   0.000000  -0.000000   0.000000  -0.030465
     4  C    0.000007  -0.000000  -0.000000  -0.000000   0.000000   0.371198
     5  C   -0.000033  -0.000000  -0.000000   0.000000  -0.000000  -0.003652
     6  C    0.000002   0.000000  -0.000000   0.000000  -0.000000   0.005291
     7  O   -0.048870   0.000000  -0.000000  -0.000000  -0.000000   0.000063
     8  C    0.531820  -0.000085  -0.000009  -0.000004  -0.000007  -0.000010
     9  C   -0.068561   0.005018   0.000704  -0.000027  -0.000022  -0.000001
    10  C   -0.039204  -0.031442   0.004230   0.001355   0.001353  -0.000000
    11  C   -0.025235   0.292690  -0.046943  -0.051176  -0.051743   0.000000
    12  C    0.495182  -0.020954   0.002972   0.002222   0.002329   0.000000
    13  C    5.001091   0.004409  -0.000019   0.000177   0.000202  -0.000000
    14  C    0.004409   4.129009   0.284159   0.281800   0.282585   0.000000
    15  F   -0.000019   0.284159   9.100482  -0.039057  -0.039032   0.000000
    16  F    0.000177   0.281800  -0.039057   9.113329  -0.039783   0.000000
    17  F    0.000202   0.282585  -0.039032  -0.039783   9.112349  -0.000000
    18  H   -0.000000   0.000000   0.000000   0.000000  -0.000000   0.564183
    19  H   -0.000000  -0.000000  -0.000000   0.000000  -0.000000  -0.027318
    20  H   -0.000000  -0.000000   0.000000  -0.000000   0.000000  -0.029564
    21  H    0.000010   0.000000   0.000000   0.000000  -0.000000   0.003759
    22  H   -0.000002  -0.000000   0.000000   0.000000  -0.000000  -0.000160
    23  H    0.000006   0.000000   0.000000  -0.000000   0.000000  -0.000051
    24  H   -0.000000  -0.000000  -0.000000   0.000000  -0.000000  -0.000037
    25  H    0.000002   0.000000  -0.000000  -0.000000   0.000000  -0.000192
    26  H   -0.000000  -0.000000   0.000000  -0.000000   0.000000  -0.000012
    27  H    0.004842  -0.000092   0.000000   0.000000   0.000000  -0.000001
    28  H    0.000508  -0.006690   0.009032   0.000159   0.000156   0.000000
    29  H   -0.035090  -0.003637   0.000051   0.001475   0.001529   0.000000
    30  H    0.350689  -0.000083   0.000000   0.000000   0.000001  -0.000000
             19         20         21         22         23         24
     1  O    0.006780   0.000401   0.000067  -0.000055   0.000008   0.002778
     2  C   -0.006449   0.005051  -0.003022   0.003896  -0.007629  -0.003080
     3  C   -0.025391  -0.029640  -0.032339  -0.025522  -0.023712  -0.032031
     4  C    0.366932   0.366198  -0.003449  -0.004954   0.005502  -0.005152
     5  C    0.005628  -0.004630   0.371521   0.363520   0.364838   0.005924
     6  C   -0.004417  -0.004666   0.005329  -0.005213  -0.004013   0.368290
     7  O    0.000090  -0.000040   0.001095   0.000442   0.005749   0.000065
     8  C   -0.000005   0.000002  -0.000056   0.000007   0.000097  -0.000010
     9  C   -0.000000  -0.000000  -0.000002   0.000001   0.000010   0.000000
    10  C    0.000000  -0.000000  -0.000000  -0.000000  -0.000000  -0.000000
    11  C   -0.000000   0.000000   0.000000  -0.000000   0.000000  -0.000000
    12  C   -0.000000   0.000000   0.000000   0.000000  -0.000000   0.000000
    13  C   -0.000000  -0.000000   0.000010  -0.000002   0.000006  -0.000000
    14  C   -0.000000  -0.000000   0.000000  -0.000000   0.000000  -0.000000
    15  F   -0.000000   0.000000   0.000000   0.000000   0.000000  -0.000000
    16  F    0.000000  -0.000000   0.000000   0.000000  -0.000000   0.000000
    17  F   -0.000000   0.000000  -0.000000  -0.000000   0.000000  -0.000000
    18  H   -0.027318  -0.029564   0.003759  -0.000160  -0.000051  -0.000037
    19  H    0.543781  -0.029582  -0.000041  -0.000030  -0.000192   0.004412
    20  H   -0.029582   0.576927  -0.000163   0.002932   0.000002  -0.000154
    21  H   -0.000041  -0.000163   0.568100  -0.029276  -0.028594  -0.000188
    22  H   -0.000030   0.002932  -0.029276   0.575289  -0.029737  -0.000062
    23  H   -0.000192   0.000002  -0.028594  -0.029737   0.555049  -0.000073
    24  H    0.004412  -0.000154  -0.000188  -0.000062  -0.000073   0.555686
    25  H   -0.000042  -0.000028  -0.000060  -0.000179   0.004046  -0.029584
    26  H   -0.000234   0.003116   0.000004   0.003810  -0.000179  -0.028312
    27  H   -0.000001  -0.000000  -0.000000   0.000000   0.000000   0.000004
    28  H    0.000000  -0.000000   0.000000   0.000000   0.000000   0.000000
    29  H    0.000000  -0.000000  -0.000000  -0.000000  -0.000000   0.000000
    30  H   -0.000000  -0.000000   0.000082   0.000001   0.000212  -0.000000
             25         26         27         28         29         30
     1  O   -0.000088  -0.000038   0.012371  -0.000007  -0.000000   0.000010
     2  C   -0.004522   0.004504   0.001196  -0.000010   0.000000  -0.000013
     3  C   -0.031816  -0.029309   0.000033  -0.000000  -0.000000  -0.000056
     4  C    0.005789  -0.004793   0.000006   0.000000   0.000000   0.000001
     5  C   -0.004577  -0.005508  -0.000004   0.000000  -0.000000   0.000085
     6  C    0.367298   0.373110  -0.000011  -0.000000  -0.000000   0.000001
     7  O    0.002912  -0.000071  -0.006876  -0.000044  -0.000051  -0.001139
     8  C   -0.000052   0.000002  -0.033049   0.003250   0.003615  -0.036411
     9  C   -0.000002   0.000000   0.354112  -0.033653   0.000377   0.006315
    10  C   -0.000000   0.000000  -0.037898   0.357374   0.004726   0.000278
    11  C    0.000000  -0.000000   0.003913  -0.043042  -0.045076   0.004081
    12  C   -0.000000   0.000000   0.000443   0.004704   0.359615  -0.038621
    13  C    0.000002  -0.000000   0.004842   0.000508  -0.035090   0.350689
    14  C    0.000000  -0.000000  -0.000092  -0.006690  -0.003637  -0.000083
    15  F   -0.000000   0.000000   0.000000   0.009032   0.000051   0.000000
    16  F   -0.000000  -0.000000   0.000000   0.000159   0.001475   0.000000
    17  F    0.000000   0.000000   0.000000   0.000156   0.001529   0.000001
    18  H   -0.000192  -0.000012  -0.000001   0.000000   0.000000  -0.000000
    19  H   -0.000042  -0.000234  -0.000001   0.000000   0.000000  -0.000000
    20  H   -0.000028   0.003116  -0.000000  -0.000000  -0.000000  -0.000000
    21  H   -0.000060   0.000004  -0.000000   0.000000  -0.000000   0.000082
    22  H   -0.000179   0.003810   0.000000   0.000000  -0.000000   0.000001
    23  H    0.004046  -0.000179   0.000000   0.000000  -0.000000   0.000212
    24  H   -0.029584  -0.028312   0.000004   0.000000   0.000000  -0.000000
    25  H    0.564263  -0.028430   0.000011   0.000000   0.000000   0.000001
    26  H   -0.028430   0.556051   0.000000  -0.000000  -0.000000  -0.000000
    27  H    0.000011   0.000000   0.527826  -0.005315   0.000011  -0.000132
    28  H    0.000000  -0.000000  -0.005315   0.549413  -0.000160   0.000014
    29  H    0.000000  -0.000000   0.000011  -0.000160   0.557526  -0.005640
    30  H    0.000001  -0.000000  -0.000132   0.000014  -0.005640   0.565136
 Mulliken atomic charges:
              1
     1  O   -0.467153
     2  C    0.641050
     3  C   -0.005213
     4  C   -0.439264
     5  C   -0.442402
     6  C   -0.451556
     7  O   -0.538125
     8  C    0.352066
     9  C   -0.144092
    10  C   -0.178030
    11  C    0.001748
    12  C   -0.165565
    13  C   -0.172775
    14  C    0.783312
    15  F   -0.276569
    16  F   -0.270469
    17  F   -0.269917
    18  H    0.149962
    19  H    0.166080
    20  H    0.143838
    21  H    0.147222
    22  H    0.145293
    23  H    0.158661
    24  H    0.161523
    25  H    0.155252
    26  H    0.156288
    27  H    0.178609
    28  H    0.164312
    29  H    0.160730
    30  H    0.155188
 Sum of Mulliken atomic charges =  -0.00000
 Mulliken charges with hydrogens summed into heavy atoms:
              1
     1  O   -0.467153
     2  C    0.641050
     3  C   -0.005213
     4  C    0.020616
     5  C    0.008774
     6  C    0.021506
     7  O   -0.538125
     8  C    0.352066
     9  C    0.034516
    10  C   -0.013718
    11  C    0.001748
    12  C   -0.004835
    13  C   -0.017588
    14  C    0.783312
    15  F   -0.276569
    16  F   -0.270469
    17  F   -0.269917
 Sum of Mulliken charges with hydrogens summed into heavy atoms =  -0.00000
 Electronic spatial extent (au):  <R**2>=           6301.8855
 Charge=             -0.0000 electrons
 Dipole moment (field-independent basis, Debye):
    X=             -3.3007    Y=              1.5934    Z=             -0.7896  Tot=              3.7493
 Quadrupole moment (field-independent basis, Debye-Ang):
   XX=           -100.1762   YY=            -94.7357   ZZ=            -98.5255
   XY=             -2.4476   XZ=              1.5842   YZ=              3.4150
 Traceless Quadrupole moment (field-independent basis, Debye-Ang):
   XX=             -2.3637   YY=              3.0767   ZZ=             -0.7131
   XY=             -2.4476   XZ=              1.5842   YZ=              3.4150
 Octapole moment (field-independent basis, Debye-Ang**2):
  XXX=            -42.4948  YYY=              2.3892  ZZZ=              3.6995  XYY=             38.5833
  XXY=              7.0278  XXZ=             -5.0834  XZZ=             18.8209  YZZ=             -2.7463
  YYZ=             -2.1728  XYZ=             -2.4635
 Hexadecapole moment (field-independent basis, Debye-Ang**3):
 XXXX=          -6601.3421 YYYY=           -646.6915 ZZZZ=           -355.1912 XXXY=            -16.1992
 XXXZ=             27.2534 YYYX=             -0.5572 YYYZ=              9.4639 ZZZX=              1.5001
 ZZZY=             -3.9880 XXYY=          -1213.3864 XXZZ=          -1168.6163 YYZZ=           -174.9992
 XXYZ=             12.8889 YYXZ=             12.4923 ZZXY=             -6.8659
 N-N= 1.213970250081D+03 E-N=-4.572367198235D+03  KE= 9.071308157011D+02
 No NMR shielding tensors so no spin-rotation constants.
 Leave Link  601 at Wed Sep 29 04:47:39 2021, MaxMem= 1342177280 cpu:       1.8
 (Enter /sw/target/amd/app/gaussian/Gaussian09RevA.02_gcc-4.9.2/g09/l701.exe)
 Compute integral first derivatives.
 ... and contract with generalized density number  0.
 Leave Link  701 at Wed Sep 29 04:47:42 2021, MaxMem= 1342177280 cpu:       1.6
 (Enter /sw/target/amd/app/gaussian/Gaussian09RevA.02_gcc-4.9.2/g09/l702.exe)
 L702 exits ... SP integral derivatives will be done elsewhere.
 Leave Link  702 at Wed Sep 29 04:47:42 2021, MaxMem= 1342177280 cpu:       0.1
 (Enter /sw/target/amd/app/gaussian/Gaussian09RevA.02_gcc-4.9.2/g09/l703.exe)
 Compute integral first derivatives, UseDBF=F ICtDFT=           0.
 Integral derivatives from FoFDir, PRISM(SPDF).
 Calling FoFJK, ICntrl=      2127 FMM=F ISym2X=0 I1Cent= 0 IOpClX= 0 NMat=1 NMatS=1 NMatT=0.
 FoFCou: FMM=F IPFlag=           0 FMFlag=      100000 FMFlg1=         800
         NFxFlg=           0 DoJE=F BraDBF=F KetDBF=F FulRan=T
         Omega=  0.000000  0.000000  1.000000  0.000000  0.000000 ICntrl=    2127 IOpCl=  0
         NMat0=    1 NMatS0=    1 NMatT0=    0 NMatD0=    1 NMtDS0=    0 NMtDT0=    0
         I1Cent=           0 NGrid=           0.
 Symmetry not used in FoFCou.
 Leave Link  703 at Wed Sep 29 04:49:32 2021, MaxMem= 1342177280 cpu:     117.3
 (Enter /sw/target/amd/app/gaussian/Gaussian09RevA.02_gcc-4.9.2/g09/l716.exe)
 Dipole        =-1.29857857D+00 6.26905222D-01-3.10662328D-01
 ***** Axes restored to original set *****
 -------------------------------------------------------------------
 Center     Atomic                   Forces (Hartrees/Bohr)
 Number     Number              X              Y              Z
 -------------------------------------------------------------------
      1        8           0.003629302   -0.008252011    0.033724453
      2        6           0.003646831    0.001269807   -0.023411900
      3        6          -0.009964251   -0.003341454    0.004724226
      4        6          -0.001139823    0.001372748   -0.009971789
      5        6           0.004632206   -0.004934563    0.006475437
      6        6           0.008951018    0.007114399   -0.000815068
      7        8           0.001738601   -0.000414004   -0.014794628
      8        6          -0.007659884    0.007543001    0.002248504
      9        6           0.003700256    0.004509670   -0.007051474
     10        6           0.002487649   -0.005164345    0.001691240
     11        6          -0.001013676    0.004602326   -0.003543700
     12        6           0.001727916    0.000355215   -0.000980031
     13        6           0.001931372   -0.004599907   -0.000743953
     14        6           0.010981780   -0.008652414   -0.006640569
     15        9          -0.007772037    0.002432055    0.007776498
     16        9          -0.007676834    0.002368507   -0.000332676
     17        9          -0.001613207    0.006570424    0.004627915
     18        1          -0.000295806    0.000328725    0.001033367
     19        1           0.000726678   -0.001588869    0.001515223
     20        1           0.001598667   -0.000535826    0.002894509
     21        1          -0.000808928    0.000462766    0.000422690
     22        1          -0.001170212    0.001662174   -0.002566758
     23        1          -0.001235613    0.000125596   -0.001066427
     24        1          -0.000966243   -0.000397889   -0.000257902
     25        1          -0.000283898   -0.000030242    0.001476436
     26        1          -0.001165021   -0.001941037   -0.000034624
     27        1          -0.001913231   -0.002696870    0.003239592
     28        1          -0.000465216   -0.001991122    0.002955319
     29        1           0.000093754    0.002251041   -0.001135548
     30        1          -0.000702149    0.001572100   -0.001458361
 -------------------------------------------------------------------
 Cartesian Forces:  Max     0.033724453 RMS     0.006098674
 Leave Link  716 at Wed Sep 29 04:49:33 2021, MaxMem= 1342177280 cpu:       0.1
 (Enter /sw/target/amd/app/gaussian/Gaussian09RevA.02_gcc-4.9.2/g09/l103.exe)

 GradGradGradGradGradGradGradGradGradGradGradGradGradGradGradGradGradGrad
 Berny optimization.
 Internal  Forces:  Max     0.034188192 RMS     0.004311802
 Search for a local minimum.
 Step number   1 out of a maximum of  159
 All quantities printed in internal units (Hartrees-Bohrs-Radians)
 RMS Force = .43118D-02 SwitMx=.10000D-02 MixMth= 1
 Mixed Optimization -- RFO/linear search
 Second derivative matrix not updated -- first step.
     Eigenvalues ---    0.00263   0.00292   0.00342   0.00382   0.00642
     Eigenvalues ---    0.00749   0.01477   0.01574   0.01785   0.02043
     Eigenvalues ---    0.02070   0.02078   0.02105   0.02124   0.02133
     Eigenvalues ---    0.02172   0.02186   0.04742   0.05109   0.05360
     Eigenvalues ---    0.05405   0.05426   0.05429   0.05443   0.05488
     Eigenvalues ---    0.05562   0.10306   0.10500   0.14834   0.15248
     Eigenvalues ---    0.15999   0.15999   0.16000   0.16000   0.16000
     Eigenvalues ---    0.16000   0.16000   0.16000   0.16000   0.16000
     Eigenvalues ---    0.16000   0.16000   0.16000   0.21997   0.22976
     Eigenvalues ---    0.23996   0.24982   0.24995   0.25000   0.25000
     Eigenvalues ---    0.25000   0.25000   0.25000   0.25000   0.28692
     Eigenvalues ---    0.28891   0.29238   0.29517   0.31417   0.34016
     Eigenvalues ---    0.34074   0.34085   0.34113   0.34113   0.34141
     Eigenvalues ---    0.34152   0.34218   0.34249   0.34882   0.34976
     Eigenvalues ---    0.35207   0.35367   0.41764   0.41850   0.44177
     Eigenvalues ---    0.45259   0.45840   0.46360   0.46749   0.46804
     Eigenvalues ---    0.52374   0.52562   0.52601   0.922071000.00000
     Eigenvalues --- 1000.000001000.000001000.000001000.000001000.00000
     Eigenvalues --- 1000.000001000.000001000.000001000.000001000.00000
     Eigenvalues --- 1000.000001000.000001000.000001000.000001000.00000
     Eigenvalues --- 1000.000001000.000001000.000001000.000001000.00000
     Eigenvalues --- 1000.000001000.000001000.000001000.000001000.00000
     Eigenvalues --- 1000.000001000.000001000.000001000.000001000.00000
     Eigenvalues --- 1000.000001000.000001000.000001000.000001000.00000
     Eigenvalues --- 1000.000001000.000001000.000001000.000001000.00000
     Eigenvalues --- 1000.000001000.000001000.000001000.000001000.00000
     Eigenvalues --- 1000.000001000.000001000.000001000.000001000.00000
     Eigenvalues --- 1000.000001000.000001000.000001000.000001000.00000
     Eigenvalues --- 1000.000001000.000001000.000001000.000001000.00000
     Eigenvalues --- 1000.000001000.000001000.000001000.00000
 RFO step:  Lambda=-7.34822532D-03 EMin= 2.62561473D-03
 Linear search not attempted -- first point.
 Iteration  1 RMS(Cart)=  0.08620182 RMS(Int)=  0.00210712
 Iteration  2 RMS(Cart)=  0.00484961 RMS(Int)=  0.00020884
 Iteration  3 RMS(Cart)=  0.00000691 RMS(Int)=  0.00020882
 Iteration  4 RMS(Cart)=  0.00000000 RMS(Int)=  0.00020882
 Variable       Old X    -DE/DX   Delta X   Delta X   Delta X     New X
                                 (Linear)    (Quad)   (Total)
    R1        2.31932  -0.03419   0.00000  -0.03678  -0.03678   2.28254
    R2        2.88937   0.00212   0.00000   0.00701   0.00701   2.89638
    R3        2.63235  -0.01651   0.00000  -0.03473  -0.03473   2.59763
    R4        2.90650   0.00161   0.00000   0.00548   0.00548   2.91198
    R5        2.90231   0.00378   0.00000   0.01276   0.01276   2.91507
    R6        2.89510   0.00681   0.00000   0.02272   0.02272   2.91782
    R7        2.07205  -0.00049   0.00000  -0.00142  -0.00142   2.07063
    R8        2.07303  -0.00199   0.00000  -0.00572  -0.00572   2.06731
    R9        2.06912   0.00017   0.00000   0.00049   0.00049   2.06961
   R10        2.07139  -0.00024   0.00000  -0.00068  -0.00068   2.07071
   R11        2.06963   0.00015   0.00000   0.00044   0.00044   2.07007
   R12        2.07140  -0.00163   0.00000  -0.00468  -0.00468   2.06673
   R13        2.07186  -0.00020   0.00000  -0.00059  -0.00059   2.07127
   R14        2.07093   0.00051   0.00000   0.00147   0.00147   2.07240
   R15        2.07075  -0.00029   0.00000  -0.00084  -0.00084   2.06991
   R16        2.66243  -0.01112   0.00000  -0.02476  -0.02476   2.63767
   R17        2.62955   0.00268   0.00000   0.00657   0.00658   2.63613
   R18        2.63832  -0.00145   0.00000  -0.00270  -0.00271   2.63561
   R19        2.63440   0.00052   0.00000   0.00170   0.00171   2.63611
   R20        2.05083  -0.00354   0.00000  -0.00981  -0.00981   2.04102
   R21        2.65249  -0.00641   0.00000  -0.01439  -0.01438   2.63811
   R22        2.05715  -0.00320   0.00000  -0.00896  -0.00896   2.04818
   R23        2.65417  -0.00615   0.00000  -0.01450  -0.01450   2.63966
   R24        2.85225  -0.00790   0.00000  -0.02456  -0.02456   2.82768
   R25        2.64021  -0.00610   0.00000  -0.01362  -0.01363   2.62658
   R26        2.05866  -0.00246   0.00000  -0.00689  -0.00689   2.05177
   R27        2.05340  -0.00124   0.00000  -0.00345  -0.00345   2.04995
   R28        2.57543  -0.00906   0.00000  -0.01705  -0.01705   2.55838
   R29        2.57365  -0.00631   0.00000  -0.01183  -0.01183   2.56181
   R30        2.57328  -0.00639   0.00000  -0.01197  -0.01197   2.56131
[...]
     6    O    1  px     Ryd( 3p)     0.00163
     7    O    1  py     Val( 2p)     1.58335
     8    O    1  py     Ryd( 3p)     0.00079
     9    O    1  pz     Val( 2p)     1.52762
    10    O    1  pz     Ryd( 3p)     0.00121
    11    O    1  dxy    Ryd( 3d)     0.00344
    12    O    1  dxz    Ryd( 3d)     0.00152
    13    O    1  dyz    Ryd( 3d)     0.00446
    14    O    1  dx2y2  Ryd( 3d)     0.00369
    15    O    1  dz2    Ryd( 3d)     0.00288

    16    C    2  S      Cor( 1S)     1.99926
    17    C    2  S      Val( 2S)     0.77540
    18    C    2  S      Ryd( 3S)     0.00673
    19    C    2  S      Ryd( 4S)     0.00049
    20    C    2  px     Val( 2p)     0.86309
    21    C    2  px     Ryd( 3p)     0.00562
    22    C    2  py     Val( 2p)     0.74077
    23    C    2  py     Ryd( 3p)     0.01741
    24    C    2  pz     Val( 2p)     0.79333
    25    C    2  pz     Ryd( 3p)     0.00858
    26    C    2  dxy    Ryd( 3d)     0.00276
    27    C    2  dxz    Ryd( 3d)     0.00164
    28    C    2  dyz    Ryd( 3d)     0.00133
    29    C    2  dx2y2  Ryd( 3d)     0.00198
    30    C    2  dz2    Ryd( 3d)     0.00157

    31    C    3  S      Cor( 1S)     1.99906
    32    C    3  S      Val( 2S)     0.94140
    33    C    3  S      Ryd( 3S)     0.00045
    34    C    3  S      Ryd( 4S)     0.00003
    35    C    3  px     Val( 2p)     1.05035
    36    C    3  px     Ryd( 3p)     0.00205
    37    C    3  py     Val( 2p)     1.07080
    38    C    3  py     Ryd( 3p)     0.00348
    39    C    3  pz     Val( 2p)     1.06809
    40    C    3  pz     Ryd( 3p)     0.00258
    41    C    3  dxy    Ryd( 3d)     0.00076
    42    C    3  dxz    Ryd( 3d)     0.00059
    43    C    3  dyz    Ryd( 3d)     0.00076
    44    C    3  dx2y2  Ryd( 3d)     0.00093
    45    C    3  dz2    Ryd( 3d)     0.00098

    46    C    4  S      Cor( 1S)     1.99939
    47    C    4  S      Val( 2S)     1.09111
    48    C    4  S      Ryd( 3S)     0.00058
    49    C    4  S      Ryd( 4S)     0.00002
    50    C    4  px     Val( 2p)     1.16849
    51    C    4  px     Ryd( 3p)     0.00239
    52    C    4  py     Val( 2p)     1.17194
    53    C    4  py     Ryd( 3p)     0.00220
    54    C    4  pz     Val( 2p)     1.22972
    55    C    4  pz     Ryd( 3p)     0.00245
    56    C    4  dxy    Ryd( 3d)     0.00052
    57    C    4  dxz    Ryd( 3d)     0.00024
    58    C    4  dyz    Ryd( 3d)     0.00054
    59    C    4  dx2y2  Ryd( 3d)     0.00092
    60    C    4  dz2    Ryd( 3d)     0.00111

    61    C    5  S      Cor( 1S)     1.99938
    62    C    5  S      Val( 2S)     1.09650
    63    C    5  S      Ryd( 3S)     0.00059
    64    C    5  S      Ryd( 4S)     0.00002
    65    C    5  px     Val( 2p)     1.24623
    66    C    5  px     Ryd( 3p)     0.00192
    67    C    5  py     Val( 2p)     1.09997
    68    C    5  py     Ryd( 3p)     0.00175
    69    C    5  pz     Val( 2p)     1.21731
    70    C    5  pz     Ryd( 3p)     0.00228
    71    C    5  dxy    Ryd( 3d)     0.00083
    72    C    5  dxz    Ryd( 3d)     0.00026
    73    C    5  dyz    Ryd( 3d)     0.00047
    74    C    5  dx2y2  Ryd( 3d)     0.00063
    75    C    5  dz2    Ryd( 3d)     0.00116

    76    C    6  S      Cor( 1S)     1.99938
    77    C    6  S      Val( 2S)     1.09694
    78    C    6  S      Ryd( 3S)     0.00059
    79    C    6  S      Ryd( 4S)     0.00002
    80    C    6  px     Val( 2p)     1.24652
    81    C    6  px     Ryd( 3p)     0.00193
    82    C    6  py     Val( 2p)     1.25194
    83    C    6  py     Ryd( 3p)     0.00240
    84    C    6  pz     Val( 2p)     1.06528
    85    C    6  pz     Ryd( 3p)     0.00159
    86    C    6  dxy    Ryd( 3d)     0.00066
    87    C    6  dxz    Ryd( 3d)     0.00043
    88    C    6  dyz    Ryd( 3d)     0.00081
    89    C    6  dx2y2  Ryd( 3d)     0.00075
    90    C    6  dz2    Ryd( 3d)     0.00070

    91    O    7  S      Cor( 1S)     1.99970
    92    O    7  S      Val( 2S)     1.59673
    93    O    7  S      Ryd( 3S)     0.00124
    94    O    7  S      Ryd( 4S)     0.00009
    95    O    7  px     Val( 2p)     1.43694
    96    O    7  px     Ryd( 3p)     0.00094
    97    O    7  py     Val( 2p)     1.75034
    98    O    7  py     Ryd( 3p)     0.00231
    99    O    7  pz     Val( 2p)     1.71618
   100    O    7  pz     Ryd( 3p)     0.00137
   101    O    7  dxy    Ryd( 3d)     0.00103
   102    O    7  dxz    Ryd( 3d)     0.00087
   103    O    7  dyz    Ryd( 3d)     0.00119
   104    O    7  dx2y2  Ryd( 3d)     0.00117
   105    O    7  dz2    Ryd( 3d)     0.00106

   106    C    8  S      Cor( 1S)     1.99876
   107    C    8  S      Val( 2S)     0.84191
   108    C    8  S      Ryd( 3S)     0.00132
   109    C    8  S      Ryd( 4S)     0.00011
   110    C    8  px     Val( 2p)     0.73733
   111    C    8  px     Ryd( 3p)     0.00673
   112    C    8  py     Val( 2p)     1.08072
   113    C    8  py     Ryd( 3p)     0.00607
   114    C    8  pz     Val( 2p)     1.03385
   115    C    8  pz     Ryd( 3p)     0.00355
   116    C    8  dxy    Ryd( 3d)     0.00134
   117    C    8  dxz    Ryd( 3d)     0.00144
   118    C    8  dyz    Ryd( 3d)     0.00084
   119    C    8  dx2y2  Ryd( 3d)     0.00167
   120    C    8  dz2    Ryd( 3d)     0.00058

   121    C    9  S      Cor( 1S)     1.99904
   122    C    9  S      Val( 2S)     0.96972
   123    C    9  S      Ryd( 3S)     0.00081
   124    C    9  S      Ryd( 4S)     0.00005
   125    C    9  px     Val( 2p)     1.10323
   126    C    9  px     Ryd( 3p)     0.00444
   127    C    9  py     Val( 2p)     1.14856
   128    C    9  py     Ryd( 3p)     0.00453
   129    C    9  pz     Val( 2p)     1.02959
   130    C    9  pz     Ryd( 3p)     0.00420
   131    C    9  dxy    Ryd( 3d)     0.00077
   132    C    9  dxz    Ryd( 3d)     0.00061
   133    C    9  dyz    Ryd( 3d)     0.00054
   134    C    9  dx2y2  Ryd( 3d)     0.00062
   135    C    9  dz2    Ryd( 3d)     0.00045

   136    C   10  S      Cor( 1S)     1.99908
   137    C   10  S      Val( 2S)     0.96046
   138    C   10  S      Ryd( 3S)     0.00067
   139    C   10  S      Ryd( 4S)     0.00005
   140    C   10  px     Val( 2p)     1.07886
   141    C   10  px     Ryd( 3p)     0.00517
   142    C   10  py     Val( 2p)     1.16075
   143    C   10  py     Ryd( 3p)     0.00492
   144    C   10  pz     Val( 2p)     0.96963
   145    C   10  pz     Ryd( 3p)     0.00366
   146    C   10  dxy    Ryd( 3d)     0.00081
   147    C   10  dxz    Ryd( 3d)     0.00073
   148    C   10  dyz    Ryd( 3d)     0.00045
   149    C   10  dx2y2  Ryd( 3d)     0.00063
   150    C   10  dz2    Ryd( 3d)     0.00045

   151    C   11  S      Cor( 1S)     1.99888
   152    C   11  S      Val( 2S)     0.91328
   153    C   11  S      Ryd( 3S)     0.00089
   154    C   11  S      Ryd( 4S)     0.00006
   155    C   11  px     Val( 2p)     1.08047
   156    C   11  px     Ryd( 3p)     0.00507
   157    C   11  py     Val( 2p)     1.10163
   158    C   11  py     Ryd( 3p)     0.00447
   159    C   11  pz     Val( 2p)     1.06052
   160    C   11  pz     Ryd( 3p)     0.00316
   161    C   11  dxy    Ryd( 3d)     0.00059
   162    C   11  dxz    Ryd( 3d)     0.00047
   163    C   11  dyz    Ryd( 3d)     0.00075
   164    C   11  dx2y2  Ryd( 3d)     0.00098
   165    C   11  dz2    Ryd( 3d)     0.00054

   166    C   12  S      Cor( 1S)     1.99908
   167    C   12  S      Val( 2S)     0.95976
   168    C   12  S      Ryd( 3S)     0.00062
   169    C   12  S      Ryd( 4S)     0.00005
   170    C   12  px     Val( 2p)     1.09476
   171    C   12  px     Ryd( 3p)     0.00519
   172    C   12  py     Val( 2p)     1.14242
   173    C   12  py     Ryd( 3p)     0.00481
   174    C   12  pz     Val( 2p)     0.99094
   175    C   12  pz     Ryd( 3p)     0.00403
   176    C   12  dxy    Ryd( 3d)     0.00080
   177    C   12  dxz    Ryd( 3d)     0.00066
   178    C   12  dyz    Ryd( 3d)     0.00048
   179    C   12  dx2y2  Ryd( 3d)     0.00063
   180    C   12  dz2    Ryd( 3d)     0.00044

   181    C   13  S      Cor( 1S)     1.99905
   182    C   13  S      Val( 2S)     0.97087
   183    C   13  S      Ryd( 3S)     0.00080
   184    C   13  S      Ryd( 4S)     0.00005
   185    C   13  px     Val( 2p)     1.08642
   186    C   13  px     Ryd( 3p)     0.00499
   187    C   13  py     Val( 2p)     1.16270
   188    C   13  py     Ryd( 3p)     0.00449
   189    C   13  pz     Val( 2p)     1.00049
   190    C   13  pz     Ryd( 3p)     0.00417
   191    C   13  dxy    Ryd( 3d)     0.00083
   192    C   13  dxz    Ryd( 3d)     0.00066
   193    C   13  dyz    Ryd( 3d)     0.00047
   194    C   13  dx2y2  Ryd( 3d)     0.00059
   195    C   13  dz2    Ryd( 3d)     0.00047

   196    C   14  S      Cor( 1S)     1.99906
   197    C   14  S      Val( 2S)     0.79485
   198    C   14  S      Ryd( 3S)     0.00495
   199    C   14  S      Ryd( 4S)     0.00030
   200    C   14  px     Val( 2p)     0.86345
   201    C   14  px     Ryd( 3p)     0.01324
   202    C   14  py     Val( 2p)     0.56758
   203    C   14  py     Ryd( 3p)     0.01846
   204    C   14  pz     Val( 2p)     0.59249
   205    C   14  pz     Ryd( 3p)     0.01603
   206    C   14  dxy    Ryd( 3d)     0.00306
   207    C   14  dxz    Ryd( 3d)     0.00338
   208    C   14  dyz    Ryd( 3d)     0.00397
   209    C   14  dx2y2  Ryd( 3d)     0.00313
   210    C   14  dz2    Ryd( 3d)     0.00387

   211    F   15  S      Cor( 1S)     1.99993
   212    F   15  S      Val( 2S)     1.84353
   213    F   15  S      Ryd( 3S)     0.00087
   214    F   15  S      Ryd( 4S)     0.00003
   215    F   15  px     Val( 2p)     1.90577
   216    F   15  px     Ryd( 3p)     0.00041
   217    F   15  py     Val( 2p)     1.76973
   218    F   15  py     Ryd( 3p)     0.00022
   219    F   15  pz     Val( 2p)     1.83958
   220    F   15  pz     Ryd( 3p)     0.00016
   221    F   15  dxy    Ryd( 3d)     0.00086
   222    F   15  dxz    Ryd( 3d)     0.00064
   223    F   15  dyz    Ryd( 3d)     0.00101
   224    F   15  dx2y2  Ryd( 3d)     0.00101
   225    F   15  dz2    Ryd( 3d)     0.00094

   226    F   16  S      Cor( 1S)     1.99993
   227    F   16  S      Val( 2S)     1.84415
   228    F   16  S      Ryd( 3S)     0.00088
   229    F   16  S      Ryd( 4S)     0.00003
   230    F   16  px     Val( 2p)     1.87958
   231    F   16  px     Ryd( 3p)     0.00042
   232    F   16  py     Val( 2p)     1.72653
   233    F   16  py     Ryd( 3p)     0.00019
   234    F   16  pz     Val( 2p)     1.90905
   235    F   16  pz     Ryd( 3p)     0.00019
   236    F   16  dxy    Ryd( 3d)     0.00108
   237    F   16  dxz    Ryd( 3d)     0.00048
   238    F   16  dyz    Ryd( 3d)     0.00104
   239    F   16  dx2y2  Ryd( 3d)     0.00132
   240    F   16  dz2    Ryd( 3d)     0.00055

   241    F   17  S      Cor( 1S)     1.99993
   242    F   17  S      Val( 2S)     1.84727
   243    F   17  S      Ryd( 3S)     0.00094
   244    F   17  S      Ryd( 4S)     0.00003
   245    F   17  px     Val( 2p)     1.91669
   246    F   17  px     Ryd( 3p)     0.00046
   247    F   17  py     Val( 2p)     1.91865
   248    F   17  py     Ryd( 3p)     0.00014
   249    F   17  pz     Val( 2p)     1.67414
   250    F   17  pz     Ryd( 3p)     0.00021
   251    F   17  dxy    Ryd( 3d)     0.00022
   252    F   17  dxz    Ryd( 3d)     0.00125
   253    F   17  dyz    Ryd( 3d)     0.00122
   254    F   17  dx2y2  Ryd( 3d)     0.00025
   255    F   17  dz2    Ryd( 3d)     0.00149

   256    H   18  S      Val( 1S)     0.75516
   257    H   18  S      Ryd( 2S)     0.00100

   258    H   19  S      Val( 1S)     0.75641
   259    H   19  S      Ryd( 2S)     0.00100

   260    H   20  S      Val( 1S)     0.76606
   261    H   20  S      Ryd( 2S)     0.00088

   262    H   21  S      Val( 1S)     0.76102
   263    H   21  S      Ryd( 2S)     0.00091

   264    H   22  S      Val( 1S)     0.76200
   265    H   22  S      Ryd( 2S)     0.00111

   266    H   23  S      Val( 1S)     0.75647
   267    H   23  S      Ryd( 2S)     0.00113

   268    H   24  S      Val( 1S)     0.76208
   269    H   24  S      Ryd( 2S)     0.00093

   270    H   25  S      Val( 1S)     0.75448
   271    H   25  S      Ryd( 2S)     0.00102

   272    H   26  S      Val( 1S)     0.76215
   273    H   26  S      Ryd( 2S)     0.00126

   274    H   27  S      Val( 1S)     0.74159
   275    H   27  S      Ryd( 2S)     0.00114

   276    H   28  S      Val( 1S)     0.74862
   277    H   28  S      Ryd( 2S)     0.00142

   278    H   29  S      Val( 1S)     0.74945
   279    H   29  S      Ryd( 2S)     0.00139

   280    H   30  S      Val( 1S)     0.75182
   281    H   30  S      Ryd( 2S)     0.00115

 WARNING:  1 low occupancy (<1.9990e) core orbital  found on  C    8
           1 low occupancy (<1.9990e) core orbital  found on  C   11


 Summary of Natural Population Analysis:                  
                                                          
                                       Natural Population 
                Natural  -----------------------------------------------
    Atom  No    Charge         Core      Valence    Rydberg      Total
 -----------------------------------------------------------------------
      O    1   -0.51000      1.99978     6.48995    0.02027     8.51000
      C    2    0.78004      1.99926     3.17259    0.04811     5.21996
      C    3   -0.14232      1.99906     4.13065    0.01262     6.14232
      C    4   -0.67161      1.99939     4.66125    0.01096     6.67161
      C    5   -0.66932      1.99938     4.66002    0.00992     6.66932
      C    6   -0.66994      1.99938     4.66068    0.00988     6.66994
      O    7   -0.51117      1.99970     6.50020    0.01127     8.51117
      C    8    0.28379      1.99876     3.69381    0.02364     5.71621
      C    9   -0.26716      1.99904     4.25110    0.01701     6.26716
      C   10   -0.18632      1.99908     4.16970    0.01754     6.18632
      C   11   -0.17176      1.99888     4.15590    0.01698     6.17176
      C   12   -0.20467      1.99908     4.18788    0.01771     6.20467
      C   13   -0.23705      1.99905     4.22049    0.01752     6.23705
      C   14    1.11217      1.99906     2.81837    0.07039     4.88783
      F   15   -0.36471      1.99993     7.35861    0.00617     9.36471
      F   16   -0.36542      1.99993     7.35930    0.00619     9.36542
      F   17   -0.36289      1.99993     7.35674    0.00621     9.36289
      H   18    0.24384      0.00000     0.75516    0.00100     0.75616
      H   19    0.24260      0.00000     0.75641    0.00100     0.75740
      H   20    0.23306      0.00000     0.76606    0.00088     0.76694
      H   21    0.23807      0.00000     0.76102    0.00091     0.76193
      H   22    0.23689      0.00000     0.76200    0.00111     0.76311
      H   23    0.24240      0.00000     0.75647    0.00113     0.75760
      H   24    0.23699      0.00000     0.76208    0.00093     0.76301
      H   25    0.24450      0.00000     0.75448    0.00102     0.75550
      H   26    0.23659      0.00000     0.76215    0.00126     0.76341
      H   27    0.25727      0.00000     0.74159    0.00114     0.74273
      H   28    0.24995      0.00000     0.74862    0.00142     0.75005
      H   29    0.24915      0.00000     0.74945    0.00139     0.75085
      H   30    0.24703      0.00000     0.75182    0.00115     0.75297
 =======================================================================
   * Total *   -0.00000     33.98870    93.67456    0.33674   128.00000

                                 Natural Population      
 --------------------------------------------------------
   Core                      33.98870 ( 99.9668% of  34)
   Valence                   93.67456 ( 99.6538% of  94)
   Natural Minimal Basis    127.66326 ( 99.7369% of 128)
   Natural Rydberg Basis      0.33674 (  0.2631% of 128)
 --------------------------------------------------------

    Atom  No          Natural Electron Configuration
 ----------------------------------------------------------------------------
      O    1      [core]2S( 1.70)2p( 4.79)3d( 0.02)
      C    2      [core]2S( 0.78)2p( 2.40)3S( 0.01)3p( 0.03)3d( 0.01)
      C    3      [core]2S( 0.94)2p( 3.19)3p( 0.01)
      C    4      [core]2S( 1.09)2p( 3.57)3p( 0.01)
      C    5      [core]2S( 1.10)2p( 3.56)3p( 0.01)
      C    6      [core]2S( 1.10)2p( 3.56)3p( 0.01)
      O    7      [core]2S( 1.60)2p( 4.90)3d( 0.01)
      C    8      [core]2S( 0.84)2p( 2.85)3p( 0.02)3d( 0.01)
      C    9      [core]2S( 0.97)2p( 3.28)3p( 0.01)
      C   10      [core]2S( 0.96)2p( 3.21)3p( 0.01)
      C   11      [core]2S( 0.91)2p( 3.24)3p( 0.01)
      C   12      [core]2S( 0.96)2p( 3.23)3p( 0.01)
      C   13      [core]2S( 0.97)2p( 3.25)3p( 0.01)
      C   14      [core]2S( 0.79)2p( 2.02)3p( 0.05)3d( 0.02)
      F   15      [core]2S( 1.84)2p( 5.52)
      F   16      [core]2S( 1.84)2p( 5.52)
      F   17      [core]2S( 1.85)2p( 5.51)
      H   18            1S( 0.76)
      H   19            1S( 0.76)
      H   20            1S( 0.77)
      H   21            1S( 0.76)
      H   22            1S( 0.76)
      H   23            1S( 0.76)
      H   24            1S( 0.76)
      H   25            1S( 0.75)
      H   26            1S( 0.76)
      H   27            1S( 0.74)
      H   28            1S( 0.75)
      H   29            1S( 0.75)
      H   30            1S( 0.75)


 NBO analysis skipped by request.
 Leave Link  607 at Wed Sep 29 17:59:28 2021, MaxMem= 1342177280 cpu:      20.9
 (Enter /sw/target/amd/app/gaussian/Gaussian09RevA.02_gcc-4.9.2/g09/l9999.exe)
 1\1\GINC-HERMITE\SP\RTD-B3LYP-FC\6-31G(d)\C12H13F3O2\JSCHLEINITZ\29-Se
 p-2021\0\\#p TD(NStates=10, Root=1) b3lyp/6-31G* volume pop=NPA densit
 y=current Geom=AllCheck Guess=Read\\O=C(C(C)(C)C)Oc1ccc(cc1)C(F)(F)F_c
 onf_0\\0,1\O,0,2.9334742262,0.0980871384,-0.2021940754\C,0,3.139066760
 2,0.385429756,0.9508587516\C,0,2.2659855385,1.2873107261,1.8275791559\
 C,0,1.0815941531,1.7863307554,0.9846301921\C,0,1.7530051748,0.47424304
 46,3.0378701755\C,0,3.1121150114,2.4827577905,2.321075703\O,0,4.222189
 2804,-0.0777305821,1.6662734273\C,0,5.1695326523,-0.9184234411,1.09275
 91178\C,0,5.7132566106,-0.7044347435,-0.1751128489\C,0,6.7163135351,-1
 .5573201585,-0.6304986912\C,0,7.1765307966,-2.6053811827,0.1705464553\
 C,0,6.6288361387,-2.8033524704,1.4409870644\C,0,5.6236659517,-1.959544
 8982,1.9030788319\C,0,8.2195090538,-3.5537609249,-0.3517788912\F,0,9.0
 298462934,-2.964025823,-1.2589602491\F,0,9.0025061028,-4.0348561087,0.
 6407955286\F,0,7.663467766,-4.6267285715,-0.9629484232\H,0,0.478183531
 5,0.9521526195,0.6145151064\H,0,1.4243887119,2.3573076474,0.1164725888
 \H,0,0.4416558551,2.4337890277,1.5942561957\H,0,1.1600721717,-0.388674
 5505,2.713595051\H,0,1.1104599063,1.1087952575,3.6586245388\H,0,2.5790
 91357,0.1125184677,3.6563085382\H,0,3.4983078492,3.0706817372,1.480357
 013\H,0,3.9596685212,2.1510611937,2.9271733877\H,0,2.4882697584,3.1438
 755116,2.933316082\H,0,5.3565143349,0.1059760881,-0.7964619842\H,0,7.1
 498134136,-1.3986200514,-1.6121569485\H,0,6.9921072138,-3.6097186252,2
 .0693328493\H,0,5.1886883121,-2.0907700312,2.8884207647\\Version=AM64L
 -G09RevA.02\State=1-A\HF=-915.1047716\RMSD=9.311e-09\Dipole=-0.792445,
 0.9516949,0.9591778\Quadrupole=-2.5757488,0.7255475,1.8502014,0.824969
 2,-2.8103683,-1.7717489\PG=C01 [X(C12H13F3O2)]\\@


 WE SHOULD BE CAREFUL TO GET OUT OF AN EXPERIENCE ONLY THE WISDOM
 THAT IS IN IT -- AND STOP THERE;
 LEST WE BE LIKE THE CAT THAT SITS DOWN ON A HOT STOVE-LID.
 SHE WILL NEVER SIT DOWN ON A HOT STOVE LID AGAIN;
 BUT ALSO SHE WILL NEVER SIT DOWN ON A COLD ONE ANY MORE.

                                                     -- MARK TWAIN
 Job cpu time:  0 days  4 hours 41 minutes 36.6 seconds.
 File lengths (MBytes):  RWF=    274 Int=      0 D2E=      0 Chk=     36 Scr=      1
 Normal termination of Gaussian 09 at Wed Sep 29 17:59:37 2021.
