 Entering Gaussian System, Link 0=g09
 Input=C12H16O3_1fc3_conf_0.com
 Output=C12H16O3_1fc3_conf_0.log
 Initial command:
 /sw/target/amd/app/gaussian/Gaussian09RevA.02_gcc-4.9.2/g09/l1.exe /home/jschleinitz/gaussian/Gau-3298215.inp -scrdir=/home/jschleinitz/gaussian/
 Entering Link 1 = /sw/target/amd/app/gaussian/Gaussian09RevA.02_gcc-4.9.2/g09/l1.exe PID=   3298217.
  
 Copyright (c) 1988,1990,1992,1993,1995,1998,2003,2009, Gaussian, Inc.
                  All Rights Reserved.
  
 This is part of the Gaussian(R) 09 program.  It is based on
 the Gaussian(R) 03 system (copyright 2003, Gaussian, Inc.),
 the Gaussian(R) 98 system (copyright 1998, Gaussian, Inc.),
 the Gaussian(R) 94 system (copyright 1995, Gaussian, Inc.),
 the Gaussian 92(TM) system (copyright 1992, Gaussian, Inc.),
 the Gaussian 90(TM) system (copyright 1990, Gaussian, Inc.),
 the Gaussian 88(TM) system (copyright 1988, Gaussian, Inc.),
 the Gaussian 86(TM) system (copyright 1986, Carnegie Mellon
 University), and the Gaussian 82(TM) system (copyright 1983,
 Carnegie Mellon University). Gaussian is a federally registered
 trademark of Gaussian, Inc.
  
 This software contains proprietary and confidential information,
 including trade secrets, belonging to Gaussian, Inc.
  
 This software is provided under written license and may be
 used, copied, transmitted, or stored only in accord with that
 written license.
  
 The following legend is applicable only to US Government
 contracts under FAR:
  
                    RESTRICTED RIGHTS LEGEND
  
 Use, reproduction and disclosure by the US Government is
 subject to restrictions as set forth in subparagraphs (a)
 and (c) of the Commercial Computer Software - Restricted
 Rights clause in FAR 52.227-19.
  
 Gaussian, Inc.
 340 Quinnipiac St., Bldg. 40, Wallingford CT 06492
  
  
 ---------------------------------------------------------------
 Warning -- This program may not be used in any manner that
 competes with the business of Gaussian, Inc. or will provide
 assistance to any competitor of Gaussian, Inc.  The licensee
 of this program is prohibited from giving any competitor of
 Gaussian, Inc. access to this program.  By using this program,
 the user acknowledges that Gaussian, Inc. is engaged in the
 business of creating and licensing software in the field of
 computational chemistry and represents and warrants to the
 licensee that it is not a competitor of Gaussian, Inc. and that
 it will not use this program in any manner prohibited above.
 ---------------------------------------------------------------
  

 Cite this work as:
 Gaussian 09, Revision A.02,
 M. J. Frisch, G. W. Trucks, H. B. Schlegel, G. E. Scuseria, 
 M. A. Robb, J. R. Cheeseman, G. Scalmani, V. Barone, B. Mennucci, 
 G. A. Petersson, H. Nakatsuji, M. Caricato, X. Li, H. P. Hratchian, 
 A. F. Izmaylov, J. Bloino, G. Zheng, J. L. Sonnenberg, M. Hada, 
 M. Ehara, K. Toyota, R. Fukuda, J. Hasegawa, M. Ishida, T. Nakajima, 
 Y. Honda, O. Kitao, H. Nakai, T. Vreven, J. A. Montgomery, Jr., 
 J. E. Peralta, F. Ogliaro, M. Bearpark, J. J. Heyd, E. Brothers, 
 K. N. Kudin, V. N. Staroverov, R. Kobayashi, J. Normand, 
 K. Raghavachari, A. Rendell, J. C. Burant, S. S. Iyengar, J. Tomasi, 
 M. Cossi, N. Rega, J. M. Millam, M. Klene, J. E. Knox, J. B. Cross, 
 V. Bakken, C. Adamo, J. Jaramillo, R. Gomperts, R. E. Stratmann, 
 O. Yazyev, A. J. Austin, R. Cammi, C. Pomelli, J. W. Ochterski, 
 R. L. Martin, K. Morokuma, V. G. Zakrzewski, G. A. Voth, 
 P. Salvador, J. J. Dannenberg, S. Dapprich, A. D. Daniels, 
 O. Farkas, J. B. Foresman, J. V. Ortiz, J. Cioslowski, 
 and D. J. Fox, Gaussian, Inc., Wallingford CT, 2009.
 
 ******************************************
 Gaussian 09:  AM64L-G09RevA.02 11-Jun-2009
                28-Sep-2021 
 ******************************************
 %nproc=5
 Will use up to    5 processors via shared memory.
 %mem=10gb
 %chk=C12H16O3_1fc3_conf_0.chk
 -----------------------------------
 #p opt b3lyp/6-31G* scf=(xqc,tight)
 -----------------------------------
 1/14=-1,18=20,19=15,26=3,38=1/1,3;
 2/9=110,12=2,17=6,18=5,40=1/2;
 3/5=1,6=6,7=1,11=2,16=1,25=1,30=1,71=1,74=-5/1,2,3;
 4//1;
 5/5=2,8=3,13=1,32=2,38=5/2,8;
 6/7=2,8=2,9=2,10=2,28=1/1;
 7//1,2,3,16;
 1/14=-1,18=20,19=15/3(2);
 2/9=110/2;
 99//99;
 2/9=110/2;
 3/5=1,6=6,7=1,11=2,16=1,25=1,30=1,71=1,74=-5/1,2,3;
 4/5=5,16=3/1;
 5/5=2,8=3,13=1,32=2,38=5/2,8;
 7//1,2,3,16;
 1/14=-1,18=20,19=15/3(-5);
 2/9=110/2;
 6/7=2,8=2,9=2,10=2,19=2,28=1/1;
 99/9=1/99;
 Leave Link    1 at Tue Sep 28 15:18:10 2021, MaxMem= 1342177280 cpu:       0.1
 (Enter /sw/target/amd/app/gaussian/Gaussian09RevA.02_gcc-4.9.2/g09/l101.exe)
 ---------------------------------
 COc1ccc(cc1)OC(=O)C(C)(C)C_conf_0
 ---------------------------------
 Symbolic Z-matrix:
 Charge =  0 Multiplicity = 1
 C                     1.20407  -1.09131  -0.13378 
 O                     2.35096  -1.74561   0.39601 
 C                     2.96558  -1.10449   1.43598 
 C                     2.33074  -0.25755   2.34611 
 C                     3.05164   0.32123   3.39311 
 C                     4.40381   0.02356   3.54493 
 C                     5.05226  -0.80478   2.63115 
 C                     4.32836  -1.37983   1.58563 
 O                     5.20557   0.56511   4.56501 
 C                     4.71137   0.75195   5.85717 
 O                     3.55582   0.56524   6.21668 
 C                     5.81884   1.27966   6.7772 
 C                     5.85807   2.80687   6.65957 
 C                     5.48341   0.87466   8.22158 
 C                     7.18802   0.68538   6.41226 
 H                     0.86261  -1.66747  -1.00013 
 H                     1.45788  -0.08307  -0.47823 
 H                     0.37965  -1.06711   0.58508 
 H                     1.26849  -0.04537   2.28454 
 H                     2.53828   0.984     4.0826 
 H                     6.11388  -1.01563   2.73369 
 H                     4.82539  -2.03974   0.87906 
 H                     4.87934   3.24834   6.8789 
 H                     6.1343    3.11967   5.6464 
 H                     6.58626   3.23965   7.35472 
 H                     4.5171    1.28384   8.54025 
 H                     6.24415   1.23363   8.9238 
 H                     5.42176  -0.21615   8.31835 
 H                     7.52105   1.01221   5.42128 
 H                     7.15022  -0.41002   6.40079 
 H                     7.95665   0.99074   7.13149 
 
 NAtoms=     31 NQM=     31 NQMF=      0 NMic=      0 NMicF=      0 NTot=     31.
                    Isotopes and Nuclear Properties:
 (Nuclear quadrupole moments (NQMom) in fm**2, nuclear magnetic moments (NMagM)
  in nuclear magnetons)

  Atom         1           2           3           4           5           6           7           8           9          10
 IAtWgt=          12          16          12          12          12          12          12          12          16          12
 AtmWgt=  12.0000000  15.9949146  12.0000000  12.0000000  12.0000000  12.0000000  12.0000000  12.0000000  15.9949146  12.0000000
 NucSpn=           0           0           0           0           0           0           0           0           0           0
 AtZEff=   0.0000000   0.0000000   0.0000000   0.0000000   0.0000000   0.0000000   0.0000000   0.0000000   0.0000000   0.0000000
 NQMom=    0.0000000   0.0000000   0.0000000   0.0000000   0.0000000   0.0000000   0.0000000   0.0000000   0.0000000   0.0000000
 NMagM=    0.0000000   0.0000000   0.0000000   0.0000000   0.0000000   0.0000000   0.0000000   0.0000000   0.0000000   0.0000000

  Atom        11          12          13          14          15          16          17          18          19          20
 IAtWgt=          16          12          12          12          12           1           1           1           1           1
 AtmWgt=  15.9949146  12.0000000  12.0000000  12.0000000  12.0000000   1.0078250   1.0078250   1.0078250   1.0078250   1.0078250
 NucSpn=           0           0           0           0           0           1           1           1           1           1
 AtZEff=   0.0000000   0.0000000   0.0000000   0.0000000   0.0000000   0.0000000   0.0000000   0.0000000   0.0000000   0.0000000
 NQMom=    0.0000000   0.0000000   0.0000000   0.0000000   0.0000000   0.0000000   0.0000000   0.0000000   0.0000000   0.0000000
 NMagM=    0.0000000   0.0000000   0.0000000   0.0000000   0.0000000   2.7928460   2.7928460   2.7928460   2.7928460   2.7928460

  Atom        21          22          23          24          25          26          27          28          29          30
 IAtWgt=           1           1           1           1           1           1           1           1           1           1
 AtmWgt=   1.0078250   1.0078250   1.0078250   1.0078250   1.0078250   1.0078250   1.0078250   1.0078250   1.0078250   1.0078250
 NucSpn=           1           1           1           1           1           1           1           1           1           1
 AtZEff=   0.0000000   0.0000000   0.0000000   0.0000000   0.0000000   0.0000000   0.0000000   0.0000000   0.0000000   0.0000000
 NQMom=    0.0000000   0.0000000   0.0000000   0.0000000   0.0000000   0.0000000   0.0000000   0.0000000   0.0000000   0.0000000
 NMagM=    2.7928460   2.7928460   2.7928460   2.7928460   2.7928460   2.7928460   2.7928460   2.7928460   2.7928460   2.7928460

  Atom        31
 IAtWgt=           1
 AtmWgt=   1.0078250
 NucSpn=           1
 AtZEff=   0.0000000
 NQMom=    0.0000000
 NMagM=    2.7928460
 Leave Link  101 at Tue Sep 28 15:18:10 2021, MaxMem= 1342177280 cpu:       0.2
 (Enter /sw/target/amd/app/gaussian/Gaussian09RevA.02_gcc-4.9.2/g09/l103.exe)

 GradGradGradGradGradGradGradGradGradGradGradGradGradGradGradGradGradGrad
 Berny optimization.
 Initialization pass.
                           ----------------------------
                           !    Initial Parameters    !
                           ! (Angstroms and Degrees)  !
 --------------------------                            --------------------------
 ! Name  Definition              Value          Derivative Info.                !
 --------------------------------------------------------------------------------
 ! R1    R(1,2)                  1.4227         estimate D2E/DX2                !
 ! R2    R(1,16)                 1.095          estimate D2E/DX2                !
 ! R3    R(1,17)                 1.0953         estimate D2E/DX2                !
 ! R4    R(1,18)                 1.0941         estimate D2E/DX2                !
 ! R5    R(2,3)                  1.3676         estimate D2E/DX2                !
 ! R6    R(3,4)                  1.3959         estimate D2E/DX2                !
 ! R7    R(3,8)                  1.3983         estimate D2E/DX2                !
 ! R8    R(4,5)                  1.3967         estimate D2E/DX2                !
 ! R9    R(4,19)                 1.085          estimate D2E/DX2                !
 ! R10   R(5,6)                  1.3929         estimate D2E/DX2                !
 ! R11   R(5,20)                 1.0854         estimate D2E/DX2                !
 ! R12   R(6,7)                  1.3934         estimate D2E/DX2                !
 ! R13   R(6,9)                  1.4059         estimate D2E/DX2                !
 ! R14   R(7,8)                  1.3956         estimate D2E/DX2                !
 ! R15   R(7,21)                 1.0872         estimate D2E/DX2                !
 ! R16   R(8,22)                 1.0871         estimate D2E/DX2                !
 ! R17   R(9,10)                 1.396          estimate D2E/DX2                !
 ! R18   R(10,11)                1.2245         estimate D2E/DX2                !
 ! R19   R(10,12)                1.5334         estimate D2E/DX2                !
 ! R20   R(12,13)                1.5322         estimate D2E/DX2                !
 ! R21   R(12,14)                1.5371         estimate D2E/DX2                !
 ! R22   R(12,15)                1.5366         estimate D2E/DX2                !
 ! R23   R(13,23)                1.0959         estimate D2E/DX2                !
 ! R24   R(13,24)                1.0957         estimate D2E/DX2                !
 ! R25   R(13,25)                1.0958         estimate D2E/DX2                !
 ! R26   R(14,26)                1.0967         estimate D2E/DX2                !
 ! R27   R(14,27)                1.0958         estimate D2E/DX2                !
 ! R28   R(14,28)                1.0968         estimate D2E/DX2                !
 ! R29   R(15,29)                1.0953         estimate D2E/DX2                !
 ! R30   R(15,30)                1.0961         estimate D2E/DX2                !
 ! R31   R(15,31)                1.0961         estimate D2E/DX2                !
 ! A1    A(2,1,16)             107.6982         estimate D2E/DX2                !
 ! A2    A(2,1,17)             110.7112         estimate D2E/DX2                !
 ! A3    A(2,1,18)             111.897          estimate D2E/DX2                !
 ! A4    A(16,1,17)            107.9264         estimate D2E/DX2                !
 ! A5    A(16,1,18)            107.2472         estimate D2E/DX2                !
 ! A6    A(17,1,18)            111.1547         estimate D2E/DX2                !
 ! A7    A(1,2,3)              115.4584         estimate D2E/DX2                !
 ! A8    A(2,3,4)              125.1575         estimate D2E/DX2                !
 ! A9    A(2,3,8)              115.2811         estimate D2E/DX2                !
 ! A10   A(4,3,8)              119.5313         estimate D2E/DX2                !
 ! A11   A(3,4,5)              120.3591         estimate D2E/DX2                !
 ! A12   A(3,4,19)             121.7962         estimate D2E/DX2                !
 ! A13   A(5,4,19)             117.8274         estimate D2E/DX2                !
 ! A14   A(4,5,6)              119.6168         estimate D2E/DX2                !
 ! A15   A(4,5,20)             119.0176         estimate D2E/DX2                !
 ! A16   A(6,5,20)             121.3584         estimate D2E/DX2                !
 ! A17   A(5,6,7)              120.4866         estimate D2E/DX2                !
 ! A18   A(5,6,9)              123.3926         estimate D2E/DX2                !
 ! A19   A(7,6,9)              116.0662         estimate D2E/DX2                !
 ! A20   A(6,7,8)              119.6588         estimate D2E/DX2                !
 ! A21   A(6,7,21)             120.5209         estimate D2E/DX2                !
 ! A22   A(8,7,21)             119.8162         estimate D2E/DX2                !
 ! A23   A(3,8,7)              120.3            estimate D2E/DX2                !
 ! A24   A(3,8,22)             119.7061         estimate D2E/DX2                !
 ! A25   A(7,8,22)             119.9926         estimate D2E/DX2                !
 ! A26   A(6,9,10)             121.4168         estimate D2E/DX2                !
 ! A27   A(9,10,11)            125.8333         estimate D2E/DX2                !
 ! A28   A(9,10,12)            110.2269         estimate D2E/DX2                !
 ! A29   A(11,10,12)           123.9082         estimate D2E/DX2                !
 ! A30   A(10,12,13)           108.3872         estimate D2E/DX2                !
 ! A31   A(10,12,14)           108.3913         estimate D2E/DX2                !
 ! A32   A(10,12,15)           111.5891         estimate D2E/DX2                !
 ! A33   A(13,12,14)           109.8975         estimate D2E/DX2                !
 ! A34   A(13,12,15)           110.1477         estimate D2E/DX2                !
 ! A35   A(14,12,15)           108.4044         estimate D2E/DX2                !
 ! A36   A(12,13,23)           111.3026         estimate D2E/DX2                !
 ! A37   A(12,13,24)           111.2213         estimate D2E/DX2                !
 ! A38   A(12,13,25)           111.2205         estimate D2E/DX2                !
 ! A39   A(23,13,24)           107.1698         estimate D2E/DX2                !
 ! A40   A(23,13,25)           107.9048         estimate D2E/DX2                !
 ! A41   A(24,13,25)           107.8365         estimate D2E/DX2                !
 ! A42   A(12,14,26)           111.5314         estimate D2E/DX2                !
 ! A43   A(12,14,27)           111.3684         estimate D2E/DX2                !
 ! A44   A(12,14,28)           110.9283         estimate D2E/DX2                !
 ! A45   A(26,14,27)           107.6547         estimate D2E/DX2                !
 ! A46   A(26,14,28)           107.2115         estimate D2E/DX2                !
 ! A47   A(27,14,28)           107.9556         estimate D2E/DX2                !
 ! A48   A(12,15,29)           111.7402         estimate D2E/DX2                !
 ! A49   A(12,15,30)           110.9934         estimate D2E/DX2                !
 ! A50   A(12,15,31)           111.1788         estimate D2E/DX2                !
 ! A51   A(29,15,30)           107.4101         estimate D2E/DX2                !
 ! A52   A(29,15,31)           107.2979         estimate D2E/DX2                !
 ! A53   A(30,15,31)           108.027          estimate D2E/DX2                !
 ! D1    D(16,1,2,3)           175.6972         estimate D2E/DX2                !
 ! D2    D(17,1,2,3)            57.9184         estimate D2E/DX2                !
 ! D3    D(18,1,2,3)           -66.6777         estimate D2E/DX2                !
 ! D4    D(1,2,3,4)             28.2318         estimate D2E/DX2                !
 ! D5    D(1,2,3,8)           -153.7851         estimate D2E/DX2                !
 ! D6    D(2,3,4,5)            178.4478         estimate D2E/DX2                !
 ! D7    D(2,3,4,19)            -0.0034         estimate D2E/DX2                !
 ! D8    D(8,3,4,5)              0.5439         estimate D2E/DX2                !
 ! D9    D(8,3,4,19)          -177.9073         estimate D2E/DX2                !
 ! D10   D(2,3,8,7)           -178.5815         estimate D2E/DX2                !
 ! D11   D(2,3,8,22)             1.8367         estimate D2E/DX2                !
 ! D12   D(4,3,8,7)             -0.4766         estimate D2E/DX2                !
 ! D13   D(4,3,8,22)           179.9416         estimate D2E/DX2                !
 ! D14   D(3,4,5,6)             -1.5438         estimate D2E/DX2                !
 ! D15   D(3,4,5,20)           179.4165         estimate D2E/DX2                !
 ! D16   D(19,4,5,6)           176.9677         estimate D2E/DX2                !
 ! D17   D(19,4,5,20)           -2.072          estimate D2E/DX2                !
 ! D18   D(4,5,6,7)              2.4911         estimate D2E/DX2                !
 ! D19   D(4,5,6,9)            179.6966         estimate D2E/DX2                !
 ! D20   D(20,5,6,7)          -178.4923         estimate D2E/DX2                !
 ! D21   D(20,5,6,9)            -1.2868         estimate D2E/DX2                !
 ! D22   D(5,6,7,8)             -2.4257         estimate D2E/DX2                !
 ! D23   D(5,6,7,21)           178.3192         estimate D2E/DX2                !
 ! D24   D(9,6,7,8)           -179.8285         estimate D2E/DX2                !
 ! D25   D(9,6,7,21)             0.9164         estimate D2E/DX2                !
 ! D26   D(5,6,9,10)            38.4162         estimate D2E/DX2                !
 ! D27   D(7,6,9,10)          -144.2646         estimate D2E/DX2                !
 ! D28   D(6,7,8,3)              1.4098         estimate D2E/DX2                !
 ! D29   D(6,7,8,22)          -179.0096         estimate D2E/DX2                !
 ! D30   D(21,7,8,3)          -179.3298         estimate D2E/DX2                !
 ! D31   D(21,7,8,22)            0.2508         estimate D2E/DX2                !
 ! D32   D(6,9,10,11)           -5.2018         estimate D2E/DX2                !
 ! D33   D(6,9,10,12)          176.7836         estimate D2E/DX2                !
 ! D34   D(9,10,12,13)          86.4083         estimate D2E/DX2                !
 ! D35   D(9,10,12,14)        -154.3513         estimate D2E/DX2                !
 ! D36   D(9,10,12,15)         -35.0511         estimate D2E/DX2                !
 ! D37   D(11,10,12,13)        -91.6523         estimate D2E/DX2                !
 ! D38   D(11,10,12,14)         27.5881         estimate D2E/DX2                !
 ! D39   D(11,10,12,15)        146.8883         estimate D2E/DX2                !
 ! D40   D(10,12,13,23)         55.4891         estimate D2E/DX2                !
 ! D41   D(10,12,13,24)        -63.938          estimate D2E/DX2                !
 ! D42   D(10,12,13,25)        175.8464         estimate D2E/DX2                !
 ! D43   D(14,12,13,23)        -62.7988         estimate D2E/DX2                !
 ! D44   D(14,12,13,24)        177.7742         estimate D2E/DX2                !
 ! D45   D(14,12,13,25)         57.5585         estimate D2E/DX2                !
 ! D46   D(15,12,13,23)        177.8313         estimate D2E/DX2                !
 ! D47   D(15,12,13,24)         58.4042         estimate D2E/DX2                !
 ! D48   D(15,12,13,25)        -61.8114         estimate D2E/DX2                !
 ! D49   D(10,12,14,26)        -59.3942         estimate D2E/DX2                !
 ! D50   D(10,12,14,27)       -179.6901         estimate D2E/DX2                !
 ! D51   D(10,12,14,28)         60.0417         estimate D2E/DX2                !
 ! D52   D(13,12,14,26)         58.8912         estimate D2E/DX2                !
 ! D53   D(13,12,14,27)        -61.4048         estimate D2E/DX2                !
 ! D54   D(13,12,14,28)        178.3271         estimate D2E/DX2                !
 ! D55   D(15,12,14,26)        179.3214         estimate D2E/DX2                !
 ! D56   D(15,12,14,27)         59.0255         estimate D2E/DX2                !
 ! D57   D(15,12,14,28)        -61.2427         estimate D2E/DX2                !
 ! D58   D(10,12,15,29)         65.5973         estimate D2E/DX2                !
 ! D59   D(10,12,15,30)        -54.2732         estimate D2E/DX2                !
 ! D60   D(10,12,15,31)       -174.5485         estimate D2E/DX2                !
 ! D61   D(13,12,15,29)        -54.8357         estimate D2E/DX2                !
 ! D62   D(13,12,15,30)       -174.7062         estimate D2E/DX2                !
 ! D63   D(13,12,15,31)         65.0186         estimate D2E/DX2                !
 ! D64   D(14,12,15,29)       -175.1103         estimate D2E/DX2                !
 ! D65   D(14,12,15,30)         65.0192         estimate D2E/DX2                !
 ! D66   D(14,12,15,31)        -55.256          estimate D2E/DX2                !
 --------------------------------------------------------------------------------
 Trust Radius=3.00D-01 FncErr=1.00D-07 GrdErr=1.00D-06
 Number of steps in this run= 160 maximum allowed number of steps= 186.
 GradGradGradGradGradGradGradGradGradGradGradGradGradGradGradGradGradGrad

 Leave Link  103 at Tue Sep 28 15:18:10 2021, MaxMem= 1342177280 cpu:       0.0
 (Enter /sw/target/amd/app/gaussian/Gaussian09RevA.02_gcc-4.9.2/g09/l202.exe)
                          Input orientation:                          
 ---------------------------------------------------------------------
 Center     Atomic      Atomic             Coordinates (Angstroms)
 Number     Number       Type             X           Y           Z
 ---------------------------------------------------------------------
      1          6           0        1.204068   -1.091309   -0.133778
      2          8           0        2.350958   -1.745615    0.396012
      3          6           0        2.965582   -1.104492    1.435984
      4          6           0        2.330745   -0.257554    2.346107
      5          6           0        3.051638    0.321233    3.393111
      6          6           0        4.403814    0.023559    3.544932
      7          6           0        5.052257   -0.804777    2.631150
      8          6           0        4.328364   -1.379826    1.585628
      9          8           0        5.205566    0.565110    4.565014
     10          6           0        4.711368    0.751952    5.857169
     11          8           0        3.555818    0.565245    6.216683
     12          6           0        5.818838    1.279660    6.777202
     13          6           0        5.858073    2.806873    6.659571
     14          6           0        5.483406    0.874662    8.221580
     15          6           0        7.188022    0.685380    6.412259
     16          1           0        0.862605   -1.667469   -1.000131
     17          1           0        1.457877   -0.083070   -0.478227
     18          1           0        0.379650   -1.067108    0.585082
     19          1           0        1.268489   -0.045374    2.284539
     20          1           0        2.538283    0.984000    4.082597
     21          1           0        6.113879   -1.015626    2.733685
     22          1           0        4.825390   -2.039744    0.879061
     23          1           0        4.879337    3.248342    6.878897
     24          1           0        6.134302    3.119673    5.646398
     25          1           0        6.586263    3.239649    7.354717
     26          1           0        4.517097    1.283843    8.540247
     27          1           0        6.244152    1.233633    8.923802
     28          1           0        5.421760   -0.216147    8.318349
     29          1           0        7.521050    1.012208    5.421278
     30          1           0        7.150218   -0.410015    6.400795
     31          1           0        7.956653    0.990737    7.131493
 ---------------------------------------------------------------------
                    Distance matrix (angstroms):
                    1          2          3          4          5
     1  C    0.000000
     2  O    1.422726   0.000000
     3  C    2.359504   1.367605   0.000000
     4  C    2.848574   2.453080   1.395939   0.000000
     5  C    4.224658   3.707481   2.422900   1.396746   0.000000
     6  C    5.001420   4.154502   2.790819   2.411187   1.392853
     7  C    4.747155   3.630156   2.423316   2.790579   2.418875
     8  C    3.577824   2.336477   1.398348   2.414188   2.791169
     9  O    6.390176   5.555970   4.194749   3.723563   2.464191
    10  C    7.182632   6.452411   5.103041   4.360508   3.001967
    11  O    6.971603   6.377458   5.098184   4.142362   2.878593
    12  C    8.641715   7.867532   6.507984   5.845035   4.475271
    13  C    9.110717   8.500422   7.138007   6.359146   4.972348
    14  C    9.591130   8.827094   7.503386   6.763311   5.434509
    15  C    9.045160   8.093340   6.767271   6.404363   5.133959
    16  H    1.095046   2.042184   3.267126   3.916708   5.295978
    17  H    1.095267   2.079890   2.642098   2.961284   4.206042
    18  H    1.094080   2.093365   2.722587   2.750156   4.117286
    19  H    2.635600   2.762081   2.172994   1.084988   2.131421
    20  H    4.885166   4.590946   3.398373   2.144744   1.085441
    21  H    5.686327   4.489674   3.406420   3.877757   3.405783
    22  H    3.878059   2.538240   2.154935   3.398776   3.878255
    23  H    9.028719   8.565051   7.227373   6.271588   4.905013
    24  H    8.686197   8.096374   6.753662   6.063385   4.734067
    25  H   10.188365   9.550615   8.186104   7.444867   6.058469
    26  H    9.584164   8.955352   7.653881   6.747104   5.437572
    27  H   10.622973   9.836466   8.501956   7.797722   6.450826
    28  H    9.486479   8.633221   7.361312   6.724862   5.492196
    29  H    8.671084   7.719374   6.412119   6.165083   4.956466
    30  H    8.861236   7.802188   6.530147   6.300085   5.136073
    31  H   10.134914   9.180313   7.857455   7.490594   6.203460
                    6          7          8          9         10
     6  C    0.000000
     7  C    1.393418   0.000000
     8  C    2.411235   1.395643   0.000000
     9  O    1.405934   2.374852   3.664559   0.000000
    10  C    2.443683   3.598167   4.789283   1.395997   0.000000
    11  O    2.854956   4.119749   5.082007   2.334455   1.224503
    12  C    3.745351   4.703432   6.020533   2.404259   1.533436
    13  C    4.422972   5.470057   6.753766   3.136629   2.486259
    14  C    4.874519   5.853145   7.103006   3.680149   2.490289
    15  C    4.051097   4.591170   5.978218   2.712363   2.538970
    16  H    6.004776   5.611027   4.333633   7.403820   8.227341
    17  H    4.987556   4.807146   3.765736   6.316612   7.170754
    18  H    5.113137   5.107688   4.085491   6.464786   7.061705
    19  H    3.379882   3.874756   3.410583   4.590624   5.025220
    20  H    2.166041   3.409763   3.876456   2.742735   2.815183
    21  H    2.159248   1.087204   2.153774   2.584091   3.853248
    22  H    3.397324   2.155558   1.087090   4.529464   5.708601
    23  H    4.662689   5.873757   7.052815   3.558120   2.702611
    24  H    4.122702   5.065950   6.324299   2.925361   2.770428
    25  H    5.442498   6.404892   7.727875   4.103893   3.456374
    26  H    5.153088   6.290163   7.449662   4.097932   2.742181
    27  H    5.812346   6.721100   8.021795   4.530411   3.462034
    28  H    4.886633   5.729506   6.919479   3.839873   2.738481
    29  H    3.770314   4.145019   5.534192   2.508895   2.855179
    30  H    3.985809   4.332147   5.664735   2.846513   2.755664
    31  H    5.140187   5.649113   7.038513   3.786352   3.494681
                   11         12         13         14         15
    11  O    0.000000
    12  C    2.438408   0.000000
    13  C    3.243675   1.532239   0.000000
    14  C    2.798383   1.537129   2.512705   0.000000
    15  C    3.639449   1.536560   2.516080   2.493027   0.000000
    16  H    8.020026   9.681773  10.180642  10.623285  10.024486
    17  H    7.045813   8.574163   8.869140   9.633731   8.994658
    18  H    6.668400   8.569390   9.050982   9.388019   9.131328
    19  H    4.589824   6.530346   6.952733   7.338968   7.253478
    20  H    2.401054   4.255627   4.580903   5.081032   5.209278
    21  H    4.601533   4.658907   5.485391   5.838465   4.192745
    22  H    6.073548   6.840574   7.613831   7.927126   6.604893
    23  H    3.064187   2.183738   1.095866   2.793216   3.480883
    24  H    3.674087   2.182632   1.095749   3.477830   2.760915
    25  H    4.198948   2.182664   1.095803   2.749711   2.788303
    26  H    2.615223   2.191546   2.766728   1.096691   3.467035
    27  H    3.873290   2.188813   2.784041   1.095769   2.738488
    28  H    2.917073   2.184089   3.475711   1.096827   2.750565
    29  H    4.068847   2.192621   2.742205   3.465920   1.095339
    30  H    3.728907   2.183863   3.476345   2.782790   1.096108
    31  H    4.515006   2.186150   2.815156   2.705313   1.096054
                   16         17         18         19         20
    16  H    0.000000
    17  H    1.771173   0.000000
    18  H    1.762549   1.805970   0.000000
    19  H    3.685782   2.769505   2.173046   0.000000
    20  H    5.972629   4.806977   4.593403   2.430020   0.000000
    21  H    6.476277   5.732748   6.123768   4.961948   4.313114
    22  H    4.401547   4.124433   4.560379   4.313285   4.963520
    23  H   10.118222   8.771087   8.859030   6.707825   4.292677
    24  H    9.740835   8.344911   8.732817   6.707888   4.465191
    25  H   11.253602   9.934577  10.143874   8.048404   5.672819
    26  H   10.634113   9.620818   9.269849   7.173155   4.886334
    27  H   11.655980  10.632040  10.450840   8.394814   6.101889
    28  H   10.475032   9.649343   9.270946   7.327052   5.262736
    29  H    9.630683   8.530291   8.871976   7.074753   5.159538
    30  H    9.792291   8.934796   8.949575   7.188273   5.346706
    31  H   11.113725  10.064541  10.222584   8.324544   6.217279
                   21         22         23         24         25
    21  H    0.000000
    22  H    2.479648   0.000000
    23  H    6.073574   7.997799   0.000000
    24  H    5.058163   7.145652   1.763674   0.000000
    25  H    6.299560   8.538547   1.772027   1.771162   0.000000
    26  H    6.446195   8.356736   2.598184   3.789458   3.084171
    27  H    6.587388   8.800326   3.178586   3.782934   2.569664
    28  H    5.683895   7.682719   3.790637   4.332982   3.771894
    29  H    3.649027   6.100224   3.755476   2.532816   3.094109
    30  H    3.858556   6.208896   4.332327   3.749653   3.814193
    31  H    5.173202   7.621124   3.824979   3.171567   2.642992
                   26         27         28         29         30
    26  H    0.000000
    27  H    1.769846   0.000000
    28  H    1.765680   1.773348   0.000000
    29  H    4.338835   3.734591   3.782710   0.000000
    30  H    3.792063   3.144535   2.588854   1.766263   0.000000
    31  H    3.728411   2.490789   3.048095   1.764949   1.773800
                   31
    31  H    0.000000
 Stoichiometry    C12H16O3
 Framework group  C1[X(C12H16O3)]
 Deg. of freedom    87
 Full point group                 C1      NOp   1
 Largest Abelian subgroup         C1      NOp   1
 Largest concise Abelian subgroup C1      NOp   1
                         Standard orientation:                         
 ---------------------------------------------------------------------
 Center     Atomic      Atomic             Coordinates (Angstroms)
 Number     Number       Type             X           Y           Z
 ---------------------------------------------------------------------
      1          6           0       -5.277348   -0.765429    0.281761
      2          8           0       -4.528598    0.273797   -0.337539
      3          6           0       -3.176698    0.224129   -0.136933
      4          6           0       -2.440376   -0.939359    0.092788
      5          6           0       -1.054270   -0.877429    0.253341
      6          6           0       -0.403617    0.349847    0.150959
      7          6           0       -1.130506    1.520049   -0.058502
      8          6           0       -2.515538    1.453699   -0.216940
      9          8           0        0.985335    0.504466    0.304441
     10          6           0        1.882298   -0.442531   -0.193012
     11          8           0        1.582736   -1.510400   -0.711979
     12          6           0        3.325496    0.018146    0.044439
     13          6           0        3.752700   -0.433253    1.444972
     14          6           0        4.224978   -0.639707   -1.014300
     15          6           0        3.460533    1.543345   -0.084197
     16          1           0       -6.338742   -0.560994    0.106333
     17          1           0       -5.109616   -0.771582    1.364091
     18          1           0       -5.058468   -1.743359   -0.157278
     19          1           0       -2.911221   -1.916209    0.128352
     20          1           0       -0.504414   -1.794387    0.440503
     21          1           0       -0.625802    2.481555   -0.111346
     22          1           0       -3.086046    2.361429   -0.396692
     23          1           0        3.627503   -1.514722    1.570159
     24          1           0        3.150162    0.053958    2.219723
     25          1           0        4.804281   -0.191496    1.636063
     26          1           0        4.176566   -1.733976   -0.959865
     27          1           0        5.272965   -0.346615   -0.885730
     28          1           0        3.914816   -0.351043   -2.025983
     29          1           0        2.907127    2.067425    0.702473
     30          1           0        3.070800    1.892228   -1.047442
     31          1           0        4.508400    1.855844   -0.009007
 ---------------------------------------------------------------------
 Rotational constants (GHZ):      1.8468909      0.2467513      0.2320775
 Leave Link  202 at Tue Sep 28 15:18:10 2021, MaxMem= 1342177280 cpu:       0.1
 (Enter /sw/target/amd/app/gaussian/Gaussian09RevA.02_gcc-4.9.2/g09/l301.exe)
 Standard basis: 6-31G(d) (6D, 7F)
 Ernie: Thresh=  0.10000D-02 Tol=  0.10000D-05 Strict=F.
 There are   257 symmetry adapted basis functions of A   symmetry.
 Integral buffers will be    131072 words long.
 Raffenetti 2 integral format.
 Two-electron integral symmetry is turned on.
   257 basis functions,   484 primitive gaussians,   257 cartesian basis functions
    56 alpha electrons       56 beta electrons
       nuclear repulsion energy       980.7464283302 Hartrees.
 IExCor=  402 DFT=T Ex+Corr=B3LYP ExCW=0 ScaHFX=  0.200000
 ScaDFX=  0.800000  0.720000  1.000000  0.810000 ScalE2=  1.000000  1.000000
 IRadAn=      0 IRanWt=     -1 IRanGd=            0 ICorTp=0
 NAtoms=   31 NActive=   31 NUniq=   31 SFac= 7.50D-01 NAtFMM=   80 NAOKFM=F Big=F
 Leave Link  301 at Tue Sep 28 15:18:10 2021, MaxMem= 1342177280 cpu:       0.1
 (Enter /sw/target/amd/app/gaussian/Gaussian09RevA.02_gcc-4.9.2/g09/l302.exe)
 NPDir=0 NMtPBC=     1 NCelOv=     1 NCel=       1 NClECP=     1 NCelD=      1
         NCelK=      1 NCelE2=     1 NClLst=     1 CellRange=     0.0.
 One-electron integrals computed using PRISM.
 NBasis=   257 RedAO= T  NBF=   257
 NBsUse=   257 1.00D-06 NBFU=   257
 Precomputing XC quadrature grid using
 IXCGrd= 2 IRadAn=           0 IRanWt=          -1 IRanGd=           0 AccXCQ= 1.00D-10.
 NRdTot=    1972 NPtTot=      251670 NUsed=      265890 NTot=      265922
 NSgBfM=   256   256   256   256   256 NAtAll=    31    31.
 Leave Link  302 at Tue Sep 28 15:18:12 2021, MaxMem= 1342177280 cpu:       2.9
 (Enter /sw/target/amd/app/gaussian/Gaussian09RevA.02_gcc-4.9.2/g09/l303.exe)
 DipDrv:  MaxL=1.
 Leave Link  303 at Tue Sep 28 15:18:12 2021, MaxMem= 1342177280 cpu:       0.2
 (Enter /sw/target/amd/app/gaussian/Gaussian09RevA.02_gcc-4.9.2/g09/l401.exe)
 Harris functional with IExCor=  402 diagonalized for initial guess.
 ExpMin= 1.61D-01 ExpMax= 5.48D+03 ExpMxC= 8.25D+02 IAcc=1 IRadAn=         1 AccDes= 0.00D+00
 HarFok:  IExCor=  402 AccDes= 0.00D+00 IRadAn=         1 IDoV= 1
 ScaDFX=  1.000000  1.000000  1.000000  1.000000
 FoFCou: FMM=F IPFlag=           0 FMFlag=      100000 FMFlg1=           0
         NFxFlg=           0 DoJE=T BraDBF=F KetDBF=T FulRan=T
         Omega=  0.000000  0.000000  1.000000  0.000000  0.000000 ICntrl=     500 IOpCl=  0
         NMat0=    1 NMatS0=    1 NMatT0=    0 NMatD0=    1 NMtDS0=    0 NMtDT0=    0
         I1Cent=           4 NGrid=           0.
 Petite list used in FoFCou.
 Harris En= -692.692070632069    
 Initial guess orbital symmetries:
       Occupied  (A) (A) (A) (A) (A) (A) (A) (A) (A) (A) (A) (A)
                 (A) (A) (A) (A) (A) (A) (A) (A) (A) (A) (A) (A)
                 (A) (A) (A) (A) (A) (A) (A) (A) (A) (A) (A) (A)
                 (A) (A) (A) (A) (A) (A) (A) (A) (A) (A) (A) (A)
                 (A) (A) (A) (A) (A) (A) (A) (A)
       Virtual   (A) (A) (A) (A) (A) (A) (A) (A) (A) (A) (A) (A)
                 (A) (A) (A) (A) (A) (A) (A) (A) (A) (A) (A) (A)
                 (A) (A) (A) (A) (A) (A) (A) (A) (A) (A) (A) (A)
                 (A) (A) (A) (A) (A) (A) (A) (A) (A) (A) (A) (A)
                 (A) (A) (A) (A) (A) (A) (A) (A) (A) (A) (A) (A)
                 (A) (A) (A) (A) (A) (A) (A) (A) (A) (A) (A) (A)
                 (A) (A) (A) (A) (A) (A) (A) (A) (A) (A) (A) (A)
                 (A) (A) (A) (A) (A) (A) (A) (A) (A) (A) (A) (A)
                 (A) (A) (A) (A) (A) (A) (A) (A) (A) (A) (A) (A)
                 (A) (A) (A) (A) (A) (A) (A) (A) (A) (A) (A) (A)
                 (A) (A) (A) (A) (A) (A) (A) (A) (A) (A) (A) (A)
                 (A) (A) (A) (A) (A) (A) (A) (A) (A) (A) (A) (A)
                 (A) (A) (A) (A) (A) (A) (A) (A) (A) (A) (A) (A)
                 (A) (A) (A) (A) (A) (A) (A) (A) (A) (A) (A) (A)
                 (A) (A) (A) (A) (A) (A) (A) (A) (A) (A) (A) (A)
                 (A) (A) (A) (A) (A) (A) (A) (A) (A) (A) (A) (A)
                 (A) (A) (A) (A) (A) (A) (A) (A) (A)
 The electronic state of the initial guess is 1-A.
 Leave Link  401 at Tue Sep 28 15:18:18 2021, MaxMem= 1342177280 cpu:      10.7
 (Enter /sw/target/amd/app/gaussian/Gaussian09RevA.02_gcc-4.9.2/g09/l502.exe)
 Closed shell SCF:
 Requested convergence on RMS density matrix=1.00D-08 within  64 cycles.
 Requested convergence on MAX density matrix=1.00D-06.
 Requested convergence on             energy=1.00D-06.
 No special actions if energy rises.
 Using DIIS extrapolation, IDIIS=  1040.
 Integral symmetry usage will be decided dynamically.
       265598 words used for storage of precomputed grid.
 Keep R1 ints in memory in canonical form, NReq=558636700.
 IEnd=      472778 IEndB=      472778 NGot=  1342177280 MDV=   792197724
 LenX=   792197724 LenY=   792131234
 Symmetry not used in FoFDir.
 MinBra= 0 MaxBra= 2 Meth= 1.
 IRaf=       0 NMat=   1 IRICut=       1 DoRegI=T DoRafI=F ISym2E= 0 JSym2E=0.
 Integral accuracy reduced to 1.0D-05 until final iterations.

 Cycle   1  Pass 0  IDiag  1:
 E= -692.143015545229    
 DIIS: error= 5.15D-02 at cycle   1 NSaved=   1.
 NSaved= 1 IEnMin= 1 EnMin= -692.143015545229     IErMin= 1 ErrMin= 5.15D-02
 ErrMax= 5.15D-02 EMaxC= 1.00D-01 BMatC= 4.49D-01 BMatP= 4.49D-01
 IDIUse=3 WtCom= 4.85D-01 WtEn= 5.15D-01
 Coeff-Com:  0.100D+01
 Coeff-En:   0.100D+01
 Coeff:      0.100D+01
 Gap=     0.252 Goal=   None    Shift=    0.000
 GapD=    0.252 DampG=1.000 DampE=0.500 DampFc=0.5000 IDamp=-1.
 Damping current iteration by 5.00D-01
 RMSDP=5.48D-03 MaxDP=2.01D-01              OVMax= 1.81D-01

 Cycle   2  Pass 0  IDiag  1:
 E= -692.299896869268     Delta-E=       -0.156881324040 Rises=F Damp=T
 DIIS: error= 1.17D-02 at cycle   2 NSaved=   2.
 NSaved= 2 IEnMin= 2 EnMin= -692.299896869268     IErMin= 2 ErrMin= 1.17D-02
 ErrMax= 1.17D-02 EMaxC= 1.00D-01 BMatC= 5.45D-02 BMatP= 4.49D-01
 IDIUse=3 WtCom= 8.83D-01 WtEn= 1.17D-01
 Coeff-Com:  0.173D+00 0.827D+00
 Coeff-En:   0.255D+00 0.745D+00
 Coeff:      0.182D+00 0.818D+00
 Gap=     0.214 Goal=   None    Shift=    0.000
 RMSDP=1.62D-03 MaxDP=7.34D-02 DE=-1.57D-01 OVMax= 1.80D-01

 Cycle   3  Pass 0  IDiag  1:
 E= -692.519975981379     Delta-E=       -0.220079112110 Rises=F Damp=F
 DIIS: error= 1.55D-02 at cycle   3 NSaved=   3.
 NSaved= 3 IEnMin= 3 EnMin= -692.519975981379     IErMin= 2 ErrMin= 1.17D-02
 ErrMax= 1.55D-02 EMaxC= 1.00D-01 BMatC= 7.64D-02 BMatP= 5.45D-02
 IDIUse=2 WtCom= 0.00D+00 WtEn= 1.00D+00
 Coeff-En:   0.000D+00 0.000D+00 0.100D+01
 Coeff:      0.000D+00 0.000D+00 0.100D+01
 Gap=     0.212 Goal=   None    Shift=    0.000
 RMSDP=3.08D-03 MaxDP=1.70D-01 DE=-2.20D-01 OVMax= 3.10D-01

 Cycle   4  Pass 0  IDiag  1:
 E= -692.179157452239     Delta-E=        0.340818529140 Rises=F Damp=F
 DIIS: error= 4.35D-02 at cycle   4 NSaved=   4.
 NSaved= 4 IEnMin= 3 EnMin= -692.519975981379     IErMin= 2 ErrMin= 1.17D-02
 ErrMax= 4.35D-02 EMaxC= 1.00D-01 BMatC= 5.13D-01 BMatP= 5.45D-02
 IDIUse=2 WtCom= 0.00D+00 WtEn= 1.00D+00
 Coeff-En:   0.000D+00 0.000D+00 0.809D+00 0.191D+00
 Coeff:      0.000D+00 0.000D+00 0.809D+00 0.191D+00
 Gap=     0.239 Goal=   None    Shift=    0.000
 RMSDP=1.64D-03 MaxDP=8.66D-02 DE= 3.41D-01 OVMax= 1.29D-01

 Cycle   5  Pass 0  IDiag  1:
 E= -692.551509585673     Delta-E=       -0.372352133434 Rises=F Damp=F
 DIIS: error= 1.12D-02 at cycle   5 NSaved=   5.
 NSaved= 5 IEnMin= 5 EnMin= -692.551509585673     IErMin= 5 ErrMin= 1.12D-02
 ErrMax= 1.12D-02 EMaxC= 1.00D-01 BMatC= 3.99D-02 BMatP= 5.45D-02
 IDIUse=3 WtCom= 8.88D-01 WtEn= 1.12D-01
 Coeff-Com: -0.580D-02 0.490D-01 0.318D+00-0.976D-01 0.736D+00
 Coeff-En:   0.000D+00 0.000D+00 0.374D+00 0.000D+00 0.626D+00
 Coeff:     -0.515D-02 0.435D-01 0.325D+00-0.867D-01 0.724D+00
 Gap=     0.204 Goal=   None    Shift=    0.000
 RMSDP=6.39D-04 MaxDP=3.36D-02 DE=-3.72D-01 OVMax= 4.47D-02

 Cycle   6  Pass 0  IDiag  1:
 E= -692.583060552379     Delta-E=       -0.031550966706 Rises=F Damp=F
 DIIS: error= 5.43D-04 at cycle   6 NSaved=   6.
 NSaved= 6 IEnMin= 6 EnMin= -692.583060552379     IErMin= 6 ErrMin= 5.43D-04
 ErrMax= 5.43D-04 EMaxC= 1.00D-01 BMatC= 1.96D-04 BMatP= 3.99D-02
 IDIUse=3 WtCom= 9.95D-01 WtEn= 5.43D-03
 Coeff-Com: -0.470D-02 0.194D-01 0.165D+00-0.613D-01 0.429D+00 0.452D+00
 Coeff-En:   0.000D+00 0.000D+00 0.000D+00 0.000D+00 0.000D+00 0.100D+01
 Coeff:     -0.468D-02 0.193D-01 0.164D+00-0.609D-01 0.427D+00 0.455D+00
 Gap=     0.205 Goal=   None    Shift=    0.000
 RMSDP=5.39D-05 MaxDP=3.37D-03 DE=-3.16D-02 OVMax= 3.66D-03

 Cycle   7  Pass 0  IDiag  1:
 E= -692.583202248016     Delta-E=       -0.000141695637 Rises=F Damp=F
 DIIS: error= 2.03D-04 at cycle   7 NSaved=   7.
 NSaved= 7 IEnMin= 7 EnMin= -692.583202248016     IErMin= 7 ErrMin= 2.03D-04
 ErrMax= 2.03D-04 EMaxC= 1.00D-01 BMatC= 1.79D-05 BMatP= 1.96D-04
 IDIUse=3 WtCom= 9.98D-01 WtEn= 2.03D-03
 Coeff-Com: -0.618D-03 0.125D-02 0.327D-01-0.136D-01 0.842D-01 0.211D+00
 Coeff-Com:  0.685D+00
 Coeff-En:   0.000D+00 0.000D+00 0.000D+00 0.000D+00 0.000D+00 0.445D-01
 Coeff-En:   0.955D+00
 Coeff:     -0.617D-03 0.125D-02 0.326D-01-0.136D-01 0.840D-01 0.211D+00
 Coeff:      0.685D+00
 Gap=     0.206 Goal=   None    Shift=    0.000
 RMSDP=1.66D-05 MaxDP=7.08D-04 DE=-1.42D-04 OVMax= 1.31D-03

 Cycle   8  Pass 0  IDiag  1:
 E= -692.583216466806     Delta-E=       -0.000014218790 Rises=F Damp=F
 DIIS: error= 5.41D-05 at cycle   8 NSaved=   8.
 NSaved= 8 IEnMin= 8 EnMin= -692.583216466806     IErMin= 8 ErrMin= 5.41D-05
 ErrMax= 5.41D-05 EMaxC= 1.00D-01 BMatC= 1.16D-06 BMatP= 1.79D-05
 IDIUse=1 WtCom= 1.00D+00 WtEn= 0.00D+00
 Coeff-Com:  0.326D-04-0.688D-03 0.105D-01-0.411D-02 0.241D-01 0.995D-01
 Coeff-Com:  0.392D+00 0.478D+00
 Coeff:      0.326D-04-0.688D-03 0.105D-01-0.411D-02 0.241D-01 0.995D-01
 Coeff:      0.392D+00 0.478D+00
 Gap=     0.205 Goal=   None    Shift=    0.000
 RMSDP=5.40D-06 MaxDP=2.37D-04 DE=-1.42D-05 OVMax= 5.20D-04

 Initial convergence to 1.0D-05 achieved.  Increase integral accuracy.
 Cycle   9  Pass 1  IDiag  1:
 E= -692.583250510757     Delta-E=       -0.000034043951 Rises=F Damp=F
 DIIS: error= 1.97D-05 at cycle   1 NSaved=   1.
 NSaved= 1 IEnMin= 1 EnMin= -692.583250510757     IErMin= 1 ErrMin= 1.97D-05
 ErrMax= 1.97D-05 EMaxC= 1.00D-01 BMatC= 2.02D-07 BMatP= 2.02D-07
 IDIUse=1 WtCom= 1.00D+00 WtEn= 0.00D+00
 Coeff-Com:  0.100D+01
 Coeff:      0.100D+01
 Gap=     0.205 Goal=   None    Shift=    0.000
 RMSDP=5.40D-06 MaxDP=2.37D-04 DE=-3.40D-05 OVMax= 3.95D-04

 Cycle  10  Pass 1  IDiag  1:
 E= -692.583250282720     Delta-E=        0.000000228037 Rises=F Damp=F
 DIIS: error= 4.03D-05 at cycle   2 NSaved=   2.
 NSaved= 2 IEnMin= 1 EnMin= -692.583250510757     IErMin= 1 ErrMin= 1.97D-05
 ErrMax= 4.03D-05 EMaxC= 1.00D-01 BMatC= 4.44D-07 BMatP= 2.02D-07
 IDIUse=1 WtCom= 1.00D+00 WtEn= 0.00D+00
 Coeff-Com:  0.614D+00 0.386D+00
 Coeff:      0.614D+00 0.386D+00
 Gap=     0.205 Goal=   None    Shift=    0.000
 RMSDP=3.26D-06 MaxDP=1.28D-04 DE= 2.28D-07 OVMax= 3.24D-04

 Cycle  11  Pass 1  IDiag  1:
 E= -692.583250732061     Delta-E=       -0.000000449341 Rises=F Damp=F
 DIIS: error= 8.81D-06 at cycle   3 NSaved=   3.
 NSaved= 3 IEnMin= 3 EnMin= -692.583250732061     IErMin= 3 ErrMin= 8.81D-06
 ErrMax= 8.81D-06 EMaxC= 1.00D-01 BMatC= 2.58D-08 BMatP= 2.02D-07
 IDIUse=1 WtCom= 1.00D+00 WtEn= 0.00D+00
 Coeff-Com:  0.449D-01 0.193D+00 0.762D+00
 Coeff:      0.449D-01 0.193D+00 0.762D+00
 Gap=     0.205 Goal=   None    Shift=    0.000
 RMSDP=8.03D-07 MaxDP=3.49D-05 DE=-4.49D-07 OVMax= 5.22D-05

 Cycle  12  Pass 1  IDiag  1:
 E= -692.583250749223     Delta-E=       -0.000000017163 Rises=F Damp=F
 DIIS: error= 4.41D-06 at cycle   4 NSaved=   4.
 NSaved= 4 IEnMin= 4 EnMin= -692.583250749223     IErMin= 4 ErrMin= 4.41D-06
 ErrMax= 4.41D-06 EMaxC= 1.00D-01 BMatC= 1.06D-08 BMatP= 2.58D-08
 IDIUse=1 WtCom= 1.00D+00 WtEn= 0.00D+00
 Coeff-Com: -0.132D-01 0.108D+00 0.538D+00 0.368D+00
 Coeff:     -0.132D-01 0.108D+00 0.538D+00 0.368D+00
 Gap=     0.205 Goal=   None    Shift=    0.000
 RMSDP=3.45D-07 MaxDP=1.69D-05 DE=-1.72D-08 OVMax= 2.27D-05

 Cycle  13  Pass 1  IDiag  1:
 E= -692.583250757460     Delta-E=       -0.000000008236 Rises=F Damp=F
 DIIS: error= 5.43D-07 at cycle   5 NSaved=   5.
 NSaved= 5 IEnMin= 5 EnMin= -692.583250757460     IErMin= 5 ErrMin= 5.43D-07
 ErrMax= 5.43D-07 EMaxC= 1.00D-01 BMatC= 1.77D-10 BMatP= 1.06D-08
 IDIUse=1 WtCom= 1.00D+00 WtEn= 0.00D+00
 Coeff-Com: -0.990D-02 0.403D-01 0.223D+00 0.180D+00 0.566D+00
 Coeff:     -0.990D-02 0.403D-01 0.223D+00 0.180D+00 0.566D+00
 Gap=     0.205 Goal=   None    Shift=    0.000
 RMSDP=6.20D-08 MaxDP=2.32D-06 DE=-8.24D-09 OVMax= 3.80D-06

 Cycle  14  Pass 1  IDiag  1:
 E= -692.583250757606     Delta-E=       -0.000000000146 Rises=F Damp=F
 DIIS: error= 1.96D-07 at cycle   6 NSaved=   6.
 NSaved= 6 IEnMin= 6 EnMin= -692.583250757606     IErMin= 6 ErrMin= 1.96D-07
 ErrMax= 1.96D-07 EMaxC= 1.00D-01 BMatC= 2.16D-11 BMatP= 1.77D-10
 IDIUse=1 WtCom= 1.00D+00 WtEn= 0.00D+00
 Coeff-Com: -0.468D-02 0.158D-01 0.923D-01 0.785D-01 0.331D+00 0.488D+00
 Coeff:     -0.468D-02 0.158D-01 0.923D-01 0.785D-01 0.331D+00 0.488D+00
 Gap=     0.205 Goal=   None    Shift=    0.000
 RMSDP=1.72D-08 MaxDP=6.99D-07 DE=-1.46D-10 OVMax= 1.26D-06

 Cycle  15  Pass 1  IDiag  1:
 E= -692.583250757650     Delta-E=       -0.000000000044 Rises=F Damp=F
 DIIS: error= 3.38D-08 at cycle   7 NSaved=   7.
 NSaved= 7 IEnMin= 7 EnMin= -692.583250757650     IErMin= 7 ErrMin= 3.38D-08
 ErrMax= 3.38D-08 EMaxC= 1.00D-01 BMatC= 1.11D-12 BMatP= 2.16D-11
 IDIUse=1 WtCom= 1.00D+00 WtEn= 0.00D+00
 Coeff-Com: -0.877D-03 0.201D-02 0.136D-01 0.131D-01 0.809D-01 0.219D+00
 Coeff-Com:  0.672D+00
 Coeff:     -0.877D-03 0.201D-02 0.136D-01 0.131D-01 0.809D-01 0.219D+00
 Coeff:      0.672D+00
 Gap=     0.205 Goal=   None    Shift=    0.000
 RMSDP=5.64D-09 MaxDP=1.95D-07 DE=-4.41D-11 OVMax= 3.85D-07

 SCF Done:  E(RB3LYP) =  -692.583250758     A.U. after   15 cycles
             Convg  =    0.5642D-08             -V/T =  2.0095
 KE= 6.860360220478D+02 PE=-3.573581010269D+03 EE= 1.214215309133D+03
 Leave Link  502 at Tue Sep 28 17:08:22 2021, MaxMem= 1342177280 cpu:     323.5
 (Enter /sw/target/amd/app/gaussian/Gaussian09RevA.02_gcc-4.9.2/g09/l508.exe)
 QCSCF skips out because SCF is already converged.
 Leave Link  508 at Tue Sep 28 17:08:28 2021, MaxMem= 1342177280 cpu:       0.0
 (Enter /sw/target/amd/app/gaussian/Gaussian09RevA.02_gcc-4.9.2/g09/l601.exe)
 Copying SCF densities to generalized density rwf, IOpCl= 0 IROHF=0.

 **********************************************************************

            Population analysis using the SCF density.

 **********************************************************************

 Orbital symmetries:
       Occupied  (A) (A) (A) (A) (A) (A) (A) (A) (A) (A) (A) (A)
                 (A) (A) (A) (A) (A) (A) (A) (A) (A) (A) (A) (A)
                 (A) (A) (A) (A) (A) (A) (A) (A) (A) (A) (A) (A)
                 (A) (A) (A) (A) (A) (A) (A) (A) (A) (A) (A) (A)
                 (A) (A) (A) (A) (A) (A) (A) (A)
       Virtual   (A) (A) (A) (A) (A) (A) (A) (A) (A) (A) (A) (A)
                 (A) (A) (A) (A) (A) (A) (A) (A) (A) (A) (A) (A)
                 (A) (A) (A) (A) (A) (A) (A) (A) (A) (A) (A) (A)
                 (A) (A) (A) (A) (A) (A) (A) (A) (A) (A) (A) (A)
                 (A) (A) (A) (A) (A) (A) (A) (A) (A) (A) (A) (A)
                 (A) (A) (A) (A) (A) (A) (A) (A) (A) (A) (A) (A)
                 (A) (A) (A) (A) (A) (A) (A) (A) (A) (A) (A) (A)
                 (A) (A) (A) (A) (A) (A) (A) (A) (A) (A) (A) (A)
                 (A) (A) (A) (A) (A) (A) (A) (A) (A) (A) (A) (A)
                 (A) (A) (A) (A) (A) (A) (A) (A) (A) (A) (A) (A)
                 (A) (A) (A) (A) (A) (A) (A) (A) (A) (A) (A) (A)
                 (A) (A) (A) (A) (A) (A) (A) (A) (A) (A) (A) (A)
                 (A) (A) (A) (A) (A) (A) (A) (A) (A) (A) (A) (A)
                 (A) (A) (A) (A) (A) (A) (A) (A) (A) (A) (A) (A)
                 (A) (A) (A) (A) (A) (A) (A) (A) (A) (A) (A) (A)
                 (A) (A) (A) (A) (A) (A) (A) (A) (A) (A) (A) (A)
                 (A) (A) (A) (A) (A) (A) (A) (A) (A)
 The electronic state is 1-A.
 Alpha  occ. eigenvalues --  -19.20093 -19.17470 -19.14331 -10.32064 -10.24643
 Alpha  occ. eigenvalues --  -10.24526 -10.23945 -10.21311 -10.19439 -10.19241
 Alpha  occ. eigenvalues --  -10.19112 -10.18870 -10.18333 -10.17726 -10.17441
 Alpha  occ. eigenvalues --   -1.09389  -1.06111  -1.01848  -0.85389  -0.82364
 Alpha  occ. eigenvalues --   -0.75611  -0.75192  -0.70146  -0.69245  -0.68393
 Alpha  occ. eigenvalues --   -0.64881  -0.61823  -0.58642  -0.55295  -0.52624
 Alpha  occ. eigenvalues --   -0.49753  -0.48420  -0.47587  -0.46940  -0.45771
 Alpha  occ. eigenvalues --   -0.44939  -0.43628  -0.43007  -0.42556  -0.42537
 Alpha  occ. eigenvalues --   -0.40819  -0.39951  -0.38822  -0.38158  -0.37380
 Alpha  occ. eigenvalues --   -0.36664  -0.36415  -0.35295  -0.33714  -0.33406
 Alpha  occ. eigenvalues --   -0.32967  -0.32681  -0.29649  -0.27112  -0.25172
 Alpha  occ. eigenvalues --   -0.21531
 Alpha virt. eigenvalues --   -0.00996  -0.00390   0.02539   0.08441   0.08667
 Alpha virt. eigenvalues --    0.10752   0.12336   0.13109   0.14142   0.14810
 Alpha virt. eigenvalues --    0.15266   0.15418   0.15513   0.16117   0.16475
 Alpha virt. eigenvalues --    0.17113   0.17419   0.18446   0.19242   0.19798
 Alpha virt. eigenvalues --    0.21508   0.22267   0.22311   0.23510   0.24066
 Alpha virt. eigenvalues --    0.24918   0.26546   0.30367   0.31304   0.34031
 Alpha virt. eigenvalues --    0.34607   0.35837   0.39357   0.48209   0.49091
 Alpha virt. eigenvalues --    0.50076   0.50625   0.51162   0.51714   0.52674
 Alpha virt. eigenvalues --    0.53117   0.54561   0.55836   0.56452   0.56720
 Alpha virt. eigenvalues --    0.58929   0.59198   0.60236   0.60470   0.60654
 Alpha virt. eigenvalues --    0.61914   0.63626   0.64309   0.66128   0.66448
 Alpha virt. eigenvalues --    0.68102   0.69646   0.70029   0.70741   0.72512
 Alpha virt. eigenvalues --    0.74826   0.75239   0.78679   0.80192   0.83024
 Alpha virt. eigenvalues --    0.83578   0.84050   0.84680   0.85068   0.86362
 Alpha virt. eigenvalues --    0.87223   0.88131   0.88518   0.88775   0.90065
 Alpha virt. eigenvalues --    0.90613   0.91107   0.92031   0.92724   0.93176
 Alpha virt. eigenvalues --    0.93274   0.94703   0.95854   0.97567   0.98175
 Alpha virt. eigenvalues --    0.98462   0.99239   1.01340   1.01609   1.03811
 Alpha virt. eigenvalues --    1.05790   1.07423   1.10710   1.13367   1.16459
 Alpha virt. eigenvalues --    1.17216   1.18634   1.22230   1.24559   1.25040
 Alpha virt. eigenvalues --    1.26819   1.31371   1.33324   1.35081   1.39049
 Alpha virt. eigenvalues --    1.39901   1.41987   1.44820   1.46006   1.47328
 Alpha virt. eigenvalues --    1.50055   1.51154   1.52912   1.53083   1.53767
 Alpha virt. eigenvalues --    1.61423   1.62946   1.66815   1.67840   1.71344
 Alpha virt. eigenvalues --    1.72599   1.76329   1.77645   1.78921   1.82038
 Alpha virt. eigenvalues --    1.83329   1.84324   1.85422   1.86303   1.86900
 Alpha virt. eigenvalues --    1.88028   1.90943   1.92881   1.93576   1.96924
 Alpha virt. eigenvalues --    1.97790   1.99132   2.00577   2.02226   2.03809
 Alpha virt. eigenvalues --    2.04653   2.06706   2.08558   2.09596   2.10310
 Alpha virt. eigenvalues --    2.10610   2.14451   2.15267   2.16013   2.19900
 Alpha virt. eigenvalues --    2.22203   2.24472   2.25006   2.26364   2.26445
 Alpha virt. eigenvalues --    2.28074   2.29055   2.30461   2.32520   2.33917
 Alpha virt. eigenvalues --    2.36338   2.39607   2.42706   2.47384   2.51358
 Alpha virt. eigenvalues --    2.52975   2.54380   2.58393   2.59596   2.62660
 Alpha virt. eigenvalues --    2.66090   2.66498   2.69533   2.73374   2.74677
 Alpha virt. eigenvalues --    2.75464   2.78200   2.81807   2.83012   2.91564
 Alpha virt. eigenvalues --    2.97056   2.99801   3.07688   3.12374   3.27952
 Alpha virt. eigenvalues --    3.43837   4.04238   4.07090   4.10809   4.12128
 Alpha virt. eigenvalues --    4.17214   4.22041   4.28376   4.31341   4.32395
 Alpha virt. eigenvalues --    4.32898   4.36817   4.48717   4.49766   4.71501
 Alpha virt. eigenvalues --    4.82308
          Condensed to atoms (all electrons):
              1          2          3          4          5          6
     1  C    4.899229   0.249531  -0.043398  -0.006277   0.000331   0.000000
     2  O    0.249531   8.209270   0.271077  -0.059850   0.003774   0.000152
     3  C   -0.043398   0.271077   4.516925   0.470934  -0.004410  -0.038227
     4  C   -0.006277  -0.059850   0.470934   5.109372   0.466739  -0.011506
     5  C    0.000331   0.003774  -0.004410   0.466739   5.000174   0.513980
     6  C    0.000000   0.000152  -0.038227  -0.011506   0.513980   4.550399
     7  C   -0.000158   0.003561  -0.018030  -0.037628  -0.067808   0.536886
     8  C    0.003306  -0.056066   0.544663  -0.066523  -0.034725  -0.018947
     9  O   -0.000000   0.000000   0.000137   0.003597  -0.047231   0.199426
    10  C    0.000000   0.000000   0.000022   0.000328  -0.003118  -0.008838
    11  O   -0.000000   0.000000   0.000004   0.000075  -0.000726  -0.002119
    12  C   -0.000000   0.000000   0.000000   0.000006   0.000255   0.004007
    13  C   -0.000000   0.000000   0.000000  -0.000001  -0.000022  -0.000001
    14  C    0.000000  -0.000000  -0.000000  -0.000000   0.000004  -0.000064
    15  C    0.000000  -0.000000   0.000000  -0.000000   0.000014  -0.000246
    16  H    0.382113  -0.030982   0.003670   0.000156   0.000003  -0.000000
    17  H    0.363984  -0.037958  -0.001233   0.004701  -0.000165  -0.000014
    18  H    0.365561  -0.035250  -0.007856   0.002937  -0.000173  -0.000000
    19  H    0.003795  -0.006414  -0.043949   0.352470  -0.035071   0.003239
    20  H   -0.000005  -0.000043   0.003137  -0.036853   0.350841  -0.031952
    21  H    0.000003  -0.000056   0.004293  -0.000033   0.006866  -0.037890
    22  H   -0.000180  -0.000247  -0.035037   0.007486  -0.000093   0.004268
    23  H    0.000000  -0.000000  -0.000000  -0.000000  -0.000000  -0.000013
    24  H    0.000000  -0.000000   0.000000  -0.000000   0.000001  -0.000052
    25  H   -0.000000  -0.000000  -0.000000   0.000000   0.000000   0.000001
    26  H   -0.000000  -0.000000  -0.000000   0.000000  -0.000000  -0.000006
    27  H   -0.000000  -0.000000  -0.000000   0.000000  -0.000000   0.000001
    28  H   -0.000000  -0.000000  -0.000000  -0.000000  -0.000001  -0.000010
    29  H   -0.000000  -0.000000   0.000000  -0.000000   0.000010   0.000080
    30  H    0.000000  -0.000000   0.000000  -0.000000  -0.000002  -0.000049
    31  H    0.000000  -0.000000   0.000000  -0.000000   0.000001   0.000008
              7          8          9         10         11         12
     1  C   -0.000158   0.003306  -0.000000   0.000000  -0.000000  -0.000000
     2  O    0.003561  -0.056066   0.000000   0.000000   0.000000   0.000000
     3  C   -0.018030   0.544663   0.000137   0.000022   0.000004   0.000000
     4  C   -0.037628  -0.066523   0.003597   0.000328   0.000075   0.000006
     5  C   -0.067808  -0.034725  -0.047231  -0.003118  -0.000726   0.000255
     6  C    0.536886  -0.018947   0.199426  -0.008838  -0.002119   0.004007
     7  C    4.987061   0.505281  -0.049523   0.000725   0.000234  -0.000379
     8  C    0.505281   4.987399   0.003228  -0.000044   0.000001   0.000002
     9  O   -0.049523   0.003228   8.354054   0.230770  -0.065292  -0.092269
    10  C    0.000725  -0.000044   0.230770   4.400630   0.526631   0.357663
    11  O    0.000234   0.000001  -0.065292   0.526631   8.065249  -0.075693
    12  C   -0.000379   0.000002  -0.092269   0.357663  -0.075693   4.969042
    13  C   -0.000000  -0.000000  -0.000458  -0.039759  -0.002772   0.373427
    14  C    0.000007  -0.000000   0.002804  -0.046911   0.000133   0.371011
    15  C   -0.000031   0.000001   0.000835  -0.042905   0.002512   0.354847
    16  H    0.000003  -0.000113  -0.000000  -0.000000   0.000000   0.000000
    17  H   -0.000030   0.000899   0.000000  -0.000000  -0.000000   0.000000
    18  H    0.000016  -0.000213   0.000000   0.000000   0.000000  -0.000000
    19  H    0.000630   0.004738  -0.000049  -0.000013  -0.000009  -0.000000
    20  H    0.005232   0.000376  -0.006737   0.001419   0.010795  -0.000009
    21  H    0.348121  -0.039073  -0.001236  -0.000037   0.000011  -0.000060
    22  H   -0.040640   0.346983  -0.000049  -0.000000  -0.000000  -0.000000
    23  H    0.000000  -0.000000   0.000005  -0.002853   0.002556  -0.032391
    24  H    0.000002  -0.000000   0.003366  -0.004398  -0.000055  -0.030951
    25  H   -0.000000   0.000000  -0.000056   0.004386  -0.000053  -0.029557
    26  H   -0.000000  -0.000000   0.000090  -0.006353   0.006892  -0.025629
    27  H   -0.000000   0.000000  -0.000040   0.005056   0.000425  -0.029050
    28  H   -0.000000   0.000000   0.000047  -0.003839   0.000951  -0.030423
    29  H    0.000007  -0.000000   0.005459  -0.006785   0.000004  -0.023669
    30  H    0.000009   0.000000   0.001007  -0.003217   0.000095  -0.032260
    31  H   -0.000002   0.000000   0.000405   0.003858  -0.000057  -0.027067
             13         14         15         16         17         18
     1  C   -0.000000   0.000000   0.000000   0.382113   0.363984   0.365561
     2  O    0.000000  -0.000000  -0.000000  -0.030982  -0.037958  -0.035250
     3  C    0.000000  -0.000000   0.000000   0.003670  -0.001233  -0.007856
     4  C   -0.000001  -0.000000  -0.000000   0.000156   0.004701   0.002937
     5  C   -0.000022   0.000004   0.000014   0.000003  -0.000165  -0.000173
     6  C   -0.000001  -0.000064  -0.000246  -0.000000  -0.000014  -0.000000
     7  C   -0.000000   0.000007  -0.000031   0.000003  -0.000030   0.000016
     8  C   -0.000000  -0.000000   0.000001  -0.000113   0.000899  -0.000213
     9  O   -0.000458   0.002804   0.000835  -0.000000   0.000000   0.000000
    10  C   -0.039759  -0.046911  -0.042905  -0.000000  -0.000000   0.000000
    11  O   -0.002772   0.000133   0.002512   0.000000  -0.000000   0.000000
    12  C    0.373427   0.371011   0.354847   0.000000   0.000000  -0.000000
    13  C    5.131131  -0.053879  -0.055530  -0.000000  -0.000000   0.000000
    14  C   -0.053879   5.136247  -0.066431   0.000000   0.000000  -0.000000
    15  C   -0.055530  -0.066431   5.156145  -0.000000  -0.000000   0.000000
    16  H   -0.000000   0.000000  -0.000000   0.546598  -0.031688  -0.036080
    17  H   -0.000000   0.000000  -0.000000  -0.031688   0.592942  -0.046018
    18  H    0.000000  -0.000000   0.000000  -0.036080  -0.046018   0.601830
    19  H   -0.000000   0.000000   0.000000  -0.000136   0.000808   0.003257
    20  H   -0.000013   0.000006  -0.000002  -0.000000  -0.000003   0.000009
    21  H    0.000001   0.000001   0.000093  -0.000000   0.000000  -0.000000
    22  H   -0.000000   0.000000  -0.000000  -0.000032   0.000034   0.000029
    23  H    0.367563  -0.004499   0.005961  -0.000000  -0.000000   0.000000
    24  H    0.367670   0.005762  -0.005355   0.000000   0.000000  -0.000000
    25  H    0.371865  -0.005394  -0.004812   0.000000   0.000000  -0.000000
    26  H   -0.003970   0.366571   0.005738  -0.000000  -0.000000   0.000000
    27  H   -0.005131   0.364180  -0.004862  -0.000000   0.000000  -0.000000
    28  H    0.005352   0.371364  -0.003834  -0.000000  -0.000000   0.000000
    29  H   -0.004611   0.005540   0.365045   0.000000   0.000000  -0.000000
    30  H    0.005319  -0.003113   0.371410  -0.000000  -0.000000   0.000000
    31  H   -0.004601  -0.005542   0.363741   0.000000  -0.000000   0.000000
             19         20         21         22         23         24
     1  C    0.003795  -0.000005   0.000003  -0.000180   0.000000   0.000000
     2  O   -0.006414  -0.000043  -0.000056  -0.000247  -0.000000  -0.000000
     3  C   -0.043949   0.003137   0.004293  -0.035037  -0.000000   0.000000
     4  C    0.352470  -0.036853  -0.000033   0.007486  -0.000000  -0.000000
     5  C   -0.035071   0.350841   0.006866  -0.000093  -0.000000   0.000001
     6  C    0.003239  -0.031952  -0.037890   0.004268  -0.000013  -0.000052
     7  C    0.000630   0.005232   0.348121  -0.040640   0.000000   0.000002
     8  C    0.004738   0.000376  -0.039073   0.346983  -0.000000  -0.000000
     9  O   -0.000049  -0.006737  -0.001236  -0.000049   0.000005   0.003366
    10  C   -0.000013   0.001419  -0.000037  -0.000000  -0.002853  -0.004398
    11  O   -0.000009   0.010795   0.000011  -0.000000   0.002556  -0.000055
    12  C   -0.000000  -0.000009  -0.000060  -0.000000  -0.032391  -0.030951
    13  C   -0.000000  -0.000013   0.000001  -0.000000   0.367563   0.367670
    14  C    0.000000   0.000006   0.000001   0.000000  -0.004499   0.005762
    15  C    0.000000  -0.000002   0.000093  -0.000000   0.005961  -0.005355
    16  H   -0.000136  -0.000000  -0.000000  -0.000032  -0.000000   0.000000
    17  H    0.000808  -0.000003   0.000000   0.000034  -0.000000   0.000000
    18  H    0.003257   0.000009  -0.000000   0.000029   0.000000  -0.000000
    19  H    0.584961  -0.005811   0.000014  -0.000164   0.000000   0.000000
    20  H   -0.005811   0.545147  -0.000150   0.000010   0.000011   0.000010
    21  H    0.000014  -0.000150   0.582659  -0.006709  -0.000000   0.000001
    22  H   -0.000164   0.000010  -0.006709   0.581933   0.000000   0.000000
    23  H    0.000000   0.000011  -0.000000   0.000000   0.560781  -0.029837
    24  H    0.000000   0.000010   0.000001   0.000000  -0.029837   0.562646
    25  H   -0.000000   0.000000  -0.000000  -0.000000  -0.028622  -0.028836
    26  H    0.000000  -0.000001  -0.000000   0.000000   0.004037  -0.000057
    27  H   -0.000000  -0.000000  -0.000000  -0.000000  -0.000143  -0.000027
    28  H    0.000000  -0.000001  -0.000000   0.000000  -0.000067  -0.000192
    29  H    0.000000   0.000000   0.000219  -0.000000  -0.000055   0.004416
    30  H    0.000000  -0.000000   0.000082  -0.000000  -0.000189  -0.000029
    31  H    0.000000   0.000000   0.000001  -0.000000  -0.000077  -0.000175
             25         26         27         28         29         30
     1  C   -0.000000  -0.000000  -0.000000  -0.000000  -0.000000   0.000000
     2  O   -0.000000  -0.000000  -0.000000  -0.000000  -0.000000  -0.000000
     3  C   -0.000000  -0.000000  -0.000000  -0.000000   0.000000   0.000000
     4  C    0.000000   0.000000   0.000000  -0.000000  -0.000000  -0.000000
     5  C    0.000000  -0.000000  -0.000000  -0.000001   0.000010  -0.000002
     6  C    0.000001  -0.000006   0.000001  -0.000010   0.000080  -0.000049
     7  C   -0.000000  -0.000000  -0.000000  -0.000000   0.000007   0.000009
     8  C    0.000000  -0.000000   0.000000   0.000000  -0.000000   0.000000
     9  O   -0.000056   0.000090  -0.000040   0.000047   0.005459   0.001007
    10  C    0.004386  -0.006353   0.005056  -0.003839  -0.006785  -0.003217
    11  O   -0.000053   0.006892   0.000425   0.000951   0.000004   0.000095
    12  C   -0.029557  -0.025629  -0.029050  -0.030423  -0.023669  -0.032260
    13  C    0.371865  -0.003970  -0.005131   0.005352  -0.004611   0.005319
    14  C   -0.005394   0.366571   0.364180   0.371364   0.005540  -0.003113
    15  C   -0.004812   0.005738  -0.004862  -0.003834   0.365045   0.371410
    16  H    0.000000  -0.000000  -0.000000  -0.000000   0.000000  -0.000000
    17  H    0.000000  -0.000000   0.000000  -0.000000   0.000000  -0.000000
    18  H   -0.000000   0.000000  -0.000000   0.000000  -0.000000   0.000000
    19  H   -0.000000   0.000000  -0.000000   0.000000   0.000000   0.000000
    20  H    0.000000  -0.000001  -0.000000  -0.000001   0.000000  -0.000000
    21  H   -0.000000  -0.000000  -0.000000  -0.000000   0.000219   0.000082
    22  H   -0.000000   0.000000  -0.000000   0.000000  -0.000000  -0.000000
    23  H   -0.028622   0.004037  -0.000143  -0.000067  -0.000055  -0.000189
    24  H   -0.028836  -0.000057  -0.000027  -0.000192   0.004416  -0.000029
    25  H    0.561946  -0.000254   0.003541   0.000012  -0.000133  -0.000029
    26  H   -0.000254   0.547232  -0.029894  -0.027221  -0.000195  -0.000059
    27  H    0.003541  -0.029894   0.583780  -0.030229  -0.000010  -0.000145
    28  H    0.000012  -0.027221  -0.030229   0.565894  -0.000040   0.003749
    29  H   -0.000133  -0.000195  -0.000010  -0.000040   0.554789  -0.028309
    30  H   -0.000029  -0.000059  -0.000145   0.003749  -0.028309   0.568496
    31  H    0.003377  -0.000001   0.003153  -0.000181  -0.030085  -0.029730
             31
     1  C    0.000000
     2  O   -0.000000
     3  C    0.000000
     4  C   -0.000000
     5  C    0.000001
     6  C    0.000008
     7  C   -0.000002
     8  C    0.000000
     9  O    0.000405
    10  C    0.003858
    11  O   -0.000057
    12  C   -0.027067
    13  C   -0.004601
    14  C   -0.005542
    15  C    0.363741
    16  H    0.000000
    17  H   -0.000000
    18  H    0.000000
    19  H    0.000000
    20  H    0.000000
    21  H    0.000001
    22  H   -0.000000
    23  H   -0.000077
    24  H   -0.000175
    25  H    0.003377
    26  H   -0.000001
    27  H    0.003153
    28  H   -0.000181
    29  H   -0.030085
    30  H   -0.029730
    31  H    0.580769
 Mulliken atomic charges:
              1
     1  C   -0.217835
     2  O   -0.510499
     3  C    0.377276
     4  C   -0.200130
     5  C   -0.149448
     6  C    0.337487
     7  C   -0.173545
     8  C   -0.181173
     9  O   -0.542289
    10  C    0.637583
    11  O   -0.469794
    12  C   -0.000855
    13  C   -0.451580
    14  C   -0.437798
    15  C   -0.442331
    16  H    0.166488
    17  H    0.153742
    18  H    0.151950
    19  H    0.137704
    20  H    0.164586
    21  H    0.142880
    22  H    0.142408
    23  H    0.157834
    24  H    0.156090
    25  H    0.152618
    26  H    0.163078
    27  H    0.139393
    28  H    0.148668
    29  H    0.158322
    30  H    0.146965
    31  H    0.142206
 Sum of Mulliken atomic charges =  -0.00000
 Mulliken charges with hydrogens summed into heavy atoms:
              1
     1  C    0.254344
     2  O   -0.510499
     3  C    0.377276
     4  C   -0.062426
     5  C    0.015139
     6  C    0.337487
     7  C   -0.030665
     8  C   -0.038764
     9  O   -0.542289
    10  C    0.637583
    11  O   -0.469794
    12  C   -0.000855
    13  C    0.014961
    14  C    0.013341
    15  C    0.005162
 Sum of Mulliken charges with hydrogens summed into heavy atoms =  -0.00000
 Electronic spatial extent (au):  <R**2>=           4763.7879
 Charge=             -0.0000 electrons
 Dipole moment (field-independent basis, Debye):
    X=             -0.2947    Y=              0.3109    Z=              1.4704  Tot=              1.5315
 Quadrupole moment (field-independent basis, Debye-Ang):
   XX=            -74.2695   YY=            -87.2169   ZZ=            -91.3001
   XY=              7.6986   XZ=             -1.6303   YZ=             -3.2199
 Traceless Quadrupole moment (field-independent basis, Debye-Ang):
   XX=              9.9926   YY=             -2.9547   ZZ=             -7.0379
   XY=              7.6986   XZ=             -1.6303   YZ=             -3.2199
 Octapole moment (field-independent basis, Debye-Ang**2):
  XXX=            -35.3086  YYY=              4.2171  ZZZ=             -2.0571  XYY=            -18.0511
  XXY=            -28.3787  XXZ=             19.9012  XZZ=              2.7743  YZZ=             -0.1457
  YYZ=              2.1808  XYZ=             -2.5245
 Hexadecapole moment (field-independent basis, Debye-Ang**3):
 XXXX=          -4843.0857 YYYY=           -623.0300 ZZZZ=           -303.5034 XXXY=            157.5595
 XXXZ=            -63.5015 YYYX=             -9.0958 YYYZ=             -6.6967 ZZZX=             -2.9749
 ZZZY=              3.5327 XXYY=           -977.5051 XXZZ=           -958.3113 YYZZ=           -164.9477
 XXYZ=             -6.7039 YYXZ=             11.3579 ZZXY=              2.4276
 N-N= 9.807464283302D+02 E-N=-3.573581020376D+03  KE= 6.860360220478D+02
 No NMR shielding tensors so no spin-rotation constants.
 Leave Link  601 at Tue Sep 28 17:08:33 2021, MaxMem= 1342177280 cpu:       1.7
 (Enter /sw/target/amd/app/gaussian/Gaussian09RevA.02_gcc-4.9.2/g09/l701.exe)
 Compute integral first derivatives.
 ... and contract with generalized density number  0.
 Leave Link  701 at Tue Sep 28 17:08:35 2021, MaxMem= 1342177280 cpu:       1.6
 (Enter /sw/target/amd/app/gaussian/Gaussian09RevA.02_gcc-4.9.2/g09/l702.exe)
 L702 exits ... SP integral derivatives will be done elsewhere.
 Leave Link  702 at Tue Sep 28 17:08:35 2021, MaxMem= 1342177280 cpu:       0.1
 (Enter /sw/target/amd/app/gaussian/Gaussian09RevA.02_gcc-4.9.2/g09/l703.exe)
 Compute integral first derivatives, UseDBF=F ICtDFT=           0.
 Integral derivatives from FoFDir, PRISM(SPDF).
 Calling FoFJK, ICntrl=      2127 FMM=F ISym2X=0 I1Cent= 0 IOpClX= 0 NMat=1 NMatS=1 NMatT=0.
 FoFCou: FMM=F IPFlag=           0 FMFlag=      100000 FMFlg1=         800
         NFxFlg=           0 DoJE=F BraDBF=F KetDBF=F FulRan=T
         Omega=  0.000000  0.000000  1.000000  0.000000  0.000000 ICntrl=    2127 IOpCl=  0
         NMat0=    1 NMatS0=    1 NMatT0=    0 NMatD0=    1 NMtDS0=    0 NMtDT0=    0
         I1Cent=           0 NGrid=           0.
 Symmetry not used in FoFCou.
 Leave Link  703 at Tue Sep 28 17:10:05 2021, MaxMem= 1342177280 cpu:     110.8
 (Enter /sw/target/amd/app/gaussian/Gaussian09RevA.02_gcc-4.9.2/g09/l716.exe)
 Dipole        =-1.15926002D-01 1.22309137D-01 5.78495108D-01
 ***** Axes restored to original set *****
 -------------------------------------------------------------------
 Center     Atomic                   Forces (Hartrees/Bohr)
 Number     Number              X              Y              Z
 -------------------------------------------------------------------
      1        6          -0.002415168   -0.005730811   -0.005707848
      2        8          -0.005783332    0.003970494   -0.003216584
      3        6           0.004649024   -0.005895929   -0.000155841
      4        6          -0.001497253    0.002817153    0.001498873
      5        6          -0.002849948    0.001134436    0.000626068
      6        6           0.000653847    0.005048859    0.005816262
      7        6          -0.001355392   -0.005794163   -0.003519891
      8        6           0.007322234    0.003324788    0.004555551
      9        8          -0.013567122    0.000000586    0.012570406
     10        6          -0.014149507   -0.002417286   -0.001802910
     11        8           0.026533866    0.002173241   -0.014735227
     12        6           0.006134194   -0.005675599    0.006327069
     13        6          -0.003192974    0.008630774   -0.005234821
     14        6          -0.008387796   -0.001224945    0.004547155
     15        6           0.004629737   -0.001533010   -0.007356571
     16        1           0.003568153   -0.002099993    0.001532431
     17        1          -0.001441435    0.002778213    0.002875736
     18        1          -0.000965370    0.002614305    0.001285351
     19        1           0.000964141    0.000266098   -0.002400934
     20        1           0.002820247   -0.002679256   -0.000414491
     21        1          -0.001328020    0.001087119    0.002027868
     22        1          -0.002218173    0.001049550   -0.000291907
     23        1          -0.000207834   -0.000406302    0.001445650
     24        1           0.000817197   -0.000243106   -0.000281019
     25        1           0.000493482   -0.001938541    0.000563592
     26        1           0.001130350   -0.000916778   -0.001447161
     27        1           0.001641698    0.000681267   -0.002509468
     28        1           0.000425556    0.000724293    0.000173688
     29        1          -0.000950980   -0.000563888    0.000614462
     30        1           0.000671371    0.000148636    0.000854662
     31        1          -0.002144791    0.000669794    0.001759850
 -------------------------------------------------------------------
 Cartesian Forces:  Max     0.026533866 RMS     0.005066303
 Leave Link  716 at Tue Sep 28 17:10:06 2021, MaxMem= 1342177280 cpu:       0.1
 (Enter /sw/target/amd/app/gaussian/Gaussian09RevA.02_gcc-4.9.2/g09/l103.exe)

 GradGradGradGradGradGradGradGradGradGradGradGradGradGradGradGradGradGrad
 Berny optimization.
 Internal  Forces:  Max     0.029697191 RMS     0.003684827
 Search for a local minimum.
 Step number   1 out of a maximum of  160
 All quantities printed in internal units (Hartrees-Bohrs-Radians)
 RMS Force = .36848D-02 SwitMx=.10000D-02 MixMth= 1
 Mixed Optimization -- RFO/linear search
 Second derivative matrix not updated -- first step.
     Eigenvalues ---    0.00275   0.00282   0.00324   0.00339   0.00696
     Eigenvalues ---    0.01391   0.01613   0.01745   0.02079   0.02120
     Eigenvalues ---    0.02124   0.02131   0.02132   0.02138   0.02147
     Eigenvalues ---    0.02158   0.02162   0.02176   0.04758   0.05108
     Eigenvalues ---    0.05378   0.05390   0.05432   0.05443   0.05444
     Eigenvalues ---    0.05477   0.05519   0.09945   0.10542   0.14789
     Eigenvalues ---    0.15271   0.15994   0.15998   0.15999   0.16000
     Eigenvalues ---    0.16000   0.16000   0.16000   0.16000   0.16000
     Eigenvalues ---    0.16000   0.16000   0.16000   0.16000   0.16000
     Eigenvalues ---    0.16000   0.16000   0.21992   0.22978   0.23988
     Eigenvalues ---    0.24972   0.24984   0.24990   0.25000   0.25000
     Eigenvalues ---    0.25000   0.28775   0.28826   0.29108   0.29218
     Eigenvalues ---    0.34035   0.34051   0.34116   0.34122   0.34143
     Eigenvalues ---    0.34151   0.34154   0.34157   0.34203   0.34211
     Eigenvalues ---    0.34236   0.34345   0.35138   0.35151   0.35345
     Eigenvalues ---    0.35398   0.41985   0.42052   0.42449   0.44651
     Eigenvalues ---    0.46087   0.46265   0.46290   0.46498   0.46696
     Eigenvalues ---    0.51440   0.934161000.000001000.000001000.00000
     Eigenvalues --- 1000.000001000.000001000.000001000.000001000.00000
     Eigenvalues --- 1000.000001000.000001000.000001000.000001000.00000
     Eigenvalues --- 1000.000001000.000001000.000001000.000001000.00000
     Eigenvalues --- 1000.000001000.000001000.000001000.000001000.00000
     Eigenvalues --- 1000.000001000.000001000.000001000.000001000.00000
     Eigenvalues --- 1000.000001000.000001000.000001000.000001000.00000
     Eigenvalues --- 1000.000001000.000001000.000001000.000001000.00000
     Eigenvalues --- 1000.000001000.000001000.000001000.000001000.00000
     Eigenvalues --- 1000.000001000.000001000.000001000.000001000.00000
     Eigenvalues --- 1000.000001000.000001000.000001000.000001000.00000
     Eigenvalues --- 1000.000001000.000001000.000001000.000001000.00000
     Eigenvalues --- 1000.000001000.000001000.000001000.000001000.00000
 RFO step:  Lambda=-6.71837264D-03 EMin= 2.74802005D-03
 Linear search not attempted -- first point.
 Maximum step size (   0.300) exceeded in Quadratic search.
    -- Step size scaled by   0.953
 Iteration  1 RMS(Cart)=  0.08421146 RMS(Int)=  0.00310442
 Iteration  2 RMS(Cart)=  0.00465052 RMS(Int)=  0.00013293
 Iteration  3 RMS(Cart)=  0.00001466 RMS(Int)=  0.00013265
 Iteration  4 RMS(Cart)=  0.00000000 RMS(Int)=  0.00013265
 Variable       Old X    -DE/DX   Delta X   Delta X   Delta X     New X
                                 (Linear)    (Quad)   (Total)
    R1        2.68856  -0.00010   0.00000  -0.00023  -0.00023   2.68834
    R2        2.06934  -0.00122   0.00000  -0.00333  -0.00333   2.06600
    R3        2.06975   0.00132   0.00000   0.00361   0.00361   2.07336
    R4        2.06751   0.00163   0.00000   0.00443   0.00443   2.07195
    R5        2.58440   0.00490   0.00000   0.00896   0.00896   2.59336
    R6        2.63794   0.00248   0.00000   0.00531   0.00532   2.64326
    R7        2.64249   0.00254   0.00000   0.00516   0.00515   2.64765
    R8        2.63947   0.00144   0.00000   0.00327   0.00329   2.64275
    R9        2.05033  -0.00076   0.00000  -0.00200  -0.00200   2.04833
   R10        2.63211   0.00019   0.00000   0.00043   0.00043   2.63254
   R11        2.05119  -0.00323   0.00000  -0.00856  -0.00856   2.04263
[...]
 Molar volume = 1798.080 bohr**3/mol (160.459 cm**3/mol)
 Recommended a0 for SCRF calculation =  4.89 angstrom (  9.25 bohr)
 Leave Link  604 at Wed Sep 29 00:19:06 2021, MaxMem= 1342177280 cpu:       0.4
 (Enter /sw/target/amd/app/gaussian/Gaussian09RevA.02_gcc-4.9.2/g09/l607.exe)
 ******************************Gaussian NBO Version 3.1******************************
             N A T U R A L   A T O M I C   O R B I T A L   A N D
          N A T U R A L   B O N D   O R B I T A L   A N A L Y S I S
 ******************************Gaussian NBO Version 3.1******************************
       /RESON  / : Allow strongly delocalized NBO set

 Analyzing the CI density

 Job title: COc1ccc(cc1)OC(=O)C(C)(C)C_conf_0                               

 Storage needed:    201318 in NPA (1342172165 available)


 NATURAL POPULATIONS:  Natural atomic orbital occupancies 
                                                          
   NAO  Atom  No  lang   Type(AO)    Occupancy
 --------------------------------------------
     1    C    1  S      Cor( 1S)     1.99942
     2    C    1  S      Val( 2S)     1.10449
     3    C    1  S      Ryd( 3S)     0.00149
     4    C    1  S      Ryd( 4S)     0.00003
     5    C    1  px     Val( 2p)     1.08863
     6    C    1  px     Ryd( 3p)     0.00237
     7    C    1  py     Val( 2p)     0.89249
     8    C    1  py     Ryd( 3p)     0.00328
     9    C    1  pz     Val( 2p)     1.22664
    10    C    1  pz     Ryd( 3p)     0.00044
    11    C    1  dxy    Ryd( 3d)     0.00156
    12    C    1  dxz    Ryd( 3d)     0.00056
    13    C    1  dyz    Ryd( 3d)     0.00161
    14    C    1  dx2y2  Ryd( 3d)     0.00153
    15    C    1  dz2    Ryd( 3d)     0.00121

    16    O    2  S      Cor( 1S)     1.99975
    17    O    2  S      Val( 2S)     1.59793
    18    O    2  S      Ryd( 3S)     0.00077
    19    O    2  S      Ryd( 4S)     0.00006
    20    O    2  px     Val( 2p)     1.46009
    21    O    2  px     Ryd( 3p)     0.00120
    22    O    2  py     Val( 2p)     1.64883
    23    O    2  py     Ryd( 3p)     0.00194
    24    O    2  pz     Val( 2p)     1.70858
    25    O    2  pz     Ryd( 3p)     0.00222
    26    O    2  dxy    Ryd( 3d)     0.00131
    27    O    2  dxz    Ryd( 3d)     0.00079
    28    O    2  dyz    Ryd( 3d)     0.00124
    29    O    2  dx2y2  Ryd( 3d)     0.00129
    30    O    2  dz2    Ryd( 3d)     0.00085

    31    C    3  S      Cor( 1S)     1.99879
    32    C    3  S      Val( 2S)     0.84234
    33    C    3  S      Ryd( 3S)     0.00153
    34    C    3  S      Ryd( 4S)     0.00012
    35    C    3  px     Val( 2p)     0.74273
    36    C    3  px     Ryd( 3p)     0.00698
    37    C    3  py     Val( 2p)     1.08756
    38    C    3  py     Ryd( 3p)     0.00560
    39    C    3  pz     Val( 2p)     0.97394
    40    C    3  pz     Ryd( 3p)     0.00202
    41    C    3  dxy    Ryd( 3d)     0.00132
    42    C    3  dxz    Ryd( 3d)     0.00165
    43    C    3  dyz    Ryd( 3d)     0.00124
    44    C    3  dx2y2  Ryd( 3d)     0.00184
    45    C    3  dz2    Ryd( 3d)     0.00066

    46    C    4  S      Cor( 1S)     1.99906
    47    C    4  S      Val( 2S)     0.95780
    48    C    4  S      Ryd( 3S)     0.00064
    49    C    4  S      Ryd( 4S)     0.00005
    50    C    4  px     Val( 2p)     1.09635
    51    C    4  px     Ryd( 3p)     0.00407
    52    C    4  py     Val( 2p)     1.15515
    53    C    4  py     Ryd( 3p)     0.00394
    54    C    4  pz     Val( 2p)     1.10235
    55    C    4  pz     Ryd( 3p)     0.00542
    56    C    4  dxy    Ryd( 3d)     0.00082
    57    C    4  dxz    Ryd( 3d)     0.00067
    58    C    4  dyz    Ryd( 3d)     0.00044
    59    C    4  dx2y2  Ryd( 3d)     0.00053
    60    C    4  dz2    Ryd( 3d)     0.00048

    61    C    5  S      Cor( 1S)     1.99904
    62    C    5  S      Val( 2S)     0.95653
    63    C    5  S      Ryd( 3S)     0.00088
    64    C    5  S      Ryd( 4S)     0.00005
    65    C    5  px     Val( 2p)     1.08782
    66    C    5  px     Ryd( 3p)     0.00469
    67    C    5  py     Val( 2p)     1.15865
    68    C    5  py     Ryd( 3p)     0.00485
    69    C    5  pz     Val( 2p)     1.10486
    70    C    5  pz     Ryd( 3p)     0.00641
    71    C    5  dxy    Ryd( 3d)     0.00073
    72    C    5  dxz    Ryd( 3d)     0.00060
    73    C    5  dyz    Ryd( 3d)     0.00050
    74    C    5  dx2y2  Ryd( 3d)     0.00059
    75    C    5  dz2    Ryd( 3d)     0.00044

    76    C    6  S      Cor( 1S)     1.99870
    77    C    6  S      Val( 2S)     0.84801
    78    C    6  S      Ryd( 3S)     0.00135
    79    C    6  S      Ryd( 4S)     0.00011
    80    C    6  px     Val( 2p)     0.73216
    81    C    6  px     Ryd( 3p)     0.00668
    82    C    6  py     Val( 2p)     1.08572
    83    C    6  py     Ryd( 3p)     0.00600
    84    C    6  pz     Val( 2p)     0.96076
    85    C    6  pz     Ryd( 3p)     0.00284
    86    C    6  dxy    Ryd( 3d)     0.00131
    87    C    6  dxz    Ryd( 3d)     0.00130
    88    C    6  dyz    Ryd( 3d)     0.00117
    89    C    6  dx2y2  Ryd( 3d)     0.00175
    90    C    6  dz2    Ryd( 3d)     0.00065

    91    C    7  S      Cor( 1S)     1.99904
    92    C    7  S      Val( 2S)     0.96043
    93    C    7  S      Ryd( 3S)     0.00072
    94    C    7  S      Ryd( 4S)     0.00005
    95    C    7  px     Val( 2p)     1.09366
    96    C    7  px     Ryd( 3p)     0.00503
    97    C    7  py     Val( 2p)     1.15329
    98    C    7  py     Ryd( 3p)     0.00454
    99    C    7  pz     Val( 2p)     1.07831
   100    C    7  pz     Ryd( 3p)     0.00554
   101    C    7  dxy    Ryd( 3d)     0.00079
   102    C    7  dxz    Ryd( 3d)     0.00068
   103    C    7  dyz    Ryd( 3d)     0.00045
   104    C    7  dx2y2  Ryd( 3d)     0.00056
   105    C    7  dz2    Ryd( 3d)     0.00047

   106    C    8  S      Cor( 1S)     1.99907
   107    C    8  S      Val( 2S)     0.95751
   108    C    8  S      Ryd( 3S)     0.00080
   109    C    8  S      Ryd( 4S)     0.00005
   110    C    8  px     Val( 2p)     1.09199
   111    C    8  px     Ryd( 3p)     0.00536
   112    C    8  py     Val( 2p)     1.14001
   113    C    8  py     Ryd( 3p)     0.00464
   114    C    8  pz     Val( 2p)     1.11584
   115    C    8  pz     Ryd( 3p)     0.00680
   116    C    8  dxy    Ryd( 3d)     0.00078
   117    C    8  dxz    Ryd( 3d)     0.00062
   118    C    8  dyz    Ryd( 3d)     0.00045
   119    C    8  dx2y2  Ryd( 3d)     0.00054
   120    C    8  dz2    Ryd( 3d)     0.00045

   121    O    9  S      Cor( 1S)     1.99969
   122    O    9  S      Val( 2S)     1.59863
   123    O    9  S      Ryd( 3S)     0.00132
   124    O    9  S      Ryd( 4S)     0.00010
   125    O    9  px     Val( 2p)     1.44438
   126    O    9  px     Ryd( 3p)     0.00095
   127    O    9  py     Val( 2p)     1.75928
   128    O    9  py     Ryd( 3p)     0.00225
   129    O    9  pz     Val( 2p)     1.71040
   130    O    9  pz     Ryd( 3p)     0.00140
   131    O    9  dxy    Ryd( 3d)     0.00094
   132    O    9  dxz    Ryd( 3d)     0.00079
   133    O    9  dyz    Ryd( 3d)     0.00112
   134    O    9  dx2y2  Ryd( 3d)     0.00116
   135    O    9  dz2    Ryd( 3d)     0.00120

   136    C   10  S      Cor( 1S)     1.99928
   137    C   10  S      Val( 2S)     0.77911
   138    C   10  S      Ryd( 3S)     0.00661
   139    C   10  S      Ryd( 4S)     0.00049
   140    C   10  px     Val( 2p)     0.87042
   141    C   10  px     Ryd( 3p)     0.00622
   142    C   10  py     Val( 2p)     0.72284
   143    C   10  py     Ryd( 3p)     0.01635
   144    C   10  pz     Val( 2p)     0.74371
   145    C   10  pz     Ryd( 3p)     0.00958
   146    C   10  dxy    Ryd( 3d)     0.00273
   147    C   10  dxz    Ryd( 3d)     0.00190
   148    C   10  dyz    Ryd( 3d)     0.00120
   149    C   10  dx2y2  Ryd( 3d)     0.00205
   150    C   10  dz2    Ryd( 3d)     0.00178

   151    O   11  S      Cor( 1S)     1.99977
   152    O   11  S      Val( 2S)     1.69668
   153    O   11  S      Ryd( 3S)     0.00058
   154    O   11  S      Ryd( 4S)     0.00014
   155    O   11  px     Val( 2p)     1.81589
   156    O   11  px     Ryd( 3p)     0.00167
   157    O   11  py     Val( 2p)     1.55045
   158    O   11  py     Ryd( 3p)     0.00063
   159    O   11  pz     Val( 2p)     1.48756
   160    O   11  pz     Ryd( 3p)     0.00061
   161    O   11  dxy    Ryd( 3d)     0.00333
   162    O   11  dxz    Ryd( 3d)     0.00200
   163    O   11  dyz    Ryd( 3d)     0.00429
   164    O   11  dx2y2  Ryd( 3d)     0.00346
   165    O   11  dz2    Ryd( 3d)     0.00323

   166    C   12  S      Cor( 1S)     1.99905
   167    C   12  S      Val( 2S)     0.94094
   168    C   12  S      Ryd( 3S)     0.00046
   169    C   12  S      Ryd( 4S)     0.00003
   170    C   12  px     Val( 2p)     1.06168
   171    C   12  px     Ryd( 3p)     0.00198
   172    C   12  py     Val( 2p)     1.07012
   173    C   12  py     Ryd( 3p)     0.00336
   174    C   12  pz     Val( 2p)     1.06667
   175    C   12  pz     Ryd( 3p)     0.00264
   176    C   12  dxy    Ryd( 3d)     0.00065
   177    C   12  dxz    Ryd( 3d)     0.00054
   178    C   12  dyz    Ryd( 3d)     0.00072
   179    C   12  dx2y2  Ryd( 3d)     0.00104
   180    C   12  dz2    Ryd( 3d)     0.00097

   181    C   13  S      Cor( 1S)     1.99938
   182    C   13  S      Val( 2S)     1.09569
   183    C   13  S      Ryd( 3S)     0.00058
   184    C   13  S      Ryd( 4S)     0.00002
   185    C   13  px     Val( 2p)     1.24650
   186    C   13  px     Ryd( 3p)     0.00189
   187    C   13  py     Val( 2p)     1.25237
   188    C   13  py     Ryd( 3p)     0.00238
   189    C   13  pz     Val( 2p)     1.06648
   190    C   13  pz     Ryd( 3p)     0.00153
   191    C   13  dxy    Ryd( 3d)     0.00057
   192    C   13  dxz    Ryd( 3d)     0.00049
   193    C   13  dyz    Ryd( 3d)     0.00076
   194    C   13  dx2y2  Ryd( 3d)     0.00084
   195    C   13  dz2    Ryd( 3d)     0.00070

   196    C   14  S      Cor( 1S)     1.99940
   197    C   14  S      Val( 2S)     1.09070
   198    C   14  S      Ryd( 3S)     0.00058
   199    C   14  S      Ryd( 4S)     0.00002
   200    C   14  px     Val( 2p)     1.17327
   201    C   14  px     Ryd( 3p)     0.00255
   202    C   14  py     Val( 2p)     1.17337
   203    C   14  py     Ryd( 3p)     0.00219
   204    C   14  pz     Val( 2p)     1.22199
   205    C   14  pz     Ryd( 3p)     0.00242
   206    C   14  dxy    Ryd( 3d)     0.00045
   207    C   14  dxz    Ryd( 3d)     0.00027
   208    C   14  dyz    Ryd( 3d)     0.00043
   209    C   14  dx2y2  Ryd( 3d)     0.00102
   210    C   14  dz2    Ryd( 3d)     0.00115

   211    C   15  S      Cor( 1S)     1.99938
   212    C   15  S      Val( 2S)     1.09558
   213    C   15  S      Ryd( 3S)     0.00058
   214    C   15  S      Ryd( 4S)     0.00002
   215    C   15  px     Val( 2p)     1.24336
   216    C   15  px     Ryd( 3p)     0.00188
   217    C   15  py     Val( 2p)     1.09365
   218    C   15  py     Ryd( 3p)     0.00165
   219    C   15  pz     Val( 2p)     1.22779
   220    C   15  pz     Ryd( 3p)     0.00228
   221    C   15  dxy    Ryd( 3d)     0.00074
   222    C   15  dxz    Ryd( 3d)     0.00029
   223    C   15  dyz    Ryd( 3d)     0.00049
   224    C   15  dx2y2  Ryd( 3d)     0.00071
   225    C   15  dz2    Ryd( 3d)     0.00113

   226    H   16  S      Val( 1S)     0.76717
   227    H   16  S      Ryd( 2S)     0.00053

   228    H   17  S      Val( 1S)     0.78055
   229    H   17  S      Ryd( 2S)     0.00203

   230    H   18  S      Val( 1S)     0.77938
   231    H   18  S      Ryd( 2S)     0.00205

   232    H   19  S      Val( 1S)     0.76869
   233    H   19  S      Ryd( 2S)     0.00096

   234    H   20  S      Val( 1S)     0.75085
   235    H   20  S      Ryd( 2S)     0.00103

   236    H   21  S      Val( 1S)     0.75867
   237    H   21  S      Ryd( 2S)     0.00116

   238    H   22  S      Val( 1S)     0.75894
   239    H   22  S      Ryd( 2S)     0.00120

   240    H   23  S      Val( 1S)     0.76348
   241    H   23  S      Ryd( 2S)     0.00094

   242    H   24  S      Val( 1S)     0.75436
   243    H   24  S      Ryd( 2S)     0.00104

   244    H   25  S      Val( 1S)     0.76443
   245    H   25  S      Ryd( 2S)     0.00113

   246    H   26  S      Val( 1S)     0.75687
   247    H   26  S      Ryd( 2S)     0.00104

   248    H   27  S      Val( 1S)     0.76948
   249    H   27  S      Ryd( 2S)     0.00092

   250    H   28  S      Val( 1S)     0.75546
   251    H   28  S      Ryd( 2S)     0.00105

   252    H   29  S      Val( 1S)     0.75562
   253    H   29  S      Ryd( 2S)     0.00113

   254    H   30  S      Val( 1S)     0.76231
   255    H   30  S      Ryd( 2S)     0.00091

   256    H   31  S      Val( 1S)     0.76465
   257    H   31  S      Ryd( 2S)     0.00104

 WARNING:  1 low occupancy (<1.9990e) core orbital  found on  C    3
           1 low occupancy (<1.9990e) core orbital  found on  C    6


 Summary of Natural Population Analysis:                  
                                                          
                                       Natural Population 
                Natural  -----------------------------------------------
    Atom  No    Charge         Core      Valence    Rydberg      Total
 -----------------------------------------------------------------------
      C    1   -0.32577      1.99942     4.31226    0.01409     6.32577
      O    2   -0.42686      1.99975     6.41543    0.01168     8.42686
      C    3    0.33166      1.99879     3.64658    0.02297     5.66834
      C    4   -0.32775      1.99906     4.31164    0.01706     6.32775
      C    5   -0.32665      1.99904     4.30787    0.01974     6.32665
      C    6    0.35149      1.99870     3.62665    0.02316     5.64851
      C    7   -0.30357      1.99904     4.28569    0.01884     6.30357
      C    8   -0.32492      1.99907     4.30536    0.02050     6.32492
      O    9   -0.52360      1.99969     6.51269    0.01122     8.52360
      C   10    0.83573      1.99928     3.11608    0.04891     5.16427
      O   11   -0.57030      1.99977     6.55058    0.01994     8.57030
      C   12   -0.15085      1.99905     4.13941    0.01238     6.15085
      C   13   -0.67018      1.99938     4.66104    0.00976     6.67018
      C   14   -0.66982      1.99940     4.65934    0.01109     6.66982
      C   15   -0.66954      1.99938     4.66038    0.00978     6.66954
      H   16    0.23230      0.00000     0.76717    0.00053     0.76770
      H   17    0.21741      0.00000     0.78055    0.00203     0.78259
      H   18    0.21857      0.00000     0.77938    0.00205     0.78143
      H   19    0.23035      0.00000     0.76869    0.00096     0.76965
      H   20    0.24811      0.00000     0.75085    0.00103     0.75189
      H   21    0.24017      0.00000     0.75867    0.00116     0.75983
      H   22    0.23986      0.00000     0.75894    0.00120     0.76014
      H   23    0.23558      0.00000     0.76348    0.00094     0.76442
      H   24    0.24460      0.00000     0.75436    0.00104     0.75540
      H   25    0.23445      0.00000     0.76443    0.00113     0.76555
      H   26    0.24209      0.00000     0.75687    0.00104     0.75791
      H   27    0.22960      0.00000     0.76948    0.00092     0.77040
      H   28    0.24349      0.00000     0.75546    0.00105     0.75651
      H   29    0.24325      0.00000     0.75562    0.00113     0.75675
      H   30    0.23679      0.00000     0.76231    0.00091     0.76321
      H   31    0.23431      0.00000     0.76465    0.00104     0.76569
 =======================================================================
   * Total *   -0.00000     29.98880    81.72192    0.28927   112.00000

                                 Natural Population      
 --------------------------------------------------------
   Core                      29.98880 ( 99.9627% of  30)
   Valence                   81.72192 ( 99.6609% of  82)
   Natural Minimal Basis    111.71073 ( 99.7417% of 112)
   Natural Rydberg Basis      0.28927 (  0.2583% of 112)
 --------------------------------------------------------

    Atom  No          Natural Electron Configuration
 ----------------------------------------------------------------------------
      C    1      [core]2S( 1.10)2p( 3.21)3p( 0.01)3d( 0.01)
      O    2      [core]2S( 1.60)2p( 4.82)3p( 0.01)3d( 0.01)
      C    3      [core]2S( 0.84)2p( 2.80)3p( 0.01)3d( 0.01)
      C    4      [core]2S( 0.96)2p( 3.35)3p( 0.01)
      C    5      [core]2S( 0.96)2p( 3.35)3p( 0.02)
      C    6      [core]2S( 0.85)2p( 2.78)3p( 0.02)3d( 0.01)
      C    7      [core]2S( 0.96)2p( 3.33)3p( 0.02)
      C    8      [core]2S( 0.96)2p( 3.35)3p( 0.02)
      O    9      [core]2S( 1.60)2p( 4.91)3d( 0.01)
      C   10      [core]2S( 0.78)2p( 2.34)3S( 0.01)3p( 0.03)3d( 0.01)
      O   11      [core]2S( 1.70)2p( 4.85)3d( 0.02)
      C   12      [core]2S( 0.94)2p( 3.20)3p( 0.01)
      C   13      [core]2S( 1.10)2p( 3.57)3p( 0.01)
      C   14      [core]2S( 1.09)2p( 3.57)3p( 0.01)
      C   15      [core]2S( 1.10)2p( 3.56)3p( 0.01)
      H   16            1S( 0.77)
      H   17            1S( 0.78)
      H   18            1S( 0.78)
      H   19            1S( 0.77)
      H   20            1S( 0.75)
      H   21            1S( 0.76)
      H   22            1S( 0.76)
      H   23            1S( 0.76)
      H   24            1S( 0.75)
      H   25            1S( 0.76)
      H   26            1S( 0.76)
      H   27            1S( 0.77)
      H   28            1S( 0.76)
      H   29            1S( 0.76)
      H   30            1S( 0.76)
      H   31            1S( 0.76)


 NBO analysis skipped by request.
 Leave Link  607 at Wed Sep 29 00:19:28 2021, MaxMem= 1342177280 cpu:      20.6
 (Enter /sw/target/amd/app/gaussian/Gaussian09RevA.02_gcc-4.9.2/g09/l9999.exe)
 1\1\GINC-HERMITE\SP\RTD-B3LYP-FC\6-31G(d)\C12H16O3\JSCHLEINITZ\29-Sep-
 2021\0\\#p TD(NStates=10, Root=1) b3lyp/6-31G* volume pop=NPA density=
 current Geom=AllCheck Guess=Read\\COc1ccc(cc1)OC(=O)C(C)(C)C_conf_0\\0
 ,1\C,0,1.0791700178,-1.2208435811,0.0046734672\O,0,2.47307227,-1.40268
 78595,0.1912573922\C,0,3.0501448916,-0.8661421924,1.3073865968\C,0,2.3
 671816344,-0.1319630388,2.2837990078\C,0,3.0546761123,0.3751117675,3.3
 902442219\C,0,4.4192450334,0.1409813592,3.5195869359\C,0,5.1082453613,
 -0.58748626,2.5486045962\C,0,4.428117885,-1.08780763,1.4459906956\O,0,
 5.1891352121,0.6782356545,4.5567113191\C,0,4.7947369098,0.5518932701,5
 .8638447924\O,0,3.7734520158,0.0055593455,6.2058827607\C,0,5.823498395
 5,1.1965116286,6.7999679804\C,0,5.9693391495,2.6915676401,6.4379631961
 \C,0,5.3292408087,1.0465974092,8.2472777134\C,0,7.1827494709,0.4822560
 878,6.6251945892\H,0,0.8328968077,-1.7300811167,-0.9289145431\H,0,0.81
 76208401,-0.1577001055,-0.0833352348\H,0,0.5000973724,-1.6667473893,0.
 8243754353\H,0,1.3029036784,0.0542365381,2.1997210288\H,0,2.5217910553
 ,0.9375710767,4.1466162743\H,0,6.1748036646,-0.7517563234,2.6661461366
 \H,0,4.944390255,-1.6557880843,0.6787674609\H,0,5.0149166334,3.2203267
 33,6.5441362791\H,0,6.3212473817,2.8212850208,5.4108911572\H,0,6.69155
 34176,3.1646232247,7.1133173481\H,0,4.3613504484,1.5370883563,8.388678
 8903\H,0,6.0518869559,1.5006583148,8.9346956112\H,0,5.2076927714,-0.00
 65071438,8.5178313209\H,0,7.5561091474,0.5801790662,5.6020492701\H,0,7
 .1035229401,-0.584962963,6.8626752614\H,0,7.9207345235,0.9234235679,7.
 3051696142\\Version=AM64L-G09RevA.02\State=1-A\HF=-692.588971\RMSD=7.4
 29e-09\Dipole=-0.3133611,0.2785339,-0.5492095\Quadrupole=4.8315058,-5.
 1411558,0.3096501,1.5713356,11.4870559,4.3684299\PG=C01 [X(C12H16O3)]\
 \@


 Mondays are the potholes in the road of life.
                                -- Tom Wilson
 Job cpu time:  0 days  4 hours  1 minutes 29.9 seconds.
 File lengths (MBytes):  RWF=    225 Int=      0 D2E=      0 Chk=     30 Scr=      1
 Normal termination of Gaussian 09 at Wed Sep 29 00:19:30 2021.
