 Entering Gaussian System, Link 0=g09
 Input=C12H12N2O2_afef_conf_0.com
 Output=C12H12N2O2_afef_conf_0.log
 Initial command:
 /sw/target/amd/app/gaussian/Gaussian09RevA.02_gcc-4.9.2/g09/l1.exe /home/jschleinitz/gaussian/Gau-1701202.inp -scrdir=/home/jschleinitz/gaussian/
 Entering Link 1 = /sw/target/amd/app/gaussian/Gaussian09RevA.02_gcc-4.9.2/g09/l1.exe PID=   1701216.
  
 Copyright (c) 1988,1990,1992,1993,1995,1998,2003,2009, Gaussian, Inc.
                  All Rights Reserved.
  
 This is part of the Gaussian(R) 09 program.  It is based on
 the Gaussian(R) 03 system (copyright 2003, Gaussian, Inc.),
 the Gaussian(R) 98 system (copyright 1998, Gaussian, Inc.),
 the Gaussian(R) 94 system (copyright 1995, Gaussian, Inc.),
 the Gaussian 92(TM) system (copyright 1992, Gaussian, Inc.),
 the Gaussian 90(TM) system (copyright 1990, Gaussian, Inc.),
 the Gaussian 88(TM) system (copyright 1988, Gaussian, Inc.),
 the Gaussian 86(TM) system (copyright 1986, Carnegie Mellon
 University), and the Gaussian 82(TM) system (copyright 1983,
 Carnegie Mellon University). Gaussian is a federally registered
 trademark of Gaussian, Inc.
  
 This software contains proprietary and confidential information,
 including trade secrets, belonging to Gaussian, Inc.
  
 This software is provided under written license and may be
 used, copied, transmitted, or stored only in accord with that
 written license.
  
 The following legend is applicable only to US Government
 contracts under FAR:
  
                    RESTRICTED RIGHTS LEGEND
  
 Use, reproduction and disclosure by the US Government is
 subject to restrictions as set forth in subparagraphs (a)
 and (c) of the Commercial Computer Software - Restricted
 Rights clause in FAR 52.227-19.
  
 Gaussian, Inc.
 340 Quinnipiac St., Bldg. 40, Wallingford CT 06492
  
  
 ---------------------------------------------------------------
 Warning -- This program may not be used in any manner that
 competes with the business of Gaussian, Inc. or will provide
 assistance to any competitor of Gaussian, Inc.  The licensee
 of this program is prohibited from giving any competitor of
 Gaussian, Inc. access to this program.  By using this program,
 the user acknowledges that Gaussian, Inc. is engaged in the
 business of creating and licensing software in the field of
 computational chemistry and represents and warrants to the
 licensee that it is not a competitor of Gaussian, Inc. and that
 it will not use this program in any manner prohibited above.
 ---------------------------------------------------------------
  

 Cite this work as:
 Gaussian 09, Revision A.02,
 M. J. Frisch, G. W. Trucks, H. B. Schlegel, G. E. Scuseria, 
 M. A. Robb, J. R. Cheeseman, G. Scalmani, V. Barone, B. Mennucci, 
 G. A. Petersson, H. Nakatsuji, M. Caricato, X. Li, H. P. Hratchian, 
 A. F. Izmaylov, J. Bloino, G. Zheng, J. L. Sonnenberg, M. Hada, 
 M. Ehara, K. Toyota, R. Fukuda, J. Hasegawa, M. Ishida, T. Nakajima, 
 Y. Honda, O. Kitao, H. Nakai, T. Vreven, J. A. Montgomery, Jr., 
 J. E. Peralta, F. Ogliaro, M. Bearpark, J. J. Heyd, E. Brothers, 
 K. N. Kudin, V. N. Staroverov, R. Kobayashi, J. Normand, 
 K. Raghavachari, A. Rendell, J. C. Burant, S. S. Iyengar, J. Tomasi, 
 M. Cossi, N. Rega, J. M. Millam, M. Klene, J. E. Knox, J. B. Cross, 
 V. Bakken, C. Adamo, J. Jaramillo, R. Gomperts, R. E. Stratmann, 
 O. Yazyev, A. J. Austin, R. Cammi, C. Pomelli, J. W. Ochterski, 
 R. L. Martin, K. Morokuma, V. G. Zakrzewski, G. A. Voth, 
 P. Salvador, J. J. Dannenberg, S. Dapprich, A. D. Daniels, 
 O. Farkas, J. B. Foresman, J. V. Ortiz, J. Cioslowski, 
 and D. J. Fox, Gaussian, Inc., Wallingford CT, 2009.
 
 ******************************************
 Gaussian 09:  AM64L-G09RevA.02 11-Jun-2009
                30-Sep-2021 
 ******************************************
 %nproc=4
 Will use up to    4 processors via shared memory.
 %mem=8gb
 %chk=C12H12N2O2_afef_conf_0.chk
 -----------------------------------
 #p opt b3lyp/6-31G* scf=(xqc,tight)
 -----------------------------------
 1/14=-1,18=20,19=15,26=3,38=1/1,3;
 2/9=110,12=2,17=6,18=5,40=1/2;
 3/5=1,6=6,7=1,11=2,16=1,25=1,30=1,71=1,74=-5/1,2,3;
 4//1;
 5/5=2,8=3,13=1,32=2,38=5/2,8;
 6/7=2,8=2,9=2,10=2,28=1/1;
 7//1,2,3,16;
 1/14=-1,18=20,19=15/3(2);
 2/9=110/2;
 99//99;
 2/9=110/2;
 3/5=1,6=6,7=1,11=2,16=1,25=1,30=1,71=1,74=-5/1,2,3;
 4/5=5,16=3/1;
 5/5=2,8=3,13=1,32=2,38=5/2,8;
 7//1,2,3,16;
 1/14=-1,18=20,19=15/3(-5);
 2/9=110/2;
 6/7=2,8=2,9=2,10=2,19=2,28=1/1;
 99/9=1/99;
 Leave Link    1 at Thu Sep 30 04:17:08 2021, MaxMem= 1073741824 cpu:       0.1
 (Enter /sw/target/amd/app/gaussian/Gaussian09RevA.02_gcc-4.9.2/g09/l101.exe)
 --------------------------------
 O=C(N(C)C)Oc1cccc2c1ccnc2_conf_0
 --------------------------------
 Symbolic Z-matrix:
 Charge =  0 Multiplicity = 1
 O                     3.00933   0.19565   2.04173 
 C                     2.79957  -0.50721   1.05949 
 N                     1.54933  -0.65349   0.47308 
 C                     0.48082   0.25291   0.84347 
 C                     1.31648  -1.52979  -0.65941 
 O                     3.78392  -1.2361    0.38578 
 C                     5.16107  -1.21816   0.73079 
 C                     5.77339  -0.07957   1.2592 
 C                     7.13243  -0.10543   1.56176 
 C                     7.88081  -1.25621   1.31711 
 C                     7.2781   -2.39513   0.75165 
 C                     5.90376  -2.38724   0.44342 
 C                     5.34688  -3.54186  -0.13713 
 C                     6.15975  -4.63727  -0.37858 
 N                     7.47407  -4.67481  -0.08748 
 C                     7.99839  -3.55888   0.47053 
 H                     0.76433   0.90886   1.67049 
 H                    -0.39552  -0.33231   1.13597 
 H                     0.23367   0.87176  -0.02471 
 H                     1.96917  -2.40529  -0.61953 
 H                     1.5144   -0.97239  -1.57946 
 H                     0.2774   -1.87211  -0.65058 
 H                     5.2135    0.83302   1.44116 
 H                     7.60842   0.77416   1.9883 
 H                     8.94133  -1.25727   1.55964 
 H                     4.29677  -3.59014  -0.40283 
 H                     5.75908  -5.5414   -0.82911 
 H                     9.06086  -3.62726   0.68819 
 
 NAtoms=     28 NQM=     28 NQMF=      0 NMic=      0 NMicF=      0 NTot=     28.
                    Isotopes and Nuclear Properties:
 (Nuclear quadrupole moments (NQMom) in fm**2, nuclear magnetic moments (NMagM)
  in nuclear magnetons)

  Atom         1           2           3           4           5           6           7           8           9          10
 IAtWgt=          16          12          14          12          12          16          12          12          12          12
 AtmWgt=  15.9949146  12.0000000  14.0030740  12.0000000  12.0000000  15.9949146  12.0000000  12.0000000  12.0000000  12.0000000
 NucSpn=           0           0           2           0           0           0           0           0           0           0
 AtZEff=   0.0000000   0.0000000   0.0000000   0.0000000   0.0000000   0.0000000   0.0000000   0.0000000   0.0000000   0.0000000
 NQMom=    0.0000000   0.0000000   2.0440000   0.0000000   0.0000000   0.0000000   0.0000000   0.0000000   0.0000000   0.0000000
 NMagM=    0.0000000   0.0000000   0.4037610   0.0000000   0.0000000   0.0000000   0.0000000   0.0000000   0.0000000   0.0000000

  Atom        11          12          13          14          15          16          17          18          19          20
 IAtWgt=          12          12          12          12          14          12           1           1           1           1
 AtmWgt=  12.0000000  12.0000000  12.0000000  12.0000000  14.0030740  12.0000000   1.0078250   1.0078250   1.0078250   1.0078250
 NucSpn=           0           0           0           0           2           0           1           1           1           1
 AtZEff=   0.0000000   0.0000000   0.0000000   0.0000000   0.0000000   0.0000000   0.0000000   0.0000000   0.0000000   0.0000000
 NQMom=    0.0000000   0.0000000   0.0000000   0.0000000   2.0440000   0.0000000   0.0000000   0.0000000   0.0000000   0.0000000
 NMagM=    0.0000000   0.0000000   0.0000000   0.0000000   0.4037610   0.0000000   2.7928460   2.7928460   2.7928460   2.7928460

  Atom        21          22          23          24          25          26          27          28
 IAtWgt=           1           1           1           1           1           1           1           1
 AtmWgt=   1.0078250   1.0078250   1.0078250   1.0078250   1.0078250   1.0078250   1.0078250   1.0078250
 NucSpn=           1           1           1           1           1           1           1           1
 AtZEff=   0.0000000   0.0000000   0.0000000   0.0000000   0.0000000   0.0000000   0.0000000   0.0000000
 NQMom=    0.0000000   0.0000000   0.0000000   0.0000000   0.0000000   0.0000000   0.0000000   0.0000000
 NMagM=    2.7928460   2.7928460   2.7928460   2.7928460   2.7928460   2.7928460   2.7928460   2.7928460
 Leave Link  101 at Thu Sep 30 04:17:08 2021, MaxMem= 1073741824 cpu:       0.2
 (Enter /sw/target/amd/app/gaussian/Gaussian09RevA.02_gcc-4.9.2/g09/l103.exe)

 GradGradGradGradGradGradGradGradGradGradGradGradGradGradGradGradGradGrad
 Berny optimization.
 Initialization pass.
                           ----------------------------
                           !    Initial Parameters    !
                           ! (Angstroms and Degrees)  !
 --------------------------                            --------------------------
 ! Name  Definition              Value          Derivative Info.                !
 --------------------------------------------------------------------------------
 ! R1    R(1,2)                  1.2259         estimate D2E/DX2                !
 ! R2    R(2,3)                  1.3887         estimate D2E/DX2                !
 ! R3    R(2,6)                  1.3979         estimate D2E/DX2                !
 ! R4    R(3,4)                  1.4493         estimate D2E/DX2                !
 ! R5    R(3,5)                  1.4507         estimate D2E/DX2                !
 ! R6    R(4,17)                 1.093          estimate D2E/DX2                !
 ! R7    R(4,18)                 1.0936         estimate D2E/DX2                !
 ! R8    R(4,19)                 1.0944         estimate D2E/DX2                !
 ! R9    R(5,20)                 1.0928         estimate D2E/DX2                !
 ! R10   R(5,21)                 1.0938         estimate D2E/DX2                !
 ! R11   R(5,22)                 1.0941         estimate D2E/DX2                !
 ! R12   R(6,7)                  1.4198         estimate D2E/DX2                !
 ! R13   R(7,8)                  1.3966         estimate D2E/DX2                !
 ! R14   R(7,12)                 1.4145         estimate D2E/DX2                !
 ! R15   R(8,9)                  1.3926         estimate D2E/DX2                !
 ! R16   R(8,23)                 1.086          estimate D2E/DX2                !
 ! R17   R(9,10)                 1.3943         estimate D2E/DX2                !
 ! R18   R(9,24)                 1.0873         estimate D2E/DX2                !
 ! R19   R(10,11)                1.4072         estimate D2E/DX2                !
 ! R20   R(10,25)                1.0879         estimate D2E/DX2                !
 ! R21   R(11,12)                1.4085         estimate D2E/DX2                !
 ! R22   R(11,16)                1.3972         estimate D2E/DX2                !
 ! R23   R(12,13)                1.4072         estimate D2E/DX2                !
 ! R24   R(13,14)                1.3853         estimate D2E/DX2                !
 ! R25   R(13,26)                1.0843         estimate D2E/DX2                !
 ! R26   R(14,15)                1.3467         estimate D2E/DX2                !
 ! R27   R(14,27)                1.0867         estimate D2E/DX2                !
 ! R28   R(15,16)                1.3534         estimate D2E/DX2                !
 ! R29   R(16,28)                1.0867         estimate D2E/DX2                !
 ! A1    A(1,2,3)              123.5596         estimate D2E/DX2                !
 ! A2    A(1,2,6)              124.3758         estimate D2E/DX2                !
 ! A3    A(3,2,6)              112.0573         estimate D2E/DX2                !
 ! A4    A(2,3,4)              119.3387         estimate D2E/DX2                !
 ! A5    A(2,3,5)              122.5328         estimate D2E/DX2                !
 ! A6    A(4,3,5)              117.3183         estimate D2E/DX2                !
 ! A7    A(3,4,17)             112.1773         estimate D2E/DX2                !
 ! A8    A(3,4,18)             108.933          estimate D2E/DX2                !
 ! A9    A(3,4,19)             108.5056         estimate D2E/DX2                !
 ! A10   A(17,4,18)            109.0642         estimate D2E/DX2                !
 ! A11   A(17,4,19)            108.6302         estimate D2E/DX2                !
 ! A12   A(18,4,19)            109.4994         estimate D2E/DX2                !
 ! A13   A(3,5,20)             111.0751         estimate D2E/DX2                !
 ! A14   A(3,5,21)             108.6494         estimate D2E/DX2                !
 ! A15   A(3,5,22)             109.5811         estimate D2E/DX2                !
 ! A16   A(20,5,21)            109.3235         estimate D2E/DX2                !
 ! A17   A(20,5,22)            108.4392         estimate D2E/DX2                !
 ! A18   A(21,5,22)            109.7615         estimate D2E/DX2                !
 ! A19   A(2,6,7)              124.0078         estimate D2E/DX2                !
 ! A20   A(6,7,8)              121.8358         estimate D2E/DX2                !
 ! A21   A(6,7,12)             116.7086         estimate D2E/DX2                !
 ! A22   A(8,7,12)             121.3628         estimate D2E/DX2                !
 ! A23   A(7,8,9)              119.6656         estimate D2E/DX2                !
 ! A24   A(7,8,23)             121.4953         estimate D2E/DX2                !
 ! A25   A(9,8,23)             118.839          estimate D2E/DX2                !
 ! A26   A(8,9,10)             120.0673         estimate D2E/DX2                !
 ! A27   A(8,9,24)             119.8316         estimate D2E/DX2                !
 ! A28   A(10,9,24)            120.101          estimate D2E/DX2                !
 ! A29   A(9,10,11)            120.571          estimate D2E/DX2                !
 ! A30   A(9,10,25)            119.0066         estimate D2E/DX2                !
 ! A31   A(11,10,25)           120.4188         estimate D2E/DX2                !
 ! A32   A(10,11,12)           120.0871         estimate D2E/DX2                !
 ! A33   A(10,11,16)           122.2889         estimate D2E/DX2                !
 ! A34   A(12,11,16)           117.6235         estimate D2E/DX2                !
 ! A35   A(7,12,11)            118.1956         estimate D2E/DX2                !
 ! A36   A(7,12,13)            123.6526         estimate D2E/DX2                !
 ! A37   A(11,12,13)           118.1515         estimate D2E/DX2                !
 ! A38   A(12,13,14)           119.2424         estimate D2E/DX2                !
 ! A39   A(12,13,26)           121.3914         estimate D2E/DX2                !
 ! A40   A(14,13,26)           119.3657         estimate D2E/DX2                !
 ! A41   A(13,14,15)           123.8523         estimate D2E/DX2                !
 ! A42   A(13,14,27)           120.9174         estimate D2E/DX2                !
 ! A43   A(15,14,27)           115.2302         estimate D2E/DX2                !
 ! A44   A(14,15,16)           116.3749         estimate D2E/DX2                !
 ! A45   A(11,16,15)           124.7525         estimate D2E/DX2                !
 ! A46   A(11,16,28)           121.0739         estimate D2E/DX2                !
 ! A47   A(15,16,28)           114.1723         estimate D2E/DX2                !
 ! D1    D(1,2,3,4)             12.9165         estimate D2E/DX2                !
 ! D2    D(1,2,3,5)           -177.6736         estimate D2E/DX2                !
 ! D3    D(6,2,3,4)           -166.1428         estimate D2E/DX2                !
 ! D4    D(6,2,3,5)              3.2671         estimate D2E/DX2                !
 ! D5    D(1,2,6,7)             -2.1439         estimate D2E/DX2                !
 ! D6    D(3,2,6,7)            176.9063         estimate D2E/DX2                !
 ! D7    D(2,3,4,17)            -6.9991         estimate D2E/DX2                !
 ! D8    D(2,3,4,18)          -127.8444         estimate D2E/DX2                !
 ! D9    D(2,3,4,19)           113.0159         estimate D2E/DX2                !
 ! D10   D(5,3,4,17)          -176.9558         estimate D2E/DX2                !
 ! D11   D(5,3,4,18)            62.199          estimate D2E/DX2                !
 ! D12   D(5,3,4,19)           -56.9407         estimate D2E/DX2                !
 ! D13   D(2,3,5,20)            32.6807         estimate D2E/DX2                !
 ! D14   D(2,3,5,21)           -87.6065         estimate D2E/DX2                !
 ! D15   D(2,3,5,22)           152.473          estimate D2E/DX2                !
 ! D16   D(4,3,5,20)          -157.7077         estimate D2E/DX2                !
 ! D17   D(4,3,5,21)            82.0051         estimate D2E/DX2                !
 ! D18   D(4,3,5,22)           -37.9154         estimate D2E/DX2                !
 ! D19   D(2,6,7,8)            -32.5352         estimate D2E/DX2                !
 ! D20   D(2,6,7,12)           150.9229         estimate D2E/DX2                !
 ! D21   D(6,7,8,9)           -178.9727         estimate D2E/DX2                !
 ! D22   D(6,7,8,23)             0.9787         estimate D2E/DX2                !
 ! D23   D(12,7,8,9)            -2.5906         estimate D2E/DX2                !
 ! D24   D(12,7,8,23)          177.3608         estimate D2E/DX2                !
 ! D25   D(6,7,12,11)          178.9258         estimate D2E/DX2                !
 ! D26   D(6,7,12,13)           -0.8763         estimate D2E/DX2                !
 ! D27   D(8,7,12,11)            2.3663         estimate D2E/DX2                !
 ! D28   D(8,7,12,13)         -177.4358         estimate D2E/DX2                !
 ! D29   D(7,8,9,10)             1.0471         estimate D2E/DX2                !
 ! D30   D(7,8,9,24)          -179.0078         estimate D2E/DX2                !
 ! D31   D(23,8,9,10)         -178.9055         estimate D2E/DX2                !
 ! D32   D(23,8,9,24)            1.0396         estimate D2E/DX2                !
 ! D33   D(8,9,10,11)            0.6523         estimate D2E/DX2                !
 ! D34   D(8,9,10,25)          179.9735         estimate D2E/DX2                !
 ! D35   D(24,9,10,11)        -179.2927         estimate D2E/DX2                !
 ! D36   D(24,9,10,25)           0.0285         estimate D2E/DX2                !
 ! D37   D(9,10,11,12)          -0.8447         estimate D2E/DX2                !
 ! D38   D(9,10,11,16)         178.8938         estimate D2E/DX2                !
 ! D39   D(25,10,11,12)        179.8437         estimate D2E/DX2                !
 ! D40   D(25,10,11,16)         -0.4178         estimate D2E/DX2                !
 ! D41   D(10,11,12,7)          -0.6399         estimate D2E/DX2                !
 ! D42   D(10,11,12,13)        179.1733         estimate D2E/DX2                !
 ! D43   D(16,11,12,7)         179.6097         estimate D2E/DX2                !
 ! D44   D(16,11,12,13)         -0.5771         estimate D2E/DX2                !
 ! D45   D(10,11,16,15)       -179.1195         estimate D2E/DX2                !
 ! D46   D(10,11,16,28)          0.433          estimate D2E/DX2                !
 ! D47   D(12,11,16,15)          0.6251         estimate D2E/DX2                !
 ! D48   D(12,11,16,28)       -179.8224         estimate D2E/DX2                !
 ! D49   D(7,12,13,14)        -179.9607         estimate D2E/DX2                !
 ! D50   D(7,12,13,26)           0.299          estimate D2E/DX2                !
 ! D51   D(11,12,13,14)          0.2372         estimate D2E/DX2                !
 ! D52   D(11,12,13,26)       -179.5032         estimate D2E/DX2                !
 ! D53   D(12,13,14,15)          0.1252         estimate D2E/DX2                !
 ! D54   D(12,13,14,27)       -179.771          estimate D2E/DX2                !
 ! D55   D(26,13,14,15)        179.8708         estimate D2E/DX2                !
 ! D56   D(26,13,14,27)         -0.0254         estimate D2E/DX2                !
 ! D57   D(13,14,15,16)         -0.1164         estimate D2E/DX2                !
 ! D58   D(27,14,15,16)        179.7852         estimate D2E/DX2                !
 ! D59   D(14,15,16,11)         -0.2729         estimate D2E/DX2                !
 ! D60   D(14,15,16,28)       -179.8528         estimate D2E/DX2                !
 --------------------------------------------------------------------------------
 Trust Radius=3.00D-01 FncErr=1.00D-07 GrdErr=1.00D-06
 Number of steps in this run= 146 maximum allowed number of steps= 168.
 GradGradGradGradGradGradGradGradGradGradGradGradGradGradGradGradGradGrad

 Leave Link  103 at Thu Sep 30 04:17:09 2021, MaxMem= 1073741824 cpu:       0.0
 (Enter /sw/target/amd/app/gaussian/Gaussian09RevA.02_gcc-4.9.2/g09/l202.exe)
                          Input orientation:                          
 ---------------------------------------------------------------------
 Center     Atomic      Atomic             Coordinates (Angstroms)
 Number     Number       Type             X           Y           Z
 ---------------------------------------------------------------------
      1          8           0        3.009333    0.195650    2.041727
      2          6           0        2.799569   -0.507209    1.059488
      3          7           0        1.549329   -0.653491    0.473082
      4          6           0        0.480820    0.252910    0.843469
      5          6           0        1.316477   -1.529788   -0.659409
      6          8           0        3.783920   -1.236097    0.385780
      7          6           0        5.161072   -1.218161    0.730793
      8          6           0        5.773389   -0.079568    1.259204
      9          6           0        7.132429   -0.105433    1.561757
     10          6           0        7.880809   -1.256206    1.317105
     11          6           0        7.278105   -2.395134    0.751647
     12          6           0        5.903758   -2.387235    0.443419
     13          6           0        5.346881   -3.541861   -0.137129
     14          6           0        6.159751   -4.637270   -0.378584
     15          7           0        7.474069   -4.674814   -0.087478
     16          6           0        7.998386   -3.558877    0.470526
     17          1           0        0.764328    0.908862    1.670492
     18          1           0       -0.395519   -0.332313    1.135971
     19          1           0        0.233672    0.871758   -0.024708
     20          1           0        1.969172   -2.405289   -0.619534
     21          1           0        1.514404   -0.972390   -1.579463
     22          1           0        0.277399   -1.872114   -0.650579
     23          1           0        5.213497    0.833025    1.441160
     24          1           0        7.608419    0.774155    1.988301
     25          1           0        8.941334   -1.257274    1.559640
     26          1           0        4.296772   -3.590139   -0.402829
     27          1           0        5.759081   -5.541395   -0.829110
     28          1           0        9.060864   -3.627259    0.688193
 ---------------------------------------------------------------------
                    Distance matrix (angstroms):
                    1          2          3          4          5
     1  O    0.000000
     2  C    1.225889   0.000000
     3  N    2.305059   1.388657   0.000000
     4  C    2.798656   2.449702   1.449297   0.000000
     5  C    3.624780   2.489947   1.450742   2.476889   0.000000
     6  O    2.322078   1.397894   2.310941   3.651998   2.695728
     7  C    2.889185   2.488009   3.664690   4.907291   4.100083
     8  C    2.885844   3.011041   4.334750   5.319273   5.064413
     9  C    4.161844   4.380339   5.714594   6.699869   6.386521
    10  C    5.134613   5.142603   6.415862   7.567140   6.860897
    11  C    5.157410   4.869939   5.994146   7.295454   6.187156
    12  C    4.195662   3.681037   4.686982   6.044722   4.795267
    13  C    4.917370   4.138816   4.810035   6.248232   4.534905
    14  C    6.256210   5.515096   6.152383   7.593256   5.761303
    15  N    6.941815   6.366743   7.182465   8.605502   6.937884
    16  C    6.438618   6.057001   7.073303   8.436979   7.074027
    17  H    2.384645   2.553583   2.119189   1.092985   3.417648
    18  H    3.562605   3.200785   2.079666   1.093624   2.754681
    19  H    3.525842   3.108191   2.074881   1.094434   2.709748
    20  H    3.863823   2.666718   2.106864   3.379585   1.092750
    21  H    4.088049   2.971886   2.077465   2.905212   1.093786
    22  H    4.357478   3.338957   2.089369   2.605626   1.094052
    23  H    2.371765   2.787284   4.070999   4.805414   5.018171
    24  H    4.635636   5.062571   6.406765   7.237749   7.204655
    25  H    6.126340   6.207579   7.495792   8.624028   7.945872
    26  H    4.686742   3.726184   4.115770   5.557317   3.632222
    27  H    6.979721   6.137470   6.580981   8.014457   5.988198
    28  H    7.284759   7.005454   8.081629   9.417907   8.135782
                    6          7          8          9         10
     6  O    0.000000
     7  C    1.419825   0.000000
     8  C    2.461385   1.396620   0.000000
     9  C    3.724759   2.411413   1.392550   0.000000
    10  C    4.201461   2.782478   2.414343   1.394348   0.000000
    11  C    3.699534   2.422298   2.807780   2.433152   1.407179
    12  C    2.412914   1.414532   2.451087   2.822575   2.439526
    13  C    2.834224   2.487447   3.757543   4.228880   3.709422
    14  C    4.218626   3.730735   4.858423   5.024796   4.155599
    15  N    5.066157   4.238864   5.081550   4.869901   3.718222
    16  C    4.812921   3.687417   4.204547   3.723834   2.456179
    17  H    3.920366   4.973793   5.122191   6.449288   7.446926
    18  H    4.341351   5.641330   6.175314   7.543393   8.329706
    19  H    4.149194   5.405350   5.765580   7.145951   8.050304
    20  H    2.381382   3.663452   4.838461   6.058596   6.326011
    21  H    3.013707   4.323873   5.195587   6.494697   7.000127
    22  H    3.711367   5.117236   6.088218   7.416672   7.878005
    23  H    2.727413   2.171344   1.086007   2.139520   3.390402
    24  H    4.608251   3.397081   2.151223   1.087282   2.155706
    25  H    5.289359   3.870258   3.393100   2.144500   1.087905
    26  H    2.535042   2.767380   4.155342   4.903440   4.609853
    27  H    4.890072   4.634788   5.847462   6.095245   5.241261
    28  H    5.801314   4.584097   4.870283   4.109165   2.722123
                   11         12         13         14         15
    11  C    0.000000
    12  C    1.408508   0.000000
    13  C    2.415478   1.407234   0.000000
    14  C    2.748693   2.409124   1.385273   0.000000
    15  N    2.437104   2.825021   2.410597   1.346694   0.000000
    16  C    1.397188   2.400197   2.720297   2.294450   1.353363
    17  H    7.361382   6.227656   6.638992   8.004304   8.904410
    18  H    7.955340   6.662074   6.700533   7.987371   9.071084
    19  H    7.803803   6.556680   6.755558   8.098952   9.120951
    20  H    5.483157   4.075679   3.596307   4.754025   5.978103
    21  H    6.377972   5.035899   4.834293   6.037608   7.172975
    22  H    7.158887   5.754832   5.362026   6.505546   7.743660
    23  H    3.893461   3.441224   4.652785   5.842174   6.146805
    24  H    3.418013   3.909849   5.316014   6.081473   5.832510
    25  H    2.171154   3.427773   4.584589   4.787305   4.067609
    26  H    3.413092   2.178421   1.084277   2.137233   3.372118
    27  H    3.834734   3.404260   2.155663   1.086716   2.059652
    28  H    2.168038   3.400719   3.805538   3.251860   2.053523
                   16         17         18         19         20
    16  C    0.000000
    17  H    8.586746   0.000000
    18  H    9.017271   1.780863   0.000000
    19  H    8.953578   1.776703   1.786853   0.000000
    20  H    6.234615   4.204695   3.601499   3.755637   0.000000
    21  H    7.275603   3.829351   3.380989   2.731010   1.783670
    22  H    7.982210   3.654900   2.452665   2.814686   1.774073
    23  H    5.290230   4.455721   5.736917   5.191236   5.025812
    24  H    4.607698   6.852790   8.124886   7.645170   6.979311
    25  H    2.715271   8.459779   9.392118   9.103094   7.394443
    26  H    3.803377   6.084228   5.915989   6.046509   2.620792
    27  H    3.260969   8.532372   8.299107   8.503277   4.923666
    28  H    1.086699   9.506514  10.023989   9.933212   7.314059
                   21         22         23         24         25
    21  H    0.000000
    22  H    1.789556   0.000000
    23  H    5.105583   6.004849   0.000000
    24  H    7.274365   8.228626   2.457332   0.000000
    25  H    8.068112   8.962525   4.275530   2.467209   0.000000
    26  H    3.997331   4.378167   4.879043   5.977590   5.555673
    27  H    6.281411   6.598812   6.788594   7.158494   5.846927
    28  H    8.315026   9.056605   5.938293   4.813764   2.527951
                   26         27         28
    26  H    0.000000
    27  H    2.475371   0.000000
    28  H    4.887564   4.107054   0.000000
 Stoichiometry    C12H12N2O2
 Framework group  C1[X(C12H12N2O2)]
 Deg. of freedom    78
 Full point group                 C1      NOp   1
 Largest Abelian subgroup         C1      NOp   1
 Largest concise Abelian subgroup C1      NOp   1
                         Standard orientation:                         
 ---------------------------------------------------------------------
 Center     Atomic      Atomic             Coordinates (Angstroms)
 Number     Number       Type             X           Y           Z
 ---------------------------------------------------------------------
      1          8           0        2.401626    1.457361   -0.764935
      2          6           0        2.265681    0.353873   -0.248565
      3          7           0        3.318025   -0.524419   -0.025979
      4          6           0        4.680496   -0.045808   -0.148727
      5          6           0        3.124980   -1.845303    0.542046
      6          8           0        1.047363   -0.161298    0.203548
      7          6           0       -0.180703    0.549942    0.160029
      8          6           0       -0.233959    1.937685    0.307946
      9          6           0       -1.465462    2.587123    0.279196
     10          6           0       -2.639840    1.851337    0.125375
     11          6           0       -2.596362    0.449435    0.011648
     12          6           0       -1.358849   -0.222820    0.034689
     13          6           0       -1.363881   -1.626560   -0.064284
     14          6           0       -2.572798   -2.292129   -0.184778
     15          7           0       -3.769169   -1.674669   -0.216779
     16          6           0       -3.751823   -0.324815   -0.120947
     17          1           0        4.725777    0.975364   -0.535735
     18          1           0        5.229853   -0.708245   -0.823559
     19          1           0        5.146092   -0.065374    0.841537
     20          1           0        2.161998   -2.265371    0.241530
     21          1           0        3.160764   -1.765816    1.632353
     22          1           0        3.917950   -2.513718    0.193665
     23          1           0        0.666685    2.528452    0.446681
     24          1           0       -1.508811    3.669050    0.377884
     25          1           0       -3.592508    2.376287    0.105682
     26          1           0       -0.442308   -2.197479   -0.044008
     27          1           0       -2.608617   -3.375690   -0.259382
     28          1           0       -4.735659    0.135890   -0.148007
 ---------------------------------------------------------------------
 Rotational constants (GHZ):      1.0749757      0.3230690      0.2542420
 Leave Link  202 at Thu Sep 30 04:17:09 2021, MaxMem= 1073741824 cpu:       0.1
 (Enter /sw/target/amd/app/gaussian/Gaussian09RevA.02_gcc-4.9.2/g09/l301.exe)
 Standard basis: 6-31G(d) (6D, 7F)
 Ernie: Thresh=  0.10000D-02 Tol=  0.10000D-05 Strict=F.
 There are   264 symmetry adapted basis functions of A   symmetry.
 Integral buffers will be    131072 words long.
 Raffenetti 2 integral format.
 Two-electron integral symmetry is turned on.
   264 basis functions,   496 primitive gaussians,   264 cartesian basis functions
    57 alpha electrons       57 beta electrons
       nuclear repulsion energy      1041.9373299694 Hartrees.
 IExCor=  402 DFT=T Ex+Corr=B3LYP ExCW=0 ScaHFX=  0.200000
 ScaDFX=  0.800000  0.720000  1.000000  0.810000 ScalE2=  1.000000  1.000000
 IRadAn=      0 IRanWt=     -1 IRanGd=            0 ICorTp=0
 NAtoms=   28 NActive=   28 NUniq=   28 SFac= 7.50D-01 NAtFMM=   80 NAOKFM=F Big=F
 Leave Link  301 at Thu Sep 30 04:17:09 2021, MaxMem= 1073741824 cpu:       0.1
 (Enter /sw/target/amd/app/gaussian/Gaussian09RevA.02_gcc-4.9.2/g09/l302.exe)
 NPDir=0 NMtPBC=     1 NCelOv=     1 NCel=       1 NClECP=     1 NCelD=      1
         NCelK=      1 NCelE2=     1 NClLst=     1 CellRange=     0.0.
 One-electron integrals computed using PRISM.
 NBasis=   264 RedAO= T  NBF=   264
 NBsUse=   264 1.00D-06 NBFU=   264
 Precomputing XC quadrature grid using
 IXCGrd= 2 IRadAn=           0 IRanWt=          -1 IRanGd=           0 AccXCQ= 1.00D-10.
 NRdTot=    1773 NPtTot=      225876 NUsed=      238664 NTot=      238696
 NSgBfM=   262   262   262   262   262 NAtAll=    28    28.
 Leave Link  302 at Thu Sep 30 04:17:13 2021, MaxMem= 1073741824 cpu:       2.2
 (Enter /sw/target/amd/app/gaussian/Gaussian09RevA.02_gcc-4.9.2/g09/l303.exe)
 DipDrv:  MaxL=1.
 Leave Link  303 at Thu Sep 30 04:17:14 2021, MaxMem= 1073741824 cpu:       0.2
 (Enter /sw/target/amd/app/gaussian/Gaussian09RevA.02_gcc-4.9.2/g09/l401.exe)
 Harris functional with IExCor=  402 diagonalized for initial guess.
 ExpMin= 1.61D-01 ExpMax= 5.48D+03 ExpMxC= 8.25D+02 IAcc=1 IRadAn=         1 AccDes= 0.00D+00
 HarFok:  IExCor=  402 AccDes= 0.00D+00 IRadAn=         1 IDoV= 1
 ScaDFX=  1.000000  1.000000  1.000000  1.000000
 FoFCou: FMM=F IPFlag=           0 FMFlag=      100000 FMFlg1=           0
         NFxFlg=           0 DoJE=T BraDBF=F KetDBF=T FulRan=T
         Omega=  0.000000  0.000000  1.000000  0.000000  0.000000 ICntrl=     500 IOpCl=  0
         NMat0=    1 NMatS0=    1 NMatT0=    0 NMatD0=    1 NMtDS0=    0 NMtDT0=    0
         I1Cent=           4 NGrid=           0.
 Petite list used in FoFCou.
 Harris En= -724.543725610316    
 Initial guess orbital symmetries:
       Occupied  (A) (A) (A) (A) (A) (A) (A) (A) (A) (A) (A) (A)
                 (A) (A) (A) (A) (A) (A) (A) (A) (A) (A) (A) (A)
                 (A) (A) (A) (A) (A) (A) (A) (A) (A) (A) (A) (A)
                 (A) (A) (A) (A) (A) (A) (A) (A) (A) (A) (A) (A)
                 (A) (A) (A) (A) (A) (A) (A) (A) (A)
       Virtual   (A) (A) (A) (A) (A) (A) (A) (A) (A) (A) (A) (A)
                 (A) (A) (A) (A) (A) (A) (A) (A) (A) (A) (A) (A)
                 (A) (A) (A) (A) (A) (A) (A) (A) (A) (A) (A) (A)
                 (A) (A) (A) (A) (A) (A) (A) (A) (A) (A) (A) (A)
                 (A) (A) (A) (A) (A) (A) (A) (A) (A) (A) (A) (A)
                 (A) (A) (A) (A) (A) (A) (A) (A) (A) (A) (A) (A)
                 (A) (A) (A) (A) (A) (A) (A) (A) (A) (A) (A) (A)
                 (A) (A) (A) (A) (A) (A) (A) (A) (A) (A) (A) (A)
                 (A) (A) (A) (A) (A) (A) (A) (A) (A) (A) (A) (A)
                 (A) (A) (A) (A) (A) (A) (A) (A) (A) (A) (A) (A)
                 (A) (A) (A) (A) (A) (A) (A) (A) (A) (A) (A) (A)
                 (A) (A) (A) (A) (A) (A) (A) (A) (A) (A) (A) (A)
                 (A) (A) (A) (A) (A) (A) (A) (A) (A) (A) (A) (A)
                 (A) (A) (A) (A) (A) (A) (A) (A) (A) (A) (A) (A)
                 (A) (A) (A) (A) (A) (A) (A) (A) (A) (A) (A) (A)
                 (A) (A) (A) (A) (A) (A) (A) (A) (A) (A) (A) (A)
                 (A) (A) (A) (A) (A) (A) (A) (A) (A) (A) (A) (A)
                 (A) (A) (A)
 The electronic state of the initial guess is 1-A.
 Leave Link  401 at Thu Sep 30 04:17:26 2021, MaxMem= 1073741824 cpu:       9.5
 (Enter /sw/target/amd/app/gaussian/Gaussian09RevA.02_gcc-4.9.2/g09/l502.exe)
 Closed shell SCF:
 Requested convergence on RMS density matrix=1.00D-08 within  64 cycles.
 Requested convergence on MAX density matrix=1.00D-06.
 Requested convergence on             energy=1.00D-06.
 No special actions if energy rises.
 Using DIIS extrapolation, IDIIS=  1040.
 Integral symmetry usage will be decided dynamically.
       238399 words used for storage of precomputed grid.
 Keep R1 ints in memory in canonical form, NReq=621578985.
 IEnd=      456601 IEndB=      456601 NGot=  1073741824 MDV=   461541690
 LenX=   461541690 LenY=   461471553
 Symmetry not used in FoFDir.
 MinBra= 0 MaxBra= 2 Meth= 1.
 IRaf=       0 NMat=   1 IRICut=       1 DoRegI=T DoRafI=F ISym2E= 0 JSym2E=0.
 Integral accuracy reduced to 1.0D-05 until final iterations.

 Cycle   1  Pass 0  IDiag  1:
 E= -724.086243645732    
 DIIS: error= 3.47D-02 at cycle   1 NSaved=   1.
 NSaved= 1 IEnMin= 1 EnMin= -724.086243645732     IErMin= 1 ErrMin= 3.47D-02
 ErrMax= 3.47D-02 EMaxC= 1.00D-01 BMatC= 3.93D-01 BMatP= 3.93D-01
 IDIUse=3 WtCom= 6.53D-01 WtEn= 3.47D-01
 Coeff-Com:  0.100D+01
 Coeff-En:   0.100D+01
 Coeff:      0.100D+01
 Gap=     0.179 Goal=   None    Shift=    0.000
 GapD=    0.179 DampG=1.000 DampE=0.500 DampFc=0.5000 IDamp=-1.
 Damping current iteration by 5.00D-01
 RMSDP=5.65D-03 MaxDP=2.18D-01              OVMax= 2.49D-01

 Cycle   2  Pass 0  IDiag  1:
 E= -724.200151629363     Delta-E=       -0.113907983631 Rises=F Damp=T
 DIIS: error= 1.24D-02 at cycle   2 NSaved=   2.
 NSaved= 2 IEnMin= 2 EnMin= -724.200151629363     IErMin= 2 ErrMin= 1.24D-02
 ErrMax= 1.24D-02 EMaxC= 1.00D-01 BMatC= 6.52D-02 BMatP= 3.93D-01
 IDIUse=3 WtCom= 8.76D-01 WtEn= 1.24D-01
 Coeff-Com:  0.206D+00 0.794D+00
 Coeff-En:   0.310D+00 0.690D+00
 Coeff:      0.219D+00 0.781D+00
 Gap=     0.173 Goal=   None    Shift=    0.000
 RMSDP=2.05D-03 MaxDP=7.01D-02 DE=-1.14D-01 OVMax= 2.09D-01

 Cycle   3  Pass 0  IDiag  1:
 E= -724.401164021204     Delta-E=       -0.201012391840 Rises=F Damp=F
 DIIS: error= 1.54D-02 at cycle   3 NSaved=   3.
 NSaved= 3 IEnMin= 3 EnMin= -724.401164021204     IErMin= 2 ErrMin= 1.24D-02
 ErrMax= 1.54D-02 EMaxC= 1.00D-01 BMatC= 7.25D-02 BMatP= 6.52D-02
 IDIUse=2 WtCom= 0.00D+00 WtEn= 1.00D+00
 Coeff-En:   0.000D+00 0.000D+00 0.100D+01
 Coeff:      0.000D+00 0.000D+00 0.100D+01
 Gap=     0.174 Goal=   None    Shift=    0.000
 RMSDP=3.15D-03 MaxDP=1.52D-01 DE=-2.01D-01 OVMax= 2.46D-01

 Cycle   4  Pass 0  IDiag  1:
 E= -724.097028514318     Delta-E=        0.304135506885 Rises=F Damp=F
 DIIS: error= 3.69D-02 at cycle   4 NSaved=   4.
 NSaved= 4 IEnMin= 3 EnMin= -724.401164021204     IErMin= 2 ErrMin= 1.24D-02
 ErrMax= 3.69D-02 EMaxC= 1.00D-01 BMatC= 4.49D-01 BMatP= 6.52D-02
 IDIUse=2 WtCom= 0.00D+00 WtEn= 1.00D+00
 Coeff-En:   0.000D+00 0.000D+00 0.800D+00 0.200D+00
 Coeff:      0.000D+00 0.000D+00 0.800D+00 0.200D+00
 Gap=     0.192 Goal=   None    Shift=    0.000
 RMSDP=1.67D-03 MaxDP=8.31D-02 DE= 3.04D-01 OVMax= 1.32D-01

 Cycle   5  Pass 0  IDiag  1:
 E= -724.438306049971     Delta-E=       -0.341277535653 Rises=F Damp=F
 DIIS: error= 9.53D-03 at cycle   5 NSaved=   5.
 NSaved= 5 IEnMin= 5 EnMin= -724.438306049971     IErMin= 5 ErrMin= 9.53D-03
 ErrMax= 9.53D-03 EMaxC= 1.00D-01 BMatC= 3.08D-02 BMatP= 6.52D-02
 IDIUse=3 WtCom= 9.05D-01 WtEn= 9.53D-02
 Coeff-Com: -0.443D-02 0.488D-01 0.323D+00-0.721D-01 0.705D+00
 Coeff-En:   0.000D+00 0.000D+00 0.336D+00 0.000D+00 0.664D+00
 Coeff:     -0.401D-02 0.441D-01 0.324D+00-0.652D-01 0.701D+00
 Gap=     0.161 Goal=   None    Shift=    0.000
 RMSDP=6.50D-04 MaxDP=2.54D-02 DE=-3.41D-01 OVMax= 4.55D-02

 Cycle   6  Pass 0  IDiag  1:
 E= -724.463981830031     Delta-E=       -0.025675780060 Rises=F Damp=F
 DIIS: error= 7.98D-04 at cycle   6 NSaved=   6.
 NSaved= 6 IEnMin= 6 EnMin= -724.463981830031     IErMin= 6 ErrMin= 7.98D-04
 ErrMax= 7.98D-04 EMaxC= 1.00D-01 BMatC= 4.35D-04 BMatP= 3.08D-02
 IDIUse=3 WtCom= 9.92D-01 WtEn= 7.98D-03
 Coeff-Com: -0.718D-02 0.261D-01 0.164D+00-0.633D-01 0.464D+00 0.416D+00
 Coeff-En:   0.000D+00 0.000D+00 0.000D+00 0.000D+00 0.000D+00 0.100D+01
 Coeff:     -0.713D-02 0.259D-01 0.163D+00-0.628D-01 0.461D+00 0.421D+00
 Gap=     0.161 Goal=   None    Shift=    0.000
 RMSDP=8.72D-05 MaxDP=3.87D-03 DE=-2.57D-02 OVMax= 9.21D-03

 Cycle   7  Pass 0  IDiag  1:
 E= -724.464364172013     Delta-E=       -0.000382341983 Rises=F Damp=F
 DIIS: error= 2.51D-04 at cycle   7 NSaved=   7.
 NSaved= 7 IEnMin= 7 EnMin= -724.464364172013     IErMin= 7 ErrMin= 2.51D-04
 ErrMax= 2.51D-04 EMaxC= 1.00D-01 BMatC= 1.60D-05 BMatP= 4.35D-04
 IDIUse=3 WtCom= 9.97D-01 WtEn= 2.51D-03
 Coeff-Com: -0.259D-02 0.763D-02 0.532D-01-0.242D-01 0.160D+00 0.203D+00
 Coeff-Com:  0.603D+00
 Coeff-En:   0.000D+00 0.000D+00 0.000D+00 0.000D+00 0.000D+00 0.000D+00
 Coeff-En:   0.100D+01
 Coeff:     -0.259D-02 0.761D-02 0.530D-01-0.242D-01 0.160D+00 0.202D+00
 Coeff:      0.604D+00
 Gap=     0.161 Goal=   None    Shift=    0.000
 RMSDP=2.21D-05 MaxDP=8.91D-04 DE=-3.82D-04 OVMax= 2.73D-03

 Cycle   8  Pass 0  IDiag  1:
 E= -724.464376674577     Delta-E=       -0.000012502564 Rises=F Damp=F
 DIIS: error= 1.43D-04 at cycle   8 NSaved=   8.
 NSaved= 8 IEnMin= 8 EnMin= -724.464376674577     IErMin= 8 ErrMin= 1.43D-04
 ErrMax= 1.43D-04 EMaxC= 1.00D-01 BMatC= 4.19D-06 BMatP= 1.60D-05
 IDIUse=3 WtCom= 9.99D-01 WtEn= 1.43D-03
 Coeff-Com: -0.401D-03 0.390D-03 0.128D-01-0.588D-02 0.371D-01 0.750D-01
 Coeff-Com:  0.408D+00 0.473D+00
 Coeff-En:   0.000D+00 0.000D+00 0.000D+00 0.000D+00 0.000D+00 0.000D+00
 Coeff-En:   0.203D+00 0.797D+00
 Coeff:     -0.401D-03 0.390D-03 0.128D-01-0.587D-02 0.370D-01 0.749D-01
 Coeff:      0.407D+00 0.474D+00
 Gap=     0.161 Goal=   None    Shift=    0.000
 RMSDP=9.33D-06 MaxDP=4.23D-04 DE=-1.25D-05 OVMax= 1.10D-03

 Initial convergence to 1.0D-05 achieved.  Increase integral accuracy.
 Cycle   9  Pass 1  IDiag  1:
 E= -724.464342912953     Delta-E=        0.000033761625 Rises=F Damp=F
 DIIS: error= 3.17D-05 at cycle   1 NSaved=   1.
 NSaved= 1 IEnMin= 1 EnMin= -724.464342912953     IErMin= 1 ErrMin= 3.17D-05
 ErrMax= 3.17D-05 EMaxC= 1.00D-01 BMatC= 2.50D-07 BMatP= 2.50D-07
 IDIUse=1 WtCom= 1.00D+00 WtEn= 0.00D+00
 Coeff-Com:  0.100D+01
 Coeff:      0.100D+01
 Gap=     0.161 Goal=   None    Shift=    0.000
 RMSDP=9.33D-06 MaxDP=4.23D-04 DE= 3.38D-05 OVMax= 4.73D-04

 Cycle  10  Pass 1  IDiag  1:
 E= -724.464342667582     Delta-E=        0.000000245371 Rises=F Damp=F
 DIIS: error= 6.41D-05 at cycle   2 NSaved=   2.
 NSaved= 2 IEnMin= 1 EnMin= -724.464342912953     IErMin= 1 ErrMin= 3.17D-05
 ErrMax= 6.41D-05 EMaxC= 1.00D-01 BMatC= 4.93D-07 BMatP= 2.50D-07
 IDIUse=1 WtCom= 1.00D+00 WtEn= 0.00D+00
 Coeff-Com:  0.599D+00 0.401D+00
 Coeff:      0.599D+00 0.401D+00
 Gap=     0.161 Goal=   None    Shift=    0.000
 RMSDP=3.71D-06 MaxDP=1.64D-04 DE= 2.45D-07 OVMax= 4.61D-04

 Cycle  11  Pass 1  IDiag  1:
 E= -724.464343162044     Delta-E=       -0.000000494462 Rises=F Damp=F
 DIIS: error= 1.80D-05 at cycle   3 NSaved=   3.
 NSaved= 3 IEnMin= 3 EnMin= -724.464343162044     IErMin= 3 ErrMin= 1.80D-05
 ErrMax= 1.80D-05 EMaxC= 1.00D-01 BMatC= 4.20D-08 BMatP= 2.50D-07
 IDIUse=1 WtCom= 1.00D+00 WtEn= 0.00D+00
 Coeff-Com:  0.108D+00 0.227D+00 0.665D+00
 Coeff:      0.108D+00 0.227D+00 0.665D+00
 Gap=     0.161 Goal=   None    Shift=    0.000
 RMSDP=1.18D-06 MaxDP=4.37D-05 DE=-4.94D-07 OVMax= 1.47D-04

 Cycle  12  Pass 1  IDiag  1:
 E= -724.464343199326     Delta-E=       -0.000000037282 Rises=F Damp=F
 DIIS: error= 3.92D-06 at cycle   4 NSaved=   4.
 NSaved= 4 IEnMin= 4 EnMin= -724.464343199326     IErMin= 4 ErrMin= 3.92D-06
 ErrMax= 3.92D-06 EMaxC= 1.00D-01 BMatC= 1.18D-08 BMatP= 4.20D-08
 IDIUse=1 WtCom= 1.00D+00 WtEn= 0.00D+00
 Coeff-Com: -0.960D-02 0.969D-01 0.439D+00 0.474D+00
 Coeff:     -0.960D-02 0.969D-01 0.439D+00 0.474D+00
 Gap=     0.161 Goal=   None    Shift=    0.000
 RMSDP=4.07D-07 MaxDP=1.93D-05 DE=-3.73D-08 OVMax= 3.56D-05

 Cycle  13  Pass 1  IDiag  1:
 E= -724.464343209109     Delta-E=       -0.000000009783 Rises=F Damp=F
 DIIS: error= 8.30D-07 at cycle   5 NSaved=   5.
 NSaved= 5 IEnMin= 5 EnMin= -724.464343209109     IErMin= 5 ErrMin= 8.30D-07
 ErrMax= 8.30D-07 EMaxC= 1.00D-01 BMatC= 4.40D-10 BMatP= 1.18D-08
 IDIUse=1 WtCom= 1.00D+00 WtEn= 0.00D+00
 Coeff-Com: -0.997D-02 0.458D-01 0.222D+00 0.273D+00 0.469D+00
 Coeff:     -0.997D-02 0.458D-01 0.222D+00 0.273D+00 0.469D+00
 Gap=     0.161 Goal=   None    Shift=    0.000
 RMSDP=9.64D-08 MaxDP=3.37D-06 DE=-9.78D-09 OVMax= 5.81D-06

 Cycle  14  Pass 1  IDiag  1:
 E= -724.464343209452     Delta-E=       -0.000000000343 Rises=F Damp=F
 DIIS: error= 3.00D-07 at cycle   6 NSaved=   6.
 NSaved= 6 IEnMin= 6 EnMin= -724.464343209452     IErMin= 6 ErrMin= 3.00D-07
 ErrMax= 3.00D-07 EMaxC= 1.00D-01 BMatC= 5.08D-11 BMatP= 4.40D-10
 IDIUse=1 WtCom= 1.00D+00 WtEn= 0.00D+00
 Coeff-Com: -0.543D-02 0.195D-01 0.973D-01 0.127D+00 0.295D+00 0.466D+00
 Coeff:     -0.543D-02 0.195D-01 0.973D-01 0.127D+00 0.295D+00 0.466D+00
 Gap=     0.161 Goal=   None    Shift=    0.000
 RMSDP=2.96D-08 MaxDP=1.49D-06 DE=-3.43D-10 OVMax= 2.14D-06

 Cycle  15  Pass 1  IDiag  1:
 E= -724.464343209489     Delta-E=       -0.000000000037 Rises=F Damp=F
 DIIS: error= 9.36D-08 at cycle   7 NSaved=   7.
 NSaved= 7 IEnMin= 7 EnMin= -724.464343209489     IErMin= 7 ErrMin= 9.36D-08
 ErrMax= 9.36D-08 EMaxC= 1.00D-01 BMatC= 2.94D-12 BMatP= 5.08D-11
 IDIUse=1 WtCom= 1.00D+00 WtEn= 0.00D+00
 Coeff-Com: -0.147D-02 0.440D-02 0.221D-01 0.318D-01 0.897D-01 0.239D+00
 Coeff-Com:  0.615D+00
 Coeff:     -0.147D-02 0.440D-02 0.221D-01 0.318D-01 0.897D-01 0.239D+00
 Coeff:      0.615D+00
 Gap=     0.161 Goal=   None    Shift=    0.000
 RMSDP=7.42D-09 MaxDP=3.30D-07 DE=-3.73D-11 OVMax= 4.65D-07

 SCF Done:  E(RB3LYP) =  -724.464343209     A.U. after   15 cycles
             Convg  =    0.7418D-08             -V/T =  2.0096
 KE= 7.175663249728D+02 PE=-3.768888959891D+03 EE= 1.284920961740D+03
 Leave Link  502 at Thu Sep 30 04:27:39 2021, MaxMem= 1073741824 cpu:     293.4
 (Enter /sw/target/amd/app/gaussian/Gaussian09RevA.02_gcc-4.9.2/g09/l508.exe)
 QCSCF skips out because SCF is already converged.
 Leave Link  508 at Thu Sep 30 04:27:42 2021, MaxMem= 1073741824 cpu:       0.0
 (Enter /sw/target/amd/app/gaussian/Gaussian09RevA.02_gcc-4.9.2/g09/l601.exe)
 Copying SCF densities to generalized density rwf, IOpCl= 0 IROHF=0.

 **********************************************************************

            Population analysis using the SCF density.

 **********************************************************************

 Orbital symmetries:
       Occupied  (A) (A) (A) (A) (A) (A) (A) (A) (A) (A) (A) (A)
                 (A) (A) (A) (A) (A) (A) (A) (A) (A) (A) (A) (A)
                 (A) (A) (A) (A) (A) (A) (A) (A) (A) (A) (A) (A)
                 (A) (A) (A) (A) (A) (A) (A) (A) (A) (A) (A) (A)
                 (A) (A) (A) (A) (A) (A) (A) (A) (A)
       Virtual   (A) (A) (A) (A) (A) (A) (A) (A) (A) (A) (A) (A)
                 (A) (A) (A) (A) (A) (A) (A) (A) (A) (A) (A) (A)
                 (A) (A) (A) (A) (A) (A) (A) (A) (A) (A) (A) (A)
                 (A) (A) (A) (A) (A) (A) (A) (A) (A) (A) (A) (A)
                 (A) (A) (A) (A) (A) (A) (A) (A) (A) (A) (A) (A)
                 (A) (A) (A) (A) (A) (A) (A) (A) (A) (A) (A) (A)
                 (A) (A) (A) (A) (A) (A) (A) (A) (A) (A) (A) (A)
                 (A) (A) (A) (A) (A) (A) (A) (A) (A) (A) (A) (A)
                 (A) (A) (A) (A) (A) (A) (A) (A) (A) (A) (A) (A)
                 (A) (A) (A) (A) (A) (A) (A) (A) (A) (A) (A) (A)
                 (A) (A) (A) (A) (A) (A) (A) (A) (A) (A) (A) (A)
                 (A) (A) (A) (A) (A) (A) (A) (A) (A) (A) (A) (A)
                 (A) (A) (A) (A) (A) (A) (A) (A) (A) (A) (A) (A)
                 (A) (A) (A) (A) (A) (A) (A) (A) (A) (A) (A) (A)
                 (A) (A) (A) (A) (A) (A) (A) (A) (A) (A) (A) (A)
                 (A) (A) (A) (A) (A) (A) (A) (A) (A) (A) (A) (A)
                 (A) (A) (A) (A) (A) (A) (A) (A) (A) (A) (A) (A)
                 (A) (A) (A)
 The electronic state is 1-A.
 Alpha  occ. eigenvalues --  -19.20548 -19.12469 -14.37643 -14.32908 -10.34489
 Alpha  occ. eigenvalues --  -10.26595 -10.22859 -10.22525 -10.22423 -10.21717
 Alpha  occ. eigenvalues --  -10.21325 -10.20528 -10.20118 -10.20018 -10.19984
 Alpha  occ. eigenvalues --  -10.19688  -1.10005  -1.01611  -0.94533  -0.93597
 Alpha  occ. eigenvalues --   -0.86567  -0.79263  -0.77724  -0.74297  -0.73089
 Alpha  occ. eigenvalues --   -0.70306  -0.65625  -0.63434  -0.62531  -0.57093
 Alpha  occ. eigenvalues --   -0.54108  -0.52682  -0.50589  -0.50076  -0.49195
 Alpha  occ. eigenvalues --   -0.48009  -0.45784  -0.44889  -0.44061  -0.43880
 Alpha  occ. eigenvalues --   -0.42974  -0.41754  -0.41261  -0.41022  -0.40520
 Alpha  occ. eigenvalues --   -0.39658  -0.38196  -0.37421  -0.35828  -0.34689
 Alpha  occ. eigenvalues --   -0.32715  -0.28677  -0.27684  -0.26569  -0.25455
 Alpha  occ. eigenvalues --   -0.24720  -0.21679
 Alpha virt. eigenvalues --   -0.05609  -0.01881   0.01903   0.04521   0.07407
 Alpha virt. eigenvalues --    0.08888   0.09383   0.10040   0.11518   0.13814
 Alpha virt. eigenvalues --    0.14029   0.14665   0.15496   0.16157   0.16629
 Alpha virt. eigenvalues --    0.17375   0.17599   0.19486   0.19863   0.21922
 Alpha virt. eigenvalues --    0.22191   0.23924   0.24937   0.28320   0.28981
 Alpha virt. eigenvalues --    0.30597   0.31869   0.34214   0.36749   0.38225
 Alpha virt. eigenvalues --    0.38520   0.44143   0.45759   0.47318   0.47916
 Alpha virt. eigenvalues --    0.49511   0.50243   0.50588   0.50976   0.53546
 Alpha virt. eigenvalues --    0.54106   0.54923   0.55925   0.56180   0.56643
 Alpha virt. eigenvalues --    0.58608   0.58939   0.60121   0.60177   0.60692
 Alpha virt. eigenvalues --    0.61161   0.62589   0.62831   0.64722   0.65862
 Alpha virt. eigenvalues --    0.66876   0.67660   0.68539   0.69616   0.71155
 Alpha virt. eigenvalues --    0.71893   0.72691   0.78730   0.79942   0.80323
 Alpha virt. eigenvalues --    0.81426   0.82146   0.83210   0.84191   0.85087
 Alpha virt. eigenvalues --    0.86191   0.86609   0.87197   0.87584   0.88300
 Alpha virt. eigenvalues --    0.88980   0.89223   0.91201   0.91773   0.93133
 Alpha virt. eigenvalues --    0.94567   0.96865   0.98076   0.98686   0.99973
 Alpha virt. eigenvalues --    1.02143   1.02853   1.05435   1.07302   1.08460
 Alpha virt. eigenvalues --    1.11581   1.13211   1.15610   1.16321   1.18395
 Alpha virt. eigenvalues --    1.20203   1.21877   1.24011   1.25051   1.25442
 Alpha virt. eigenvalues --    1.27379   1.32407   1.33714   1.35502   1.36970
 Alpha virt. eigenvalues --    1.38765   1.40197   1.41240   1.41972   1.44411
 Alpha virt. eigenvalues --    1.45787   1.46359   1.48441   1.48810   1.49873
 Alpha virt. eigenvalues --    1.49996   1.51885   1.55881   1.59787   1.65422
 Alpha virt. eigenvalues --    1.69722   1.71715   1.75465   1.76210   1.77932
 Alpha virt. eigenvalues --    1.79083   1.79969   1.80232   1.81231   1.86035
 Alpha virt. eigenvalues --    1.89255   1.89405   1.90112   1.90940   1.92075
 Alpha virt. eigenvalues --    1.92722   1.95100   1.95909   1.98734   2.00294
 Alpha virt. eigenvalues --    2.00869   2.03982   2.05556   2.07629   2.08657
 Alpha virt. eigenvalues --    2.09958   2.11888   2.12502   2.15226   2.17599
 Alpha virt. eigenvalues --    2.19069   2.20079   2.23147   2.23569   2.24692
 Alpha virt. eigenvalues --    2.25812   2.28704   2.30581   2.33303   2.33562
 Alpha virt. eigenvalues --    2.34279   2.36380   2.36783   2.40504   2.42476
 Alpha virt. eigenvalues --    2.45888   2.51761   2.53429   2.57738   2.58596
 Alpha virt. eigenvalues --    2.60844   2.61663   2.63402   2.65178   2.68726
 Alpha virt. eigenvalues --    2.70272   2.72634   2.74547   2.75621   2.76034
 Alpha virt. eigenvalues --    2.79606   2.85671   2.89302   2.93238   2.95675
 Alpha virt. eigenvalues --    3.00379   3.08031   3.18121   3.23756   3.37213
 Alpha virt. eigenvalues --    3.49148   3.97623   4.06065   4.08342   4.09173
 Alpha virt. eigenvalues --    4.11366   4.14418   4.16897   4.22822   4.24084
 Alpha virt. eigenvalues --    4.30006   4.30573   4.36923   4.43977   4.50881
 Alpha virt. eigenvalues --    4.54167   4.83204
          Condensed to atoms (all electrons):
              1          2          3          4          5          6
     1  O    8.090610   0.549509  -0.085644  -0.007451   0.002713  -0.070030
     2  C    0.549509   4.149267   0.337483  -0.030592  -0.027442   0.254747
     3  N   -0.085644   0.337483   6.933703   0.302161   0.282404  -0.089351
     4  C   -0.007451  -0.030592   0.302161   4.967616  -0.050160   0.002254
     5  C    0.002713  -0.027442   0.282404  -0.050160   4.971183   0.001868
     6  O   -0.070030   0.254747  -0.089351   0.002254   0.001868   8.350961
     7  C   -0.003335  -0.010273   0.001757  -0.000014   0.000055   0.230838
     8  C   -0.000504  -0.003213   0.000158  -0.000003  -0.000019  -0.061375
     9  C    0.000211   0.000322  -0.000000  -0.000000  -0.000000   0.003613
    10  C    0.000003  -0.000010   0.000000   0.000000   0.000000   0.000054
    11  C   -0.000015   0.000021   0.000001  -0.000000  -0.000000   0.002946
    12  C   -0.000165   0.000298  -0.000196   0.000002   0.000082  -0.061950
    13  C    0.000045   0.000121  -0.000036  -0.000000  -0.000353   0.001195
    14  C    0.000000   0.000009  -0.000000  -0.000000  -0.000000   0.000511
    15  N   -0.000000  -0.000000  -0.000000  -0.000000  -0.000000  -0.000002
    16  C   -0.000000   0.000002  -0.000000   0.000000  -0.000000  -0.000063
    17  H    0.015984  -0.001888  -0.028160   0.372343   0.004211   0.000290
    18  H    0.000335   0.001581  -0.046352   0.379997  -0.002634  -0.000048
    19  H    0.000678   0.001319  -0.055474   0.379461  -0.000054   0.000023
    20  H    0.000060  -0.005277  -0.028187   0.003841   0.377295   0.004768
    21  H   -0.000005  -0.001237  -0.053599   0.000758   0.379071   0.000913
    22  H   -0.000054   0.002253  -0.037623  -0.003716   0.373238   0.000384
    23  H    0.013743   0.001097  -0.000157   0.000018  -0.000010  -0.006672
    24  H   -0.000004  -0.000012  -0.000000   0.000000   0.000000  -0.000045
    25  H    0.000000   0.000000   0.000000  -0.000000  -0.000000   0.000002
    26  H    0.000006  -0.000036  -0.000032  -0.000000   0.000219   0.005770
    27  H   -0.000000  -0.000000  -0.000000  -0.000000  -0.000000  -0.000003
    28  H    0.000000   0.000000   0.000000  -0.000000  -0.000000   0.000000
              7          8          9         10         11         12
     1  O   -0.003335  -0.000504   0.000211   0.000003  -0.000015  -0.000165
     2  C   -0.010273  -0.003213   0.000322  -0.000010   0.000021   0.000298
     3  N    0.001757   0.000158  -0.000000   0.000000   0.000001  -0.000196
     4  C   -0.000014  -0.000003  -0.000000   0.000000  -0.000000   0.000002
     5  C    0.000055  -0.000019  -0.000000   0.000000  -0.000000   0.000082
     6  O    0.230838  -0.061375   0.003613   0.000054   0.002946  -0.061950
     7  C    4.822603   0.453742   0.014812  -0.079791   0.001784   0.397716
     8  C    0.453742   5.084006   0.446076  -0.015413  -0.054951  -0.035817
     9  C    0.014812   0.446076   4.926199   0.498075   0.013240  -0.041499
    10  C   -0.079791  -0.015413   0.498075   5.149396   0.409277  -0.038602
    11  C    0.001784  -0.054951   0.013240   0.409277   4.810113   0.482120
    12  C    0.397716  -0.035817  -0.041499  -0.038602   0.482120   4.879790
    13  C   -0.107009   0.014677  -0.002207   0.019347  -0.050545   0.416063
    14  C    0.007569  -0.000329   0.000087  -0.000584  -0.037087  -0.002421
    15  N   -0.000621   0.000041  -0.000240   0.007445   0.005258  -0.055845
    16  C    0.015316  -0.000696   0.007104  -0.079042   0.384726  -0.022504
    17  H   -0.000001  -0.000003  -0.000000   0.000000   0.000000   0.000000
    18  H    0.000001  -0.000000  -0.000000   0.000000   0.000000  -0.000000
    19  H   -0.000002  -0.000000   0.000000  -0.000000   0.000000   0.000000
    20  H    0.000324   0.000010  -0.000001   0.000000   0.000001  -0.000195
    21  H   -0.000017   0.000004   0.000000   0.000000  -0.000000   0.000005
    22  H    0.000007   0.000001  -0.000000   0.000000  -0.000000  -0.000003
    23  H   -0.028479   0.348904  -0.039435   0.004466   0.000518   0.004243
    24  H    0.002850  -0.037061   0.359271  -0.034453   0.002326   0.001167
    25  H    0.000539   0.004626  -0.043205   0.357960  -0.043539   0.004499
    26  H   -0.011408   0.000244  -0.000019  -0.000076   0.005563  -0.037201
    27  H   -0.000160   0.000003  -0.000001   0.000024   0.000948   0.001407
    28  H   -0.000178   0.000018   0.000064  -0.002342  -0.066281   0.003242
             13         14         15         16         17         18
     1  O    0.000045   0.000000  -0.000000  -0.000000   0.015984   0.000335
     2  C    0.000121   0.000009  -0.000000   0.000002  -0.001888   0.001581
     3  N   -0.000036  -0.000000  -0.000000  -0.000000  -0.028160  -0.046352
     4  C   -0.000000  -0.000000  -0.000000   0.000000   0.372343   0.379997
     5  C   -0.000353  -0.000000  -0.000000  -0.000000   0.004211  -0.002634
     6  O    0.001195   0.000511  -0.000002  -0.000063   0.000290  -0.000048
     7  C   -0.107009   0.007569  -0.000621   0.015316  -0.000001   0.000001
     8  C    0.014677  -0.000329   0.000041  -0.000696  -0.000003  -0.000000
     9  C   -0.002207   0.000087  -0.000240   0.007104  -0.000000  -0.000000
    10  C    0.019347  -0.000584   0.007445  -0.079042   0.000000   0.000000
    11  C   -0.050545  -0.037087   0.005258   0.384726   0.000000   0.000000
    12  C    0.416063  -0.002421  -0.055845  -0.022504   0.000000  -0.000000
    13  C    5.231403   0.466591  -0.013449  -0.073190  -0.000000   0.000000
    14  C    0.466591   4.828110   0.424858  -0.063618  -0.000000   0.000000
    15  N   -0.013449   0.424858   6.715925   0.435697   0.000000  -0.000000
    16  C   -0.073190  -0.063618   0.435697   5.053504   0.000000  -0.000000
    17  H   -0.000000  -0.000000   0.000000   0.000000   0.480895  -0.023490
    18  H    0.000000   0.000000  -0.000000  -0.000000  -0.023490   0.569245
    19  H   -0.000000  -0.000000   0.000000   0.000000  -0.025194  -0.043119
    20  H   -0.000211   0.000007   0.000000  -0.000000  -0.000178   0.000196
    21  H    0.000008  -0.000000   0.000000   0.000000  -0.000164  -0.001103
    22  H    0.000005   0.000000  -0.000000   0.000000   0.000037   0.006114
    23  H   -0.000107   0.000001  -0.000000   0.000002   0.000003  -0.000001
    24  H    0.000018  -0.000000   0.000001  -0.000196   0.000000  -0.000000
    25  H   -0.000163   0.000010   0.000145  -0.006164  -0.000000   0.000000
    26  H    0.347794  -0.040275   0.004851   0.000122  -0.000000   0.000000
    27  H   -0.059042   0.377974  -0.052726   0.005238   0.000000  -0.000000
    28  H    0.000514   0.005445  -0.051847   0.375977  -0.000000   0.000000
             19         20         21         22         23         24
     1  O    0.000678   0.000060  -0.000005  -0.000054   0.013743  -0.000004
     2  C    0.001319  -0.005277  -0.001237   0.002253   0.001097  -0.000012
     3  N   -0.055474  -0.028187  -0.053599  -0.037623  -0.000157  -0.000000
     4  C    0.379461   0.003841   0.000758  -0.003716   0.000018   0.000000
     5  C   -0.000054   0.377295   0.379071   0.373238  -0.000010   0.000000
     6  O    0.000023   0.004768   0.000913   0.000384  -0.006672  -0.000045
     7  C   -0.000002   0.000324  -0.000017   0.000007  -0.028479   0.002850
     8  C   -0.000000   0.000010   0.000004   0.000001   0.348904  -0.037061
     9  C    0.000000  -0.000001   0.000000  -0.000000  -0.039435   0.359271
    10  C   -0.000000   0.000000   0.000000   0.000000   0.004466  -0.034453
    11  C    0.000000   0.000001  -0.000000  -0.000000   0.000518   0.002326
    12  C    0.000000  -0.000195   0.000005  -0.000003   0.004243   0.001167
    13  C   -0.000000  -0.000211   0.000008   0.000005  -0.000107   0.000018
    14  C   -0.000000   0.000007  -0.000000   0.000000   0.000001  -0.000000
    15  N    0.000000   0.000000   0.000000  -0.000000  -0.000000   0.000001
    16  C    0.000000  -0.000000   0.000000   0.000000   0.000002  -0.000196
    17  H   -0.025194  -0.000178  -0.000164   0.000037   0.000003   0.000000
    18  H   -0.043119   0.000196  -0.001103   0.006114  -0.000001  -0.000000
    19  H    0.583706  -0.000169   0.005495  -0.002425   0.000003  -0.000000
    20  H   -0.000169   0.509574  -0.031375  -0.023609  -0.000002   0.000000
    21  H    0.005495  -0.031375   0.578698  -0.039062   0.000007  -0.000000
    22  H   -0.002425  -0.023609  -0.039062   0.564584  -0.000000   0.000000
    23  H    0.000003  -0.000002   0.000007  -0.000000   0.533433  -0.005087
    24  H   -0.000000   0.000000  -0.000000   0.000000  -0.005087   0.572646
    25  H   -0.000000   0.000000   0.000000   0.000000  -0.000167  -0.004612
    26  H   -0.000000   0.003323  -0.000020  -0.000007  -0.000003   0.000000
    27  H    0.000000  -0.000002   0.000000   0.000000  -0.000000   0.000000
    28  H    0.000000   0.000000   0.000000   0.000000   0.000000  -0.000004
             25         26         27         28
     1  O    0.000000   0.000006  -0.000000   0.000000
     2  C    0.000000  -0.000036  -0.000000   0.000000
     3  N    0.000000  -0.000032  -0.000000   0.000000
     4  C   -0.000000  -0.000000  -0.000000  -0.000000
     5  C   -0.000000   0.000219  -0.000000  -0.000000
     6  O    0.000002   0.005770  -0.000003   0.000000
     7  C    0.000539  -0.011408  -0.000160  -0.000178
     8  C    0.004626   0.000244   0.000003   0.000018
     9  C   -0.043205  -0.000019  -0.000001   0.000064
    10  C    0.357960  -0.000076   0.000024  -0.002342
    11  C   -0.043539   0.005563   0.000948  -0.066281
    12  C    0.004499  -0.037201   0.001407   0.003242
    13  C   -0.000163   0.347794  -0.059042   0.000514
    14  C    0.000010  -0.040275   0.377974   0.005445
    15  N    0.000145   0.004851  -0.052726  -0.051847
    16  C   -0.006164   0.000122   0.005238   0.375977
    17  H   -0.000000  -0.000000   0.000000  -0.000000
    18  H    0.000000   0.000000  -0.000000   0.000000
    19  H   -0.000000  -0.000000   0.000000   0.000000
    20  H    0.000000   0.003323  -0.000002   0.000000
    21  H    0.000000  -0.000020   0.000000   0.000000
    22  H    0.000000  -0.000007   0.000000   0.000000
    23  H   -0.000167  -0.000003  -0.000000   0.000000
    24  H   -0.004612   0.000000   0.000000  -0.000004
    25  H    0.586212   0.000003   0.000000   0.005941
    26  H    0.000003   0.577497  -0.001597   0.000027
    27  H    0.000000  -0.001597   0.588414  -0.000212
    28  H    0.005941   0.000027  -0.000212   0.583056
 Mulliken atomic charges:
              1
     1  O   -0.506691
     2  C    0.781955
     3  N   -0.432857
     4  C   -0.316516
     5  C   -0.311665
     6  O   -0.571595
     7  C    0.291374
     8  C   -0.143126
     9  C   -0.142465
    10  C   -0.195733
    11  C    0.133575
    12  C    0.105764
    13  C   -0.191470
    14  C    0.033140
    15  N   -0.419491
    16  C   -0.032213
    17  H    0.205315
    18  H    0.159277
    19  H    0.155752
    20  H    0.189807
    21  H    0.161622
    22  H    0.159877
    23  H    0.173681
    24  H    0.143197
    25  H    0.137913
    26  H    0.145255
    27  H    0.139735
    28  H    0.146582
 Sum of Mulliken atomic charges =  -0.00000
 Mulliken charges with hydrogens summed into heavy atoms:
              1
     1  O   -0.506691
     2  C    0.781955
     3  N   -0.432857
     4  C    0.203829
     5  C    0.199641
     6  O   -0.571595
     7  C    0.291374
     8  C    0.030555
     9  C    0.000732
    10  C   -0.057820
    11  C    0.133575
    12  C    0.105764
    13  C   -0.046215
    14  C    0.172875
    15  N   -0.419491
    16  C    0.114368
 Sum of Mulliken charges with hydrogens summed into heavy atoms =  -0.00000
 Electronic spatial extent (au):  <R**2>=           4170.5773
 Charge=              0.0000 electrons
 Dipole moment (field-independent basis, Debye):
    X=              2.9176    Y=             -0.5167    Z=              1.4395  Tot=              3.2942
 Quadrupole moment (field-independent basis, Debye-Ang):
   XX=            -86.4717   YY=            -86.6754   ZZ=            -95.2065
   XY=            -15.6742   XZ=              2.5471   YZ=              2.3987
 Traceless Quadrupole moment (field-independent basis, Debye-Ang):
   XX=              2.9795   YY=              2.7758   ZZ=             -5.7553
   XY=            -15.6742   XZ=              2.5471   YZ=              2.3987
 Octapole moment (field-independent basis, Debye-Ang**2):
  XXX=            118.0528  YYY=              2.4647  ZZZ=             -1.0932  XYY=             10.1358
  XXY=             23.4918  XXZ=              9.0737  XZZ=             13.3771  YZZ=             -2.9761
  YYZ=              6.0700  XYZ=              5.2892
 Hexadecapole moment (field-independent basis, Debye-Ang**3):
 XXXX=          -3945.4115 YYYY=          -1184.9643 ZZZZ=           -153.6888 XXXY=           -244.2915
 XXXZ=            -13.4746 YYYX=            -43.2985 YYYZ=             14.2953 ZZZX=              1.2806
 ZZZY=             -6.9360 XXYY=           -930.7677 XXZZ=           -731.2672 YYZZ=           -257.6445
 XXYZ=             -1.0060 YYXZ=              3.8424 ZZXY=             -0.0945
 N-N= 1.041937329969D+03 E-N=-3.768888979163D+03  KE= 7.175663249728D+02
 No NMR shielding tensors so no spin-rotation constants.
 Leave Link  601 at Thu Sep 30 04:27:44 2021, MaxMem= 1073741824 cpu:       1.4
 (Enter /sw/target/amd/app/gaussian/Gaussian09RevA.02_gcc-4.9.2/g09/l701.exe)
 Compute integral first derivatives.
 ... and contract with generalized density number  0.
 Leave Link  701 at Thu Sep 30 04:27:46 2021, MaxMem= 1073741824 cpu:       1.3
 (Enter /sw/target/amd/app/gaussian/Gaussian09RevA.02_gcc-4.9.2/g09/l702.exe)
 L702 exits ... SP integral derivatives will be done elsewhere.
 Leave Link  702 at Thu Sep 30 04:27:46 2021, MaxMem= 1073741824 cpu:       0.1
 (Enter /sw/target/amd/app/gaussian/Gaussian09RevA.02_gcc-4.9.2/g09/l703.exe)
 Compute integral first derivatives, UseDBF=F ICtDFT=           0.
 Integral derivatives from FoFDir, PRISM(SPDF).
 Calling FoFJK, ICntrl=      2127 FMM=F ISym2X=0 I1Cent= 0 IOpClX= 0 NMat=1 NMatS=1 NMatT=0.
 FoFCou: FMM=F IPFlag=           0 FMFlag=      100000 FMFlg1=         800
         NFxFlg=           0 DoJE=F BraDBF=F KetDBF=F FulRan=T
         Omega=  0.000000  0.000000  1.000000  0.000000  0.000000 ICntrl=    2127 IOpCl=  0
         NMat0=    1 NMatS0=    1 NMatT0=    0 NMatD0=    1 NMtDS0=    0 NMtDT0=    0
         I1Cent=           0 NGrid=           0.
 Symmetry not used in FoFCou.
 Leave Link  703 at Thu Sep 30 04:29:38 2021, MaxMem= 1073741824 cpu:      96.6
 (Enter /sw/target/amd/app/gaussian/Gaussian09RevA.02_gcc-4.9.2/g09/l716.exe)
 Dipole        = 1.14786489D+00-2.03281468D-01 5.66352124D-01
 ***** Axes restored to original set *****
 -------------------------------------------------------------------
 Center     Atomic                   Forces (Hartrees/Bohr)
 Number     Number              X              Y              Z
 -------------------------------------------------------------------
      1        8           0.000553872   -0.009653741   -0.014081727
      2        6          -0.003527512    0.010543036    0.009080415
      3        7           0.030863822   -0.007783230    0.013322959
      4        6          -0.001217236    0.000743657    0.000389351
      5        6           0.003098945    0.002062332   -0.002157497
      6        8           0.002202628   -0.002323567    0.000682429
      7        6          -0.019275468    0.027680959    0.008902009
      8        6          -0.019539427   -0.005138021   -0.007263058
      9        6           0.022293355   -0.017013960   -0.001530140
     10        6           0.001560977    0.022365661    0.008506682
     11        6           0.009121716    0.007917590    0.004842214
     12        6          -0.021839140    0.000786512   -0.003288071
     13        6          -0.001147832   -0.013869344   -0.005158206
     14        6          -0.008128124    0.006170178    0.000304990
     15        7           0.018574848    0.024222925    0.014171734
     16        6          -0.002145590   -0.041901493   -0.017508091
     17        1           0.003905428   -0.004728891   -0.001732477
     18        1          -0.003503275    0.001417205    0.000201857
     19        1          -0.004418173    0.002586516   -0.001045796
     20        1          -0.000671670    0.002612029    0.000177185
     21        1          -0.002153027   -0.003776145   -0.007124317
     22        1          -0.000586931    0.001113810   -0.000023222
     23        1          -0.002571264   -0.005617565   -0.000417708
     24        1          -0.000602158   -0.000773280   -0.000659456
     25        1          -0.000501300   -0.002799200   -0.000933459
     26        1           0.000026610    0.002164801    0.001157001
     27        1          -0.001894544   -0.000287803   -0.000488396
     28        1           0.001520469    0.003279031    0.001672796
 -------------------------------------------------------------------
 Cartesian Forces:  Max     0.041901493 RMS     0.010453249
 Leave Link  716 at Thu Sep 30 04:29:38 2021, MaxMem= 1073741824 cpu:       0.0
 (Enter /sw/target/amd/app/gaussian/Gaussian09RevA.02_gcc-4.9.2/g09/l103.exe)

 GradGradGradGradGradGradGradGradGradGradGradGradGradGradGradGradGradGrad
 Berny optimization.
 Internal  Forces:  Max     0.027290718 RMS     0.006415404
 Search for a local minimum.
 Step number   1 out of a maximum of  146
 All quantities printed in internal units (Hartrees-Bohrs-Radians)
 RMS Force = .64154D-02 SwitMx=.10000D-02 MixMth= 1
 Mixed Optimization -- RFO/linear search
 Second derivative matrix not updated -- first step.
     Eigenvalues ---    0.01021   0.01040   0.01293   0.01430   0.01720
     Eigenvalues ---    0.01802   0.01842   0.01929   0.01975   0.01976
     Eigenvalues ---    0.02019   0.02066   0.02076   0.02132   0.02154
     Eigenvalues ---    0.02157   0.02169   0.02176   0.02181   0.02309
     Eigenvalues ---    0.02329   0.07416   0.07522   0.07716   0.07793
     Eigenvalues ---    0.15999   0.16000   0.16000   0.16000   0.16000
     Eigenvalues ---    0.16000   0.16000   0.16000   0.16000   0.16000
     Eigenvalues ---    0.16000   0.16000   0.22076   0.22397   0.23212
     Eigenvalues ---    0.23587   0.24582   0.24585   0.24738   0.24919
     Eigenvalues ---    0.24954   0.24998   0.25000   0.25000   0.34305
     Eigenvalues ---    0.34349   0.34379   0.34397   0.34470   0.34497
     Eigenvalues ---    0.35056   0.35129   0.35195   0.35197   0.35278
     Eigenvalues ---    0.35482   0.38148   0.38337   0.39330   0.40787
     Eigenvalues ---    0.42179   0.42487   0.43519   0.44838   0.45466
     Eigenvalues ---    0.45669   0.45971   0.46605   0.47421   0.47553
     Eigenvalues ---    0.52736   0.54559   0.928211000.000001000.00000
     Eigenvalues --- 1000.000001000.000001000.000001000.000001000.00000
     Eigenvalues --- 1000.000001000.000001000.000001000.000001000.00000
     Eigenvalues --- 1000.000001000.000001000.000001000.000001000.00000
     Eigenvalues --- 1000.000001000.000001000.000001000.000001000.00000
     Eigenvalues --- 1000.000001000.000001000.000001000.000001000.00000
     Eigenvalues --- 1000.000001000.000001000.000001000.000001000.00000
     Eigenvalues --- 1000.000001000.000001000.000001000.000001000.00000
     Eigenvalues --- 1000.000001000.000001000.000001000.000001000.00000
     Eigenvalues --- 1000.000001000.000001000.000001000.000001000.00000
     Eigenvalues --- 1000.000001000.000001000.000001000.000001000.00000
     Eigenvalues --- 1000.000001000.000001000.000001000.000001000.00000
     Eigenvalues --- 1000.00000
 RFO step:  Lambda=-1.52604298D-02 EMin= 1.02056351D-02
 Linear search not attempted -- first point.
 Iteration  1 RMS(Cart)=  0.07139334 RMS(Int)=  0.00175501
 Iteration  2 RMS(Cart)=  0.00281621 RMS(Int)=  0.00016089
 Iteration  3 RMS(Cart)=  0.00000620 RMS(Int)=  0.00016083
 Iteration  4 RMS(Cart)=  0.00000000 RMS(Int)=  0.00016083
 Variable       Old X    -DE/DX   Delta X   Delta X   Delta X     New X
                                 (Linear)    (Quad)   (Total)
    R1        2.31660  -0.01672   0.00000  -0.01773  -0.01773   2.29887
    R2        2.62418  -0.02304   0.00000  -0.04694  -0.04694   2.57725
    R3        2.64164  -0.01971   0.00000  -0.04151  -0.04151   2.60013
    R4        2.73877   0.00331   0.00000   0.00831   0.00831   2.74708
    R5        2.74150   0.00596   0.00000   0.01503   0.01503   2.75653
    R6        2.06544  -0.00314   0.00000  -0.00871  -0.00871   2.05673
    R7        2.06665   0.00210   0.00000   0.00585   0.00585   2.07250
    R8        2.06818   0.00329   0.00000   0.00918   0.00918   2.07736
    R9        2.06500  -0.00249   0.00000  -0.00691  -0.00691   2.05809
   R10        2.06696   0.00368   0.00000   0.01025   0.01025   2.07721
   R11        2.06746   0.00021   0.00000   0.00058   0.00058   2.06804
   R12        2.68308  -0.02316   0.00000  -0.05261  -0.05261   2.63047
   R13        2.63923  -0.01525   0.00000  -0.03304  -0.03302   2.60620
   R14        2.67308   0.00335   0.00000   0.00806   0.00803   2.68111
   R15        2.63154   0.01981   0.00000   0.03930   0.03934   2.67088
   R16        2.05226  -0.00347   0.00000  -0.00941  -0.00941   2.04284
   R17        2.63494  -0.01310   0.00000  -0.02781  -0.02778   2.60716
   R18        2.05467  -0.00115   0.00000  -0.00313  -0.00313   2.05153
   R19        2.65918   0.00735   0.00000   0.01709   0.01708   2.67626
   R20        2.05584  -0.00069   0.00000  -0.00190  -0.00190   2.05395
   R21        2.66169   0.01890   0.00000   0.04525   0.04517   2.70687
   R22        2.64030   0.01631   0.00000   0.03461   0.03457   2.67487
   R23        2.65929   0.00510   0.00000   0.01278   0.01279   2.67208
   R24        2.61779  -0.00432   0.00000  -0.00924  -0.00919   2.60860
   R25        2.04899  -0.00041   0.00000  -0.00110  -0.00110   2.04789
   R26        2.54488   0.01185   0.00000   0.01893   0.01897   2.56385
   R27        2.05360   0.00114   0.00000   0.00311   0.00311   2.05670
   R28        2.55749  -0.02729   0.00000  -0.05026  -0.05027   2.50722
   R29        2.05356   0.00162   0.00000   0.00440   0.00440   2.05796
    A1        2.15652   0.01051   0.00000   0.03985   0.03948   2.19600
    A2        2.17077   0.00279   0.00000   0.01074   0.01038   2.18115
    A3        1.95577  -0.01328   0.00000  -0.04985  -0.05022   1.90555
    A4        2.08285  -0.00377   0.00000  -0.01433  -0.01433   2.06852
    A5        2.13860   0.00371   0.00000   0.01431   0.01431   2.15291
    A6        2.04759   0.00007   0.00000   0.00033   0.00033   2.04792
    A7        1.95786  -0.01009   0.00000  -0.06065  -0.06027   1.89759
    A8        1.90124   0.00491   0.00000   0.02804   0.02769   1.92893
    A9        1.89378   0.00661   0.00000   0.04065   0.04049   1.93427
   A10        1.90353   0.00113   0.00000   0.00071   0.00090   1.90442
   A11        1.89595   0.00140   0.00000   0.00770   0.00825   1.90420
   A12        1.91113  -0.00397   0.00000  -0.01619  -0.01703   1.89410
   A13        1.93863  -0.00264   0.00000  -0.01568  -0.01593   1.92270
   A14        1.89629   0.01157   0.00000   0.06979   0.06977   1.96606
   A15        1.91255  -0.00282   0.00000  -0.01929  -0.01939   1.89316
   A16        1.90805  -0.00324   0.00000  -0.01234  -0.01249   1.89556
   A17        1.89262   0.00108   0.00000  -0.00105  -0.00139   1.89123
   A18        1.91570  -0.00410   0.00000  -0.02223  -0.02211   1.89359
   A19        2.16434  -0.01501   0.00000  -0.05659  -0.05659   2.10775
   A20        2.12644   0.00706   0.00000   0.02641   0.02643   2.15287
   A21        2.03695  -0.00740   0.00000  -0.02819  -0.02816   2.00879
   A22        2.11818   0.00034   0.00000   0.00159   0.00153   2.11971
   A23        2.08856   0.00089   0.00000  -0.00044  -0.00043   2.08813
   A24        2.12049  -0.00533   0.00000  -0.02762  -0.02764   2.09285
   A25        2.07413   0.00443   0.00000   0.02807   0.02805   2.10218
   A26        2.09557   0.00497   0.00000   0.01794   0.01797   2.11354
   A27        2.09146  -0.00266   0.00000  -0.00995  -0.00997   2.08149
   A28        2.09616  -0.00231   0.00000  -0.00798  -0.00800   2.08816
   A29        2.10436  -0.00401   0.00000  -0.01458  -0.01461   2.08975
   A30        2.07706   0.00499   0.00000   0.02437   0.02437   2.10143
   A31        2.10171  -0.00098   0.00000  -0.00971  -0.00970   2.09200
   A32        2.09592  -0.00090   0.00000  -0.00018  -0.00022   2.09569
   A33        2.13434   0.00238   0.00000   0.00267   0.00277   2.13712
   A34        2.05292  -0.00148   0.00000  -0.00249  -0.00254   2.05037
   A35        2.06290  -0.00126   0.00000  -0.00350  -0.00360   2.05931
   A36        2.15815   0.00514   0.00000   0.01236   0.01245   2.17059
   A37        2.06213  -0.00388   0.00000  -0.00887  -0.00886   2.05327
   A38        2.08117  -0.00262   0.00000  -0.00709  -0.00706   2.07412
   A39        2.11868  -0.00116   0.00000  -0.01051  -0.01053   2.10815
   A40        2.08332   0.00377   0.00000   0.01761   0.01759   2.10091
   A41        2.16163   0.00362   0.00000   0.01168   0.01173   2.17336
   A42        2.11041  -0.00347   0.00000  -0.01530  -0.01533   2.09508
   A43        2.01115  -0.00015   0.00000   0.00362   0.00359   2.01474
   A44        2.03113   0.00507   0.00000   0.01072   0.01073   2.04186
   A45        2.17734  -0.00071   0.00000  -0.00390  -0.00397   2.17337
   A46        2.11314  -0.00338   0.00000  -0.01936  -0.01933   2.09381
   A47        1.99268   0.00409   0.00000   0.02329   0.02332   2.01600
    D1        0.22544  -0.00112   0.00000  -0.03284  -0.03268   0.19276
    D2       -3.10099  -0.00107   0.00000  -0.03089  -0.03075  -3.13173
    D3       -2.89974  -0.00270   0.00000  -0.08112  -0.08127  -2.98101
    D4        0.05702  -0.00265   0.00000  -0.07917  -0.07934  -0.02231
    D5       -0.03742  -0.00021   0.00000  -0.00515  -0.00482  -0.04224
    D6        3.08760   0.00147   0.00000   0.04391   0.04359   3.13119
    D7       -0.12216  -0.00033   0.00000  -0.00552  -0.00537  -0.12753
    D8       -2.23131   0.00140   0.00000   0.01352   0.01393  -2.21738
    D9        1.97250  -0.00047   0.00000  -0.00665  -0.00721   1.96529
   D10       -3.08846  -0.00079   0.00000  -0.00895  -0.00879  -3.09725
   D11        1.08558   0.00094   0.00000   0.01009   0.01051   1.09608
   D12       -0.99380  -0.00094   0.00000  -0.01008  -0.01063  -1.00444
   D13        0.57039   0.00121   0.00000   0.00357   0.00348   0.57387
   D14       -1.52902  -0.00059   0.00000  -0.01642  -0.01653  -1.54555
   D15        2.66116  -0.00093   0.00000  -0.02011  -0.01993   2.64122
   D16       -2.75252   0.00087   0.00000   0.00397   0.00390  -2.74862
   D17        1.43126  -0.00094   0.00000  -0.01601  -0.01611   1.41515
   D18       -0.66175  -0.00127   0.00000  -0.01971  -0.01951  -0.68126
   D19       -0.56785  -0.00057   0.00000  -0.01890  -0.01892  -0.58676
[...]
 Molar volume = 1736.298 bohr**3/mol (154.945 cm**3/mol)
 Recommended a0 for SCRF calculation =  4.84 angstrom (  9.15 bohr)
 Leave Link  604 at Thu Sep 30 14:14:49 2021, MaxMem= 1073741824 cpu:       0.3
 (Enter /sw/target/amd/app/gaussian/Gaussian09RevA.02_gcc-4.9.2/g09/l607.exe)
 ******************************Gaussian NBO Version 3.1******************************
             N A T U R A L   A T O M I C   O R B I T A L   A N D
          N A T U R A L   B O N D   O R B I T A L   A N A L Y S I S
 ******************************Gaussian NBO Version 3.1******************************
       /RESON  / : Allow strongly delocalized NBO set

 Analyzing the CI density

 Job title: O=C(N(C)C)Oc1cccc2c1ccnc2_conf_0                                

 Storage needed:    211732 in NPA (1073737624 available)


 NATURAL POPULATIONS:  Natural atomic orbital occupancies 
                                                          
   NAO  Atom  No  lang   Type(AO)    Occupancy
 --------------------------------------------
     1    O    1  S      Cor( 1S)     1.99978
     2    O    1  S      Val( 2S)     1.70364
     3    O    1  S      Ryd( 3S)     0.00044
     4    O    1  S      Ryd( 4S)     0.00012
     5    O    1  px     Val( 2p)     1.79997
     6    O    1  px     Ryd( 3p)     0.00095
     7    O    1  py     Val( 2p)     1.56023
     8    O    1  py     Ryd( 3p)     0.00060
     9    O    1  pz     Val( 2p)     1.55276
    10    O    1  pz     Ryd( 3p)     0.00075
    11    O    1  dxy    Ryd( 3d)     0.00313
    12    O    1  dxz    Ryd( 3d)     0.00208
    13    O    1  dyz    Ryd( 3d)     0.00449
    14    O    1  dx2y2  Ryd( 3d)     0.00290
    15    O    1  dz2    Ryd( 3d)     0.00382

    16    C    2  S      Cor( 1S)     1.99936
    17    C    2  S      Val( 2S)     0.69406
    18    C    2  S      Ryd( 3S)     0.00258
    19    C    2  S      Ryd( 4S)     0.00046
    20    C    2  px     Val( 2p)     0.75309
    21    C    2  px     Ryd( 3p)     0.00631
    22    C    2  py     Val( 2p)     0.78883
    23    C    2  py     Ryd( 3p)     0.01370
    24    C    2  pz     Val( 2p)     0.78271
    25    C    2  pz     Ryd( 3p)     0.01025
    26    C    2  dxy    Ryd( 3d)     0.00309
    27    C    2  dxz    Ryd( 3d)     0.00313
    28    C    2  dyz    Ryd( 3d)     0.00092
    29    C    2  dx2y2  Ryd( 3d)     0.00218
    30    C    2  dz2    Ryd( 3d)     0.00225

    31    N    3  S      Cor( 1S)     1.99932
    32    N    3  S      Val( 2S)     1.20710
    33    N    3  S      Ryd( 3S)     0.00117
    34    N    3  S      Ryd( 4S)     0.00004
    35    N    3  px     Val( 2p)     1.31418
    36    N    3  px     Ryd( 3p)     0.00134
    37    N    3  py     Val( 2p)     1.43528
    38    N    3  py     Ryd( 3p)     0.00226
    39    N    3  pz     Val( 2p)     1.51039
    40    N    3  pz     Ryd( 3p)     0.00317
    41    N    3  dxy    Ryd( 3d)     0.00069
    42    N    3  dxz    Ryd( 3d)     0.00073
    43    N    3  dyz    Ryd( 3d)     0.00055
    44    N    3  dx2y2  Ryd( 3d)     0.00059
    45    N    3  dz2    Ryd( 3d)     0.00043

    46    C    4  S      Cor( 1S)     1.99947
    47    C    4  S      Val( 2S)     1.08817
    48    C    4  S      Ryd( 3S)     0.00092
    49    C    4  S      Ryd( 4S)     0.00002
    50    C    4  px     Val( 2p)     0.94732
    51    C    4  px     Ryd( 3p)     0.00202
    52    C    4  py     Val( 2p)     1.25071
    53    C    4  py     Ryd( 3p)     0.00249
    54    C    4  pz     Val( 2p)     1.17280
    55    C    4  pz     Ryd( 3p)     0.00184
    56    C    4  dxy    Ryd( 3d)     0.00064
    57    C    4  dxz    Ryd( 3d)     0.00147
    58    C    4  dyz    Ryd( 3d)     0.00103
    59    C    4  dx2y2  Ryd( 3d)     0.00111
    60    C    4  dz2    Ryd( 3d)     0.00037

    61    C    5  S      Cor( 1S)     1.99946
    62    C    5  S      Val( 2S)     1.08662
    63    C    5  S      Ryd( 3S)     0.00099
    64    C    5  S      Ryd( 4S)     0.00002
    65    C    5  px     Val( 2p)     1.26773
    66    C    5  px     Ryd( 3p)     0.00312
    67    C    5  py     Val( 2p)     1.00683
    68    C    5  py     Ryd( 3p)     0.00145
    69    C    5  pz     Val( 2p)     1.10045
    70    C    5  pz     Ryd( 3p)     0.00137
    71    C    5  dxy    Ryd( 3d)     0.00023
    72    C    5  dxz    Ryd( 3d)     0.00111
    73    C    5  dyz    Ryd( 3d)     0.00132
    74    C    5  dx2y2  Ryd( 3d)     0.00141
    75    C    5  dz2    Ryd( 3d)     0.00057

    76    O    6  S      Cor( 1S)     1.99969
    77    O    6  S      Val( 2S)     1.59634
    78    O    6  S      Ryd( 3S)     0.00092
    79    O    6  S      Ryd( 4S)     0.00013
    80    O    6  px     Val( 2p)     1.42394
    81    O    6  px     Ryd( 3p)     0.00087
    82    O    6  py     Val( 2p)     1.78282
    83    O    6  py     Ryd( 3p)     0.00189
    84    O    6  pz     Val( 2p)     1.72070
    85    O    6  pz     Ryd( 3p)     0.00137
    86    O    6  dxy    Ryd( 3d)     0.00103
    87    O    6  dxz    Ryd( 3d)     0.00073
    88    O    6  dyz    Ryd( 3d)     0.00119
    89    O    6  dx2y2  Ryd( 3d)     0.00096
    90    O    6  dz2    Ryd( 3d)     0.00115

    91    C    7  S      Cor( 1S)     1.99866
    92    C    7  S      Val( 2S)     0.82817
    93    C    7  S      Ryd( 3S)     0.00122
    94    C    7  S      Ryd( 4S)     0.00015
    95    C    7  px     Val( 2p)     0.79660
    96    C    7  px     Ryd( 3p)     0.00586
    97    C    7  py     Val( 2p)     1.01216
    98    C    7  py     Ryd( 3p)     0.00627
    99    C    7  pz     Val( 2p)     0.98520
   100    C    7  pz     Ryd( 3p)     0.00320
   101    C    7  dxy    Ryd( 3d)     0.00168
   102    C    7  dxz    Ryd( 3d)     0.00118
   103    C    7  dyz    Ryd( 3d)     0.00107
   104    C    7  dx2y2  Ryd( 3d)     0.00142
   105    C    7  dz2    Ryd( 3d)     0.00052

   106    C    8  S      Cor( 1S)     1.99902
   107    C    8  S      Val( 2S)     0.96482
   108    C    8  S      Ryd( 3S)     0.00077
   109    C    8  S      Ryd( 4S)     0.00005
   110    C    8  px     Val( 2p)     1.16247
   111    C    8  px     Ryd( 3p)     0.00418
   112    C    8  py     Val( 2p)     1.10271
   113    C    8  py     Ryd( 3p)     0.00457
   114    C    8  pz     Val( 2p)     1.05297
   115    C    8  pz     Ryd( 3p)     0.00299
   116    C    8  dxy    Ryd( 3d)     0.00059
   117    C    8  dxz    Ryd( 3d)     0.00045
   118    C    8  dyz    Ryd( 3d)     0.00065
   119    C    8  dx2y2  Ryd( 3d)     0.00077
   120    C    8  dz2    Ryd( 3d)     0.00045

   121    C    9  S      Cor( 1S)     1.99912
   122    C    9  S      Val( 2S)     0.96958
   123    C    9  S      Ryd( 3S)     0.00061
   124    C    9  S      Ryd( 4S)     0.00004
   125    C    9  px     Val( 2p)     1.05348
   126    C    9  px     Ryd( 3p)     0.00465
   127    C    9  py     Val( 2p)     1.19474
   128    C    9  py     Ryd( 3p)     0.00513
   129    C    9  pz     Val( 2p)     0.94578
   130    C    9  pz     Ryd( 3p)     0.00117
   131    C    9  dxy    Ryd( 3d)     0.00066
   132    C    9  dxz    Ryd( 3d)     0.00084
   133    C    9  dyz    Ryd( 3d)     0.00038
   134    C    9  dx2y2  Ryd( 3d)     0.00088
   135    C    9  dz2    Ryd( 3d)     0.00045

   136    C   10  S      Cor( 1S)     1.99905
   137    C   10  S      Val( 2S)     0.95852
   138    C   10  S      Ryd( 3S)     0.00063
   139    C   10  S      Ryd( 4S)     0.00005
   140    C   10  px     Val( 2p)     1.17336
   141    C   10  px     Ryd( 3p)     0.00442
   142    C   10  py     Val( 2p)     1.07286
   143    C   10  py     Ryd( 3p)     0.00427
   144    C   10  pz     Val( 2p)     0.95737
   145    C   10  pz     Ryd( 3p)     0.00283
   146    C   10  dxy    Ryd( 3d)     0.00080
   147    C   10  dxz    Ryd( 3d)     0.00047
   148    C   10  dyz    Ryd( 3d)     0.00048
   149    C   10  dx2y2  Ryd( 3d)     0.00075
   150    C   10  dz2    Ryd( 3d)     0.00043

   151    C   11  S      Cor( 1S)     1.99902
   152    C   11  S      Val( 2S)     0.88547
   153    C   11  S      Ryd( 3S)     0.00072
   154    C   11  S      Ryd( 4S)     0.00007
   155    C   11  px     Val( 2p)     1.09159
   156    C   11  px     Ryd( 3p)     0.00536
   157    C   11  py     Val( 2p)     1.09577
   158    C   11  py     Ryd( 3p)     0.00442
   159    C   11  pz     Val( 2p)     1.00465
   160    C   11  pz     Ryd( 3p)     0.00075
   161    C   11  dxy    Ryd( 3d)     0.00071
   162    C   11  dxz    Ryd( 3d)     0.00075
   163    C   11  dyz    Ryd( 3d)     0.00078
   164    C   11  dx2y2  Ryd( 3d)     0.00068
   165    C   11  dz2    Ryd( 3d)     0.00039

   166    C   12  S      Cor( 1S)     1.99896
   167    C   12  S      Val( 2S)     0.87446
   168    C   12  S      Ryd( 3S)     0.00064
   169    C   12  S      Ryd( 4S)     0.00007
   170    C   12  px     Val( 2p)     1.07864
   171    C   12  px     Ryd( 3p)     0.00570
   172    C   12  py     Val( 2p)     1.10293
   173    C   12  py     Ryd( 3p)     0.00475
   174    C   12  pz     Val( 2p)     0.99896
   175    C   12  pz     Ryd( 3p)     0.00112
   176    C   12  dxy    Ryd( 3d)     0.00081
   177    C   12  dxz    Ryd( 3d)     0.00058
   178    C   12  dyz    Ryd( 3d)     0.00089
   179    C   12  dx2y2  Ryd( 3d)     0.00056
   180    C   12  dz2    Ryd( 3d)     0.00039

   181    C   13  S      Cor( 1S)     1.99905
   182    C   13  S      Val( 2S)     0.96123
   183    C   13  S      Ryd( 3S)     0.00072
   184    C   13  S      Ryd( 4S)     0.00006
   185    C   13  px     Val( 2p)     1.18109
   186    C   13  px     Ryd( 3p)     0.00438
   187    C   13  py     Val( 2p)     1.07594
   188    C   13  py     Ryd( 3p)     0.00388
   189    C   13  pz     Val( 2p)     1.05998
   190    C   13  pz     Ryd( 3p)     0.00398
   191    C   13  dxy    Ryd( 3d)     0.00075
   192    C   13  dxz    Ryd( 3d)     0.00044
   193    C   13  dyz    Ryd( 3d)     0.00037
   194    C   13  dx2y2  Ryd( 3d)     0.00069
   195    C   13  dz2    Ryd( 3d)     0.00043

   196    C   14  S      Cor( 1S)     1.99917
   197    C   14  S      Val( 2S)     0.94274
   198    C   14  S      Ryd( 3S)     0.00124
   199    C   14  S      Ryd( 4S)     0.00010
   200    C   14  px     Val( 2p)     0.93308
   201    C   14  px     Ryd( 3p)     0.01013
   202    C   14  py     Val( 2p)     1.14940
   203    C   14  py     Ryd( 3p)     0.00560
   204    C   14  pz     Val( 2p)     0.87437
   205    C   14  pz     Ryd( 3p)     0.00145
   206    C   14  dxy    Ryd( 3d)     0.00098
   207    C   14  dxz    Ryd( 3d)     0.00127
   208    C   14  dyz    Ryd( 3d)     0.00037
   209    C   14  dx2y2  Ryd( 3d)     0.00162
   210    C   14  dz2    Ryd( 3d)     0.00041

   211    N   15  S      Cor( 1S)     1.99947
   212    N   15  S      Val( 2S)     1.37325
   213    N   15  S      Ryd( 3S)     0.00059
   214    N   15  S      Ryd( 4S)     0.00001
   215    N   15  px     Val( 2p)     1.51900
   216    N   15  px     Ryd( 3p)     0.00540
   217    N   15  py     Val( 2p)     1.35538
   218    N   15  py     Ryd( 3p)     0.00483
   219    N   15  pz     Val( 2p)     1.23715
   220    N   15  pz     Ryd( 3p)     0.00212
   221    N   15  dxy    Ryd( 3d)     0.00262
   222    N   15  dxz    Ryd( 3d)     0.00205
   223    N   15  dyz    Ryd( 3d)     0.00127
   224    N   15  dx2y2  Ryd( 3d)     0.00301
   225    N   15  dz2    Ryd( 3d)     0.00216

   226    C   16  S      Cor( 1S)     1.99920
   227    C   16  S      Val( 2S)     0.91094
   228    C   16  S      Ryd( 3S)     0.00187
   229    C   16  S      Ryd( 4S)     0.00012
   230    C   16  px     Val( 2p)     1.13124
   231    C   16  px     Ryd( 3p)     0.00575
   232    C   16  py     Val( 2p)     0.93269
   233    C   16  py     Ryd( 3p)     0.01020
   234    C   16  pz     Val( 2p)     1.00100
   235    C   16  pz     Ryd( 3p)     0.00433
   236    C   16  dxy    Ryd( 3d)     0.00161
   237    C   16  dxz    Ryd( 3d)     0.00032
   238    C   16  dyz    Ryd( 3d)     0.00101
   239    C   16  dx2y2  Ryd( 3d)     0.00086
   240    C   16  dz2    Ryd( 3d)     0.00040

   241    H   17  S      Val( 1S)     0.73364
   242    H   17  S      Ryd( 2S)     0.00145

   243    H   18  S      Val( 1S)     0.77546
   244    H   18  S      Ryd( 2S)     0.00135

   245    H   19  S      Val( 1S)     0.77481
   246    H   19  S      Ryd( 2S)     0.00125

   247    H   20  S      Val( 1S)     0.74222
   248    H   20  S      Ryd( 2S)     0.00095

   249    H   21  S      Val( 1S)     0.77118
   250    H   21  S      Ryd( 2S)     0.00137

   251    H   22  S      Val( 1S)     0.77476
   252    H   22  S      Ryd( 2S)     0.00159

   253    H   23  S      Val( 1S)     0.73991
   254    H   23  S      Ryd( 2S)     0.00113

   255    H   24  S      Val( 1S)     0.75581
   256    H   24  S      Ryd( 2S)     0.00079

   257    H   25  S      Val( 1S)     0.75858
   258    H   25  S      Ryd( 2S)     0.00123

   259    H   26  S      Val( 1S)     0.75890
   260    H   26  S      Ryd( 2S)     0.00148

   261    H   27  S      Val( 1S)     0.77881
   262    H   27  S      Ryd( 2S)     0.00109

   263    H   28  S      Val( 1S)     0.78833
   264    H   28  S      Ryd( 2S)     0.00135

 WARNING:  1 low occupancy (<1.9990e) core orbital  found on  C    7
           1 low occupancy (<1.9990e) core orbital  found on  C   12


 Summary of Natural Population Analysis:                  
                                                          
                                       Natural Population 
                Natural  -----------------------------------------------
    Atom  No    Charge         Core      Valence    Rydberg      Total
 -----------------------------------------------------------------------
      O    1   -0.63565      1.99978     6.61661    0.01927     8.63565
      C    2    0.93706      1.99936     3.01869    0.04488     5.06294
      N    3   -0.47724      1.99932     5.46696    0.01097     7.47724
      C    4   -0.47038      1.99947     4.45900    0.01192     6.47038
      C    5   -0.47267      1.99946     4.46163    0.01158     6.47267
      O    6   -0.53373      1.99969     6.52381    0.01024     8.53373
      C    7    0.35667      1.99866     3.62213    0.02255     5.64333
      C    8   -0.29746      1.99902     4.28296    0.01547     6.29746
      C    9   -0.17751      1.99912     4.16358    0.01481     6.17751
      C   10   -0.17630      1.99905     4.16211    0.01514     6.17630
      C   11   -0.09111      1.99902     4.07747    0.01462     6.09111
      C   12   -0.06948      1.99896     4.05499    0.01552     6.06948
      C   13   -0.29299      1.99905     4.27824    0.01571     6.29299
      C   14    0.07808      1.99917     3.89959    0.02316     5.92192
      N   15   -0.50831      1.99947     5.48478    0.02406     7.50831
      C   16   -0.00153      1.99920     3.97586    0.02648     6.00153
      H   17    0.26491      0.00000     0.73364    0.00145     0.73509
      H   18    0.22319      0.00000     0.77546    0.00135     0.77681
      H   19    0.22394      0.00000     0.77481    0.00125     0.77606
      H   20    0.25683      0.00000     0.74222    0.00095     0.74317
      H   21    0.22745      0.00000     0.77118    0.00137     0.77255
      H   22    0.22366      0.00000     0.77476    0.00159     0.77634
      H   23    0.25896      0.00000     0.73991    0.00113     0.74104
      H   24    0.24340      0.00000     0.75581    0.00079     0.75660
      H   25    0.24020      0.00000     0.75858    0.00123     0.75980
      H   26    0.23962      0.00000     0.75890    0.00148     0.76038
      H   27    0.22010      0.00000     0.77881    0.00109     0.77990
      H   28    0.21033      0.00000     0.78833    0.00135     0.78967
 =======================================================================
   * Total *    0.00000     31.98779    81.70082    0.31139   114.00000

                                 Natural Population      
 --------------------------------------------------------
   Core                      31.98779 ( 99.9618% of  32)
   Valence                   81.70082 ( 99.6351% of  82)
   Natural Minimal Basis    113.68861 ( 99.7269% of 114)
   Natural Rydberg Basis      0.31139 (  0.2731% of 114)
 --------------------------------------------------------

    Atom  No          Natural Electron Configuration
 ----------------------------------------------------------------------------
      O    1      [core]2S( 1.70)2p( 4.91)3d( 0.02)
      C    2      [core]2S( 0.69)2p( 2.32)3p( 0.03)3d( 0.01)
      N    3      [core]2S( 1.21)2p( 4.26)3p( 0.01)
      C    4      [core]2S( 1.09)2p( 3.37)3p( 0.01)
      C    5      [core]2S( 1.09)2p( 3.38)3p( 0.01)
      O    6      [core]2S( 1.60)2p( 4.93)3d( 0.01)
      C    7      [core]2S( 0.83)2p( 2.79)3p( 0.02)3d( 0.01)
      C    8      [core]2S( 0.96)2p( 3.32)3p( 0.01)
      C    9      [core]2S( 0.97)2p( 3.19)3p( 0.01)
      C   10      [core]2S( 0.96)2p( 3.20)3p( 0.01)
      C   11      [core]2S( 0.89)2p( 3.19)3p( 0.01)
      C   12      [core]2S( 0.87)2p( 3.18)3p( 0.01)
      C   13      [core]2S( 0.96)2p( 3.32)3p( 0.01)
      C   14      [core]2S( 0.94)2p( 2.96)3p( 0.02)
      N   15      [core]2S( 1.37)2p( 4.11)3p( 0.01)3d( 0.01)
      C   16      [core]2S( 0.91)2p( 3.06)3p( 0.02)
      H   17            1S( 0.73)
      H   18            1S( 0.78)
      H   19            1S( 0.77)
      H   20            1S( 0.74)
      H   21            1S( 0.77)
      H   22            1S( 0.77)
      H   23            1S( 0.74)
      H   24            1S( 0.76)
      H   25            1S( 0.76)
      H   26            1S( 0.76)
      H   27            1S( 0.78)
      H   28            1S( 0.79)


 NBO analysis skipped by request.
 Leave Link  607 at Thu Sep 30 14:15:11 2021, MaxMem= 1073741824 cpu:      16.5
 (Enter /sw/target/amd/app/gaussian/Gaussian09RevA.02_gcc-4.9.2/g09/l9999.exe)
 1\1\GINC-HERMITE\SP\RTD-B3LYP-FC\6-31G(d)\C12H12N2O2\JSCHLEINITZ\30-Se
 p-2021\0\\#p TD(NStates=10, Root=1) b3lyp/6-31G* volume pop=NPA densit
 y=current Geom=AllCheck Guess=Read\\O=C(N(C)C)Oc1cccc2c1ccnc2_conf_0\\
 0,1\O,0,3.0826388394,-0.0314031769,2.0644886468\C,0,2.8661298325,-0.52
 37302698,0.9750092163\N,0,1.657672859,-0.5610694233,0.3445876779\C,0,0
 .4947124441,-0.0368082434,1.0451397685\C,0,1.410254649,-1.1795918652,-
 0.9496076286\O,0,3.8379958591,-1.1309809341,0.1975983972\C,0,5.1620454
 369,-1.1341589948,0.6148193905\C,0,5.8089153737,-0.006830102,1.0687330
 557\C,0,7.1839667566,-0.0673786956,1.3993235283\C,0,7.892706216,-1.239
 0742486,1.2634285665\C,0,7.241826821,-2.4068935568,0.7925418888\C,0,5.
 8524634419,-2.3690132074,0.4642458614\C,0,5.2536203456,-3.5701449879,0
 .0066150239\C,0,6.0247368019,-4.7041552752,-0.1021706327\N,0,7.3516814
 057,-4.7585197726,0.2006213446\C,0,7.9163015974,-3.6489133399,0.628037
 2258\H,0,0.8181379849,0.398526979,1.9892187073\H,0,-0.2300000195,-0.83
 7801978,1.2436120532\H,0,0.0017796424,0.7321548895,0.4369899652\H,0,2.
 3501733114,-1.4222255818,-1.4392156108\H,0,0.8481077502,-0.484568514,-
 1.5856868146\H,0,0.8151221615,-2.0967794522,-0.8379827877\H,0,5.260719
 8712,0.919209504,1.1855576779\H,0,7.6746223864,0.8314871838,1.76119686
 47\H,0,8.9493859693,-1.2847450956,1.5136238903\H,0,4.2003531821,-3.589
 5249519,-0.2493848254\H,0,5.5865078389,-5.6377468645,-0.4482455471\H,0
 ,8.9789391023,-3.7022773548,0.8698359135\\Version=AM64L-G09RevA.02\Sta
 te=1-A\HF=-724.4736492\RMSD=4.149e-10\Dipole=-1.4531489,1.1328531,-0.6
 390113\Quadrupole=10.1518619,-6.2504006,-3.9014612,7.6711086,6.7100229
 ,-1.4043143\PG=C01 [X(C12H12N2O2)]\\@


 HIGGLEDY-PIGGLEDY
 NIC'LAUS COPERNICUS
 LOOKED AT THE UNIVERSE,
 SPOKE TO THE THRONG;
 GIVE UP YOUR PTOLOMY,
 RISE UP AND FOLLOW ME,
 HELIOCENTRICALLY
 PTOLEMY'S WRONG.
   -- NANCY L. STARK
 Job cpu time:  0 days  3 hours 24 minutes  3.2 seconds.
 File lengths (MBytes):  RWF=    231 Int=      0 D2E=      0 Chk=     32 Scr=      1
 Normal termination of Gaussian 09 at Thu Sep 30 14:15:15 2021.
