 Entering Gaussian System, Link 0=g09
 Input=C12H16O3_f69c_conf_0.com
 Output=C12H16O3_f69c_conf_0.log
 Initial command:
 /sw/target/amd/app/gaussian/Gaussian09RevA.02_gcc-4.9.2/g09/l1.exe /home/jschleinitz/gaussian/Gau-1234538.inp -scrdir=/home/jschleinitz/gaussian/
 Entering Link 1 = /sw/target/amd/app/gaussian/Gaussian09RevA.02_gcc-4.9.2/g09/l1.exe PID=   1234540.
  
 Copyright (c) 1988,1990,1992,1993,1995,1998,2003,2009, Gaussian, Inc.
                  All Rights Reserved.
  
 This is part of the Gaussian(R) 09 program.  It is based on
 the Gaussian(R) 03 system (copyright 2003, Gaussian, Inc.),
 the Gaussian(R) 98 system (copyright 1998, Gaussian, Inc.),
 the Gaussian(R) 94 system (copyright 1995, Gaussian, Inc.),
 the Gaussian 92(TM) system (copyright 1992, Gaussian, Inc.),
 the Gaussian 90(TM) system (copyright 1990, Gaussian, Inc.),
 the Gaussian 88(TM) system (copyright 1988, Gaussian, Inc.),
 the Gaussian 86(TM) system (copyright 1986, Carnegie Mellon
 University), and the Gaussian 82(TM) system (copyright 1983,
 Carnegie Mellon University). Gaussian is a federally registered
 trademark of Gaussian, Inc.
  
 This software contains proprietary and confidential information,
 including trade secrets, belonging to Gaussian, Inc.
  
 This software is provided under written license and may be
 used, copied, transmitted, or stored only in accord with that
 written license.
  
 The following legend is applicable only to US Government
 contracts under FAR:
  
                    RESTRICTED RIGHTS LEGEND
  
 Use, reproduction and disclosure by the US Government is
 subject to restrictions as set forth in subparagraphs (a)
 and (c) of the Commercial Computer Software - Restricted
 Rights clause in FAR 52.227-19.
  
 Gaussian, Inc.
 340 Quinnipiac St., Bldg. 40, Wallingford CT 06492
  
  
 ---------------------------------------------------------------
 Warning -- This program may not be used in any manner that
 competes with the business of Gaussian, Inc. or will provide
 assistance to any competitor of Gaussian, Inc.  The licensee
 of this program is prohibited from giving any competitor of
 Gaussian, Inc. access to this program.  By using this program,
 the user acknowledges that Gaussian, Inc. is engaged in the
 business of creating and licensing software in the field of
 computational chemistry and represents and warrants to the
 licensee that it is not a competitor of Gaussian, Inc. and that
 it will not use this program in any manner prohibited above.
 ---------------------------------------------------------------
  

 Cite this work as:
 Gaussian 09, Revision A.02,
 M. J. Frisch, G. W. Trucks, H. B. Schlegel, G. E. Scuseria, 
 M. A. Robb, J. R. Cheeseman, G. Scalmani, V. Barone, B. Mennucci, 
 G. A. Petersson, H. Nakatsuji, M. Caricato, X. Li, H. P. Hratchian, 
 A. F. Izmaylov, J. Bloino, G. Zheng, J. L. Sonnenberg, M. Hada, 
 M. Ehara, K. Toyota, R. Fukuda, J. Hasegawa, M. Ishida, T. Nakajima, 
 Y. Honda, O. Kitao, H. Nakai, T. Vreven, J. A. Montgomery, Jr., 
 J. E. Peralta, F. Ogliaro, M. Bearpark, J. J. Heyd, E. Brothers, 
 K. N. Kudin, V. N. Staroverov, R. Kobayashi, J. Normand, 
 K. Raghavachari, A. Rendell, J. C. Burant, S. S. Iyengar, J. Tomasi, 
 M. Cossi, N. Rega, J. M. Millam, M. Klene, J. E. Knox, J. B. Cross, 
 V. Bakken, C. Adamo, J. Jaramillo, R. Gomperts, R. E. Stratmann, 
 O. Yazyev, A. J. Austin, R. Cammi, C. Pomelli, J. W. Ochterski, 
 R. L. Martin, K. Morokuma, V. G. Zakrzewski, G. A. Voth, 
 P. Salvador, J. J. Dannenberg, S. Dapprich, A. D. Daniels, 
 O. Farkas, J. B. Foresman, J. V. Ortiz, J. Cioslowski, 
 and D. J. Fox, Gaussian, Inc., Wallingford CT, 2009.
 
 ******************************************
 Gaussian 09:  AM64L-G09RevA.02 11-Jun-2009
                29-Sep-2021 
 ******************************************
 %nproc=5
 Will use up to    5 processors via shared memory.
 %mem=10gb
 %chk=C12H16O3_f69c_conf_0.chk
 -----------------------------------
 #p opt b3lyp/6-31G* scf=(xqc,tight)
 -----------------------------------
 1/14=-1,18=20,19=15,26=3,38=1/1,3;
 2/9=110,12=2,17=6,18=5,40=1/2;
 3/5=1,6=6,7=1,11=2,16=1,25=1,30=1,71=1,74=-5/1,2,3;
 4//1;
 5/5=2,8=3,13=1,32=2,38=5/2,8;
 6/7=2,8=2,9=2,10=2,28=1/1;
 7//1,2,3,16;
 1/14=-1,18=20,19=15/3(2);
 2/9=110/2;
 99//99;
 2/9=110/2;
 3/5=1,6=6,7=1,11=2,16=1,25=1,30=1,71=1,74=-5/1,2,3;
 4/5=5,16=3/1;
 5/5=2,8=3,13=1,32=2,38=5/2,8;
 7//1,2,3,16;
 1/14=-1,18=20,19=15/3(-5);
 2/9=110/2;
 6/7=2,8=2,9=2,10=2,19=2,28=1/1;
 99/9=1/99;
 Leave Link    1 at Wed Sep 29 04:54:50 2021, MaxMem= 1342177280 cpu:       0.1
 (Enter /sw/target/amd/app/gaussian/Gaussian09RevA.02_gcc-4.9.2/g09/l101.exe)
 ---------------------------------
 COc1cccc(c1)OC(=O)C(C)(C)C_conf_0
 ---------------------------------
 Symbolic Z-matrix:
 Charge =  0 Multiplicity = 1
 C                     2.90626  -0.89045  -2.68282 
 O                     3.91908  -1.42624  -3.52449 
 C                     5.07265  -1.82708  -2.90887 
 C                     6.17795  -1.93791  -3.75685 
 C                     7.4236   -2.32114  -3.25829 
 C                     7.56931  -2.61669  -1.90385 
 C                     6.45917  -2.5508   -1.0668 
 C                     5.21302  -2.13987  -1.55466 
 O                     6.521    -2.82211   0.31988 
 C                     7.39334  -3.77378   0.86335 
 O                     8.16149  -4.48423   0.22703 
 C                     7.23107  -3.82079   2.38796 
 C                     5.79486  -4.23465   2.73266 
 C                     8.2014   -4.86078   2.97427 
 C                     7.55428  -2.44757   2.99072 
 H                     2.11526  -0.49304  -3.32631 
 H                     3.29097  -0.06294  -2.07714 
 H                     2.46246  -1.66839  -2.0538 
 H                     6.06967  -1.70981  -4.81539 
 H                     8.27848  -2.39006  -3.92484 
 H                     8.5486   -2.89882  -1.52755 
 H                     4.37433  -2.08959  -0.87092 
 H                     5.54048  -5.19494   2.26938 
 H                     5.06541  -3.49829   2.37745 
 H                     5.66085  -4.33666   3.81544 
 H                     8.02785  -5.8543    2.54457 
 H                     8.08871  -4.94269   4.06119 
 H                     9.24405  -4.59352   2.76557 
 H                     6.91004  -1.66141   2.58222 
 H                     8.59068  -2.15927   2.78015 
 H                     7.42066  -2.45225   4.07846 
 
 NAtoms=     31 NQM=     31 NQMF=      0 NMic=      0 NMicF=      0 NTot=     31.
                    Isotopes and Nuclear Properties:
 (Nuclear quadrupole moments (NQMom) in fm**2, nuclear magnetic moments (NMagM)
  in nuclear magnetons)

  Atom         1           2           3           4           5           6           7           8           9          10
 IAtWgt=          12          16          12          12          12          12          12          12          16          12
 AtmWgt=  12.0000000  15.9949146  12.0000000  12.0000000  12.0000000  12.0000000  12.0000000  12.0000000  15.9949146  12.0000000
 NucSpn=           0           0           0           0           0           0           0           0           0           0
 AtZEff=   0.0000000   0.0000000   0.0000000   0.0000000   0.0000000   0.0000000   0.0000000   0.0000000   0.0000000   0.0000000
 NQMom=    0.0000000   0.0000000   0.0000000   0.0000000   0.0000000   0.0000000   0.0000000   0.0000000   0.0000000   0.0000000
 NMagM=    0.0000000   0.0000000   0.0000000   0.0000000   0.0000000   0.0000000   0.0000000   0.0000000   0.0000000   0.0000000

  Atom        11          12          13          14          15          16          17          18          19          20
 IAtWgt=          16          12          12          12          12           1           1           1           1           1
 AtmWgt=  15.9949146  12.0000000  12.0000000  12.0000000  12.0000000   1.0078250   1.0078250   1.0078250   1.0078250   1.0078250
 NucSpn=           0           0           0           0           0           1           1           1           1           1
 AtZEff=   0.0000000   0.0000000   0.0000000   0.0000000   0.0000000   0.0000000   0.0000000   0.0000000   0.0000000   0.0000000
 NQMom=    0.0000000   0.0000000   0.0000000   0.0000000   0.0000000   0.0000000   0.0000000   0.0000000   0.0000000   0.0000000
 NMagM=    0.0000000   0.0000000   0.0000000   0.0000000   0.0000000   2.7928460   2.7928460   2.7928460   2.7928460   2.7928460

  Atom        21          22          23          24          25          26          27          28          29          30
 IAtWgt=           1           1           1           1           1           1           1           1           1           1
 AtmWgt=   1.0078250   1.0078250   1.0078250   1.0078250   1.0078250   1.0078250   1.0078250   1.0078250   1.0078250   1.0078250
 NucSpn=           1           1           1           1           1           1           1           1           1           1
 AtZEff=   0.0000000   0.0000000   0.0000000   0.0000000   0.0000000   0.0000000   0.0000000   0.0000000   0.0000000   0.0000000
 NQMom=    0.0000000   0.0000000   0.0000000   0.0000000   0.0000000   0.0000000   0.0000000   0.0000000   0.0000000   0.0000000
 NMagM=    2.7928460   2.7928460   2.7928460   2.7928460   2.7928460   2.7928460   2.7928460   2.7928460   2.7928460   2.7928460

  Atom        31
 IAtWgt=           1
 AtmWgt=   1.0078250
 NucSpn=           1
 AtZEff=   0.0000000
 NQMom=    0.0000000
 NMagM=    2.7928460
 Leave Link  101 at Wed Sep 29 04:54:51 2021, MaxMem= 1342177280 cpu:       0.2
 (Enter /sw/target/amd/app/gaussian/Gaussian09RevA.02_gcc-4.9.2/g09/l103.exe)

 GradGradGradGradGradGradGradGradGradGradGradGradGradGradGradGradGradGrad
 Berny optimization.
 Initialization pass.
                           ----------------------------
                           !    Initial Parameters    !
                           ! (Angstroms and Degrees)  !
 --------------------------                            --------------------------
 ! Name  Definition              Value          Derivative Info.                !
 --------------------------------------------------------------------------------
 ! R1    R(1,2)                  1.4217         estimate D2E/DX2                !
 ! R2    R(1,16)                 1.0944         estimate D2E/DX2                !
 ! R3    R(1,17)                 1.0953         estimate D2E/DX2                !
 ! R4    R(1,18)                 1.0944         estimate D2E/DX2                !
 ! R5    R(2,3)                  1.3676         estimate D2E/DX2                !
 ! R6    R(3,4)                  1.3975         estimate D2E/DX2                !
 ! R7    R(3,8)                  1.3969         estimate D2E/DX2                !
 ! R8    R(4,5)                  1.3954         estimate D2E/DX2                !
 ! R9    R(4,19)                 1.0882         estimate D2E/DX2                !
 ! R10   R(5,6)                  1.3939         estimate D2E/DX2                !
 ! R11   R(5,20)                 1.0862         estimate D2E/DX2                !
 ! R12   R(6,7)                  1.3919         estimate D2E/DX2                !
 ! R13   R(6,21)                 1.0864         estimate D2E/DX2                !
 ! R14   R(7,8)                  1.3999         estimate D2E/DX2                !
 ! R15   R(7,9)                  1.4143         estimate D2E/DX2                !
 ! R16   R(8,22)                 1.0833         estimate D2E/DX2                !
 ! R17   R(9,10)                 1.4007         estimate D2E/DX2                !
 ! R18   R(10,11)                1.2246         estimate D2E/DX2                !
 ! R19   R(10,12)                1.5339         estimate D2E/DX2                !
 ! R20   R(12,13)                1.5339         estimate D2E/DX2                !
 ! R21   R(12,14)                1.5385         estimate D2E/DX2                !
 ! R22   R(12,15)                1.5341         estimate D2E/DX2                !
 ! R23   R(13,23)                1.0961         estimate D2E/DX2                !
 ! R24   R(13,24)                1.0957         estimate D2E/DX2                !
 ! R25   R(13,25)                1.0958         estimate D2E/DX2                !
 ! R26   R(14,26)                1.0963         estimate D2E/DX2                !
 ! R27   R(14,27)                1.0958         estimate D2E/DX2                !
 ! R28   R(14,28)                1.0964         estimate D2E/DX2                !
 ! R29   R(15,29)                1.0954         estimate D2E/DX2                !
 ! R30   R(15,30)                1.0962         estimate D2E/DX2                !
 ! R31   R(15,31)                1.0959         estimate D2E/DX2                !
 ! A1    A(2,1,16)             107.6768         estimate D2E/DX2                !
 ! A2    A(2,1,17)             111.216          estimate D2E/DX2                !
 ! A3    A(2,1,18)             111.1773         estimate D2E/DX2                !
 ! A4    A(16,1,17)            107.7379         estimate D2E/DX2                !
 ! A5    A(16,1,18)            107.6362         estimate D2E/DX2                !
 ! A6    A(17,1,18)            111.201          estimate D2E/DX2                !
 ! A7    A(1,2,3)              116.4143         estimate D2E/DX2                !
 ! A8    A(2,3,4)              114.6596         estimate D2E/DX2                !
 ! A9    A(2,3,8)              125.9273         estimate D2E/DX2                !
 ! A10   A(4,3,8)              119.4056         estimate D2E/DX2                !
 ! A11   A(3,4,5)              120.7321         estimate D2E/DX2                !
 ! A12   A(3,4,19)             119.6632         estimate D2E/DX2                !
 ! A13   A(5,4,19)             119.5994         estimate D2E/DX2                !
 ! A14   A(4,5,6)              119.9146         estimate D2E/DX2                !
 ! A15   A(4,5,20)             120.0496         estimate D2E/DX2                !
 ! A16   A(6,5,20)             120.0358         estimate D2E/DX2                !
 ! A17   A(5,6,7)              119.4013         estimate D2E/DX2                !
 ! A18   A(5,6,21)             119.0681         estimate D2E/DX2                !
 ! A19   A(7,6,21)             121.5298         estimate D2E/DX2                !
 ! A20   A(6,7,8)              120.9494         estimate D2E/DX2                !
 ! A21   A(6,7,9)              123.0701         estimate D2E/DX2                !
 ! A22   A(8,7,9)              115.9071         estimate D2E/DX2                !
 ! A23   A(3,8,7)              119.5388         estimate D2E/DX2                !
 ! A24   A(3,8,22)             121.5806         estimate D2E/DX2                !
 ! A25   A(7,8,22)             118.8716         estimate D2E/DX2                !
 ! A26   A(7,9,10)             122.5453         estimate D2E/DX2                !
 ! A27   A(9,10,11)            125.6758         estimate D2E/DX2                !
 ! A28   A(9,10,12)            109.9116         estimate D2E/DX2                !
 ! A29   A(11,10,12)           124.4036         estimate D2E/DX2                !
 ! A30   A(10,12,13)           109.3096         estimate D2E/DX2                !
 ! A31   A(10,12,14)           109.4377         estimate D2E/DX2                !
 ! A32   A(10,12,15)           109.9256         estimate D2E/DX2                !
 ! A33   A(13,12,14)           108.815          estimate D2E/DX2                !
 ! A34   A(13,12,15)           110.5169         estimate D2E/DX2                !
 ! A35   A(14,12,15)           108.8128         estimate D2E/DX2                !
 ! A36   A(12,13,23)           111.0199         estimate D2E/DX2                !
 ! A37   A(12,13,24)           111.6649         estimate D2E/DX2                !
 ! A38   A(12,13,25)           111.2031         estimate D2E/DX2                !
 ! A39   A(23,13,24)           107.2928         estimate D2E/DX2                !
 ! A40   A(23,13,25)           107.9202         estimate D2E/DX2                !
 ! A41   A(24,13,25)           107.547          estimate D2E/DX2                !
 ! A42   A(12,14,26)           111.3091         estimate D2E/DX2                !
 ! A43   A(12,14,27)           111.3266         estimate D2E/DX2                !
 ! A44   A(12,14,28)           111.2516         estimate D2E/DX2                !
 ! A45   A(26,14,27)           107.744          estimate D2E/DX2                !
 ! A46   A(26,14,28)           107.2679         estimate D2E/DX2                !
 ! A47   A(27,14,28)           107.7473         estimate D2E/DX2                !
 ! A48   A(12,15,29)           111.8375         estimate D2E/DX2                !
 ! A49   A(12,15,30)           111.0473         estimate D2E/DX2                !
 ! A50   A(12,15,31)           111.1288         estimate D2E/DX2                !
 ! A51   A(29,15,30)           107.1968         estimate D2E/DX2                !
 ! A52   A(29,15,31)           107.5472         estimate D2E/DX2                !
 ! A53   A(30,15,31)           107.8825         estimate D2E/DX2                !
 ! D1    D(16,1,2,3)           172.3295         estimate D2E/DX2                !
 ! D2    D(17,1,2,3)            54.5076         estimate D2E/DX2                !
 ! D3    D(18,1,2,3)           -69.9937         estimate D2E/DX2                !
 ! D4    D(1,2,3,4)           -160.4353         estimate D2E/DX2                !
 ! D5    D(1,2,3,8)             20.5758         estimate D2E/DX2                !
 ! D6    D(2,3,4,5)            179.1783         estimate D2E/DX2                !
 ! D7    D(2,3,4,19)             0.0172         estimate D2E/DX2                !
 ! D8    D(8,3,4,5)             -1.7616         estimate D2E/DX2                !
 ! D9    D(8,3,4,19)           179.0773         estimate D2E/DX2                !
 ! D10   D(2,3,8,7)            179.35           estimate D2E/DX2                !
 ! D11   D(2,3,8,22)             0.4537         estimate D2E/DX2                !
 ! D12   D(4,3,8,7)              0.4048         estimate D2E/DX2                !
 ! D13   D(4,3,8,22)          -178.4915         estimate D2E/DX2                !
 ! D14   D(3,4,5,6)              0.9306         estimate D2E/DX2                !
 ! D15   D(3,4,5,20)          -179.1294         estimate D2E/DX2                !
 ! D16   D(19,4,5,6)          -179.9078         estimate D2E/DX2                !
 ! D17   D(19,4,5,20)            0.0323         estimate D2E/DX2                !
 ! D18   D(4,5,6,7)              1.2577         estimate D2E/DX2                !
 ! D19   D(4,5,6,21)          -179.068          estimate D2E/DX2                !
 ! D20   D(20,5,6,7)          -178.6823         estimate D2E/DX2                !
 ! D21   D(20,5,6,21)            0.9919         estimate D2E/DX2                !
 ! D22   D(5,6,7,8)             -2.6303         estimate D2E/DX2                !
 ! D23   D(5,6,7,9)           -179.3867         estimate D2E/DX2                !
 ! D24   D(21,6,7,8)           177.7038         estimate D2E/DX2                !
 ! D25   D(21,6,7,9)             0.9473         estimate D2E/DX2                !
 ! D26   D(6,7,8,3)              1.7975         estimate D2E/DX2                !
 ! D27   D(6,7,8,22)          -179.2762         estimate D2E/DX2                !
 ! D28   D(9,7,8,3)            178.776          estimate D2E/DX2                !
 ! D29   D(9,7,8,22)            -2.2977         estimate D2E/DX2                !
 ! D30   D(6,7,9,10)           -33.496          estimate D2E/DX2                !
 ! D31   D(8,7,9,10)           149.5963         estimate D2E/DX2                !
 ! D32   D(7,9,10,11)           -1.6634         estimate D2E/DX2                !
 ! D33   D(7,9,10,12)          179.3908         estimate D2E/DX2                !
 ! D34   D(9,10,12,13)          61.365          estimate D2E/DX2                !
 ! D35   D(9,10,12,14)        -179.5543         estimate D2E/DX2                !
 ! D36   D(9,10,12,15)         -60.1041         estimate D2E/DX2                !
 ! D37   D(11,10,12,13)       -117.5971         estimate D2E/DX2                !
 ! D38   D(11,10,12,14)          1.4836         estimate D2E/DX2                !
 ! D39   D(11,10,12,15)        120.9338         estimate D2E/DX2                !
 ! D40   D(10,12,13,23)         56.4168         estimate D2E/DX2                !
 ! D41   D(10,12,13,24)        -63.2724         estimate D2E/DX2                !
 ! D42   D(10,12,13,25)        176.5911         estimate D2E/DX2                !
 ! D43   D(14,12,13,23)        -63.0491         estimate D2E/DX2                !
 ! D44   D(14,12,13,24)        177.2616         estimate D2E/DX2                !
 ! D45   D(14,12,13,25)         57.1251         estimate D2E/DX2                !
 ! D46   D(15,12,13,23)        177.5275         estimate D2E/DX2                !
 ! D47   D(15,12,13,24)         57.8382         estimate D2E/DX2                !
 ! D48   D(15,12,13,25)        -62.2983         estimate D2E/DX2                !
 ! D49   D(10,12,14,26)        -57.966          estimate D2E/DX2                !
 ! D50   D(10,12,14,27)       -178.1956         estimate D2E/DX2                !
 ! D51   D(10,12,14,28)         61.6097         estimate D2E/DX2                !
 ! D52   D(13,12,14,26)         61.4201         estimate D2E/DX2                !
 ! D53   D(13,12,14,27)        -58.8095         estimate D2E/DX2                !
 ! D54   D(13,12,14,28)       -179.0042         estimate D2E/DX2                !
 ! D55   D(15,12,14,26)       -178.0996         estimate D2E/DX2                !
 ! D56   D(15,12,14,27)         61.6708         estimate D2E/DX2                !
 ! D57   D(15,12,14,28)        -58.5239         estimate D2E/DX2                !
 ! D58   D(10,12,15,29)         58.4055         estimate D2E/DX2                !
 ! D59   D(10,12,15,30)        -61.2962         estimate D2E/DX2                !
 ! D60   D(10,12,15,31)        178.6086         estimate D2E/DX2                !
 ! D61   D(13,12,15,29)        -62.3387         estimate D2E/DX2                !
 ! D62   D(13,12,15,30)        177.9596         estimate D2E/DX2                !
 ! D63   D(13,12,15,31)         57.8644         estimate D2E/DX2                !
 ! D64   D(14,12,15,29)        178.2366         estimate D2E/DX2                !
 ! D65   D(14,12,15,30)         58.5349         estimate D2E/DX2                !
 ! D66   D(14,12,15,31)        -61.5603         estimate D2E/DX2                !
 --------------------------------------------------------------------------------
 Trust Radius=3.00D-01 FncErr=1.00D-07 GrdErr=1.00D-06
 Number of steps in this run= 160 maximum allowed number of steps= 186.
 GradGradGradGradGradGradGradGradGradGradGradGradGradGradGradGradGradGrad

 Leave Link  103 at Wed Sep 29 04:54:52 2021, MaxMem= 1342177280 cpu:       0.0
 (Enter /sw/target/amd/app/gaussian/Gaussian09RevA.02_gcc-4.9.2/g09/l202.exe)
                          Input orientation:                          
 ---------------------------------------------------------------------
 Center     Atomic      Atomic             Coordinates (Angstroms)
 Number     Number       Type             X           Y           Z
 ---------------------------------------------------------------------
      1          6           0        2.906262   -0.890452   -2.682815
      2          8           0        3.919082   -1.426242   -3.524487
      3          6           0        5.072649   -1.827081   -2.908866
      4          6           0        6.177952   -1.937907   -3.756846
      5          6           0        7.423602   -2.321144   -3.258290
      6          6           0        7.569308   -2.616689   -1.903850
      7          6           0        6.459166   -2.550803   -1.066795
      8          6           0        5.213020   -2.139873   -1.554659
      9          8           0        6.521003   -2.822106    0.319882
     10          6           0        7.393340   -3.773781    0.863346
     11          8           0        8.161486   -4.484226    0.227033
     12          6           0        7.231072   -3.820788    2.387957
     13          6           0        5.794861   -4.234649    2.732655
     14          6           0        8.201397   -4.860781    2.974273
     15          6           0        7.554281   -2.447573    2.990723
     16          1           0        2.115264   -0.493039   -3.326313
     17          1           0        3.290967   -0.062940   -2.077140
     18          1           0        2.462458   -1.668390   -2.053795
     19          1           0        6.069671   -1.709806   -4.815386
     20          1           0        8.278477   -2.390061   -3.924844
     21          1           0        8.548604   -2.898824   -1.527551
     22          1           0        4.374330   -2.089586   -0.870915
     23          1           0        5.540479   -5.194939    2.269377
     24          1           0        5.065412   -3.498286    2.377446
     25          1           0        5.660853   -4.336659    3.815441
     26          1           0        8.027849   -5.854300    2.544568
     27          1           0        8.088713   -4.942690    4.061195
     28          1           0        9.244046   -4.593525    2.765570
     29          1           0        6.910041   -1.661412    2.582217
     30          1           0        8.590676   -2.159271    2.780146
     31          1           0        7.420662   -2.452250    4.078461
 ---------------------------------------------------------------------
                    Distance matrix (angstroms):
                    1          2          3          4          5
     1  C    0.000000
     2  O    1.421719   0.000000
     3  C    2.370993   1.367619   0.000000
     4  C    3.599258   2.327721   1.397514   0.000000
     5  C    4.773302   3.626758   2.427586   1.395375   0.000000
     6  C    5.032959   4.167467   2.804789   2.414582   1.393946
     7  C    4.241628   3.709032   2.416490   2.773282   2.405313
     8  C    2.855681   2.462472   1.396931   2.412780   2.796765
     9  O    5.080731   4.847433   3.675951   4.185594   3.724106
    10  C    6.404897   6.069143   4.837854   5.117986   4.370236
    11  O    6.999986   6.436083   5.141516   5.127322   4.167838
    12  C    7.280356   7.187499   6.057226   6.512519   5.845179
    13  C    6.989633   7.110382   6.176142   6.894592   6.496593
    14  C    8.706584   8.506949   7.321456   7.612193   6.774922
    15  C    7.497849   7.530322   6.430292   6.905340   6.251658
    16  H    1.094397   2.040563   3.271094   4.333409   5.614716
    17  H    1.095271   2.085170   2.641657   3.830352   4.855231
    18  H    1.094447   2.084064   2.751259   4.096085   5.146828
    19  H    3.902096   2.524255   2.154675   1.088238   2.152070
    20  H    5.714206   4.482584   3.409763   2.155196   1.086211
    21  H    6.099525   5.252497   3.890877   3.393097   2.143549
    22  H    2.622237   2.772855   2.170208   3.406560   3.879592
    23  H    7.070496   7.099357   6.194799   6.879679   6.508453
    24  H    6.088429   6.359266   5.544193   6.426668   6.221595
    25  H    7.854390   8.085718   7.201407   7.959958   7.563548
    26  H    8.842848   8.562891   7.395379   7.646441   6.820665
    27  H    9.421257   9.343115   8.208861   8.590779   7.803188
    28  H    9.141397   8.829029   7.566570   7.680830   6.690637
    29  H    6.659218   6.803895   5.792706   6.387184   5.900044
    30  H    7.985387   7.880960   6.697143   6.971550   6.152315
    31  H    8.278519   8.433184   7.397752   7.949900   7.337923
                    6          7          8          9         10
     6  C    0.000000
     7  C    1.391912   0.000000
     8  C    2.429276   1.399913   0.000000
     9  O    2.467007   1.414320   2.385407   0.000000
    10  C    3.004531   2.468563   3.642829   1.400718   0.000000
    11  O    2.894656   2.882709   4.166998   2.337188   1.224612
    12  C    4.470332   3.760853   4.737324   2.403851   1.533942
    13  C    5.221459   4.208617   4.807046   2.888604   2.502368
    14  C    5.406623   4.970071   6.070006   3.745092   2.508094
    15  C    4.897517   4.203973   5.122176   2.888136   2.512063
    16  H    6.023278   5.311242   3.930255   6.174935   7.494971
    17  H    4.985566   4.153040   2.877659   4.877688   6.264684
    18  H    5.196313   4.210284   2.834964   4.841197   6.103767
    19  H    3.398291   3.861465   3.398698   5.273697   6.185474
    20  H    2.153763   3.391780   3.882962   4.614442   5.062106
    21  H    1.086380   2.167756   3.420945   2.744095   2.795814
    22  H    3.398923   2.144208   1.083252   2.561794   3.867634
    23  H    5.308422   4.354938   4.905498   3.223708   2.725748
    24  H    5.037480   3.834459   4.162755   2.609509   2.790635
    25  H    6.269832   5.259545   5.819313   3.905466   3.468891
    26  H    5.520943   5.139631   6.206762   4.051421   2.749121
    27  H    6.423537   5.888364   6.903855   4.577337   3.475072
    28  H    5.340048   5.159001   6.397965   4.066236   2.777687
    29  H    4.633787   3.782802   4.496949   2.572299   2.765899
    30  H    4.815833   4.415381   5.495405   3.282651   2.777477
    31  H    5.986417   5.235251   6.058326   3.882409   3.476227
                   11         12         13         14         15
    11  O    0.000000
    12  C    2.444466   0.000000
    13  C    3.455625   1.533883   0.000000
    14  C    2.773214   1.538468   2.498367   0.000000
    15  C    3.486350   1.534116   2.521070   2.498520   0.000000
    16  H    8.069240   8.360519   8.015620   9.788543   8.562012
    17  H    6.969859   7.041516   6.841547   8.523402   7.038860
    18  H    6.753519   6.863065   6.371868   8.270928   7.209781
    19  H    6.123649   7.595607   7.963873   8.669007   7.980206
    20  H    4.651590   6.557095   7.341195   7.328589   6.953620
    21  H    2.396231   4.232862   5.245654   4.923033   4.648345
    22  H    4.613278   4.666721   4.427744   6.091916   5.015226
    23  H    3.397934   2.181847   1.096127   2.772909   3.481919
    24  H    3.896412   2.189566   1.095673   3.470878   2.770302
    25  H    4.376256   2.183900   1.095805   2.727019   2.798906
    26  H    2.695539   2.189646   2.764938   1.096287   3.468301
    27  H    3.862160   2.189506   2.743737   1.095813   2.767153
    28  H    2.761893   2.189013   3.467961   1.096403   2.740641
    29  H    3.883463   2.191735   2.808523   3.472358   1.095431
    30  H    3.479656   2.182424   3.482244   2.736307   1.096164
    31  H    4.417153   2.183264   2.762493   2.762209   1.095924
                   16         17         18         19         20
    16  H    0.000000
    17  H    1.768530   0.000000
    18  H    1.766719   1.806777   0.000000
    19  H    4.397180   4.234543   4.543136   0.000000
    20  H    6.476273   5.805580   6.152049   2.476819   0.000000
    21  H    7.100085   5.998919   6.231538   4.285875   2.465526
    22  H    3.698827   2.595371   2.287327   4.310135   4.965796
    23  H    8.071661   7.091539   6.371858   7.913283   7.330235
    24  H    7.089975   5.898610   5.455253   7.479574   7.160364
    25  H    8.851511   7.655295   7.197035   9.030983   8.399596
    26  H    9.908028   8.794207   8.345080   8.670652   7.342824
    27  H   10.490793   9.192903   8.931342   9.660318   8.386223
    28  H   10.234478   8.911632   8.818879   8.709958   7.109797
    29  H    7.698422   6.112480   6.424457   7.445340   6.689199
    30  H    9.055171   7.488307   7.820678   8.015584   6.716221
    31  H    9.317534   7.788107   7.924821   9.026456   8.049385
                   21         22         23         24         25
    21  H    0.000000
    22  H    4.302394   0.000000
    23  H    5.360748   4.567773   0.000000
    24  H    5.266971   3.607476   1.765219   0.000000
    25  H    6.241317   5.354102   1.772413   1.767837   0.000000
    26  H    5.058476   6.259936   2.587952   3.788768   3.085616
    27  H    5.968498   6.801658   3.125337   3.749888   2.514393
    28  H    4.667605   6.573269   3.784747   4.337184   3.742657
    29  H    4.594156   4.305495   3.802549   2.611263   3.199728
    30  H    4.370923   5.577874   4.333574   3.792442   3.794300
    31  H    5.735770   5.823057   3.785527   3.087854   2.591737
                   26         27         28         29         30
    26  H    0.000000
    27  H    1.770563   0.000000
    28  H    1.765653   1.770694   0.000000
    29  H    4.339495   3.787272   3.752130   0.000000
    30  H    3.745064   3.104911   2.520455   1.763965   0.000000
    31  H    3.780931   2.578542   3.103783   1.767740   1.772115
                   31
    31  H    0.000000
 Stoichiometry    C12H16O3
 Framework group  C1[X(C12H16O3)]
 Deg. of freedom    87
 Full point group                 C1      NOp   1
 Largest Abelian subgroup         C1      NOp   1
 Largest concise Abelian subgroup C1      NOp   1
                         Standard orientation:                         
 ---------------------------------------------------------------------
 Center     Atomic      Atomic             Coordinates (Angstroms)
 Number     Number       Type             X           Y           Z
 ---------------------------------------------------------------------
      1          6           0       -4.000543   -2.169047    0.033689
      2          8           0       -4.101136   -0.786344   -0.281431
      3          6           0       -2.971490   -0.037177   -0.099690
      4          6           0       -3.194451    1.338645    0.002521
      5          6           0       -2.132075    2.219947    0.206816
      6          6           0       -0.829523    1.730802    0.291547
      7          6           0       -0.601342    0.365631    0.144373
      8          6           0       -1.665024   -0.527133   -0.032566
      9          8           0        0.685441   -0.215230    0.228580
     10          6           0        1.840927    0.446798   -0.205679
     11          8           0        1.876935    1.557399   -0.720406
     12          6           0        3.070998   -0.437893    0.033541
     13          6           0        2.928558   -1.733878   -0.774501
     14          6           0        4.334259    0.303696   -0.436671
     15          6           0        3.208110   -0.749275    1.529453
     16          1           0       -5.005380   -2.598102   -0.028899
     17          1           0       -3.637595   -2.317108    1.056413
     18          1           0       -3.369894   -2.694646   -0.690081
     19          1           0       -4.209126    1.726238   -0.064330
     20          1           0       -2.319604    3.285891    0.298745
     21          1           0       -0.014407    2.427471    0.466071
     22          1           0       -1.449741   -1.584124   -0.131853
     23          1           0        2.786152   -1.519275   -1.839940
     24          1           0        2.067186   -2.324484   -0.443256
     25          1           0        3.819513   -2.363801   -0.673583
     26          1           0        4.264858    0.576613   -1.496173
     27          1           0        5.230015   -0.314472   -0.309020
     28          1           0        4.484578    1.230773    0.129043
     29          1           0        2.318459   -1.251892    1.924253
     30          1           0        3.346670    0.169107    2.111648
     31          1           0        4.067978   -1.401475    1.720012
 ---------------------------------------------------------------------
 Rotational constants (GHZ):      1.2433385      0.2920418      0.2530617
 Leave Link  202 at Wed Sep 29 04:54:52 2021, MaxMem= 1342177280 cpu:       0.1
 (Enter /sw/target/amd/app/gaussian/Gaussian09RevA.02_gcc-4.9.2/g09/l301.exe)
 Standard basis: 6-31G(d) (6D, 7F)
 Ernie: Thresh=  0.10000D-02 Tol=  0.10000D-05 Strict=F.
 There are   257 symmetry adapted basis functions of A   symmetry.
 Integral buffers will be    131072 words long.
 Raffenetti 2 integral format.
 Two-electron integral symmetry is turned on.
   257 basis functions,   484 primitive gaussians,   257 cartesian basis functions
    56 alpha electrons       56 beta electrons
       nuclear repulsion energy       987.0007607000 Hartrees.
 IExCor=  402 DFT=T Ex+Corr=B3LYP ExCW=0 ScaHFX=  0.200000
 ScaDFX=  0.800000  0.720000  1.000000  0.810000 ScalE2=  1.000000  1.000000
 IRadAn=      0 IRanWt=     -1 IRanGd=            0 ICorTp=0
 NAtoms=   31 NActive=   31 NUniq=   31 SFac= 7.50D-01 NAtFMM=   80 NAOKFM=F Big=F
 Leave Link  301 at Wed Sep 29 04:54:52 2021, MaxMem= 1342177280 cpu:       0.1
 (Enter /sw/target/amd/app/gaussian/Gaussian09RevA.02_gcc-4.9.2/g09/l302.exe)
 NPDir=0 NMtPBC=     1 NCelOv=     1 NCel=       1 NClECP=     1 NCelD=      1
         NCelK=      1 NCelE2=     1 NClLst=     1 CellRange=     0.0.
 One-electron integrals computed using PRISM.
 NBasis=   257 RedAO= T  NBF=   257
 NBsUse=   257 1.00D-06 NBFU=   257
 Precomputing XC quadrature grid using
 IXCGrd= 2 IRadAn=           0 IRanWt=          -1 IRanGd=           0 AccXCQ= 1.00D-10.
 NRdTot=    1968 NPtTot=      250794 NUsed=      264986 NTot=      265018
 NSgBfM=   255   255   255   255   255 NAtAll=    31    31.
 Leave Link  302 at Wed Sep 29 04:54:57 2021, MaxMem= 1342177280 cpu:       2.8
 (Enter /sw/target/amd/app/gaussian/Gaussian09RevA.02_gcc-4.9.2/g09/l303.exe)
 DipDrv:  MaxL=1.
 Leave Link  303 at Wed Sep 29 04:54:57 2021, MaxMem= 1342177280 cpu:       0.2
 (Enter /sw/target/amd/app/gaussian/Gaussian09RevA.02_gcc-4.9.2/g09/l401.exe)
 Harris functional with IExCor=  402 diagonalized for initial guess.
 ExpMin= 1.61D-01 ExpMax= 5.48D+03 ExpMxC= 8.25D+02 IAcc=1 IRadAn=         1 AccDes= 0.00D+00
 HarFok:  IExCor=  402 AccDes= 0.00D+00 IRadAn=         1 IDoV= 1
 ScaDFX=  1.000000  1.000000  1.000000  1.000000
 FoFCou: FMM=F IPFlag=           0 FMFlag=      100000 FMFlg1=           0
         NFxFlg=           0 DoJE=T BraDBF=F KetDBF=T FulRan=T
         Omega=  0.000000  0.000000  1.000000  0.000000  0.000000 ICntrl=     500 IOpCl=  0
         NMat0=    1 NMatS0=    1 NMatT0=    0 NMatD0=    1 NMtDS0=    0 NMtDT0=    0
         I1Cent=           4 NGrid=           0.
 Petite list used in FoFCou.
 Harris En= -692.697826400525    
 Initial guess orbital symmetries:
       Occupied  (A) (A) (A) (A) (A) (A) (A) (A) (A) (A) (A) (A)
                 (A) (A) (A) (A) (A) (A) (A) (A) (A) (A) (A) (A)
                 (A) (A) (A) (A) (A) (A) (A) (A) (A) (A) (A) (A)
                 (A) (A) (A) (A) (A) (A) (A) (A) (A) (A) (A) (A)
                 (A) (A) (A) (A) (A) (A) (A) (A)
       Virtual   (A) (A) (A) (A) (A) (A) (A) (A) (A) (A) (A) (A)
                 (A) (A) (A) (A) (A) (A) (A) (A) (A) (A) (A) (A)
                 (A) (A) (A) (A) (A) (A) (A) (A) (A) (A) (A) (A)
                 (A) (A) (A) (A) (A) (A) (A) (A) (A) (A) (A) (A)
                 (A) (A) (A) (A) (A) (A) (A) (A) (A) (A) (A) (A)
                 (A) (A) (A) (A) (A) (A) (A) (A) (A) (A) (A) (A)
                 (A) (A) (A) (A) (A) (A) (A) (A) (A) (A) (A) (A)
                 (A) (A) (A) (A) (A) (A) (A) (A) (A) (A) (A) (A)
                 (A) (A) (A) (A) (A) (A) (A) (A) (A) (A) (A) (A)
                 (A) (A) (A) (A) (A) (A) (A) (A) (A) (A) (A) (A)
                 (A) (A) (A) (A) (A) (A) (A) (A) (A) (A) (A) (A)
                 (A) (A) (A) (A) (A) (A) (A) (A) (A) (A) (A) (A)
                 (A) (A) (A) (A) (A) (A) (A) (A) (A) (A) (A) (A)
                 (A) (A) (A) (A) (A) (A) (A) (A) (A) (A) (A) (A)
                 (A) (A) (A) (A) (A) (A) (A) (A) (A) (A) (A) (A)
                 (A) (A) (A) (A) (A) (A) (A) (A) (A) (A) (A) (A)
                 (A) (A) (A) (A) (A) (A) (A) (A) (A)
 The electronic state of the initial guess is 1-A.
 Leave Link  401 at Wed Sep 29 04:55:09 2021, MaxMem= 1342177280 cpu:      11.6
 (Enter /sw/target/amd/app/gaussian/Gaussian09RevA.02_gcc-4.9.2/g09/l502.exe)
 Closed shell SCF:
 Requested convergence on RMS density matrix=1.00D-08 within  64 cycles.
 Requested convergence on MAX density matrix=1.00D-06.
 Requested convergence on             energy=1.00D-06.
 No special actions if energy rises.
 Using DIIS extrapolation, IDIIS=  1040.
 Integral symmetry usage will be decided dynamically.
       264694 words used for storage of precomputed grid.
 Keep R1 ints in memory in canonical form, NReq=558635796.
 IEnd=      471874 IEndB=      471874 NGot=  1342177280 MDV=   792198628
 LenX=   792198628 LenY=   792132138
 Symmetry not used in FoFDir.
 MinBra= 0 MaxBra= 2 Meth= 1.
 IRaf=       0 NMat=   1 IRICut=       1 DoRegI=T DoRafI=F ISym2E= 0 JSym2E=0.
 Integral accuracy reduced to 1.0D-05 until final iterations.

 Cycle   1  Pass 0  IDiag  1:
 E= -692.129798907974    
 DIIS: error= 4.44D-02 at cycle   1 NSaved=   1.
 NSaved= 1 IEnMin= 1 EnMin= -692.129798907974     IErMin= 1 ErrMin= 4.44D-02
 ErrMax= 4.44D-02 EMaxC= 1.00D-01 BMatC= 4.62D-01 BMatP= 4.62D-01
 IDIUse=3 WtCom= 5.56D-01 WtEn= 4.44D-01
 Coeff-Com:  0.100D+01
 Coeff-En:   0.100D+01
 Coeff:      0.100D+01
 Gap=     0.223 Goal=   None    Shift=    0.000
 GapD=    0.223 DampG=1.000 DampE=0.500 DampFc=0.5000 IDamp=-1.
 Damping current iteration by 5.00D-01
 RMSDP=5.68D-03 MaxDP=2.05D-01              OVMax= 2.23D-01

 Cycle   2  Pass 0  IDiag  1:
 E= -692.282265315432     Delta-E=       -0.152466407458 Rises=F Damp=T
 DIIS: error= 1.00D-02 at cycle   2 NSaved=   2.
 NSaved= 2 IEnMin= 2 EnMin= -692.282265315432     IErMin= 2 ErrMin= 1.00D-02
 ErrMax= 1.00D-02 EMaxC= 1.00D-01 BMatC= 6.18D-02 BMatP= 4.62D-01
 IDIUse=3 WtCom= 9.00D-01 WtEn= 1.00D-01
 Coeff-Com:  0.187D+00 0.813D+00
 Coeff-En:   0.281D+00 0.719D+00
 Coeff:      0.196D+00 0.804D+00
 Gap=     0.190 Goal=   None    Shift=    0.000
 RMSDP=1.77D-03 MaxDP=7.60D-02 DE=-1.52D-01 OVMax= 2.03D-01

 Cycle   3  Pass 0  IDiag  1:
 E= -692.512161033179     Delta-E=       -0.229895717747 Rises=F Damp=F
 DIIS: error= 1.42D-02 at cycle   3 NSaved=   3.
 NSaved= 3 IEnMin= 3 EnMin= -692.512161033179     IErMin= 2 ErrMin= 1.00D-02
 ErrMax= 1.42D-02 EMaxC= 1.00D-01 BMatC= 8.55D-02 BMatP= 6.18D-02
 IDIUse=2 WtCom= 0.00D+00 WtEn= 1.00D+00
 Coeff-En:   0.000D+00 0.000D+00 0.100D+01
 Coeff:      0.000D+00 0.000D+00 0.100D+01
 Gap=     0.204 Goal=   None    Shift=    0.000
 RMSDP=3.32D-03 MaxDP=1.75D-01 DE=-2.30D-01 OVMax= 3.27D-01

 Cycle   4  Pass 0  IDiag  1:
 E= -692.124066404442     Delta-E=        0.388094628737 Rises=F Damp=F
 DIIS: error= 3.83D-02 at cycle   4 NSaved=   4.
 NSaved= 4 IEnMin= 3 EnMin= -692.512161033179     IErMin= 2 ErrMin= 1.00D-02
 ErrMax= 3.83D-02 EMaxC= 1.00D-01 BMatC= 5.75D-01 BMatP= 6.18D-02
 IDIUse=2 WtCom= 0.00D+00 WtEn= 1.00D+00
 Coeff-En:   0.000D+00 0.000D+00 0.808D+00 0.192D+00
 Coeff:      0.000D+00 0.000D+00 0.808D+00 0.192D+00
 Gap=     0.233 Goal=   None    Shift=    0.000
 RMSDP=1.77D-03 MaxDP=9.01D-02 DE= 3.88D-01 OVMax= 1.28D-01

 Cycle   5  Pass 0  IDiag  1:
 E= -692.548502177388     Delta-E=       -0.424435772945 Rises=F Damp=F
 DIIS: error= 1.06D-02 at cycle   5 NSaved=   5.
 NSaved= 5 IEnMin= 5 EnMin= -692.548502177388     IErMin= 2 ErrMin= 1.00D-02
 ErrMax= 1.06D-02 EMaxC= 1.00D-01 BMatC= 4.42D-02 BMatP= 6.18D-02
 IDIUse=3 WtCom= 8.94D-01 WtEn= 1.06D-01
 Coeff-Com: -0.455D-02 0.525D-01 0.331D+00-0.841D-01 0.705D+00
 Coeff-En:   0.000D+00 0.000D+00 0.373D+00 0.000D+00 0.627D+00
 Coeff:     -0.407D-02 0.470D-01 0.335D+00-0.752D-01 0.697D+00
 Gap=     0.203 Goal=   None    Shift=    0.000
 RMSDP=7.02D-04 MaxDP=3.31D-02 DE=-4.24D-01 OVMax= 3.98D-02

 Cycle   6  Pass 0  IDiag  1:
 E= -692.584235151372     Delta-E=       -0.035732973985 Rises=F Damp=F
 DIIS: error= 7.32D-04 at cycle   6 NSaved=   6.
 NSaved= 6 IEnMin= 6 EnMin= -692.584235151372     IErMin= 6 ErrMin= 7.32D-04
 ErrMax= 7.32D-04 EMaxC= 1.00D-01 BMatC= 3.90D-04 BMatP= 4.42D-02
 IDIUse=3 WtCom= 9.93D-01 WtEn= 7.32D-03
 Coeff-Com: -0.568D-02 0.238D-01 0.172D+00-0.637D-01 0.444D+00 0.429D+00
 Coeff-En:   0.000D+00 0.000D+00 0.000D+00 0.000D+00 0.000D+00 0.100D+01
 Coeff:     -0.564D-02 0.236D-01 0.171D+00-0.632D-01 0.441D+00 0.433D+00
 Gap=     0.204 Goal=   None    Shift=    0.000
 RMSDP=7.89D-05 MaxDP=3.59D-03 DE=-3.57D-02 OVMax= 7.11D-03

 Cycle   7  Pass 0  IDiag  1:
 E= -692.584568428593     Delta-E=       -0.000333277221 Rises=F Damp=F
 DIIS: error= 2.30D-04 at cycle   7 NSaved=   7.
 NSaved= 7 IEnMin= 7 EnMin= -692.584568428593     IErMin= 7 ErrMin= 2.30D-04
 ErrMax= 2.30D-04 EMaxC= 1.00D-01 BMatC= 1.96D-05 BMatP= 3.90D-04
 IDIUse=3 WtCom= 9.98D-01 WtEn= 2.30D-03
 Coeff-Com: -0.568D-03 0.114D-02 0.321D-01-0.129D-01 0.792D-01 0.164D+00
 Coeff-Com:  0.738D+00
 Coeff-En:   0.000D+00 0.000D+00 0.000D+00 0.000D+00 0.000D+00 0.000D+00
 Coeff-En:   0.100D+01
 Coeff:     -0.566D-03 0.114D-02 0.320D-01-0.129D-01 0.790D-01 0.163D+00
 Coeff:      0.738D+00
 Gap=     0.204 Goal=   None    Shift=    0.000
 RMSDP=1.89D-05 MaxDP=5.61D-04 DE=-3.33D-04 OVMax= 1.55D-03

 Cycle   8  Pass 0  IDiag  1:
 E= -692.584586127159     Delta-E=       -0.000017698566 Rises=F Damp=F
 DIIS: error= 4.32D-05 at cycle   8 NSaved=   8.
 NSaved= 8 IEnMin= 8 EnMin= -692.584586127159     IErMin= 8 ErrMin= 4.32D-05
 ErrMax= 4.32D-05 EMaxC= 1.00D-01 BMatC= 1.34D-06 BMatP= 1.96D-05
 IDIUse=1 WtCom= 1.00D+00 WtEn= 0.00D+00
 Coeff-Com:  0.106D-03-0.895D-03 0.953D-02-0.362D-02 0.201D-01 0.695D-01
 Coeff-Com:  0.412D+00 0.493D+00
 Coeff:      0.106D-03-0.895D-03 0.953D-02-0.362D-02 0.201D-01 0.695D-01
 Coeff:      0.412D+00 0.493D+00
 Gap=     0.204 Goal=   None    Shift=    0.000
 RMSDP=5.47D-06 MaxDP=1.94D-04 DE=-1.77D-05 OVMax= 4.74D-04

 Initial convergence to 1.0D-05 achieved.  Increase integral accuracy.
 Cycle   9  Pass 1  IDiag  1:
 E= -692.584723707112     Delta-E=       -0.000137579953 Rises=F Damp=F
 DIIS: error= 1.87D-05 at cycle   1 NSaved=   1.
 NSaved= 1 IEnMin= 1 EnMin= -692.584723707112     IErMin= 1 ErrMin= 1.87D-05
 ErrMax= 1.87D-05 EMaxC= 1.00D-01 BMatC= 2.34D-07 BMatP= 2.34D-07
 IDIUse=1 WtCom= 1.00D+00 WtEn= 0.00D+00
 Coeff-Com:  0.100D+01
 Coeff:      0.100D+01
 Gap=     0.204 Goal=   None    Shift=    0.000
 RMSDP=5.47D-06 MaxDP=1.94D-04 DE=-1.38D-04 OVMax= 4.05D-04

 Cycle  10  Pass 1  IDiag  1:
 E= -692.584723528240     Delta-E=        0.000000178872 Rises=F Damp=F
 DIIS: error= 3.52D-05 at cycle   2 NSaved=   2.
 NSaved= 2 IEnMin= 1 EnMin= -692.584723707112     IErMin= 1 ErrMin= 1.87D-05
 ErrMax= 3.52D-05 EMaxC= 1.00D-01 BMatC= 4.58D-07 BMatP= 2.34D-07
 IDIUse=1 WtCom= 1.00D+00 WtEn= 0.00D+00
 Coeff-Com:  0.599D+00 0.401D+00
 Coeff:      0.599D+00 0.401D+00
 Gap=     0.204 Goal=   None    Shift=    0.000
 RMSDP=3.32D-06 MaxDP=1.12D-04 DE= 1.79D-07 OVMax= 3.31D-04

 Cycle  11  Pass 1  IDiag  1:
 E= -692.584723957003     Delta-E=       -0.000000428763 Rises=F Damp=F
 DIIS: error= 8.05D-06 at cycle   3 NSaved=   3.
 NSaved= 3 IEnMin= 3 EnMin= -692.584723957003     IErMin= 3 ErrMin= 8.05D-06
 ErrMax= 8.05D-06 EMaxC= 1.00D-01 BMatC= 3.03D-08 BMatP= 2.34D-07
 IDIUse=1 WtCom= 1.00D+00 WtEn= 0.00D+00
 Coeff-Com:  0.366D-01 0.202D+00 0.761D+00
 Coeff:      0.366D-01 0.202D+00 0.761D+00
 Gap=     0.204 Goal=   None    Shift=    0.000
 RMSDP=8.87D-07 MaxDP=3.48D-05 DE=-4.29D-07 OVMax= 6.19D-05

 Cycle  12  Pass 1  IDiag  1:
 E= -692.584723978230     Delta-E=       -0.000000021227 Rises=F Damp=F
 DIIS: error= 6.03D-06 at cycle   4 NSaved=   4.
 NSaved= 4 IEnMin= 4 EnMin= -692.584723978230     IErMin= 4 ErrMin= 6.03D-06
 ErrMax= 6.03D-06 EMaxC= 1.00D-01 BMatC= 1.13D-08 BMatP= 3.03D-08
 IDIUse=1 WtCom= 1.00D+00 WtEn= 0.00D+00
 Coeff-Com: -0.130D-01 0.115D+00 0.532D+00 0.367D+00
 Coeff:     -0.130D-01 0.115D+00 0.532D+00 0.367D+00
 Gap=     0.204 Goal=   None    Shift=    0.000
 RMSDP=3.55D-07 MaxDP=1.76D-05 DE=-2.12D-08 OVMax= 1.96D-05

 Cycle  13  Pass 1  IDiag  1:
 E= -692.584723986829     Delta-E=       -0.000000008599 Rises=F Damp=F
 DIIS: error= 6.12D-07 at cycle   5 NSaved=   5.
 NSaved= 5 IEnMin= 5 EnMin= -692.584723986829     IErMin= 5 ErrMin= 6.12D-07
 ErrMax= 6.12D-07 EMaxC= 1.00D-01 BMatC= 2.48D-10 BMatP= 1.13D-08
 IDIUse=1 WtCom= 1.00D+00 WtEn= 0.00D+00
 Coeff-Com: -0.980D-02 0.445D-01 0.224D+00 0.188D+00 0.554D+00
 Coeff:     -0.980D-02 0.445D-01 0.224D+00 0.188D+00 0.554D+00
 Gap=     0.204 Goal=   None    Shift=    0.000
 RMSDP=7.25D-08 MaxDP=2.89D-06 DE=-8.60D-09 OVMax= 4.61D-06

 Cycle  14  Pass 1  IDiag  1:
 E= -692.584723986996     Delta-E=       -0.000000000167 Rises=F Damp=F
 DIIS: error= 2.17D-07 at cycle   6 NSaved=   6.
 NSaved= 6 IEnMin= 6 EnMin= -692.584723986996     IErMin= 6 ErrMin= 2.17D-07
 ErrMax= 2.17D-07 EMaxC= 1.00D-01 BMatC= 3.22D-11 BMatP= 2.48D-10
 IDIUse=1 WtCom= 1.00D+00 WtEn= 0.00D+00
 Coeff-Com: -0.480D-02 0.170D-01 0.901D-01 0.815D-01 0.329D+00 0.487D+00
 Coeff:     -0.480D-02 0.170D-01 0.901D-01 0.815D-01 0.329D+00 0.487D+00
 Gap=     0.204 Goal=   None    Shift=    0.000
 RMSDP=2.39D-08 MaxDP=8.76D-07 DE=-1.67D-10 OVMax= 1.78D-06

 Cycle  15  Pass 1  IDiag  1:
 E= -692.584723987036     Delta-E=       -0.000000000040 Rises=F Damp=F
 DIIS: error= 5.97D-08 at cycle   7 NSaved=   7.
 NSaved= 7 IEnMin= 7 EnMin= -692.584723987036     IErMin= 7 ErrMin= 5.97D-08
 ErrMax= 5.97D-08 EMaxC= 1.00D-01 BMatC= 1.91D-12 BMatP= 3.22D-11
 IDIUse=1 WtCom= 1.00D+00 WtEn= 0.00D+00
 Coeff-Com: -0.783D-03 0.147D-02 0.972D-02 0.115D-01 0.723D-01 0.227D+00
 Coeff-Com:  0.679D+00
 Coeff:     -0.783D-03 0.147D-02 0.972D-02 0.115D-01 0.723D-01 0.227D+00
 Coeff:      0.679D+00
 Gap=     0.204 Goal=   None    Shift=    0.000
 RMSDP=6.58D-09 MaxDP=1.98D-07 DE=-3.96D-11 OVMax= 5.13D-07

 SCF Done:  E(RB3LYP) =  -692.584723987     A.U. after   15 cycles
             Convg  =    0.6585D-08             -V/T =  2.0096
 KE= 6.859783267452D+02 PE=-3.585934634780D+03 EE= 1.220370823348D+03
 Leave Link  502 at Wed Sep 29 05:03:03 2021, MaxMem= 1342177280 cpu:     288.4
 (Enter /sw/target/amd/app/gaussian/Gaussian09RevA.02_gcc-4.9.2/g09/l508.exe)
 QCSCF skips out because SCF is already converged.
 Leave Link  508 at Wed Sep 29 05:03:05 2021, MaxMem= 1342177280 cpu:       0.0
 (Enter /sw/target/amd/app/gaussian/Gaussian09RevA.02_gcc-4.9.2/g09/l601.exe)
 Copying SCF densities to generalized density rwf, IOpCl= 0 IROHF=0.

 **********************************************************************

            Population analysis using the SCF density.

 **********************************************************************

 Orbital symmetries:
       Occupied  (A) (A) (A) (A) (A) (A) (A) (A) (A) (A) (A) (A)
                 (A) (A) (A) (A) (A) (A) (A) (A) (A) (A) (A) (A)
                 (A) (A) (A) (A) (A) (A) (A) (A) (A) (A) (A) (A)
                 (A) (A) (A) (A) (A) (A) (A) (A) (A) (A) (A) (A)
                 (A) (A) (A) (A) (A) (A) (A) (A)
       Virtual   (A) (A) (A) (A) (A) (A) (A) (A) (A) (A) (A) (A)
                 (A) (A) (A) (A) (A) (A) (A) (A) (A) (A) (A) (A)
                 (A) (A) (A) (A) (A) (A) (A) (A) (A) (A) (A) (A)
                 (A) (A) (A) (A) (A) (A) (A) (A) (A) (A) (A) (A)
                 (A) (A) (A) (A) (A) (A) (A) (A) (A) (A) (A) (A)
                 (A) (A) (A) (A) (A) (A) (A) (A) (A) (A) (A) (A)
                 (A) (A) (A) (A) (A) (A) (A) (A) (A) (A) (A) (A)
                 (A) (A) (A) (A) (A) (A) (A) (A) (A) (A) (A) (A)
                 (A) (A) (A) (A) (A) (A) (A) (A) (A) (A) (A) (A)
                 (A) (A) (A) (A) (A) (A) (A) (A) (A) (A) (A) (A)
                 (A) (A) (A) (A) (A) (A) (A) (A) (A) (A) (A) (A)
                 (A) (A) (A) (A) (A) (A) (A) (A) (A) (A) (A) (A)
                 (A) (A) (A) (A) (A) (A) (A) (A) (A) (A) (A) (A)
                 (A) (A) (A) (A) (A) (A) (A) (A) (A) (A) (A) (A)
                 (A) (A) (A) (A) (A) (A) (A) (A) (A) (A) (A) (A)
                 (A) (A) (A) (A) (A) (A) (A) (A) (A) (A) (A) (A)
                 (A) (A) (A) (A) (A) (A) (A) (A) (A)
 The electronic state is 1-A.
 Alpha  occ. eigenvalues --  -19.20338 -19.17891 -19.14612 -10.32357 -10.25567
 Alpha  occ. eigenvalues --  -10.25006 -10.24195 -10.21547 -10.19251 -10.19201
 Alpha  occ. eigenvalues --  -10.18285 -10.18283 -10.18246 -10.18232 -10.17498
 Alpha  occ. eigenvalues --   -1.09338  -1.06433  -1.01974  -0.85331  -0.82534
 Alpha  occ. eigenvalues --   -0.75739  -0.75098  -0.69896  -0.69415  -0.68630
 Alpha  occ. eigenvalues --   -0.65913  -0.60516  -0.59409  -0.55374  -0.50715
 Alpha  occ. eigenvalues --   -0.49841  -0.48666  -0.48128  -0.47208  -0.46999
 Alpha  occ. eigenvalues --   -0.45904  -0.44179  -0.43347  -0.42961  -0.41957
 Alpha  occ. eigenvalues --   -0.40292  -0.39169  -0.38727  -0.37763  -0.37151
 Alpha  occ. eigenvalues --   -0.36632  -0.36578  -0.35663  -0.34157  -0.33631
 Alpha  occ. eigenvalues --   -0.33263  -0.32778  -0.30499  -0.27170  -0.24321
 Alpha  occ. eigenvalues --   -0.21935
 Alpha virt. eigenvalues --   -0.01535   0.00614   0.02213   0.08284   0.08564
 Alpha virt. eigenvalues --    0.10418   0.12272   0.12844   0.14169   0.14613
 Alpha virt. eigenvalues --    0.15104   0.15222   0.15412   0.15976   0.16908
 Alpha virt. eigenvalues --    0.17067   0.17235   0.18535   0.19366   0.19389
 Alpha virt. eigenvalues --    0.20743   0.21339   0.22022   0.22654   0.25073
 Alpha virt. eigenvalues --    0.25871   0.26398   0.29009   0.30381   0.32199
 Alpha virt. eigenvalues --    0.35991   0.36801   0.40756   0.45859   0.47822
 Alpha virt. eigenvalues --    0.49838   0.50310   0.51035   0.51586   0.52007
 Alpha virt. eigenvalues --    0.52941   0.54569   0.54666   0.56072   0.58989
 Alpha virt. eigenvalues --    0.59473   0.59715   0.59880   0.60534   0.61123
 Alpha virt. eigenvalues --    0.61663   0.63775   0.64531   0.65267   0.66586
 Alpha virt. eigenvalues --    0.68129   0.69465   0.69807   0.70663   0.73171
 Alpha virt. eigenvalues --    0.74696   0.75926   0.77903   0.79910   0.83034
 Alpha virt. eigenvalues --    0.83562   0.83929   0.84671   0.85534   0.86370
 Alpha virt. eigenvalues --    0.87190   0.88347   0.89078   0.89309   0.89651
 Alpha virt. eigenvalues --    0.90056   0.90936   0.91478   0.92222   0.92936
 Alpha virt. eigenvalues --    0.93866   0.94556   0.95841   0.96525   0.97536
 Alpha virt. eigenvalues --    0.98550   0.99402   1.00451   1.02354   1.04938
 Alpha virt. eigenvalues --    1.05663   1.08156   1.11504   1.12505   1.15838
 Alpha virt. eigenvalues --    1.17732   1.18774   1.21076   1.23685   1.25594
 Alpha virt. eigenvalues --    1.26045   1.32338   1.34254   1.34948   1.37942
 Alpha virt. eigenvalues --    1.39774   1.40735   1.44431   1.46592   1.47752
 Alpha virt. eigenvalues --    1.49335   1.50486   1.51697   1.52437   1.53172
 Alpha virt. eigenvalues --    1.60263   1.64681   1.65596   1.68966   1.71293
 Alpha virt. eigenvalues --    1.72436   1.75076   1.76000   1.80161   1.81358
 Alpha virt. eigenvalues --    1.83396   1.85339   1.86391   1.86923   1.87575
 Alpha virt. eigenvalues --    1.88629   1.91199   1.92828   1.94518   1.95627
 Alpha virt. eigenvalues --    1.96476   1.97767   1.98946   2.00125   2.01018
 Alpha virt. eigenvalues --    2.02862   2.07229   2.08726   2.09893   2.11051
 Alpha virt. eigenvalues --    2.13124   2.13636   2.14397   2.18296   2.20991
 Alpha virt. eigenvalues --    2.21958   2.24022   2.24786   2.26311   2.26804
 Alpha virt. eigenvalues --    2.27661   2.29020   2.29236   2.32893   2.33193
 Alpha virt. eigenvalues --    2.35820   2.38972   2.42075   2.49656   2.51653
 Alpha virt. eigenvalues --    2.52201   2.55445   2.56153   2.61085   2.62456
 Alpha virt. eigenvalues --    2.66232   2.67136   2.69331   2.70884   2.71623
 Alpha virt. eigenvalues --    2.78005   2.78531   2.79796   2.82988   2.90383
 Alpha virt. eigenvalues --    2.96286   2.99782   3.06936   3.13035   3.28135
 Alpha virt. eigenvalues --    3.43842   4.04246   4.05852   4.10565   4.12570
 Alpha virt. eigenvalues --    4.15904   4.20110   4.29496   4.29801   4.31055
 Alpha virt. eigenvalues --    4.32292   4.38279   4.50877   4.56700   4.72131
 Alpha virt. eigenvalues --    4.78998
          Condensed to atoms (all electrons):
              1          2          3          4          5          6
     1  C    4.898466   0.247185  -0.042989   0.003952  -0.000163   0.000018
     2  O    0.247185   8.201561   0.276501  -0.056692   0.003356   0.000205
     3  C   -0.042989   0.276501   4.517863   0.545086  -0.009576  -0.039029
     4  C    0.003952  -0.056692   0.545086   4.986100   0.529061  -0.039318
     5  C   -0.000163   0.003356  -0.009576   0.529061   4.880159   0.498540
     6  C    0.000018   0.000205  -0.039029  -0.039318   0.498540   5.020981
     7  C    0.000363   0.003136   0.011342  -0.035725  -0.003737   0.517970
     8  C   -0.006553  -0.055820   0.443984  -0.077192  -0.038055  -0.076945
     9  O   -0.000004  -0.000007   0.002206   0.000197   0.003379  -0.048611
    10  C   -0.000000   0.000000  -0.000020   0.000018   0.000336  -0.002073
    11  O   -0.000000  -0.000000   0.000001   0.000000   0.000105  -0.001513
    12  C   -0.000000  -0.000000   0.000001   0.000000   0.000003   0.000423
    13  C    0.000000  -0.000000  -0.000000   0.000000  -0.000000  -0.000004
    14  C    0.000000   0.000000  -0.000000   0.000000  -0.000000  -0.000000
    15  C   -0.000000   0.000000  -0.000000   0.000000  -0.000000  -0.000064
    16  H    0.383656  -0.031154   0.003336  -0.000113   0.000002   0.000000
    17  H    0.362747  -0.036111  -0.002650   0.000616  -0.000016  -0.000023
    18  H    0.366444  -0.036052  -0.006459  -0.000194   0.000012   0.000000
    19  H   -0.000156  -0.000403  -0.037124   0.346790  -0.043138   0.005340
    20  H    0.000003  -0.000061   0.003873  -0.038637   0.360645  -0.038293
    21  H   -0.000000   0.000001   0.000374   0.004609  -0.041804   0.352834
    22  H    0.005065  -0.007021  -0.044774   0.004979   0.000074   0.006744
    23  H   -0.000000   0.000000  -0.000000  -0.000000  -0.000000  -0.000002
    24  H   -0.000000  -0.000000   0.000001   0.000000  -0.000000   0.000017
    25  H   -0.000000  -0.000000   0.000000   0.000000  -0.000000   0.000000
    26  H   -0.000000   0.000000   0.000000  -0.000000  -0.000000   0.000000
    27  H   -0.000000  -0.000000   0.000000   0.000000   0.000000   0.000000
    28  H    0.000000   0.000000   0.000000  -0.000000   0.000000  -0.000001
    29  H   -0.000000   0.000000  -0.000000   0.000000  -0.000001   0.000021
    30  H    0.000000   0.000000  -0.000000   0.000000  -0.000000   0.000000
    31  H   -0.000000  -0.000000   0.000000   0.000000   0.000000   0.000000
              7          8          9         10         11         12
     1  C    0.000363  -0.006553  -0.000004  -0.000000  -0.000000  -0.000000
     2  O    0.003136  -0.055820  -0.000007   0.000000  -0.000000  -0.000000
     3  C    0.011342   0.443984   0.002206  -0.000020   0.000001   0.000001
     4  C   -0.035725  -0.077192   0.000197   0.000018   0.000000   0.000000
     5  C   -0.003737  -0.038055   0.003379   0.000336   0.000105   0.000003
     6  C    0.517970  -0.076945  -0.048611  -0.002073  -0.001513   0.000423
     7  C    4.538655   0.490563   0.200953  -0.008382  -0.002163   0.003867
     8  C    0.490563   5.243742  -0.041575   0.000834   0.000161  -0.000388
     9  O    0.200953  -0.041575   8.367462   0.215473  -0.065409  -0.094010
    10  C   -0.008382   0.000834   0.215473   4.405117   0.538707   0.352562
    11  O   -0.002163   0.000161  -0.065409   0.538707   8.046037  -0.074629
    12  C    0.003867  -0.000388  -0.094010   0.352562  -0.074629   4.975949
    13  C   -0.000223  -0.000003   0.000822  -0.041731  -0.000062   0.363495
    14  C   -0.000056   0.000003   0.003206  -0.046236   0.002381   0.371655
    15  C    0.000068  -0.000008   0.000004  -0.042502   0.000311   0.362664
    16  H    0.000005   0.000178  -0.000000   0.000000  -0.000000   0.000000
    17  H   -0.000233   0.005691   0.000001  -0.000000  -0.000000   0.000000
    18  H   -0.000091   0.003279   0.000000   0.000000   0.000000  -0.000000
    19  H    0.000154   0.007436   0.000002  -0.000000   0.000000   0.000000
    20  H    0.003385   0.000545  -0.000047  -0.000010  -0.000007  -0.000000
    21  H   -0.033907   0.005578  -0.006967   0.001749   0.010161  -0.000006
    22  H   -0.035314   0.339834  -0.000354  -0.000091   0.000012  -0.000021
    23  H   -0.000001  -0.000001  -0.000115  -0.002598   0.000678  -0.032059
    24  H    0.000046  -0.000014   0.006281  -0.006516   0.000019  -0.028279
    25  H    0.000006  -0.000001   0.000111   0.004033  -0.000068  -0.028940
    26  H   -0.000004  -0.000000   0.000045  -0.005228   0.003951  -0.026747
    27  H    0.000001  -0.000000  -0.000031   0.005099   0.000515  -0.028118
    28  H   -0.000003  -0.000000   0.000023  -0.004641   0.002923  -0.026970
    29  H    0.000095  -0.000011   0.006945  -0.007017   0.000028  -0.027955
    30  H   -0.000020   0.000001  -0.000029  -0.001965   0.000511  -0.032607
    31  H   -0.000001  -0.000000   0.000096   0.004084  -0.000064  -0.028766
             13         14         15         16         17         18
     1  C    0.000000   0.000000  -0.000000   0.383656   0.362747   0.366444
     2  O   -0.000000   0.000000   0.000000  -0.031154  -0.036111  -0.036052
     3  C   -0.000000  -0.000000  -0.000000   0.003336  -0.002650  -0.006459
     4  C    0.000000   0.000000   0.000000  -0.000113   0.000616  -0.000194
     5  C   -0.000000  -0.000000  -0.000000   0.000002  -0.000016   0.000012
     6  C   -0.000004  -0.000000  -0.000064   0.000000  -0.000023   0.000000
     7  C   -0.000223  -0.000056   0.000068   0.000005  -0.000233  -0.000091
     8  C   -0.000003   0.000003  -0.000008   0.000178   0.005691   0.003279
     9  O    0.000822   0.003206   0.000004  -0.000000   0.000001   0.000000
    10  C   -0.041731  -0.046236  -0.042502   0.000000  -0.000000   0.000000
    11  O   -0.000062   0.002381   0.000311  -0.000000  -0.000000   0.000000
    12  C    0.363495   0.371655   0.362664   0.000000   0.000000  -0.000000
    13  C    5.145355  -0.060715  -0.053729  -0.000000  -0.000000   0.000000
    14  C   -0.060715   5.131197  -0.061409   0.000000   0.000000  -0.000000
    15  C   -0.053729  -0.061409   5.149695  -0.000000  -0.000000   0.000000
    16  H   -0.000000   0.000000  -0.000000   0.542705  -0.031455  -0.035944
    17  H   -0.000000   0.000000  -0.000000  -0.031455   0.591027  -0.045663
    18  H    0.000000  -0.000000   0.000000  -0.035944  -0.045663   0.599749
    19  H    0.000000  -0.000000   0.000000  -0.000030   0.000035   0.000026
    20  H    0.000000   0.000000  -0.000000  -0.000000   0.000000  -0.000000
    21  H    0.000004   0.000008  -0.000028  -0.000000   0.000000   0.000000
    22  H    0.000015   0.000001  -0.000007  -0.000148   0.001038   0.002607
    23  H    0.369294  -0.004098   0.005623  -0.000000  -0.000000   0.000000
    24  H    0.366465   0.005638  -0.004502   0.000000  -0.000000  -0.000000
    25  H    0.369595  -0.004968  -0.005763  -0.000000  -0.000000   0.000000
    26  H   -0.003779   0.368871   0.005589   0.000000   0.000000   0.000000
    27  H   -0.005220   0.362392  -0.004414  -0.000000   0.000000   0.000000
    28  H    0.005549   0.368937  -0.004524   0.000000   0.000000  -0.000000
    29  H   -0.003882   0.005563   0.366894   0.000000   0.000000  -0.000000
    30  H    0.005574  -0.004890   0.369506   0.000000  -0.000000  -0.000000
    31  H   -0.006131  -0.004108   0.368934  -0.000000   0.000000   0.000000
             19         20         21         22         23         24
     1  C   -0.000156   0.000003  -0.000000   0.005065  -0.000000  -0.000000
     2  O   -0.000403  -0.000061   0.000001  -0.007021   0.000000  -0.000000
     3  C   -0.037124   0.003873   0.000374  -0.044774  -0.000000   0.000001
     4  C    0.346790  -0.038637   0.004609   0.004979  -0.000000   0.000000
     5  C   -0.043138   0.360645  -0.041804   0.000074  -0.000000  -0.000000
     6  C    0.005340  -0.038293   0.352834   0.006744  -0.000002   0.000017
     7  C    0.000154   0.003385  -0.033907  -0.035314  -0.000001   0.000046
     8  C    0.007436   0.000545   0.005578   0.339834  -0.000001  -0.000014
     9  O    0.000002  -0.000047  -0.006967  -0.000354  -0.000115   0.006281
    10  C   -0.000000  -0.000010   0.001749  -0.000091  -0.002598  -0.006516
    11  O    0.000000  -0.000007   0.010161   0.000012   0.000678   0.000019
    12  C    0.000000  -0.000000  -0.000006  -0.000021  -0.032059  -0.028279
    13  C    0.000000   0.000000   0.000004   0.000015   0.369294   0.366465
    14  C   -0.000000   0.000000   0.000008   0.000001  -0.004098   0.005638
    15  C    0.000000  -0.000000  -0.000028  -0.000007   0.005623  -0.004502
    16  H   -0.000030  -0.000000  -0.000000  -0.000148  -0.000000   0.000000
    17  H    0.000035   0.000000   0.000000   0.001038  -0.000000  -0.000000
    18  H    0.000026  -0.000000   0.000000   0.002607   0.000000  -0.000000
    19  H    0.590491  -0.006068  -0.000145  -0.000142  -0.000000  -0.000000
    20  H   -0.006068   0.580705  -0.005548   0.000014   0.000000   0.000000
    21  H   -0.000145  -0.005548   0.554697  -0.000137  -0.000001   0.000000
    22  H   -0.000142   0.000014  -0.000137   0.586655  -0.000001   0.000373
    23  H   -0.000000   0.000000  -0.000001  -0.000001   0.565325  -0.029279
    24  H   -0.000000   0.000000   0.000000   0.000373  -0.029279   0.556513
    25  H   -0.000000   0.000000   0.000000  -0.000000  -0.029390  -0.028618
    26  H   -0.000000   0.000000  -0.000001  -0.000000   0.003942  -0.000062
    27  H   -0.000000  -0.000000  -0.000000  -0.000000  -0.000089  -0.000027
    28  H   -0.000000   0.000000   0.000002  -0.000000  -0.000058  -0.000195
    29  H   -0.000000   0.000000   0.000004   0.000033  -0.000068   0.003623
    30  H   -0.000000   0.000000   0.000012   0.000000  -0.000191  -0.000050
    31  H    0.000000  -0.000000   0.000000  -0.000000  -0.000007  -0.000090
             25         26         27         28         29         30
     1  C   -0.000000  -0.000000  -0.000000   0.000000  -0.000000   0.000000
     2  O   -0.000000   0.000000  -0.000000   0.000000   0.000000   0.000000
     3  C    0.000000   0.000000   0.000000   0.000000  -0.000000  -0.000000
     4  C    0.000000  -0.000000   0.000000  -0.000000   0.000000   0.000000
     5  C   -0.000000  -0.000000   0.000000   0.000000  -0.000001  -0.000000
     6  C    0.000000   0.000000   0.000000  -0.000001   0.000021   0.000000
     7  C    0.000006  -0.000004   0.000001  -0.000003   0.000095  -0.000020
     8  C   -0.000001  -0.000000  -0.000000  -0.000000  -0.000011   0.000001
     9  O    0.000111   0.000045  -0.000031   0.000023   0.006945  -0.000029
    10  C    0.004033  -0.005228   0.005099  -0.004641  -0.007017  -0.001965
    11  O   -0.000068   0.003951   0.000515   0.002923   0.000028   0.000511
    12  C   -0.028940  -0.026747  -0.028118  -0.026970  -0.027955  -0.032607
    13  C    0.369595  -0.003779  -0.005220   0.005549  -0.003882   0.005574
    14  C   -0.004968   0.368871   0.362392   0.368937   0.005563  -0.004890
    15  C   -0.005763   0.005589  -0.004414  -0.004524   0.366894   0.369506
    16  H   -0.000000   0.000000  -0.000000   0.000000   0.000000   0.000000
    17  H   -0.000000   0.000000   0.000000   0.000000   0.000000  -0.000000
    18  H    0.000000   0.000000   0.000000  -0.000000  -0.000000  -0.000000
    19  H   -0.000000  -0.000000  -0.000000  -0.000000  -0.000000  -0.000000
    20  H    0.000000   0.000000  -0.000000   0.000000   0.000000   0.000000
    21  H    0.000000  -0.000001  -0.000000   0.000002   0.000004   0.000012
    22  H   -0.000000  -0.000000  -0.000000  -0.000000   0.000033   0.000000
    23  H   -0.029390   0.003942  -0.000089  -0.000058  -0.000068  -0.000191
    24  H   -0.028618  -0.000062  -0.000027  -0.000195   0.003623  -0.000050
    25  H    0.567900  -0.000293   0.003314   0.000028  -0.000148  -0.000026
    26  H   -0.000293   0.554216  -0.030320  -0.026803  -0.000190  -0.000025
    27  H    0.003314  -0.030320   0.586323  -0.030629  -0.000048  -0.000116
    28  H    0.000028  -0.026803  -0.030629   0.559296  -0.000033   0.004548
    29  H   -0.000148  -0.000190  -0.000048  -0.000033   0.550649  -0.029216
    30  H   -0.000026  -0.000025  -0.000116   0.004548  -0.029216   0.567880
    31  H    0.003933  -0.000018   0.002877  -0.000278  -0.028230  -0.029635
             31
     1  C   -0.000000
     2  O   -0.000000
     3  C    0.000000
     4  C    0.000000
     5  C    0.000000
     6  C    0.000000
     7  C   -0.000001
     8  C   -0.000000
     9  O    0.000096
    10  C    0.004084
    11  O   -0.000064
    12  C   -0.028766
    13  C   -0.006131
    14  C   -0.004108
    15  C    0.368934
    16  H   -0.000000
    17  H    0.000000
    18  H    0.000000
    19  H    0.000000
    20  H   -0.000000
    21  H    0.000000
    22  H   -0.000000
    23  H   -0.000007
    24  H   -0.000090
    25  H    0.003933
    26  H   -0.000018
    27  H    0.002877
    28  H   -0.000278
    29  H   -0.028230
    30  H   -0.029635
    31  H    0.568367
 Mulliken atomic charges:
              1
     1  C   -0.218035
     2  O   -0.508624
     3  C    0.378056
     4  C   -0.173538
     5  C   -0.139181
     6  C   -0.157219
     7  C    0.349255
     8  C   -0.245261
     9  O   -0.550049
    10  C    0.640998
    11  O   -0.462585
    12  C   -0.001123
    13  C   -0.450687
    14  C   -0.433370
    15  C   -0.452339
    16  H    0.168961
    17  H    0.154996
    18  H    0.152285
    19  H    0.136932
    20  H    0.139501
    21  H    0.158514
    22  H    0.140569
    23  H    0.153097
    24  H    0.158656
    25  H    0.149295
    26  H    0.156859
    27  H    0.138491
    28  H    0.152831
    29  H    0.162944
    30  H    0.150736
    31  H    0.149036
 Sum of Mulliken atomic charges =  -0.00000
 Mulliken charges with hydrogens summed into heavy atoms:
              1
     1  C    0.258207
     2  O   -0.508624
     3  C    0.378056
     4  C   -0.036606
     5  C    0.000320
     6  C    0.001295
     7  C    0.349255
     8  C   -0.104692
     9  O   -0.550049
    10  C    0.640998
    11  O   -0.462585
    12  C   -0.001123
    13  C    0.010360
    14  C    0.014810
    15  C    0.010377
 Sum of Mulliken charges with hydrogens summed into heavy atoms =  -0.00000
 Electronic spatial extent (au):  <R**2>=           4380.7800
 Charge=             -0.0000 electrons
 Dipole moment (field-independent basis, Debye):
    X=              0.0861    Y=             -2.6216    Z=              1.1548  Tot=              2.8659
 Quadrupole moment (field-independent basis, Debye-Ang):
   XX=            -83.5643   YY=            -83.0806   ZZ=            -91.2403
   XY=             -0.0919   XZ=              0.3113   YZ=              2.6832
 Traceless Quadrupole moment (field-independent basis, Debye-Ang):
   XX=              2.3974   YY=              2.8811   ZZ=             -5.2786
   XY=             -0.0919   XZ=              0.3113   YZ=              2.6832
 Octapole moment (field-independent basis, Debye-Ang**2):
  XXX=             11.2272  YYY=             -5.8821  ZZZ=             -4.3898  XYY=            -33.7298
  XXY=            -28.1753  XXZ=              9.8815  XZZ=              4.6059  YZZ=             -4.3716
  YYZ=              5.5503  XYZ=              5.6054
 Hexadecapole moment (field-independent basis, Debye-Ang**3):
 XXXX=          -4415.4104 YYYY=           -962.3416 ZZZZ=           -298.2632 XXXY=             61.6790
 XXXZ=            -15.9068 YYYX=             36.8809 YYYZ=             10.5605 ZZZX=             -3.9961
 ZZZY=             -4.5717 XXYY=           -814.7235 XXZZ=           -813.5577 YYZZ=           -228.1261
 XXYZ=             -0.3441 YYXZ=              7.9242 ZZXY=             16.6675
 N-N= 9.870007607000D+02 E-N=-3.585934649081D+03  KE= 6.859783267452D+02
 No NMR shielding tensors so no spin-rotation constants.
 Leave Link  601 at Wed Sep 29 05:03:07 2021, MaxMem= 1342177280 cpu:       1.7
 (Enter /sw/target/amd/app/gaussian/Gaussian09RevA.02_gcc-4.9.2/g09/l701.exe)
 Compute integral first derivatives.
 ... and contract with generalized density number  0.
 Leave Link  701 at Wed Sep 29 05:03:10 2021, MaxMem= 1342177280 cpu:       1.6
 (Enter /sw/target/amd/app/gaussian/Gaussian09RevA.02_gcc-4.9.2/g09/l702.exe)
 L702 exits ... SP integral derivatives will be done elsewhere.
 Leave Link  702 at Wed Sep 29 05:03:10 2021, MaxMem= 1342177280 cpu:       0.1
 (Enter /sw/target/amd/app/gaussian/Gaussian09RevA.02_gcc-4.9.2/g09/l703.exe)
 Compute integral first derivatives, UseDBF=F ICtDFT=           0.
 Integral derivatives from FoFDir, PRISM(SPDF).
 Calling FoFJK, ICntrl=      2127 FMM=F ISym2X=0 I1Cent= 0 IOpClX= 0 NMat=1 NMatS=1 NMatT=0.
 FoFCou: FMM=F IPFlag=           0 FMFlag=      100000 FMFlg1=         800
         NFxFlg=           0 DoJE=F BraDBF=F KetDBF=F FulRan=T
         Omega=  0.000000  0.000000  1.000000  0.000000  0.000000 ICntrl=    2127 IOpCl=  0
         NMat0=    1 NMatS0=    1 NMatT0=    0 NMatD0=    1 NMtDS0=    0 NMtDT0=    0
         I1Cent=           0 NGrid=           0.
 Symmetry not used in FoFCou.
 Leave Link  703 at Wed Sep 29 05:04:56 2021, MaxMem= 1342177280 cpu:     106.5
 (Enter /sw/target/amd/app/gaussian/Gaussian09RevA.02_gcc-4.9.2/g09/l716.exe)
 Dipole        = 3.38838303D-02-1.03140299D+00 4.54323236D-01
 ***** Axes restored to original set *****
 -------------------------------------------------------------------
 Center     Atomic                   Forces (Hartrees/Bohr)
 Number     Number              X              Y              Z
 -------------------------------------------------------------------
      1        6          -0.004798743    0.000149993   -0.004216449
      2        8          -0.003177348    0.003444525    0.006522016
      3        6           0.005889143   -0.001175868   -0.006307997
      4        6           0.011486476   -0.001131960   -0.008442328
      5        6          -0.012729177    0.002133978    0.000860766
      6        6           0.012906427   -0.003031932    0.003417300
      7        6           0.003564788   -0.002304894    0.004307498
      8        6          -0.004012719   -0.001190230    0.006391094
      9        8           0.010437447   -0.009110350   -0.005832728
     10        6           0.008231642   -0.008859232   -0.015161278
     11        8          -0.021706182    0.021533606    0.011363463
     12        6           0.003004555   -0.003210758    0.006604145
     13        6          -0.010431053    0.001087983   -0.003150229
     14        6           0.005074136   -0.004687443   -0.004873225
     15        6          -0.000523327    0.010316513   -0.001985399
     16        1           0.002663300   -0.001981729   -0.002845775
     17        1           0.001191862   -0.001454508    0.003552702
     18        1           0.000077906    0.000258642    0.003841504
     19        1          -0.002976650    0.000597776    0.002316752
     20        1          -0.000258141    0.000369867    0.000605402
     21        1          -0.004779178   -0.000503784    0.001303687
     22        1           0.000144298    0.000107790    0.000861900
     23        1           0.000299145   -0.000838949    0.000858229
     24        1           0.000887413    0.000060810   -0.000041980
     25        1           0.002417351   -0.000008901    0.000174306
     26        1           0.000154135    0.001202500    0.000026614
     27        1          -0.002262500    0.002596238   -0.000372744
     28        1          -0.001050250   -0.000371432   -0.000418466
     29        1          -0.000578103   -0.001116439    0.000009531
     30        1           0.000589248   -0.000462039    0.000701076
     31        1           0.000264100   -0.002419771   -0.000069387
 -------------------------------------------------------------------
 Cartesian Forces:  Max     0.021706182 RMS     0.005669096
 Leave Link  716 at Wed Sep 29 05:04:57 2021, MaxMem= 1342177280 cpu:       0.1
 (Enter /sw/target/amd/app/gaussian/Gaussian09RevA.02_gcc-4.9.2/g09/l103.exe)

 GradGradGradGradGradGradGradGradGradGradGradGradGradGradGradGradGradGrad
 Berny optimization.
 Internal  Forces:  Max     0.032013024 RMS     0.004170543
 Search for a local minimum.
 Step number   1 out of a maximum of  160
 All quantities printed in internal units (Hartrees-Bohrs-Radians)
 RMS Force = .41705D-02 SwitMx=.10000D-02 MixMth= 1
 Mixed Optimization -- RFO/linear search
 Second derivative matrix not updated -- first step.
     Eigenvalues ---    0.00257   0.00315   0.00317   0.00318   0.00668
     Eigenvalues ---    0.01404   0.01502   0.01682   0.02038   0.02108
     Eigenvalues ---    0.02118   0.02120   0.02126   0.02137   0.02140
     Eigenvalues ---    0.02159   0.02172   0.02184   0.04797   0.05186
     Eigenvalues ---    0.05380   0.05394   0.05395   0.05411   0.05412
     Eigenvalues ---    0.05459   0.05460   0.09977   0.10552   0.14915
     Eigenvalues ---    0.15133   0.15997   0.15998   0.16000   0.16000
     Eigenvalues ---    0.16000   0.16000   0.16000   0.16000   0.16000
     Eigenvalues ---    0.16000   0.16000   0.16000   0.16000   0.16000
     Eigenvalues ---    0.16000   0.16000   0.21995   0.23474   0.23487
     Eigenvalues ---    0.24963   0.24996   0.24997   0.25000   0.25000
     Eigenvalues ---    0.25000   0.28655   0.29047   0.29062   0.29068
     Eigenvalues ---    0.34083   0.34096   0.34110   0.34114   0.34137
     Eigenvalues ---    0.34149   0.34150   0.34165   0.34192   0.34211
     Eigenvalues ---    0.34304   0.34309   0.35017   0.35234   0.35254
     Eigenvalues ---    0.35604   0.41927   0.42202   0.42370   0.43327
     Eigenvalues ---    0.45502   0.45868   0.46210   0.46431   0.46766
     Eigenvalues ---    0.51437   0.933691000.000001000.000001000.00000
     Eigenvalues --- 1000.000001000.000001000.000001000.000001000.00000
     Eigenvalues --- 1000.000001000.000001000.000001000.000001000.00000
     Eigenvalues --- 1000.000001000.000001000.000001000.000001000.00000
     Eigenvalues --- 1000.000001000.000001000.000001000.000001000.00000
     Eigenvalues --- 1000.000001000.000001000.000001000.000001000.00000
     Eigenvalues --- 1000.000001000.000001000.000001000.000001000.00000
     Eigenvalues --- 1000.000001000.000001000.000001000.000001000.00000
     Eigenvalues --- 1000.000001000.000001000.000001000.000001000.00000
     Eigenvalues --- 1000.000001000.000001000.000001000.000001000.00000
     Eigenvalues --- 1000.000001000.000001000.000001000.000001000.00000
     Eigenvalues --- 1000.000001000.000001000.000001000.000001000.00000
     Eigenvalues --- 1000.000001000.000001000.000001000.000001000.00000
 RFO step:  Lambda=-7.61864502D-03 EMin= 2.57094820D-03
 Linear search not attempted -- first point.
 Iteration  1 RMS(Cart)=  0.09209191 RMS(Int)=  0.00250953
 Iteration  2 RMS(Cart)=  0.00401095 RMS(Int)=  0.00011347
 Iteration  3 RMS(Cart)=  0.00001158 RMS(Int)=  0.00011310
 Iteration  4 RMS(Cart)=  0.00000000 RMS(Int)=  0.00011310
 Variable       Old X    -DE/DX   Delta X   Delta X   Delta X     New X
                                 (Linear)    (Quad)   (Total)
    R1        2.68666  -0.00034   0.00000  -0.00078  -0.00078   2.68588
    R2        2.06811  -0.00097   0.00000  -0.00277  -0.00277   2.06534
    R3        2.06976   0.00128   0.00000   0.00367   0.00367   2.07343
    R4        2.06821   0.00199   0.00000   0.00568   0.00568   2.07389
    R5        2.58442   0.00045   0.00000   0.00085   0.00085   2.58528
    R6        2.64092   0.00336   0.00000   0.00720   0.00719   2.64811
    R7        2.63982   0.00007   0.00000   0.00000  -0.00002   2.63980
    R8        2.63688  -0.00316   0.00000  -0.00654  -0.00652   2.63035
    R9        2.05647  -0.00183   0.00000  -0.00512  -0.00512   2.05135
   R10        2.63418   0.00446   0.00000   0.00956   0.00958   2.64376
   R11        2.05264  -0.00060   0.00000  -0.00166  -0.00166   2.05098
   R12        2.63033  -0.00039   0.00000  -0.00083  -0.00083   2.62951
   R13        2.05296  -0.00372   0.00000  -0.01035  -0.01035   2.04261
[...]
 (Enter /sw/target/amd/app/gaussian/Gaussian09RevA.02_gcc-4.9.2/g09/l607.exe)
 ******************************Gaussian NBO Version 3.1******************************
             N A T U R A L   A T O M I C   O R B I T A L   A N D
          N A T U R A L   B O N D   O R B I T A L   A N A L Y S I S
 ******************************Gaussian NBO Version 3.1******************************
       /RESON  / : Allow strongly delocalized NBO set

 Analyzing the CI density

 Job title: COc1cccc(c1)OC(=O)C(C)(C)C_conf_0                               

 Storage needed:    201318 in NPA (1342172165 available)


 NATURAL POPULATIONS:  Natural atomic orbital occupancies 
                                                          
   NAO  Atom  No  lang   Type(AO)    Occupancy
 --------------------------------------------
     1    C    1  S      Cor( 1S)     1.99942
     2    C    1  S      Val( 2S)     1.10708
     3    C    1  S      Ryd( 3S)     0.00149
     4    C    1  S      Ryd( 4S)     0.00003
     5    C    1  px     Val( 2p)     1.24380
     6    C    1  px     Ryd( 3p)     0.00294
     7    C    1  py     Val( 2p)     0.72849
     8    C    1  py     Ryd( 3p)     0.00296
     9    C    1  pz     Val( 2p)     1.23603
    10    C    1  pz     Ryd( 3p)     0.00031
    11    C    1  dxy    Ryd( 3d)     0.00132
    12    C    1  dxz    Ryd( 3d)     0.00089
    13    C    1  dyz    Ryd( 3d)     0.00136
    14    C    1  dx2y2  Ryd( 3d)     0.00175
    15    C    1  dz2    Ryd( 3d)     0.00110

    16    O    2  S      Cor( 1S)     1.99975
    17    O    2  S      Val( 2S)     1.59830
    18    O    2  S      Ryd( 3S)     0.00079
    19    O    2  S      Ryd( 4S)     0.00006
    20    O    2  px     Val( 2p)     1.69330
    21    O    2  px     Ryd( 3p)     0.00222
    22    O    2  py     Val( 2p)     1.42124
    23    O    2  py     Ryd( 3p)     0.00092
    24    O    2  pz     Val( 2p)     1.69578
    25    O    2  pz     Ryd( 3p)     0.00213
    26    O    2  dxy    Ryd( 3d)     0.00135
    27    O    2  dxz    Ryd( 3d)     0.00166
    28    O    2  dyz    Ryd( 3d)     0.00041
    29    O    2  dx2y2  Ryd( 3d)     0.00135
    30    O    2  dz2    Ryd( 3d)     0.00078

    31    C    3  S      Cor( 1S)     1.99881
    32    C    3  S      Val( 2S)     0.84382
    33    C    3  S      Ryd( 3S)     0.00154
    34    C    3  S      Ryd( 4S)     0.00015
    35    C    3  px     Val( 2p)     0.87635
    36    C    3  px     Ryd( 3p)     0.00869
    37    C    3  py     Val( 2p)     0.95758
    38    C    3  py     Ryd( 3p)     0.00405
    39    C    3  pz     Val( 2p)     0.94400
    40    C    3  pz     Ryd( 3p)     0.00154
    41    C    3  dxy    Ryd( 3d)     0.00177
    42    C    3  dxz    Ryd( 3d)     0.00159
    43    C    3  dyz    Ryd( 3d)     0.00142
    44    C    3  dx2y2  Ryd( 3d)     0.00141
    45    C    3  dz2    Ryd( 3d)     0.00052

    46    C    4  S      Cor( 1S)     1.99906
    47    C    4  S      Val( 2S)     0.96544
    48    C    4  S      Ryd( 3S)     0.00079
    49    C    4  S      Ryd( 4S)     0.00004
    50    C    4  px     Val( 2p)     1.19446
    51    C    4  px     Ryd( 3p)     0.00462
    52    C    4  py     Val( 2p)     1.05241
    53    C    4  py     Ryd( 3p)     0.00503
    54    C    4  pz     Val( 2p)     1.06359
    55    C    4  pz     Ryd( 3p)     0.00493
    56    C    4  dxy    Ryd( 3d)     0.00052
    57    C    4  dxz    Ryd( 3d)     0.00046
    58    C    4  dyz    Ryd( 3d)     0.00053
    59    C    4  dx2y2  Ryd( 3d)     0.00087
    60    C    4  dz2    Ryd( 3d)     0.00047

    61    C    5  S      Cor( 1S)     1.99915
    62    C    5  S      Val( 2S)     0.96383
    63    C    5  S      Ryd( 3S)     0.00060
    64    C    5  S      Ryd( 4S)     0.00004
    65    C    5  px     Val( 2p)     1.05360
    66    C    5  px     Ryd( 3p)     0.00507
    67    C    5  py     Val( 2p)     1.19324
    68    C    5  py     Ryd( 3p)     0.00500
    69    C    5  pz     Val( 2p)     1.03483
    70    C    5  pz     Ryd( 3p)     0.00349
    71    C    5  dxy    Ryd( 3d)     0.00066
    72    C    5  dxz    Ryd( 3d)     0.00061
    73    C    5  dyz    Ryd( 3d)     0.00043
    74    C    5  dx2y2  Ryd( 3d)     0.00080
    75    C    5  dz2    Ryd( 3d)     0.00046

    76    C    6  S      Cor( 1S)     1.99900
    77    C    6  S      Val( 2S)     0.98220
    78    C    6  S      Ryd( 3S)     0.00074
    79    C    6  S      Ryd( 4S)     0.00006
    80    C    6  px     Val( 2p)     1.14380
    81    C    6  px     Ryd( 3p)     0.00417
    82    C    6  py     Val( 2p)     1.12249
    83    C    6  py     Ryd( 3p)     0.00454
    84    C    6  pz     Val( 2p)     0.89873
    85    C    6  pz     Ryd( 3p)     0.00247
    86    C    6  dxy    Ryd( 3d)     0.00075
    87    C    6  dxz    Ryd( 3d)     0.00062
    88    C    6  dyz    Ryd( 3d)     0.00069
    89    C    6  dx2y2  Ryd( 3d)     0.00076
    90    C    6  dz2    Ryd( 3d)     0.00045

    91    C    7  S      Cor( 1S)     1.99877
    92    C    7  S      Val( 2S)     0.83561
    93    C    7  S      Ryd( 3S)     0.00135
    94    C    7  S      Ryd( 4S)     0.00013
    95    C    7  px     Val( 2p)     0.79235
    96    C    7  px     Ryd( 3p)     0.00650
    97    C    7  py     Val( 2p)     1.03186
    98    C    7  py     Ryd( 3p)     0.00679
    99    C    7  pz     Val( 2p)     1.02305
   100    C    7  pz     Ryd( 3p)     0.00500
   101    C    7  dxy    Ryd( 3d)     0.00159
   102    C    7  dxz    Ryd( 3d)     0.00152
   103    C    7  dyz    Ryd( 3d)     0.00077
   104    C    7  dx2y2  Ryd( 3d)     0.00144
   105    C    7  dz2    Ryd( 3d)     0.00052

   106    C    8  S      Cor( 1S)     1.99896
   107    C    8  S      Val( 2S)     0.96537
   108    C    8  S      Ryd( 3S)     0.00075
   109    C    8  S      Ryd( 4S)     0.00006
   110    C    8  px     Val( 2p)     1.06814
   111    C    8  px     Ryd( 3p)     0.00440
   112    C    8  py     Val( 2p)     1.20421
   113    C    8  py     Ryd( 3p)     0.00316
   114    C    8  pz     Val( 2p)     1.10782
   115    C    8  pz     Ryd( 3p)     0.00540
   116    C    8  dxy    Ryd( 3d)     0.00061
   117    C    8  dxz    Ryd( 3d)     0.00055
   118    C    8  dyz    Ryd( 3d)     0.00047
   119    C    8  dx2y2  Ryd( 3d)     0.00066
   120    C    8  dz2    Ryd( 3d)     0.00048

   121    O    9  S      Cor( 1S)     1.99970
   122    O    9  S      Val( 2S)     1.59521
   123    O    9  S      Ryd( 3S)     0.00141
   124    O    9  S      Ryd( 4S)     0.00009
   125    O    9  px     Val( 2p)     1.41308
   126    O    9  px     Ryd( 3p)     0.00085
   127    O    9  py     Val( 2p)     1.79900
   128    O    9  py     Ryd( 3p)     0.00231
   129    O    9  pz     Val( 2p)     1.73152
   130    O    9  pz     Ryd( 3p)     0.00135
   131    O    9  dxy    Ryd( 3d)     0.00091
   132    O    9  dxz    Ryd( 3d)     0.00096
   133    O    9  dyz    Ryd( 3d)     0.00115
   134    O    9  dx2y2  Ryd( 3d)     0.00091
   135    O    9  dz2    Ryd( 3d)     0.00124

   136    C   10  S      Cor( 1S)     1.99929
   137    C   10  S      Val( 2S)     0.76032
   138    C   10  S      Ryd( 3S)     0.00654
   139    C   10  S      Ryd( 4S)     0.00047
   140    C   10  px     Val( 2p)     0.82347
   141    C   10  px     Ryd( 3p)     0.00542
   142    C   10  py     Val( 2p)     0.85215
   143    C   10  py     Ryd( 3p)     0.01425
   144    C   10  pz     Val( 2p)     0.78961
   145    C   10  pz     Ryd( 3p)     0.01403
   146    C   10  dxy    Ryd( 3d)     0.00222
   147    C   10  dxz    Ryd( 3d)     0.00250
   148    C   10  dyz    Ryd( 3d)     0.00079
   149    C   10  dx2y2  Ryd( 3d)     0.00157
   150    C   10  dz2    Ryd( 3d)     0.00202

   151    O   11  S      Cor( 1S)     1.99978
   152    O   11  S      Val( 2S)     1.69148
   153    O   11  S      Ryd( 3S)     0.00056
   154    O   11  S      Ryd( 4S)     0.00012
   155    O   11  px     Val( 2p)     1.79665
   156    O   11  px     Ryd( 3p)     0.00174
   157    O   11  py     Val( 2p)     1.55990
   158    O   11  py     Ryd( 3p)     0.00121
   159    O   11  pz     Val( 2p)     1.55631
   160    O   11  pz     Ryd( 3p)     0.00127
   161    O   11  dxy    Ryd( 3d)     0.00232
   162    O   11  dxz    Ryd( 3d)     0.00237
   163    O   11  dyz    Ryd( 3d)     0.00455
   164    O   11  dx2y2  Ryd( 3d)     0.00238
   165    O   11  dz2    Ryd( 3d)     0.00386

   166    C   12  S      Cor( 1S)     1.99906
   167    C   12  S      Val( 2S)     0.93823
   168    C   12  S      Ryd( 3S)     0.00048
   169    C   12  S      Ryd( 4S)     0.00003
   170    C   12  px     Val( 2p)     1.07046
   171    C   12  px     Ryd( 3p)     0.00261
   172    C   12  py     Val( 2p)     1.06154
   173    C   12  py     Ryd( 3p)     0.00269
   174    C   12  pz     Val( 2p)     1.06091
   175    C   12  pz     Ryd( 3p)     0.00338
   176    C   12  dxy    Ryd( 3d)     0.00092
   177    C   12  dxz    Ryd( 3d)     0.00076
   178    C   12  dyz    Ryd( 3d)     0.00058
   179    C   12  dx2y2  Ryd( 3d)     0.00082
   180    C   12  dz2    Ryd( 3d)     0.00095

   181    C   13  S      Cor( 1S)     1.99938
   182    C   13  S      Val( 2S)     1.09487
   183    C   13  S      Ryd( 3S)     0.00060
   184    C   13  S      Ryd( 4S)     0.00002
   185    C   13  px     Val( 2p)     1.24281
   186    C   13  px     Ryd( 3p)     0.00212
   187    C   13  py     Val( 2p)     1.07897
   188    C   13  py     Ryd( 3p)     0.00143
   189    C   13  pz     Val( 2p)     1.24174
   190    C   13  pz     Ryd( 3p)     0.00225
   191    C   13  dxy    Ryd( 3d)     0.00086
   192    C   13  dxz    Ryd( 3d)     0.00060
   193    C   13  dyz    Ryd( 3d)     0.00048
   194    C   13  dx2y2  Ryd( 3d)     0.00054
   195    C   13  dz2    Ryd( 3d)     0.00091

   196    C   14  S      Cor( 1S)     1.99939
   197    C   14  S      Val( 2S)     1.08939
   198    C   14  S      Ryd( 3S)     0.00057
   199    C   14  S      Ryd( 4S)     0.00002
   200    C   14  px     Val( 2p)     1.13692
   201    C   14  px     Ryd( 3p)     0.00219
   202    C   14  py     Val( 2p)     1.23038
   203    C   14  py     Ryd( 3p)     0.00258
   204    C   14  pz     Val( 2p)     1.19869
   205    C   14  pz     Ryd( 3p)     0.00224
   206    C   14  dxy    Ryd( 3d)     0.00066
   207    C   14  dxz    Ryd( 3d)     0.00045
   208    C   14  dyz    Ryd( 3d)     0.00024
   209    C   14  dx2y2  Ryd( 3d)     0.00084
   210    C   14  dz2    Ryd( 3d)     0.00116

   211    C   15  S      Cor( 1S)     1.99938
   212    C   15  S      Val( 2S)     1.09571
   213    C   15  S      Ryd( 3S)     0.00060
   214    C   15  S      Ryd( 4S)     0.00002
   215    C   15  px     Val( 2p)     1.23795
   216    C   15  px     Ryd( 3p)     0.00197
   217    C   15  py     Val( 2p)     1.24033
   218    C   15  py     Ryd( 3p)     0.00218
   219    C   15  pz     Val( 2p)     1.08496
   220    C   15  pz     Ryd( 3p)     0.00153
   221    C   15  dxy    Ryd( 3d)     0.00058
   222    C   15  dxz    Ryd( 3d)     0.00084
   223    C   15  dyz    Ryd( 3d)     0.00046
   224    C   15  dx2y2  Ryd( 3d)     0.00082
   225    C   15  dz2    Ryd( 3d)     0.00071

   226    H   16  S      Val( 1S)     0.76227
   227    H   16  S      Ryd( 2S)     0.00047

   228    H   17  S      Val( 1S)     0.77603
   229    H   17  S      Ryd( 2S)     0.00160

   230    H   18  S      Val( 1S)     0.77422
   231    H   18  S      Ryd( 2S)     0.00158

   232    H   19  S      Val( 1S)     0.75206
   233    H   19  S      Ryd( 2S)     0.00117

   234    H   20  S      Val( 1S)     0.75614
   235    H   20  S      Ryd( 2S)     0.00075

   236    H   21  S      Val( 1S)     0.73564
   237    H   21  S      Ryd( 2S)     0.00119

   238    H   22  S      Val( 1S)     0.75035
   239    H   22  S      Ryd( 2S)     0.00135

   240    H   23  S      Val( 1S)     0.76739
   241    H   23  S      Ryd( 2S)     0.00105

   242    H   24  S      Val( 1S)     0.76465
   243    H   24  S      Ryd( 2S)     0.00127

   244    H   25  S      Val( 1S)     0.77355
   245    H   25  S      Ryd( 2S)     0.00148

   246    H   26  S      Val( 1S)     0.75869
   247    H   26  S      Ryd( 2S)     0.00110

   248    H   27  S      Val( 1S)     0.77638
   249    H   27  S      Ryd( 2S)     0.00102

   250    H   28  S      Val( 1S)     0.75901
   251    H   28  S      Ryd( 2S)     0.00111

   252    H   29  S      Val( 1S)     0.76202
   253    H   29  S      Ryd( 2S)     0.00110

   254    H   30  S      Val( 1S)     0.76780
   255    H   30  S      Ryd( 2S)     0.00104

   256    H   31  S      Val( 1S)     0.77426
   257    H   31  S      Ryd( 2S)     0.00169

 WARNING:  1 low occupancy (<1.9990e) core orbital  found on  C    3
           1 low occupancy (<1.9990e) core orbital  found on  C    7
           1 low occupancy (<1.9990e) core orbital  found on  C    8


 Summary of Natural Population Analysis:                  
                                                          
                                       Natural Population 
                Natural  -----------------------------------------------
    Atom  No    Charge         Core      Valence    Rydberg      Total
 -----------------------------------------------------------------------
      C    1   -0.32896      1.99942     4.31540    0.01415     6.32896
      O    2   -0.42006      1.99975     6.40863    0.01168     8.42006
      C    3    0.35676      1.99881     3.62175    0.02268     5.64324
      C    4   -0.29321      1.99906     4.27590    0.01825     6.29321
      C    5   -0.26179      1.99915     4.24548    0.01716     6.26179
      C    6   -0.16147      1.99900     4.14722    0.01525     6.16147
      C    7    0.29275      1.99877     3.68287    0.02561     5.70725
      C    8   -0.36103      1.99896     4.34555    0.01653     6.36103
      O    9   -0.54968      1.99970     6.53881    0.01118     8.54968
      C   10    0.72536      1.99929     3.22555    0.04981     5.27464
      O   11   -0.62449      1.99978     6.60435    0.02036     8.62449
      C   12   -0.14342      1.99906     4.13114    0.01321     6.14342
      C   13   -0.66759      1.99938     4.65839    0.00981     6.66759
      C   14   -0.66573      1.99939     4.65538    0.01096     6.66573
      C   15   -0.66802      1.99938     4.65895    0.00969     6.66802
      H   16    0.23726      0.00000     0.76227    0.00047     0.76274
      H   17    0.22237      0.00000     0.77603    0.00160     0.77763
      H   18    0.22420      0.00000     0.77422    0.00158     0.77580
      H   19    0.24677      0.00000     0.75206    0.00117     0.75323
      H   20    0.24311      0.00000     0.75614    0.00075     0.75689
      H   21    0.26317      0.00000     0.73564    0.00119     0.73683
      H   22    0.24830      0.00000     0.75035    0.00135     0.75170
      H   23    0.23156      0.00000     0.76739    0.00105     0.76844
      H   24    0.23409      0.00000     0.76465    0.00127     0.76591
      H   25    0.22497      0.00000     0.77355    0.00148     0.77503
      H   26    0.24021      0.00000     0.75869    0.00110     0.75979
      H   27    0.22261      0.00000     0.77638    0.00102     0.77739
      H   28    0.23988      0.00000     0.75901    0.00111     0.76012
      H   29    0.23688      0.00000     0.76202    0.00110     0.76312
      H   30    0.23116      0.00000     0.76780    0.00104     0.76884
      H   31    0.22405      0.00000     0.77426    0.00169     0.77595
 =======================================================================
   * Total *    0.00000     29.98889    81.72579    0.28531   112.00000

                                 Natural Population      
 --------------------------------------------------------
   Core                      29.98889 ( 99.9630% of  30)
   Valence                   81.72579 ( 99.6656% of  82)
   Natural Minimal Basis    111.71469 ( 99.7453% of 112)
   Natural Rydberg Basis      0.28531 (  0.2547% of 112)
 --------------------------------------------------------

    Atom  No          Natural Electron Configuration
 ----------------------------------------------------------------------------
      C    1      [core]2S( 1.11)2p( 3.21)3p( 0.01)3d( 0.01)
      O    2      [core]2S( 1.60)2p( 4.81)3p( 0.01)3d( 0.01)
      C    3      [core]2S( 0.84)2p( 2.78)3p( 0.01)3d( 0.01)
      C    4      [core]2S( 0.97)2p( 3.31)3p( 0.01)
      C    5      [core]2S( 0.96)2p( 3.28)3p( 0.01)
      C    6      [core]2S( 0.98)2p( 3.17)3p( 0.01)
      C    7      [core]2S( 0.84)2p( 2.85)3p( 0.02)3d( 0.01)
      C    8      [core]2S( 0.97)2p( 3.38)3p( 0.01)
      O    9      [core]2S( 1.60)2p( 4.94)3d( 0.01)
      C   10      [core]2S( 0.76)2p( 2.47)3S( 0.01)3p( 0.03)3d( 0.01)
      O   11      [core]2S( 1.69)2p( 4.91)3d( 0.02)
      C   12      [core]2S( 0.94)2p( 3.19)3p( 0.01)
      C   13      [core]2S( 1.09)2p( 3.56)3p( 0.01)
      C   14      [core]2S( 1.09)2p( 3.57)3p( 0.01)
      C   15      [core]2S( 1.10)2p( 3.56)3p( 0.01)
      H   16            1S( 0.76)
      H   17            1S( 0.78)
      H   18            1S( 0.77)
      H   19            1S( 0.75)
      H   20            1S( 0.76)
      H   21            1S( 0.74)
      H   22            1S( 0.75)
      H   23            1S( 0.77)
      H   24            1S( 0.76)
      H   25            1S( 0.77)
      H   26            1S( 0.76)
      H   27            1S( 0.78)
      H   28            1S( 0.76)
      H   29            1S( 0.76)
      H   30            1S( 0.77)
      H   31            1S( 0.77)


 NBO analysis skipped by request.
 Leave Link  607 at Wed Sep 29 13:34:15 2021, MaxMem= 1342177280 cpu:      22.0
 (Enter /sw/target/amd/app/gaussian/Gaussian09RevA.02_gcc-4.9.2/g09/l9999.exe)
 1\1\GINC-HERMITE\SP\RTD-B3LYP-FC\6-31G(d)\C12H16O3\JSCHLEINITZ\29-Sep-
 2021\0\\#p TD(NStates=10, Root=1) b3lyp/6-31G* volume pop=NPA density=
 current Geom=AllCheck Guess=Read\\COc1cccc(c1)OC(=O)C(C)(C)C_conf_0\\0
 ,1\C,0,2.8039253038,-1.3923025519,-2.674276701\O,0,3.9800484932,-1.389
 0041028,-3.4672501412\C,0,5.1602783991,-1.7333290016,-2.875231831\C,0,
 6.2886956232,-1.7239606111,-3.7085317086\C,0,7.5325149723,-2.058862786
 3,-3.1871236137\C,0,7.6881643407,-2.4059469307,-1.8413116711\C,0,6.555
 967514,-2.4127589348,-1.034450306\C,0,5.2922487191,-2.0813674893,-1.52
 71892113\O,0,6.6143583189,-2.6631588926,0.3392896182\C,0,7.2587248393,
 -3.7731801373,0.8288231635\O,0,7.7945693905,-4.5982908651,0.1303536572
 \C,0,7.1912436851,-3.798411077,2.3600754197\C,0,5.7114889426,-3.819788
 3365,2.8045187423\C,0,7.9114042545,-5.0603567916,2.8605715159\C,0,7.88
 49147704,-2.5330398551,2.9130365487\H,0,1.9925340944,-1.0950935616,-3.
 3411187177\H,0,2.8731905303,-0.6748639619,-1.8457468304\H,0,2.59308121
 72,-2.3909658266,-2.2691669241\H,0,6.1631894507,-1.4523323874,-4.75149
 54961\H,0,8.4029245622,-2.0504694836,-3.8371990679\H,0,8.6563361143,-2
 .6730000386,-1.4380759378\H,0,4.4497064618,-2.0983968739,-0.8473610195
 \H,0,5.1928014167,-4.7026269171,2.4129807436\H,0,5.179143809,-2.927833
 0911,2.4629671039\H,0,5.6566955422,-3.8565187103,3.898598808\H,0,7.442
 6068152,-5.9670790031,2.4665054664\H,0,7.8741450024,-5.0980150045,3.95
 51286596\H,0,8.960174852,-5.0691030722,2.5490584452\H,0,7.3864522644,-
 1.6220872391,2.5703255965\H,0,8.9352192449,-2.4886946092,2.6022378867\
 H,0,7.8602340847,-2.5492338955,4.0087947691\\Version=AM64L-G09RevA.02\
 State=1-A\HF=-692.5896798\RMSD=9.669e-09\Dipole=-1.4804246,1.2236205,-
 0.7673217\Quadrupole=7.3771068,-7.4589839,0.0818772,-0.1341099,2.27086
 23,-1.9342068\PG=C01 [X(C12H16O3)]\\@


 WHAT, THEN, IS TIME?  IF NO ONE ASKS ME, I KNOW WHAT IT IS.
 IF I WISH TO EXPLAIN WHAT IT IS TO HIM WHO ASKS ME, I DO NOT KNOW.
                                   -- ST. AUGUSTINE (FIFTH CENTURY)
 Job cpu time:  0 days  3 hours 59 minutes 15.6 seconds.
 File lengths (MBytes):  RWF=    225 Int=      0 D2E=      0 Chk=     30 Scr=      1
 Normal termination of Gaussian 09 at Wed Sep 29 13:34:21 2021.
