 Entering Gaussian System, Link 0=g09
 Input=C12H10N4O3_7d75_conf_0.com
 Output=C12H10N4O3_7d75_conf_0.log
 Initial command:
 /sw/target/amd/app/gaussian/Gaussian09RevA.02_gcc-4.9.2/g09/l1.exe /home/jschleinitz/gaussian/Gau-3299259.inp -scrdir=/home/jschleinitz/gaussian/
 Entering Link 1 = /sw/target/amd/app/gaussian/Gaussian09RevA.02_gcc-4.9.2/g09/l1.exe PID=   3299271.
  
 Copyright (c) 1988,1990,1992,1993,1995,1998,2003,2009, Gaussian, Inc.
                  All Rights Reserved.
  
 This is part of the Gaussian(R) 09 program.  It is based on
 the Gaussian(R) 03 system (copyright 2003, Gaussian, Inc.),
 the Gaussian(R) 98 system (copyright 1998, Gaussian, Inc.),
 the Gaussian(R) 94 system (copyright 1995, Gaussian, Inc.),
 the Gaussian 92(TM) system (copyright 1992, Gaussian, Inc.),
 the Gaussian 90(TM) system (copyright 1990, Gaussian, Inc.),
 the Gaussian 88(TM) system (copyright 1988, Gaussian, Inc.),
 the Gaussian 86(TM) system (copyright 1986, Carnegie Mellon
 University), and the Gaussian 82(TM) system (copyright 1983,
 Carnegie Mellon University). Gaussian is a federally registered
 trademark of Gaussian, Inc.
  
 This software contains proprietary and confidential information,
 including trade secrets, belonging to Gaussian, Inc.
  
 This software is provided under written license and may be
 used, copied, transmitted, or stored only in accord with that
 written license.
  
 The following legend is applicable only to US Government
 contracts under FAR:
  
                    RESTRICTED RIGHTS LEGEND
  
 Use, reproduction and disclosure by the US Government is
 subject to restrictions as set forth in subparagraphs (a)
 and (c) of the Commercial Computer Software - Restricted
 Rights clause in FAR 52.227-19.
  
 Gaussian, Inc.
 340 Quinnipiac St., Bldg. 40, Wallingford CT 06492
  
  
 ---------------------------------------------------------------
 Warning -- This program may not be used in any manner that
 competes with the business of Gaussian, Inc. or will provide
 assistance to any competitor of Gaussian, Inc.  The licensee
 of this program is prohibited from giving any competitor of
 Gaussian, Inc. access to this program.  By using this program,
 the user acknowledges that Gaussian, Inc. is engaged in the
 business of creating and licensing software in the field of
 computational chemistry and represents and warrants to the
 licensee that it is not a competitor of Gaussian, Inc. and that
 it will not use this program in any manner prohibited above.
 ---------------------------------------------------------------
  

 Cite this work as:
 Gaussian 09, Revision A.02,
 M. J. Frisch, G. W. Trucks, H. B. Schlegel, G. E. Scuseria, 
 M. A. Robb, J. R. Cheeseman, G. Scalmani, V. Barone, B. Mennucci, 
 G. A. Petersson, H. Nakatsuji, M. Caricato, X. Li, H. P. Hratchian, 
 A. F. Izmaylov, J. Bloino, G. Zheng, J. L. Sonnenberg, M. Hada, 
 M. Ehara, K. Toyota, R. Fukuda, J. Hasegawa, M. Ishida, T. Nakajima, 
 Y. Honda, O. Kitao, H. Nakai, T. Vreven, J. A. Montgomery, Jr., 
 J. E. Peralta, F. Ogliaro, M. Bearpark, J. J. Heyd, E. Brothers, 
 K. N. Kudin, V. N. Staroverov, R. Kobayashi, J. Normand, 
 K. Raghavachari, A. Rendell, J. C. Burant, S. S. Iyengar, J. Tomasi, 
 M. Cossi, N. Rega, J. M. Millam, M. Klene, J. E. Knox, J. B. Cross, 
 V. Bakken, C. Adamo, J. Jaramillo, R. Gomperts, R. E. Stratmann, 
 O. Yazyev, A. J. Austin, R. Cammi, C. Pomelli, J. W. Ochterski, 
 R. L. Martin, K. Morokuma, V. G. Zakrzewski, G. A. Voth, 
 P. Salvador, J. J. Dannenberg, S. Dapprich, A. D. Daniels, 
 O. Farkas, J. B. Foresman, J. V. Ortiz, J. Cioslowski, 
 and D. J. Fox, Gaussian, Inc., Wallingford CT, 2009.
 
 ******************************************
 Gaussian 09:  AM64L-G09RevA.02 11-Jun-2009
                28-Sep-2021 
 ******************************************
 %nproc=4
 Will use up to    4 processors via shared memory.
 %mem=8gb
 %chk=C12H10N4O3_7d75_conf_0.chk
 -----------------------------------
 #p opt b3lyp/6-31G* scf=(xqc,tight)
 -----------------------------------
 1/14=-1,18=20,19=15,26=3,38=1/1,3;
 2/9=110,12=2,17=6,18=5,40=1/2;
 3/5=1,6=6,7=1,11=2,16=1,25=1,30=1,71=1,74=-5/1,2,3;
 4//1;
 5/5=2,8=3,13=1,32=2,38=5/2,8;
 6/7=2,8=2,9=2,10=2,28=1/1;
 7//1,2,3,16;
 1/14=-1,18=20,19=15/3(2);
 2/9=110/2;
 99//99;
 2/9=110/2;
 3/5=1,6=6,7=1,11=2,16=1,25=1,30=1,71=1,74=-5/1,2,3;
 4/5=5,16=3/1;
 5/5=2,8=3,13=1,32=2,38=5/2,8;
 7//1,2,3,16;
 1/14=-1,18=20,19=15/3(-5);
 2/9=110/2;
 6/7=2,8=2,9=2,10=2,19=2,28=1/1;
 99/9=1/99;
 Leave Link    1 at Tue Sep 28 15:18:16 2021, MaxMem= 1073741824 cpu:       0.1
 (Enter /sw/target/amd/app/gaussian/Gaussian09RevA.02_gcc-4.9.2/g09/l101.exe)
 -------------------------------------
 COc1nc(Oc2ccc(cc2)C#N)nc(n1)OC_conf_0
 -------------------------------------
 Symbolic Z-matrix:
 Charge =  0 Multiplicity = 1
 C                     2.35065  -0.27291  -1.12346 
 O                     2.75301   0.08818   0.19281 
 C                     3.17417  -1.00035   0.92701 
 N                     2.77877  -2.21543   0.56365 
 C                     3.25909  -3.18396   1.32762 
 O                     2.93314  -4.47214   0.91833 
 C                     3.83996  -5.46548   1.21193 
 C                     3.32404  -6.685     1.65161 
 C                     4.19319  -7.7204    2.00333 
 C                     5.57784  -7.53702   1.90731 
 C                     6.08959  -6.33377   1.41546 
 C                     5.22039  -5.30759   1.04501 
 C                     6.47309  -8.57329   2.32192 
 N                     7.20656  -9.40611   2.668 
 N                     4.03129  -3.0209    2.39754 
 C                     4.36548  -1.7622    2.64401 
 N                     3.96545  -0.70802   1.95047 
 O                     5.24904  -1.48683   3.66719 
 C                     5.74569  -2.65916   4.3049 
 H                     2.10969   0.64571  -1.66618 
 H                     1.44982  -0.89652  -1.11087 
 H                     3.16449  -0.77429  -1.66043 
 H                     2.24902  -6.82473   1.73929 
 H                     3.78466  -8.6626    2.36441 
 H                     7.16333  -6.17962   1.32714 
 H                     5.63412  -4.38019   0.65764 
 H                     6.4562   -2.34895   5.0769 
 H                     6.28604  -3.30163   3.59941 
 H                     4.93859  -3.2126    4.79735 
 
 NAtoms=     29 NQM=     29 NQMF=      0 NMic=      0 NMicF=      0 NTot=     29.
                    Isotopes and Nuclear Properties:
 (Nuclear quadrupole moments (NQMom) in fm**2, nuclear magnetic moments (NMagM)
  in nuclear magnetons)

  Atom         1           2           3           4           5           6           7           8           9          10
 IAtWgt=          12          16          12          14          12          16          12          12          12          12
 AtmWgt=  12.0000000  15.9949146  12.0000000  14.0030740  12.0000000  15.9949146  12.0000000  12.0000000  12.0000000  12.0000000
 NucSpn=           0           0           0           2           0           0           0           0           0           0
 AtZEff=   0.0000000   0.0000000   0.0000000   0.0000000   0.0000000   0.0000000   0.0000000   0.0000000   0.0000000   0.0000000
 NQMom=    0.0000000   0.0000000   0.0000000   2.0440000   0.0000000   0.0000000   0.0000000   0.0000000   0.0000000   0.0000000
 NMagM=    0.0000000   0.0000000   0.0000000   0.4037610   0.0000000   0.0000000   0.0000000   0.0000000   0.0000000   0.0000000

  Atom        11          12          13          14          15          16          17          18          19          20
 IAtWgt=          12          12          12          14          14          12          14          16          12           1
 AtmWgt=  12.0000000  12.0000000  12.0000000  14.0030740  14.0030740  12.0000000  14.0030740  15.9949146  12.0000000   1.0078250
 NucSpn=           0           0           0           2           2           0           2           0           0           1
 AtZEff=   0.0000000   0.0000000   0.0000000   0.0000000   0.0000000   0.0000000   0.0000000   0.0000000   0.0000000   0.0000000
 NQMom=    0.0000000   0.0000000   0.0000000   2.0440000   2.0440000   0.0000000   2.0440000   0.0000000   0.0000000   0.0000000
 NMagM=    0.0000000   0.0000000   0.0000000   0.4037610   0.4037610   0.0000000   0.4037610   0.0000000   0.0000000   2.7928460

  Atom        21          22          23          24          25          26          27          28          29
 IAtWgt=           1           1           1           1           1           1           1           1           1
 AtmWgt=   1.0078250   1.0078250   1.0078250   1.0078250   1.0078250   1.0078250   1.0078250   1.0078250   1.0078250
 NucSpn=           1           1           1           1           1           1           1           1           1
 AtZEff=   0.0000000   0.0000000   0.0000000   0.0000000   0.0000000   0.0000000   0.0000000   0.0000000   0.0000000
 NQMom=    0.0000000   0.0000000   0.0000000   0.0000000   0.0000000   0.0000000   0.0000000   0.0000000   0.0000000
 NMagM=    2.7928460   2.7928460   2.7928460   2.7928460   2.7928460   2.7928460   2.7928460   2.7928460   2.7928460
 Leave Link  101 at Tue Sep 28 15:18:17 2021, MaxMem= 1073741824 cpu:       0.2
 (Enter /sw/target/amd/app/gaussian/Gaussian09RevA.02_gcc-4.9.2/g09/l103.exe)

 GradGradGradGradGradGradGradGradGradGradGradGradGradGradGradGradGradGrad
 Berny optimization.
 Initialization pass.
                           ----------------------------
                           !    Initial Parameters    !
                           ! (Angstroms and Degrees)  !
 --------------------------                            --------------------------
 ! Name  Definition              Value          Derivative Info.                !
 --------------------------------------------------------------------------------
 ! R1    R(1,2)                  1.423          estimate D2E/DX2                !
 ! R2    R(1,20)                 1.0938         estimate D2E/DX2                !
 ! R3    R(1,21)                 1.0957         estimate D2E/DX2                !
 ! R4    R(1,22)                 1.0964         estimate D2E/DX2                !
 ! R5    R(2,3)                  1.3789         estimate D2E/DX2                !
 ! R6    R(3,4)                  1.3285         estimate D2E/DX2                !
 ! R7    R(3,17)                 1.3263         estimate D2E/DX2                !
 ! R8    R(4,5)                  1.3238         estimate D2E/DX2                !
 ! R9    R(5,6)                  1.3904         estimate D2E/DX2                !
 ! R10   R(5,15)                 1.3295         estimate D2E/DX2                !
 ! R11   R(6,7)                  1.3767         estimate D2E/DX2                !
 ! R12   R(7,8)                  1.3952         estimate D2E/DX2                !
 ! R13   R(7,12)                 1.3994         estimate D2E/DX2                !
 ! R14   R(8,9)                  1.3968         estimate D2E/DX2                !
 ! R15   R(8,23)                 1.0876         estimate D2E/DX2                !
 ! R16   R(9,10)                 1.4            estimate D2E/DX2                !
 ! R17   R(9,24)                 1.0886         estimate D2E/DX2                !
 ! R18   R(10,11)                1.397          estimate D2E/DX2                !
 ! R19   R(10,13)                1.4308         estimate D2E/DX2                !
 ! R20   R(11,12)                1.3949         estimate D2E/DX2                !
 ! R21   R(11,25)                1.0883         estimate D2E/DX2                !
 ! R22   R(12,26)                1.0869         estimate D2E/DX2                !
 ! R23   R(13,14)                1.1625         estimate D2E/DX2                !
 ! R24   R(15,16)                1.3254         estimate D2E/DX2                !
 ! R25   R(16,17)                1.3237         estimate D2E/DX2                !
 ! R26   R(16,18)                1.3796         estimate D2E/DX2                !
 ! R27   R(18,19)                1.424          estimate D2E/DX2                !
 ! R28   R(19,27)                1.0941         estimate D2E/DX2                !
 ! R29   R(19,28)                1.0966         estimate D2E/DX2                !
 ! R30   R(19,29)                1.0955         estimate D2E/DX2                !
 ! A1    A(2,1,20)             107.9472         estimate D2E/DX2                !
 ! A2    A(2,1,21)             111.4863         estimate D2E/DX2                !
 ! A3    A(2,1,22)             111.0503         estimate D2E/DX2                !
 ! A4    A(20,1,21)            107.6122         estimate D2E/DX2                !
 ! A5    A(20,1,22)            107.732          estimate D2E/DX2                !
 ! A6    A(21,1,22)            110.8321         estimate D2E/DX2                !
 ! A7    A(1,2,3)              112.2455         estimate D2E/DX2                !
 ! A8    A(2,3,4)              119.0459         estimate D2E/DX2                !
 ! A9    A(2,3,17)             114.7786         estimate D2E/DX2                !
 ! A10   A(4,3,17)             126.1739         estimate D2E/DX2                !
 ! A11   A(3,4,5)              113.7877         estimate D2E/DX2                !
 ! A12   A(4,5,6)              115.0183         estimate D2E/DX2                !
 ! A13   A(4,5,15)             125.834          estimate D2E/DX2                !
 ! A14   A(6,5,15)             119.1229         estimate D2E/DX2                !
 ! A15   A(5,6,7)              116.8276         estimate D2E/DX2                !
 ! A16   A(6,7,8)              117.0205         estimate D2E/DX2                !
 ! A17   A(6,7,12)             122.8821         estimate D2E/DX2                !
 ! A18   A(8,7,12)             120.0633         estimate D2E/DX2                !
 ! A19   A(7,8,9)              119.8118         estimate D2E/DX2                !
 ! A20   A(7,8,23)             120.2109         estimate D2E/DX2                !
 ! A21   A(9,8,23)             119.9668         estimate D2E/DX2                !
 ! A22   A(8,9,10)             120.0678         estimate D2E/DX2                !
 ! A23   A(8,9,24)             119.4445         estimate D2E/DX2                !
 ! A24   A(10,9,24)            120.4823         estimate D2E/DX2                !
 ! A25   A(9,10,11)            119.9511         estimate D2E/DX2                !
 ! A26   A(9,10,13)            120.2703         estimate D2E/DX2                !
 ! A27   A(11,10,13)           119.7764         estimate D2E/DX2                !
 ! A28   A(10,11,12)           119.9247         estimate D2E/DX2                !
 ! A29   A(10,11,25)           120.7956         estimate D2E/DX2                !
 ! A30   A(12,11,25)           119.2759         estimate D2E/DX2                !
 ! A31   A(7,12,11)            119.9992         estimate D2E/DX2                !
 ! A32   A(7,12,26)            120.9493         estimate D2E/DX2                !
 ! A33   A(11,12,26)           119.0234         estimate D2E/DX2                !
 ! A34   A(5,15,16)            114.366          estimate D2E/DX2                !
 ! A35   A(15,16,17)           125.6365         estimate D2E/DX2                !
 ! A36   A(15,16,18)           119.2705         estimate D2E/DX2                !
 ! A37   A(17,16,18)           115.0332         estimate D2E/DX2                !
 ! A38   A(3,17,16)            114.1462         estimate D2E/DX2                !
 ! A39   A(16,18,19)           113.0278         estimate D2E/DX2                !
 ! A40   A(18,19,27)           108.0033         estimate D2E/DX2                !
 ! A41   A(18,19,28)           111.4752         estimate D2E/DX2                !
 ! A42   A(18,19,29)           111.1156         estimate D2E/DX2                !
 ! A43   A(27,19,28)           107.4626         estimate D2E/DX2                !
 ! A44   A(27,19,29)           107.7277         estimate D2E/DX2                !
 ! A45   A(28,19,29)           110.8689         estimate D2E/DX2                !
 ! A46   L(10,13,14,11,-1)     179.6096         estimate D2E/DX2                !
 ! A47   L(10,13,14,11,-2)     178.8184         estimate D2E/DX2                !
 ! D1    D(20,1,2,3)          -175.4782         estimate D2E/DX2                !
 ! D2    D(21,1,2,3)            66.5329         estimate D2E/DX2                !
 ! D3    D(22,1,2,3)           -57.5934         estimate D2E/DX2                !
 ! D4    D(1,2,3,4)            -21.4583         estimate D2E/DX2                !
 ! D5    D(1,2,3,17)           158.1102         estimate D2E/DX2                !
 ! D6    D(2,3,4,5)            179.0651         estimate D2E/DX2                !
 ! D7    D(17,3,4,5)            -0.4496         estimate D2E/DX2                !
 ! D8    D(2,3,17,16)         -179.806          estimate D2E/DX2                !
 ! D9    D(4,3,17,16)           -0.2733         estimate D2E/DX2                !
 ! D10   D(3,4,5,6)           -175.9662         estimate D2E/DX2                !
 ! D11   D(3,4,5,15)             2.193          estimate D2E/DX2                !
 ! D12   D(4,5,6,7)            149.8339         estimate D2E/DX2                !
 ! D13   D(15,5,6,7)           -28.4578         estimate D2E/DX2                !
 ! D14   D(4,5,15,16)           -2.9472         estimate D2E/DX2                !
 ! D15   D(6,5,15,16)          175.1433         estimate D2E/DX2                !
 ! D16   D(5,6,7,8)            138.8604         estimate D2E/DX2                !
 ! D17   D(5,6,7,12)           -43.2666         estimate D2E/DX2                !
 ! D18   D(6,7,8,9)           -178.1223         estimate D2E/DX2                !
 ! D19   D(6,7,8,23)             0.6972         estimate D2E/DX2                !
 ! D20   D(12,7,8,9)             3.9415         estimate D2E/DX2                !
 ! D21   D(12,7,8,23)         -177.239          estimate D2E/DX2                !
 ! D22   D(6,7,12,11)          177.2549         estimate D2E/DX2                !
 ! D23   D(6,7,12,26)           -0.7969         estimate D2E/DX2                !
 ! D24   D(8,7,12,11)           -4.9344         estimate D2E/DX2                !
 ! D25   D(8,7,12,26)          177.0138         estimate D2E/DX2                !
 ! D26   D(7,8,9,10)            -0.3711         estimate D2E/DX2                !
 ! D27   D(7,8,9,24)           178.7905         estimate D2E/DX2                !
 ! D28   D(23,8,9,10)         -179.1935         estimate D2E/DX2                !
 ! D29   D(23,8,9,24)           -0.032          estimate D2E/DX2                !
 ! D30   D(8,9,10,11)           -2.2179         estimate D2E/DX2                !
 ! D31   D(8,9,10,13)          177.2433         estimate D2E/DX2                !
 ! D32   D(24,9,10,11)         178.6293         estimate D2E/DX2                !
 ! D33   D(24,9,10,13)          -1.9095         estimate D2E/DX2                !
 ! D34   D(9,10,11,12)           1.2309         estimate D2E/DX2                !
 ! D35   D(9,10,11,25)        -179.4845         estimate D2E/DX2                !
 ! D36   D(13,10,11,12)       -178.2329         estimate D2E/DX2                !
 ! D37   D(13,10,11,25)          1.0517         estimate D2E/DX2                !
 ! D38   D(10,11,12,7)           2.3342         estimate D2E/DX2                !
 ! D39   D(10,11,12,26)       -179.5765         estimate D2E/DX2                !
 ! D40   D(25,11,12,7)        -176.9613         estimate D2E/DX2                !
 ! D41   D(25,11,12,26)          1.1279         estimate D2E/DX2                !
 ! D42   D(5,15,16,17)           2.0777         estimate D2E/DX2                !
 ! D43   D(5,15,16,18)        -174.9638         estimate D2E/DX2                !
 ! D44   D(15,16,17,3)          -0.6125         estimate D2E/DX2                !
 ! D45   D(18,16,17,3)         176.5392         estimate D2E/DX2                !
 ! D46   D(15,16,18,19)          2.7677         estimate D2E/DX2                !
 ! D47   D(17,16,18,19)       -174.5787         estimate D2E/DX2                !
 ! D48   D(16,18,19,27)        178.3357         estimate D2E/DX2                !
 ! D49   D(16,18,19,28)         60.5008         estimate D2E/DX2                !
 ! D50   D(16,18,19,29)        -63.7133         estimate D2E/DX2                !
 --------------------------------------------------------------------------------
 Trust Radius=3.00D-01 FncErr=1.00D-07 GrdErr=1.00D-06
 Number of steps in this run= 137 maximum allowed number of steps= 174.
 GradGradGradGradGradGradGradGradGradGradGradGradGradGradGradGradGradGrad

 Leave Link  103 at Tue Sep 28 15:18:17 2021, MaxMem= 1073741824 cpu:       0.0
 (Enter /sw/target/amd/app/gaussian/Gaussian09RevA.02_gcc-4.9.2/g09/l202.exe)
                          Input orientation:                          
 ---------------------------------------------------------------------
 Center     Atomic      Atomic             Coordinates (Angstroms)
 Number     Number       Type             X           Y           Z
 ---------------------------------------------------------------------
      1          6           0        2.350645   -0.272911   -1.123455
      2          8           0        2.753010    0.088176    0.192809
      3          6           0        3.174168   -1.000349    0.927005
      4          7           0        2.778773   -2.215427    0.563646
      5          6           0        3.259094   -3.183960    1.327625
      6          8           0        2.933141   -4.472144    0.918334
      7          6           0        3.839962   -5.465485    1.211934
      8          6           0        3.324043   -6.685003    1.651609
      9          6           0        4.193187   -7.720398    2.003326
     10          6           0        5.577838   -7.537016    1.907313
     11          6           0        6.089593   -6.333772    1.415461
     12          6           0        5.220386   -5.307591    1.045014
     13          6           0        6.473093   -8.573291    2.321916
     14          7           0        7.206560   -9.406114    2.668002
     15          7           0        4.031290   -3.020904    2.397536
     16          6           0        4.365480   -1.762199    2.644013
     17          7           0        3.965455   -0.708024    1.950467
     18          8           0        5.249040   -1.486831    3.667195
     19          6           0        5.745692   -2.659157    4.304903
     20          1           0        2.109690    0.645708   -1.666176
     21          1           0        1.449820   -0.896524   -1.110872
     22          1           0        3.164493   -0.774295   -1.660429
     23          1           0        2.249022   -6.824725    1.739292
     24          1           0        3.784665   -8.662600    2.364410
     25          1           0        7.163327   -6.179621    1.327139
     26          1           0        5.634118   -4.380188    0.657642
     27          1           0        6.456195   -2.348949    5.076898
     28          1           0        6.286037   -3.301635    3.599409
     29          1           0        4.938587   -3.212599    4.797345
 ---------------------------------------------------------------------
                    Distance matrix (angstroms):
                    1          2          3          4          5
     1  C    0.000000
     2  O    1.422966   0.000000
     3  C    2.326315   1.378878   0.000000
     4  N    2.608251   2.333404   1.328451   0.000000
     5  C    3.912452   3.500114   2.221681   1.323793   0.000000
     6  O    4.705504   4.621185   3.480162   2.289629   1.390389
     7  C    5.885145   5.750064   4.523484   3.479838   2.357149
     8  C    7.054319   6.951988   5.732609   4.632288   3.516602
     9  C    8.284733   8.144072   6.881565   5.863271   4.680638
    10  C    8.506912   8.310399   7.033253   6.161129   4.966056
    11  C    7.560414   7.339556   6.097844   5.352371   4.235653
    12  C    6.187542   5.994039   4.770039   3.969215   2.904539
    13  C    9.887440   9.664011   8.377239   7.560551   6.353211
    14  N   11.016827  10.775075   9.484100   8.702850   7.489614
    15  N    4.772150   4.020100   2.641924   2.362360   1.329505
    16  C    4.524528   3.468767   2.224355   2.655368   2.231227
    17  N    3.499418   2.278885   1.326296   2.367224   2.648988
    18  O    5.729277   4.558746   3.471368   4.032999   3.509091
    19  C    6.832832   5.780424   4.557914   4.795468   3.914432
    20  H    1.093831   2.044635   3.250724   3.688615   4.995031
    21  H    1.095691   2.089862   2.671535   2.511899   3.801592
    22  H    1.096392   2.085106   2.597309   2.678088   3.839779
    23  H    7.150659   7.101677   5.953072   4.786273   3.800643
    24  H    9.198288   9.075034   7.819778   6.769091   5.600593
    25  H    8.003534   7.747444   6.549685   5.960040   4.921080
    26  H    5.551867   5.336959   4.188941   3.584413   2.742368
    27  H    7.720742   6.596020   5.460040   5.823290   4.997575
    28  H    6.853169   5.964731   4.703338   4.764095   3.786454
    29  H    7.098950   6.072365   4.794450   4.856270   3.854929
                    6          7          8          9         10
     6  O    0.000000
     7  C    1.376682   0.000000
     8  C    2.363735   1.395246   0.000000
     9  C    3.649121   2.415720   1.396839   0.000000
    10  C    4.167246   2.791953   2.422994   1.400037   0.000000
    11  C    3.698105   2.419955   2.797748   2.421708   1.396999
    12  C    2.438341   1.399415   2.421020   2.791977   2.416954
    13  C    5.596491   4.221835   3.732487   2.454974   1.430819
    14  N    6.757775   5.383556   4.848859   3.516226   2.593244
    15  N    2.345222   2.723643   3.805552   4.718777   4.798686
    16  C    3.517579   4.005165   5.128690   5.995023   5.946516
    17  N    4.037272   4.816079   6.018721   7.016270   7.016892
    18  O    4.672442   4.882980   5.898236   6.537633   6.309519
    19  C    4.760905   4.590615   5.395534   5.772668   5.437841
    20  H    5.792251   6.973094   8.137671   9.370056   9.578875
    21  H    4.370695   5.655406   6.682103   7.986836   8.381295
    22  H    4.514159   5.542021   6.777281   7.920206   8.017943
    23  H    2.583918   2.157946   1.087603   2.156786   3.408314
    24  H    4.513995   3.398941   2.152009   1.088584   2.165952
    25  H    4.580074   3.401179   3.885974   3.413642   2.166310
    26  H    2.715086   2.168895   3.411244   3.878679   3.395645
    27  H    5.849233   5.612078   6.351720   6.589425   6.142786
    28  H    4.449738   4.045438   4.900461   5.143245   4.615537
    29  H    4.544776   4.374659   4.955804   5.355597   5.240373
                   11         12         13         14         15
    11  C    0.000000
    12  C    1.394919   0.000000
    13  C    2.446258   3.723513   0.000000
    14  N    3.500823   4.834964   1.162474   0.000000
    15  N    4.021961   2.910704   6.066062   7.136273   0.000000
    16  C    5.037975   3.982144   7.136999   8.154861   1.325434
    17  N    6.037155   4.852908   8.263694   9.310016   2.356612
    18  O    5.410146   4.634098   7.316146   8.218596   2.334166
    19  C    4.687211   4.232851   6.279994   7.094717   2.589998
    20  H    8.605188   7.243532  10.951443  12.074863   5.800892
    21  H    7.581129   6.190519   9.795410  10.946830   4.846226
    22  H    6.994648   5.665412   9.361103  10.468139   4.718652
    23  H    3.885342   3.407744   4.608656   5.665974   4.251919
    24  H    3.411251   3.880488   2.690247   3.514876   5.647180
    25  H    1.088334   2.148268   2.682472   3.494287   4.575249
    26  H    2.144350   1.086879   4.588659   5.636848   2.728359
    27  H    5.423960   5.151396   6.806809   7.494626   3.675687
    28  H    3.741935   3.418246   5.427461   6.243361   2.570446
    29  H    4.743805   4.306785   6.100777   6.930905   2.572745
                   16         17         18         19         20
    16  C    0.000000
    17  N    1.323749   0.000000
    18  O    1.379640   2.280633   0.000000
    19  C    2.338392   3.538296   1.423968   0.000000
    20  H    5.428106   4.284456   6.545845   7.732816   0.000000
    21  H    4.832145   3.966831   6.132900   7.133864   1.766995
    22  H    4.576740   3.699257   5.765121   6.767606   1.768912
    23  H    5.561213   6.356475   6.419504   6.013404   8.211212
    24  H    6.930444   7.967390   7.438636   6.607002  10.280844
    25  H    5.392192   6.368148   5.582351   4.823945   9.004683
    26  H    3.522639   4.235637   4.192519   4.034466   6.563639
    27  H    3.261027   4.320995   2.046396   1.094084   8.563243
    28  H    2.640300   3.851095   2.091285   1.096573   7.794214
    29  H    2.658750   3.914665   2.086120   1.095544   8.041536
                   21         22         23         24         25
    21  H    0.000000
    22  H    1.804732   0.000000
    23  H    6.626140   7.000279   0.000000
    24  H    8.822756   8.877460   2.475228   0.000000
    25  H    8.154703   7.357567   4.973573   4.319314   0.000000
    26  H    5.724675   4.947218   4.313305   4.967150   2.454520
    27  H    8.090849   7.662012   6.990887   7.372710   5.406920
    28  H    7.166610   6.617959   5.671833   6.043346   3.770366
    29  H    7.241735   7.127102   5.443612   6.078916   5.078880
                   26         27         28         29
    26  H    0.000000
    27  H    4.932705   0.000000
    28  H    3.200355   1.766222   0.000000
    29  H    4.357083   1.768383   1.805160   0.000000
 Stoichiometry    C12H10N4O3
 Framework group  C1[X(C12H10N4O3)]
 Deg. of freedom    81
 Full point group                 C1      NOp   1
 Largest Abelian subgroup         C1      NOp   1
 Largest concise Abelian subgroup C1      NOp   1
                         Standard orientation:                         
 ---------------------------------------------------------------------
 Center     Atomic      Atomic             Coordinates (Angstroms)
 Number     Number       Type             X           Y           Z
 ---------------------------------------------------------------------
      1          6           0        4.546785   -1.953733    0.846559
      2          8           0        4.519657   -0.609297    0.381167
      3          6           0        3.243710   -0.191122    0.067493
      4          7           0        2.313176   -1.101716   -0.196529
      5          6           0        1.123435   -0.587057   -0.464986
      6          8           0        0.109838   -1.518848   -0.658812
      7          6           0       -1.164660   -1.131980   -0.310616
      8          6           0       -2.197344   -1.502653   -1.172519
      9          6           0       -3.508196   -1.107076   -0.896214
     10          6           0       -3.785524   -0.347410    0.246634
     11          6           0       -2.757529   -0.024150    1.135643
     12          6           0       -1.451964   -0.437104    0.869624
     13          6           0       -5.116775    0.110028    0.503081
     14          7           0       -6.193563    0.495187    0.711704
     15          7           0        0.831455    0.708591   -0.525217
     16          6           0        1.843047    1.511522   -0.227295
     17          7           0        3.073090    1.124148    0.071443
     18          8           0        1.625863    2.872075   -0.155646
     19          6           0        0.263631    3.230455   -0.364385
     20          1           0        5.571985   -2.184760    1.149967
     21          1           0        4.268640   -2.658197    0.054786
     22          1           0        3.902299   -2.079625    1.724548
     23          1           0       -1.981837   -2.081583   -2.067661
     24          1           0       -4.306411   -1.382768   -1.583136
     25          1           0       -2.959129    0.558515    2.032487
     26          1           0       -0.664671   -0.183494    1.574719
     27          1           0        0.179974    4.316405   -0.260781
     28          1           0       -0.390910    2.776597    0.389314
     29          1           0       -0.063603    2.965659   -1.375828
 ---------------------------------------------------------------------
 Rotational constants (GHZ):      0.7748657      0.1953944      0.1674287
 Leave Link  202 at Tue Sep 28 15:18:17 2021, MaxMem= 1073741824 cpu:       0.0
 (Enter /sw/target/amd/app/gaussian/Gaussian09RevA.02_gcc-4.9.2/g09/l301.exe)
 Standard basis: 6-31G(d) (6D, 7F)
 Ernie: Thresh=  0.10000D-02 Tol=  0.10000D-05 Strict=F.
 There are   305 symmetry adapted basis functions of A   symmetry.
 Integral buffers will be    131072 words long.
 Raffenetti 2 integral format.
 Two-electron integral symmetry is turned on.
   305 basis functions,   572 primitive gaussians,   305 cartesian basis functions
    67 alpha electrons       67 beta electrons
       nuclear repulsion energy      1338.4034534831 Hartrees.
 IExCor=  402 DFT=T Ex+Corr=B3LYP ExCW=0 ScaHFX=  0.200000
 ScaDFX=  0.800000  0.720000  1.000000  0.810000 ScalE2=  1.000000  1.000000
 IRadAn=      0 IRanWt=     -1 IRanGd=            0 ICorTp=0
 NAtoms=   29 NActive=   29 NUniq=   29 SFac= 7.50D-01 NAtFMM=   80 NAOKFM=F Big=F
 Leave Link  301 at Tue Sep 28 15:18:17 2021, MaxMem= 1073741824 cpu:       0.1
 (Enter /sw/target/amd/app/gaussian/Gaussian09RevA.02_gcc-4.9.2/g09/l302.exe)
 NPDir=0 NMtPBC=     1 NCelOv=     1 NCel=       1 NClECP=     1 NCelD=      1
         NCelK=      1 NCelE2=     1 NClLst=     1 CellRange=     0.0.
 One-electron integrals computed using PRISM.
 NBasis=   305 RedAO= T  NBF=   305
 NBsUse=   305 1.00D-06 NBFU=   305
 Precomputing XC quadrature grid using
 IXCGrd= 2 IRadAn=           0 IRanWt=          -1 IRanGd=           0 AccXCQ= 1.00D-10.
 NRdTot=    1843 NPtTot=      234992 NUsed=      248283 NTot=      248315
 NSgBfM=   301   301   301   301   301 NAtAll=    29    29.
 Leave Link  302 at Tue Sep 28 15:18:19 2021, MaxMem= 1073741824 cpu:       2.5
 (Enter /sw/target/amd/app/gaussian/Gaussian09RevA.02_gcc-4.9.2/g09/l303.exe)
 DipDrv:  MaxL=1.
 Leave Link  303 at Tue Sep 28 15:18:20 2021, MaxMem= 1073741824 cpu:       0.2
 (Enter /sw/target/amd/app/gaussian/Gaussian09RevA.02_gcc-4.9.2/g09/l401.exe)
 Harris functional with IExCor=  402 diagonalized for initial guess.
 ExpMin= 1.61D-01 ExpMax= 5.48D+03 ExpMxC= 8.25D+02 IAcc=1 IRadAn=         1 AccDes= 0.00D+00
 HarFok:  IExCor=  402 AccDes= 0.00D+00 IRadAn=         1 IDoV= 1
 ScaDFX=  1.000000  1.000000  1.000000  1.000000
 FoFCou: FMM=F IPFlag=           0 FMFlag=      100000 FMFlg1=           0
         NFxFlg=           0 DoJE=T BraDBF=F KetDBF=T FulRan=T
         Omega=  0.000000  0.000000  1.000000  0.000000  0.000000 ICntrl=     500 IOpCl=  0
         NMat0=    1 NMatS0=    1 NMatT0=    0 NMatD0=    1 NMtDS0=    0 NMtDT0=    0
         I1Cent=           4 NGrid=           0.
 Petite list used in FoFCou.
 Harris En= -908.018039910643    
 Initial guess orbital symmetries:
       Occupied  (A) (A) (A) (A) (A) (A) (A) (A) (A) (A) (A) (A)
                 (A) (A) (A) (A) (A) (A) (A) (A) (A) (A) (A) (A)
                 (A) (A) (A) (A) (A) (A) (A) (A) (A) (A) (A) (A)
                 (A) (A) (A) (A) (A) (A) (A) (A) (A) (A) (A) (A)
                 (A) (A) (A) (A) (A) (A) (A) (A) (A) (A) (A) (A)
                 (A) (A) (A) (A) (A) (A) (A)
       Virtual   (A) (A) (A) (A) (A) (A) (A) (A) (A) (A) (A) (A)
                 (A) (A) (A) (A) (A) (A) (A) (A) (A) (A) (A) (A)
                 (A) (A) (A) (A) (A) (A) (A) (A) (A) (A) (A) (A)
                 (A) (A) (A) (A) (A) (A) (A) (A) (A) (A) (A) (A)
                 (A) (A) (A) (A) (A) (A) (A) (A) (A) (A) (A) (A)
                 (A) (A) (A) (A) (A) (A) (A) (A) (A) (A) (A) (A)
                 (A) (A) (A) (A) (A) (A) (A) (A) (A) (A) (A) (A)
                 (A) (A) (A) (A) (A) (A) (A) (A) (A) (A) (A) (A)
                 (A) (A) (A) (A) (A) (A) (A) (A) (A) (A) (A) (A)
                 (A) (A) (A) (A) (A) (A) (A) (A) (A) (A) (A) (A)
                 (A) (A) (A) (A) (A) (A) (A) (A) (A) (A) (A) (A)
                 (A) (A) (A) (A) (A) (A) (A) (A) (A) (A) (A) (A)
                 (A) (A) (A) (A) (A) (A) (A) (A) (A) (A) (A) (A)
                 (A) (A) (A) (A) (A) (A) (A) (A) (A) (A) (A) (A)
                 (A) (A) (A) (A) (A) (A) (A) (A) (A) (A) (A) (A)
                 (A) (A) (A) (A) (A) (A) (A) (A) (A) (A) (A) (A)
                 (A) (A) (A) (A) (A) (A) (A) (A) (A) (A) (A) (A)
                 (A) (A) (A) (A) (A) (A) (A) (A) (A) (A) (A) (A)
                 (A) (A) (A) (A) (A) (A) (A) (A) (A) (A) (A) (A)
                 (A) (A) (A) (A) (A) (A) (A) (A) (A) (A)
 The electronic state of the initial guess is 1-A.
 Leave Link  401 at Tue Sep 28 15:18:33 2021, MaxMem= 1073741824 cpu:      11.5
 (Enter /sw/target/amd/app/gaussian/Gaussian09RevA.02_gcc-4.9.2/g09/l502.exe)
 Closed shell SCF:
 Requested convergence on RMS density matrix=1.00D-08 within  64 cycles.
 Requested convergence on MAX density matrix=1.00D-06.
 Requested convergence on             energy=1.00D-06.
 No special actions if energy rises.
 Using DIIS extrapolation, IDIIS=  1040.
 Integral symmetry usage will be decided dynamically.
       248009 words used for storage of precomputed grid.
 IEnd=      536741 IEndB=      536741 NGot=  1073741824 MDV=  1073302638
 LenX=  1073302638 LenY=  1073209172
 Fock matrices will be formed incrementally for  20 cycles.
 Integral accuracy reduced to 1.0D-05 until final iterations.

 Cycle   1  Pass 0  IDiag  1:
 FoFCou: FMM=F IPFlag=           0 FMFlag=      100000 FMFlg1=           0
         NFxFlg=           0 DoJE=F BraDBF=F KetDBF=F FulRan=T
         Omega=  0.000000  0.000000  1.000000  0.000000  0.000000 ICntrl=       0 IOpCl=  0
         NMat0=    1 NMatS0=    1 NMatT0=    0 NMatD0=    1 NMtDS0=    0 NMtDT0=    0
         I1Cent=           0 NGrid=           0.
 Symmetry not used in FoFCou.
 E= -907.564961675120    
 DIIS: error= 2.58D-02 at cycle   1 NSaved=   1.
 NSaved= 1 IEnMin= 1 EnMin= -907.564961675120     IErMin= 1 ErrMin= 2.58D-02
 ErrMax= 2.58D-02 EMaxC= 1.00D-01 BMatC= 4.31D-01 BMatP= 4.31D-01
 IDIUse=3 WtCom= 7.42D-01 WtEn= 2.58D-01
 Coeff-Com:  0.100D+01
 Coeff-En:   0.100D+01
 Coeff:      0.100D+01
 Gap=     0.204 Goal=   None    Shift=    0.000
 GapD=    0.204 DampG=1.000 DampE=0.500 DampFc=0.5000 IDamp=-1.
 Damping current iteration by 5.00D-01
 RMSDP=4.72D-03 MaxDP=2.53D-01              OVMax= 2.20D-01

 Cycle   2  Pass 0  IDiag  1:
 RMSU=  1.64D-03    CP:  9.79D-01
 E= -907.704061358982     Delta-E=       -0.139099683863 Rises=F Damp=T
 DIIS: error= 1.06D-02 at cycle   2 NSaved=   2.
 NSaved= 2 IEnMin= 2 EnMin= -907.704061358982     IErMin= 2 ErrMin= 1.06D-02
 ErrMax= 1.06D-02 EMaxC= 1.00D-01 BMatC= 4.92D-02 BMatP= 4.31D-01
 IDIUse=3 WtCom= 8.94D-01 WtEn= 1.06D-01
 Coeff-Com:  0.161D+00 0.839D+00
 Coeff-En:   0.255D+00 0.745D+00
 Coeff:      0.171D+00 0.829D+00
 Gap=     0.203 Goal=   None    Shift=    0.000
 RMSDP=1.38D-03 MaxDP=6.01D-02 DE=-1.39D-01 OVMax= 1.90D-01

 Cycle   3  Pass 0  IDiag  1:
 RMSU=  9.08D-04    CP:  9.75D-01  7.88D-01
 E= -907.906896450921     Delta-E=       -0.202835091939 Rises=F Damp=F
 DIIS: error= 1.38D-02 at cycle   3 NSaved=   3.
 NSaved= 3 IEnMin= 3 EnMin= -907.906896450921     IErMin= 2 ErrMin= 1.06D-02
 ErrMax= 1.38D-02 EMaxC= 1.00D-01 BMatC= 4.99D-02 BMatP= 4.92D-02
 IDIUse=3 WtCom= 8.62D-01 WtEn= 1.38D-01
 Coeff-Com:  0.395D-01 0.497D+00 0.464D+00
 Coeff-En:   0.000D+00 0.000D+00 0.100D+01
 Coeff:      0.340D-01 0.428D+00 0.538D+00
 Gap=     0.200 Goal=   None    Shift=    0.000
 RMSDP=1.10D-03 MaxDP=6.18D-02 DE=-2.03D-01 OVMax= 1.16D-01

 Cycle   4  Pass 0  IDiag  1:
 RMSU=  4.44D-04    CP:  9.76D-01  9.50D-01  3.61D-01
 E= -907.930675217011     Delta-E=       -0.023778766089 Rises=F Damp=F
 DIIS: error= 1.03D-02 at cycle   4 NSaved=   4.
 NSaved= 4 IEnMin= 4 EnMin= -907.930675217011     IErMin= 4 ErrMin= 1.03D-02
 ErrMax= 1.03D-02 EMaxC= 1.00D-01 BMatC= 2.57D-02 BMatP= 4.92D-02
 IDIUse=3 WtCom= 8.97D-01 WtEn= 1.03D-01
 Coeff-Com:  0.950D-02 0.158D+00 0.403D+00 0.429D+00
 Coeff-En:   0.000D+00 0.000D+00 0.368D+00 0.632D+00
 Coeff:      0.852D-02 0.142D+00 0.399D+00 0.450D+00
 Gap=     0.197 Goal=   None    Shift=    0.000
 RMSDP=5.58D-04 MaxDP=3.98D-02 DE=-2.38D-02 OVMax= 5.75D-02

 Cycle   5  Pass 0  IDiag  1:
 RMSU=  1.70D-04    CP:  9.77D-01  8.55D-01  5.88D-01  4.49D-01
 E= -907.952464516066     Delta-E=       -0.021789299055 Rises=F Damp=F
 DIIS: error= 1.52D-03 at cycle   5 NSaved=   5.
 NSaved= 5 IEnMin= 5 EnMin= -907.952464516066     IErMin= 5 ErrMin= 1.52D-03
 ErrMax= 1.52D-03 EMaxC= 1.00D-01 BMatC= 1.36D-03 BMatP= 2.57D-02
 IDIUse=3 WtCom= 9.85D-01 WtEn= 1.52D-02
 Coeff-Com:  0.261D-02 0.299D-01 0.184D+00 0.275D+00 0.508D+00
 Coeff-En:   0.000D+00 0.000D+00 0.000D+00 0.000D+00 0.100D+01
 Coeff:      0.257D-02 0.294D-01 0.181D+00 0.271D+00 0.516D+00
 Gap=     0.196 Goal=   None    Shift=    0.000
 RMSDP=1.55D-04 MaxDP=6.71D-03 DE=-2.18D-02 OVMax= 1.13D-02

 Cycle   6  Pass 0  IDiag  1:
 RMSU=  6.15D-05    CP:  9.77D-01  8.60D-01  6.00D-01  5.16D-01  5.04D-01
 E= -907.953477323659     Delta-E=       -0.001012807593 Rises=F Damp=F
 DIIS: error= 7.86D-04 at cycle   6 NSaved=   6.
 NSaved= 6 IEnMin= 6 EnMin= -907.953477323659     IErMin= 6 ErrMin= 7.86D-04
 ErrMax= 7.86D-04 EMaxC= 1.00D-01 BMatC= 2.32D-04 BMatP= 1.36D-03
 IDIUse=3 WtCom= 9.92D-01 WtEn= 7.86D-03
 Coeff-Com:  0.102D-02 0.124D-02 0.749D-01 0.130D+00 0.348D+00 0.444D+00
 Coeff-En:   0.000D+00 0.000D+00 0.000D+00 0.000D+00 0.164D+00 0.836D+00
 Coeff:      0.101D-02 0.123D-02 0.744D-01 0.129D+00 0.347D+00 0.447D+00
 Gap=     0.196 Goal=   None    Shift=    0.000
 RMSDP=5.82D-05 MaxDP=1.87D-03 DE=-1.01D-03 OVMax= 5.37D-03

 Cycle   7  Pass 0  IDiag  1:
 RMSU=  1.79D-05    CP:  9.77D-01  8.63D-01  5.97D-01  5.15D-01  6.09D-01
                    CP:  4.81D-01
 E= -907.953702809323     Delta-E=       -0.000225485664 Rises=F Damp=F
 DIIS: error= 1.37D-04 at cycle   7 NSaved=   7.
 NSaved= 7 IEnMin= 7 EnMin= -907.953702809323     IErMin= 7 ErrMin= 1.37D-04
 ErrMax= 1.37D-04 EMaxC= 1.00D-01 BMatC= 8.86D-06 BMatP= 2.32D-04
 IDIUse=3 WtCom= 9.99D-01 WtEn= 1.37D-03
 Coeff-Com:  0.223D-03-0.167D-02 0.213D-01 0.406D-01 0.128D+00 0.235D+00
 Coeff-Com:  0.576D+00
 Coeff-En:   0.000D+00 0.000D+00 0.000D+00 0.000D+00 0.000D+00 0.000D+00
 Coeff-En:   0.100D+01
 Coeff:      0.222D-03-0.166D-02 0.213D-01 0.405D-01 0.128D+00 0.235D+00
 Coeff:      0.576D+00
 Gap=     0.196 Goal=   None    Shift=    0.000
 RMSDP=1.13D-05 MaxDP=4.31D-04 DE=-2.25D-04 OVMax= 9.35D-04

 Cycle   8  Pass 0  IDiag  1:
 RMSU=  4.12D-06    CP:  9.77D-01  8.62D-01  5.98D-01  5.17D-01  6.04D-01
                    CP:  5.32D-01  6.86D-01
 E= -907.953711122094     Delta-E=       -0.000008312771 Rises=F Damp=F
 DIIS: error= 2.29D-05 at cycle   8 NSaved=   8.
 NSaved= 8 IEnMin= 8 EnMin= -907.953711122094     IErMin= 8 ErrMin= 2.29D-05
 ErrMax= 2.29D-05 EMaxC= 1.00D-01 BMatC= 6.61D-07 BMatP= 8.86D-06
 IDIUse=1 WtCom= 1.00D+00 WtEn= 0.00D+00
 Coeff-Com:  0.464D-04-0.902D-03 0.541D-02 0.110D-01 0.403D-01 0.909D-01
 Coeff-Com:  0.299D+00 0.554D+00
 Coeff:      0.464D-04-0.902D-03 0.541D-02 0.110D-01 0.403D-01 0.909D-01
 Coeff:      0.299D+00 0.554D+00
 Gap=     0.196 Goal=   None    Shift=    0.000
 RMSDP=2.95D-06 MaxDP=1.21D-04 DE=-8.31D-06 OVMax= 1.80D-04

 Initial convergence to 1.0D-05 achieved.  Increase integral accuracy.
 Cycle   9  Pass 1  IDiag  1:
 E= -907.953740299911     Delta-E=       -0.000029177817 Rises=F Damp=F
 DIIS: error= 3.60D-05 at cycle   1 NSaved=   1.
 NSaved= 1 IEnMin= 1 EnMin= -907.953740299911     IErMin= 1 ErrMin= 3.60D-05
 ErrMax= 3.60D-05 EMaxC= 1.00D-01 BMatC= 2.78D-07 BMatP= 2.78D-07
 IDIUse=1 WtCom= 1.00D+00 WtEn= 0.00D+00
 Coeff-Com:  0.100D+01
 Coeff:      0.100D+01
 Gap=     0.196 Goal=   None    Shift=    0.000
 RMSDP=2.95D-06 MaxDP=1.21D-04 DE=-2.92D-05 OVMax= 1.55D-04

 Cycle  10  Pass 1  IDiag  1:
 RMSU=  1.01D-05    CP:  1.00D+00
 E= -907.953740501125     Delta-E=       -0.000000201214 Rises=F Damp=F
 DIIS: error= 1.42D-05 at cycle   2 NSaved=   2.
 NSaved= 2 IEnMin= 2 EnMin= -907.953740501125     IErMin= 2 ErrMin= 1.42D-05
 ErrMax= 1.42D-05 EMaxC= 1.00D-01 BMatC= 1.47D-07 BMatP= 2.78D-07
 IDIUse=1 WtCom= 1.00D+00 WtEn= 0.00D+00
 Coeff-Com:  0.383D+00 0.617D+00
 Coeff:      0.383D+00 0.617D+00
 Gap=     0.196 Goal=   None    Shift=    0.000
 RMSDP=1.99D-06 MaxDP=8.57D-05 DE=-2.01D-07 OVMax= 1.26D-04

 Cycle  11  Pass 1  IDiag  1:
 RMSU=  1.40D-06    CP:  1.00D+00  1.01D+00
 E= -907.953740546059     Delta-E=       -0.000000044934 Rises=F Damp=F
 DIIS: error= 1.14D-05 at cycle   3 NSaved=   3.
 NSaved= 3 IEnMin= 3 EnMin= -907.953740546059     IErMin= 3 ErrMin= 1.14D-05
 ErrMax= 1.14D-05 EMaxC= 1.00D-01 BMatC= 9.10D-08 BMatP= 1.47D-07
 IDIUse=1 WtCom= 1.00D+00 WtEn= 0.00D+00
 Coeff-Com: -0.124D-01 0.442D+00 0.571D+00
 Coeff:     -0.124D-01 0.442D+00 0.571D+00
 Gap=     0.196 Goal=   None    Shift=    0.000
 RMSDP=9.34D-07 MaxDP=4.81D-05 DE=-4.49D-08 OVMax= 6.13D-05

 Cycle  12  Pass 1  IDiag  1:
 RMSU=  2.19D-07    CP:  1.00D+00  1.02D+00  5.67D-01
 E= -907.953740620925     Delta-E=       -0.000000074866 Rises=F Damp=F
 DIIS: error= 1.88D-06 at cycle   4 NSaved=   4.
 NSaved= 4 IEnMin= 4 EnMin= -907.953740620925     IErMin= 4 ErrMin= 1.88D-06
 ErrMax= 1.88D-06 EMaxC= 1.00D-01 BMatC= 2.36D-09 BMatP= 9.10D-08
 IDIUse=1 WtCom= 1.00D+00 WtEn= 0.00D+00
 Coeff-Com: -0.136D-01 0.259D+00 0.348D+00 0.406D+00
 Coeff:     -0.136D-01 0.259D+00 0.348D+00 0.406D+00
 Gap=     0.196 Goal=   None    Shift=    0.000
 RMSDP=1.80D-07 MaxDP=7.01D-06 DE=-7.49D-08 OVMax= 1.28D-05

 Cycle  13  Pass 1  IDiag  1:
 RMSU=  8.35D-08    CP:  1.00D+00  1.02D+00  5.87D-01  5.82D-01
 E= -907.953740623048     Delta-E=       -0.000000002123 Rises=F Damp=F
 DIIS: error= 3.57D-07 at cycle   5 NSaved=   5.
 NSaved= 5 IEnMin= 5 EnMin= -907.953740623048     IErMin= 5 ErrMin= 3.57D-07
 ErrMax= 3.57D-07 EMaxC= 1.00D-01 BMatC= 1.06D-10 BMatP= 2.36D-09
 IDIUse=1 WtCom= 1.00D+00 WtEn= 0.00D+00
 Coeff-Com: -0.577D-02 0.888D-01 0.122D+00 0.214D+00 0.581D+00
 Coeff:     -0.577D-02 0.888D-01 0.122D+00 0.214D+00 0.581D+00
 Gap=     0.196 Goal=   None    Shift=    0.000
 RMSDP=4.14D-08 MaxDP=1.71D-06 DE=-2.12D-09 OVMax= 3.08D-06

 Cycle  14  Pass 1  IDiag  1:
 RMSU=  2.27D-08    CP:  1.00D+00  1.02D+00  5.85D-01  6.35D-01  8.35D-01
 E= -907.953740623150     Delta-E=       -0.000000000102 Rises=F Damp=F
 DIIS: error= 2.14D-07 at cycle   6 NSaved=   6.
 NSaved= 6 IEnMin= 6 EnMin= -907.953740623150     IErMin= 6 ErrMin= 2.14D-07
 ErrMax= 2.14D-07 EMaxC= 1.00D-01 BMatC= 1.49D-11 BMatP= 1.06D-10
 IDIUse=1 WtCom= 1.00D+00 WtEn= 0.00D+00
 Coeff-Com: -0.186D-02 0.244D-01 0.346D-01 0.804D-01 0.333D+00 0.529D+00
 Coeff:     -0.186D-02 0.244D-01 0.346D-01 0.804D-01 0.333D+00 0.529D+00
 Gap=     0.196 Goal=   None    Shift=    0.000
 RMSDP=1.65D-08 MaxDP=9.30D-07 DE=-1.02D-10 OVMax= 1.62D-06

 Cycle  15  Pass 1  IDiag  1:
 RMSU=  9.26D-09    CP:  1.00D+00  1.02D+00  5.85D-01  6.32D-01  8.66D-01
                    CP:  7.10D-01
 E= -907.953740623154     Delta-E=       -0.000000000004 Rises=F Damp=F
 DIIS: error= 1.37D-07 at cycle   7 NSaved=   7.
 NSaved= 7 IEnMin= 7 EnMin= -907.953740623154     IErMin= 7 ErrMin= 1.37D-07
 ErrMax= 1.37D-07 EMaxC= 1.00D-01 BMatC= 4.86D-12 BMatP= 1.49D-11
 IDIUse=1 WtCom= 1.00D+00 WtEn= 0.00D+00
 Coeff-Com: -0.322D-03 0.150D-02 0.302D-02 0.194D-01 0.138D+00 0.387D+00
 Coeff-Com:  0.451D+00
 Coeff:     -0.322D-03 0.150D-02 0.302D-02 0.194D-01 0.138D+00 0.387D+00
 Coeff:      0.451D+00
 Gap=     0.196 Goal=   None    Shift=    0.000
 RMSDP=8.14D-09 MaxDP=6.01D-07 DE=-3.64D-12 OVMax= 7.73D-07

 SCF Done:  E(RB3LYP) =  -907.953740623     A.U. after   15 cycles
             Convg  =    0.8139D-08             -V/T =  2.0092
 KE= 8.996349907165D+02 PE=-4.790659089011D+03 EE= 1.644666904188D+03
 Leave Link  502 at Tue Sep 28 15:34:43 2021, MaxMem= 1073741824 cpu:     514.6
 (Enter /sw/target/amd/app/gaussian/Gaussian09RevA.02_gcc-4.9.2/g09/l508.exe)
 QCSCF skips out because SCF is already converged.
 Leave Link  508 at Tue Sep 28 15:34:51 2021, MaxMem= 1073741824 cpu:       0.0
 (Enter /sw/target/amd/app/gaussian/Gaussian09RevA.02_gcc-4.9.2/g09/l601.exe)
 Copying SCF densities to generalized density rwf, IOpCl= 0 IROHF=0.

 **********************************************************************

            Population analysis using the SCF density.

 **********************************************************************

 Orbital symmetries:
       Occupied  (A) (A) (A) (A) (A) (A) (A) (A) (A) (A) (A) (A)
                 (A) (A) (A) (A) (A) (A) (A) (A) (A) (A) (A) (A)
                 (A) (A) (A) (A) (A) (A) (A) (A) (A) (A) (A) (A)
                 (A) (A) (A) (A) (A) (A) (A) (A) (A) (A) (A) (A)
                 (A) (A) (A) (A) (A) (A) (A) (A) (A) (A) (A) (A)
                 (A) (A) (A) (A) (A) (A) (A)
       Virtual   (A) (A) (A) (A) (A) (A) (A) (A) (A) (A) (A) (A)
                 (A) (A) (A) (A) (A) (A) (A) (A) (A) (A) (A) (A)
                 (A) (A) (A) (A) (A) (A) (A) (A) (A) (A) (A) (A)
                 (A) (A) (A) (A) (A) (A) (A) (A) (A) (A) (A) (A)
                 (A) (A) (A) (A) (A) (A) (A) (A) (A) (A) (A) (A)
                 (A) (A) (A) (A) (A) (A) (A) (A) (A) (A) (A) (A)
                 (A) (A) (A) (A) (A) (A) (A) (A) (A) (A) (A) (A)
                 (A) (A) (A) (A) (A) (A) (A) (A) (A) (A) (A) (A)
                 (A) (A) (A) (A) (A) (A) (A) (A) (A) (A) (A) (A)
                 (A) (A) (A) (A) (A) (A) (A) (A) (A) (A) (A) (A)
                 (A) (A) (A) (A) (A) (A) (A) (A) (A) (A) (A) (A)
                 (A) (A) (A) (A) (A) (A) (A) (A) (A) (A) (A) (A)
                 (A) (A) (A) (A) (A) (A) (A) (A) (A) (A) (A) (A)
                 (A) (A) (A) (A) (A) (A) (A) (A) (A) (A) (A) (A)
                 (A) (A) (A) (A) (A) (A) (A) (A) (A) (A) (A) (A)
                 (A) (A) (A) (A) (A) (A) (A) (A) (A) (A) (A) (A)
                 (A) (A) (A) (A) (A) (A) (A) (A) (A) (A) (A) (A)
                 (A) (A) (A) (A) (A) (A) (A) (A) (A) (A) (A) (A)
                 (A) (A) (A) (A) (A) (A) (A) (A) (A) (A) (A) (A)
                 (A) (A) (A) (A) (A) (A) (A) (A) (A) (A)
 The electronic state is 1-A.
 Alpha  occ. eigenvalues --  -19.23101 -19.21006 -19.20571 -14.36332 -14.36138
 Alpha  occ. eigenvalues --  -14.35257 -14.33889 -10.35640 -10.34431 -10.34299
 Alpha  occ. eigenvalues --  -10.28686 -10.24862 -10.24609 -10.24597 -10.23210
 Alpha  occ. eigenvalues --  -10.23107 -10.23062 -10.22564 -10.22249  -1.13137
 Alpha  occ. eigenvalues --   -1.10682  -1.09518  -1.02420  -0.92736  -0.92325
 Alpha  occ. eigenvalues --   -0.91189  -0.88515  -0.79685  -0.78346  -0.75243
 Alpha  occ. eigenvalues --   -0.72186  -0.71257  -0.65878  -0.64867  -0.64305
 Alpha  occ. eigenvalues --   -0.60238  -0.58456  -0.57537  -0.53841  -0.52400
 Alpha  occ. eigenvalues --   -0.51622  -0.50572  -0.48556  -0.47925  -0.46321
 Alpha  occ. eigenvalues --   -0.45717  -0.45304  -0.44765  -0.43896  -0.42641
 Alpha  occ. eigenvalues --   -0.41855  -0.40778  -0.40208  -0.38565  -0.37871
 Alpha  occ. eigenvalues --   -0.37012  -0.36510  -0.36163  -0.35251  -0.33487
 Alpha  occ. eigenvalues --   -0.32775  -0.30397  -0.29814  -0.29455  -0.29181
 Alpha  occ. eigenvalues --   -0.28239  -0.25886
 Alpha virt. eigenvalues --   -0.06258  -0.04026  -0.03877  -0.02980   0.03300
 Alpha virt. eigenvalues --    0.06296   0.07071   0.09740   0.10807   0.11004
 Alpha virt. eigenvalues --    0.11994   0.12358   0.13120   0.13486   0.13812
 Alpha virt. eigenvalues --    0.14783   0.15096   0.16315   0.16460   0.16817
 Alpha virt. eigenvalues --    0.17360   0.18847   0.20733   0.23080   0.24980
 Alpha virt. eigenvalues --    0.26417   0.27517   0.28367   0.28707   0.29563
 Alpha virt. eigenvalues --    0.31243   0.33265   0.38161   0.39437   0.40439
 Alpha virt. eigenvalues --    0.45537   0.46547   0.47715   0.48245   0.49400
 Alpha virt. eigenvalues --    0.50866   0.51633   0.52315   0.52661   0.52870
 Alpha virt. eigenvalues --    0.53079   0.53656   0.54438   0.55573   0.55940
 Alpha virt. eigenvalues --    0.56733   0.57270   0.58289   0.58505   0.58995
 Alpha virt. eigenvalues --    0.59855   0.60813   0.61883   0.62990   0.63573
 Alpha virt. eigenvalues --    0.63838   0.65122   0.65814   0.66592   0.68040
 Alpha virt. eigenvalues --    0.68244   0.69509   0.71533   0.73376   0.75496
 Alpha virt. eigenvalues --    0.76182   0.78846   0.80508   0.80698   0.81528
 Alpha virt. eigenvalues --    0.82222   0.83216   0.83432   0.84208   0.84486
 Alpha virt. eigenvalues --    0.84649   0.85563   0.86616   0.87230   0.88241
 Alpha virt. eigenvalues --    0.89891   0.90844   0.92043   0.93180   0.93748
 Alpha virt. eigenvalues --    0.93952   0.94877   0.97619   0.98664   0.99993
 Alpha virt. eigenvalues --    1.00765   1.02019   1.02755   1.04210   1.04747
 Alpha virt. eigenvalues --    1.07862   1.09801   1.10839   1.13657   1.14654
 Alpha virt. eigenvalues --    1.16148   1.18316   1.18864   1.22165   1.22948
 Alpha virt. eigenvalues --    1.24402   1.25741   1.29400   1.32416   1.32916
 Alpha virt. eigenvalues --    1.34214   1.35569   1.37022   1.37276   1.40515
 Alpha virt. eigenvalues --    1.42568   1.43091   1.43243   1.45804   1.46122
 Alpha virt. eigenvalues --    1.47490   1.47958   1.49187   1.50116   1.51320
 Alpha virt. eigenvalues --    1.52818   1.53303   1.54552   1.56425   1.57919
 Alpha virt. eigenvalues --    1.61889   1.65059   1.66878   1.72835   1.73906
 Alpha virt. eigenvalues --    1.74650   1.76539   1.78303   1.78913   1.79624
 Alpha virt. eigenvalues --    1.80649   1.82811   1.83670   1.84485   1.84950
 Alpha virt. eigenvalues --    1.88972   1.91587   1.93591   1.94477   1.94781
 Alpha virt. eigenvalues --    1.95186   1.95943   1.97716   1.99145   2.00970
 Alpha virt. eigenvalues --    2.01163   2.03838   2.05231   2.05726   2.06961
 Alpha virt. eigenvalues --    2.09392   2.09870   2.10762   2.12056   2.12706
 Alpha virt. eigenvalues --    2.15593   2.17731   2.19168   2.20585   2.23149
 Alpha virt. eigenvalues --    2.24304   2.26742   2.27132   2.28328   2.30955
 Alpha virt. eigenvalues --    2.31643   2.34650   2.40764   2.41686   2.42473
 Alpha virt. eigenvalues --    2.43956   2.44727   2.47570   2.48406   2.49137
 Alpha virt. eigenvalues --    2.50253   2.51445   2.58490   2.60579   2.61619
 Alpha virt. eigenvalues --    2.62142   2.63695   2.65331   2.66766   2.67943
 Alpha virt. eigenvalues --    2.70872   2.71137   2.74273   2.76240   2.79769
 Alpha virt. eigenvalues --    2.80133   2.81471   2.82392   2.86280   2.90238
 Alpha virt. eigenvalues --    2.96081   3.00549   3.13943   3.17884   3.22705
 Alpha virt. eigenvalues --    3.24912   3.29021   3.43306   3.46315   4.00003
 Alpha virt. eigenvalues --    4.02219   4.03191   4.07243   4.08007   4.11947
 Alpha virt. eigenvalues --    4.12567   4.16285   4.22098   4.26144   4.27779
 Alpha virt. eigenvalues --    4.29028   4.30736   4.33855   4.50703   4.55203
 Alpha virt. eigenvalues --    4.66013   4.71424   4.82158
          Condensed to atoms (all electrons):
              1          2          3          4          5          6
     1  C    4.905601   0.227725  -0.032557  -0.010110   0.000644  -0.000021
     2  O    0.227725   8.171062   0.312086  -0.079559   0.001123  -0.000011
     3  C   -0.032557   0.312086   4.347073   0.370851  -0.041858   0.001286
     4  N   -0.010110  -0.079559   0.370851   6.987471   0.461446  -0.080815
     5  C    0.000644   0.001123  -0.041858   0.461446   4.334559   0.276560
     6  O   -0.000021  -0.000011   0.001286  -0.080815   0.276560   8.288726
     7  C    0.000001  -0.000000   0.000074   0.000972  -0.018419   0.227377
     8  C   -0.000000  -0.000000   0.000002  -0.000224  -0.001435  -0.050746
     9  C    0.000000   0.000000  -0.000000   0.000003   0.000014   0.003665
    10  C    0.000000  -0.000000   0.000000  -0.000000   0.000046  -0.000013
    11  C    0.000000   0.000000  -0.000002  -0.000009  -0.000100   0.004181
    12  C   -0.000000   0.000000   0.000097  -0.000112  -0.002795  -0.050760
    13  C    0.000000  -0.000000  -0.000000  -0.000000  -0.000000  -0.000001
    14  N   -0.000000   0.000000   0.000000  -0.000000  -0.000000  -0.000000
    15  N    0.000087  -0.000198  -0.031880  -0.076593   0.419536  -0.079199
    16  C   -0.000142   0.001973  -0.044633  -0.031842  -0.042413   0.001323
    17  N    0.003991  -0.080457   0.455377  -0.073310  -0.032948  -0.000179
    18  O    0.000001  -0.000006   0.001853  -0.000199   0.001020  -0.000014
    19  C   -0.000000   0.000000  -0.000130   0.000085   0.000642  -0.000009
    20  H    0.376246  -0.029781   0.004240   0.000894  -0.000009  -0.000000
    21  H    0.374537  -0.030296  -0.010454   0.008524  -0.000031   0.000007
    22  H    0.371768  -0.034084  -0.005042   0.004441   0.000139  -0.000001
    23  H    0.000000  -0.000000   0.000000  -0.000012   0.000120  -0.001431
    24  H   -0.000000  -0.000000   0.000000  -0.000000  -0.000001  -0.000051
    25  H    0.000000  -0.000000   0.000000  -0.000000  -0.000011  -0.000043
    26  H   -0.000000  -0.000000   0.000106  -0.000317   0.005134  -0.006303
    27  H   -0.000000  -0.000000   0.000002   0.000001  -0.000005  -0.000000
    28  H   -0.000000   0.000000   0.000046  -0.000025  -0.000071  -0.000002
    29  H    0.000000   0.000000   0.000049  -0.000008  -0.000085  -0.000004
              7          8          9         10         11         12
     1  C    0.000001  -0.000000   0.000000   0.000000   0.000000  -0.000000
     2  O   -0.000000  -0.000000   0.000000  -0.000000   0.000000   0.000000
     3  C    0.000074   0.000002  -0.000000   0.000000  -0.000002   0.000097
     4  N    0.000972  -0.000224   0.000003  -0.000000  -0.000009  -0.000112
     5  C   -0.018419  -0.001435   0.000014   0.000046  -0.000100  -0.002795
     6  O    0.227377  -0.050746   0.003665  -0.000013   0.004181  -0.050760
     7  C    4.499354   0.541290  -0.016928  -0.030180  -0.009833   0.497676
     8  C    0.541290   4.997720   0.491598  -0.025198  -0.042287  -0.062485
     9  C   -0.016928   0.491598   4.923097   0.536906  -0.038977  -0.043521
    10  C   -0.030180  -0.025198   0.536906   4.819114   0.537385  -0.024289
    11  C   -0.009833  -0.042287  -0.038977   0.537385   4.927302   0.485464
    12  C    0.497676  -0.062485  -0.043521  -0.024289   0.485464   5.018847
    13  C    0.001016   0.005097  -0.041554   0.217058  -0.043397   0.005545
    14  N    0.000012  -0.000079  -0.000050  -0.097824  -0.000330  -0.000082
    15  N   -0.002151  -0.000029   0.000005   0.000009  -0.000954  -0.000815
    16  C    0.000544  -0.000015  -0.000000   0.000000  -0.000002  -0.000313
    17  N    0.000050  -0.000001  -0.000000   0.000000  -0.000000  -0.000041
    18  O    0.000006   0.000000  -0.000000  -0.000000   0.000002   0.000025
    19  C   -0.000048   0.000008   0.000002  -0.000005  -0.000153  -0.000475
    20  H    0.000000  -0.000000   0.000000   0.000000  -0.000000  -0.000000
    21  H    0.000000   0.000000  -0.000000  -0.000000   0.000000  -0.000000
    22  H    0.000001  -0.000000  -0.000000   0.000000  -0.000000  -0.000000
    23  H   -0.035370   0.351585  -0.036757   0.003861   0.000362   0.005855
    24  H    0.003496  -0.036902   0.360918  -0.038886   0.005119   0.000211
    25  H    0.003237   0.000392   0.004870  -0.038043   0.359872  -0.036620
    26  H   -0.037559   0.004951   0.000608   0.003655  -0.034924   0.351231
    27  H    0.000000  -0.000000  -0.000000   0.000000   0.000000   0.000006
    28  H    0.000029  -0.000019  -0.000006   0.000006   0.000780   0.001637
    29  H    0.000057   0.000006  -0.000001  -0.000000  -0.000000   0.000038
             13         14         15         16         17         18
     1  C    0.000000  -0.000000   0.000087  -0.000142   0.003991   0.000001
     2  O   -0.000000   0.000000  -0.000198   0.001973  -0.080457  -0.000006
     3  C   -0.000000   0.000000  -0.031880  -0.044633   0.455377   0.001853
     4  N   -0.000000  -0.000000  -0.076593  -0.031842  -0.073310  -0.000199
     5  C   -0.000000  -0.000000   0.419536  -0.042413  -0.032948   0.001020
     6  O   -0.000001  -0.000000  -0.079199   0.001323  -0.000179  -0.000014
     7  C    0.001016   0.000012  -0.002151   0.000544   0.000050   0.000006
     8  C    0.005097  -0.000079  -0.000029  -0.000015  -0.000001   0.000000
     9  C   -0.041554  -0.000050   0.000005  -0.000000  -0.000000  -0.000000
    10  C    0.217058  -0.097824   0.000009   0.000000   0.000000  -0.000000
    11  C   -0.043397  -0.000330  -0.000954  -0.000002  -0.000000   0.000002
    12  C    0.005545  -0.000082  -0.000815  -0.000313  -0.000041   0.000025
    13  C    4.758670   0.878106  -0.000001  -0.000000  -0.000000   0.000000
    14  N    0.878106   6.694144  -0.000000  -0.000000  -0.000000   0.000000
    15  N   -0.000001  -0.000000   7.025087   0.382031  -0.073889  -0.080947
    16  C   -0.000000  -0.000000   0.382031   4.328528   0.454661   0.311832
    17  N   -0.000000  -0.000000  -0.073889   0.454661   6.887223  -0.079085
    18  O    0.000000   0.000000  -0.080947   0.311832  -0.079085   8.172166
    19  C    0.000000   0.000000  -0.007877  -0.031868   0.004481   0.224894
    20  H   -0.000000   0.000000   0.000001   0.000002  -0.000008  -0.000000
    21  H    0.000000   0.000000   0.000003   0.000052  -0.000270   0.000000
    22  H    0.000000   0.000000  -0.000029   0.000047   0.000276   0.000000
    23  H   -0.000178  -0.000000   0.000013  -0.000000  -0.000000   0.000000
    24  H   -0.006683   0.000488  -0.000000  -0.000000  -0.000000  -0.000000
    25  H   -0.006468   0.000540  -0.000005  -0.000002  -0.000000   0.000000
    26  H   -0.000204  -0.000000   0.001303   0.000011  -0.000034  -0.000023
    27  H   -0.000000  -0.000000   0.000958   0.004121  -0.000011  -0.029442
    28  H   -0.000002  -0.000000   0.005233  -0.007516  -0.000075  -0.031305
    29  H   -0.000000   0.000000   0.006371  -0.008994  -0.000188  -0.030570
             19         20         21         22         23         24
     1  C   -0.000000   0.376246   0.374537   0.371768   0.000000  -0.000000
     2  O    0.000000  -0.029781  -0.030296  -0.034084  -0.000000  -0.000000
     3  C   -0.000130   0.004240  -0.010454  -0.005042   0.000000   0.000000
     4  N    0.000085   0.000894   0.008524   0.004441  -0.000012  -0.000000
     5  C    0.000642  -0.000009  -0.000031   0.000139   0.000120  -0.000001
     6  O   -0.000009  -0.000000   0.000007  -0.000001  -0.001431  -0.000051
     7  C   -0.000048   0.000000   0.000000   0.000001  -0.035370   0.003496
     8  C    0.000008  -0.000000   0.000000  -0.000000   0.351585  -0.036902
     9  C    0.000002   0.000000  -0.000000  -0.000000  -0.036757   0.360918
    10  C   -0.000005   0.000000  -0.000000   0.000000   0.003861  -0.038886
    11  C   -0.000153  -0.000000   0.000000  -0.000000   0.000362   0.005119
    12  C   -0.000475  -0.000000  -0.000000  -0.000000   0.005855   0.000211
    13  C    0.000000  -0.000000   0.000000   0.000000  -0.000178  -0.006683
    14  N    0.000000   0.000000   0.000000   0.000000  -0.000000   0.000488
    15  N   -0.007877   0.000001   0.000003  -0.000029   0.000013  -0.000000
    16  C   -0.031868   0.000002   0.000052   0.000047  -0.000000  -0.000000
    17  N    0.004481  -0.000008  -0.000270   0.000276  -0.000000  -0.000000
    18  O    0.224894  -0.000000   0.000000   0.000000   0.000000  -0.000000
    19  C    4.904244  -0.000000   0.000000  -0.000000   0.000000   0.000000
    20  H   -0.000000   0.545623  -0.033658  -0.033229   0.000000  -0.000000
    21  H    0.000000  -0.033658   0.550663  -0.036735  -0.000000   0.000000
    22  H   -0.000000  -0.033229  -0.036735   0.572544   0.000000  -0.000000
    23  H    0.000000   0.000000  -0.000000   0.000000   0.554800  -0.005457
    24  H    0.000000  -0.000000   0.000000  -0.000000  -0.005457   0.550715
    25  H   -0.000003  -0.000000   0.000000  -0.000000   0.000014  -0.000151
    26  H   -0.000017  -0.000000  -0.000000   0.000001  -0.000147   0.000013
    27  H    0.375834  -0.000000   0.000000   0.000000  -0.000000  -0.000000
    28  H    0.370470  -0.000000   0.000000   0.000000  -0.000000   0.000000
    29  H    0.374888   0.000000  -0.000000  -0.000000   0.000000   0.000000
             25         26         27         28         29
     1  C    0.000000  -0.000000  -0.000000  -0.000000   0.000000
     2  O   -0.000000  -0.000000  -0.000000   0.000000   0.000000
     3  C    0.000000   0.000106   0.000002   0.000046   0.000049
     4  N   -0.000000  -0.000317   0.000001  -0.000025  -0.000008
     5  C   -0.000011   0.005134  -0.000005  -0.000071  -0.000085
     6  O   -0.000043  -0.006303  -0.000000  -0.000002  -0.000004
     7  C    0.003237  -0.037559   0.000000   0.000029   0.000057
     8  C    0.000392   0.004951  -0.000000  -0.000019   0.000006
     9  C    0.004870   0.000608  -0.000000  -0.000006  -0.000001
    10  C   -0.038043   0.003655   0.000000   0.000006  -0.000000
    11  C    0.359872  -0.034924   0.000000   0.000780  -0.000000
    12  C   -0.036620   0.351231   0.000006   0.001637   0.000038
    13  C   -0.006468  -0.000204  -0.000000  -0.000002  -0.000000
    14  N    0.000540  -0.000000  -0.000000  -0.000000   0.000000
    15  N   -0.000005   0.001303   0.000958   0.005233   0.006371
    16  C   -0.000002   0.000011   0.004121  -0.007516  -0.008994
    17  N   -0.000000  -0.000034  -0.000011  -0.000075  -0.000188
    18  O    0.000000  -0.000023  -0.029442  -0.031305  -0.030570
    19  C   -0.000003  -0.000017   0.375834   0.370470   0.374888
    20  H   -0.000000  -0.000000  -0.000000  -0.000000   0.000000
    21  H    0.000000  -0.000000   0.000000   0.000000  -0.000000
    22  H   -0.000000   0.000001   0.000000   0.000000  -0.000000
    23  H    0.000014  -0.000147  -0.000000  -0.000000   0.000000
    24  H   -0.000151   0.000013  -0.000000   0.000000   0.000000
    25  H    0.551147  -0.005302  -0.000000   0.000062  -0.000001
    26  H   -0.005302   0.562621  -0.000001   0.000337  -0.000001
    27  H   -0.000000  -0.000001   0.544047  -0.033905  -0.033263
    28  H    0.000062   0.000337  -0.033905   0.567078  -0.035972
    29  H   -0.000001  -0.000001  -0.033263  -0.035972   0.555912
 Mulliken atomic charges:
              1
     1  C   -0.217770
     2  O   -0.459577
     3  C    0.673413
     4  N   -0.481553
     5  C    0.639197
     6  O   -0.533521
     7  C    0.375300
     8  C   -0.173232
     9  C   -0.143891
    10  C    0.136400
    11  C   -0.149500
    12  C   -0.144324
    13  C    0.232997
    14  N   -0.474924
    15  N   -0.486069
    16  C    0.682617
    17  N   -0.465563
    18  O   -0.460209
    19  C   -0.214963
    20  H    0.169679
    21  H    0.177658
    22  H    0.159902
    23  H    0.162741
    24  H    0.167172
    25  H    0.166515
    26  H    0.154862
    27  H    0.171657
    28  H    0.163220
    29  H    0.171767
 Sum of Mulliken atomic charges =  -0.00000
 Mulliken charges with hydrogens summed into heavy atoms:
              1
     1  C    0.289468
     2  O   -0.459577
     3  C    0.673413
     4  N   -0.481553
     5  C    0.639197
     6  O   -0.533521
     7  C    0.375300
     8  C   -0.010491
     9  C    0.023281
    10  C    0.136400
    11  C    0.017015
    12  C    0.010538
    13  C    0.232997
    14  N   -0.474924
    15  N   -0.486069
    16  C    0.682617
    17  N   -0.465563
    18  O   -0.460209
    19  C    0.291681
 Sum of Mulliken charges with hydrogens summed into heavy atoms =  -0.00000
 Electronic spatial extent (au):  <R**2>=           6154.0557
 Charge=              0.0000 electrons
 Dipole moment (field-independent basis, Debye):
    X=              2.0227    Y=             -1.7430    Z=             -0.2865  Tot=              2.6854
 Quadrupole moment (field-independent basis, Debye-Ang):
   XX=           -144.9976   YY=           -103.6407   ZZ=           -100.3218
   XY=             -5.3750   XZ=              8.6902   YZ=             -0.6408
 Traceless Quadrupole moment (field-independent basis, Debye-Ang):
   XX=            -28.6776   YY=             12.6794   ZZ=             15.9982
   XY=             -5.3750   XZ=              8.6902   YZ=             -0.6408
 Octapole moment (field-independent basis, Debye-Ang**2):
  XXX=            288.8151  YYY=             19.4101  ZZZ=             -2.0109  XYY=              7.5114
  XXY=            -96.2762  XXZ=            -38.0948  XZZ=             11.0882  YZZ=             -2.8548
  YYZ=             -5.9739  XYZ=            -17.7188
 Hexadecapole moment (field-independent basis, Debye-Ang**3):
 XXXX=          -8202.6480 YYYY=          -1383.0913 ZZZZ=           -381.5068 XXXY=              0.9246
 XXXZ=            360.7731 YYYX=            -80.5939 YYYZ=            -13.1626 ZZZX=             19.9365
 ZZZY=             10.7720 XXYY=          -1273.3698 XXZZ=          -1078.5057 YYZZ=           -294.8283
 XXYZ=            -36.5535 YYXZ=             34.8161 ZZXY=              0.7048
 N-N= 1.338403453483D+03 E-N=-4.790659096104D+03  KE= 8.996349907165D+02
 No NMR shielding tensors so no spin-rotation constants.
 Leave Link  601 at Tue Sep 28 15:34:53 2021, MaxMem= 1073741824 cpu:       1.5
 (Enter /sw/target/amd/app/gaussian/Gaussian09RevA.02_gcc-4.9.2/g09/l701.exe)
 Compute integral first derivatives.
 ... and contract with generalized density number  0.
 Leave Link  701 at Tue Sep 28 15:34:55 2021, MaxMem= 1073741824 cpu:       1.4
 (Enter /sw/target/amd/app/gaussian/Gaussian09RevA.02_gcc-4.9.2/g09/l702.exe)
 L702 exits ... SP integral derivatives will be done elsewhere.
 Leave Link  702 at Tue Sep 28 15:34:55 2021, MaxMem= 1073741824 cpu:       0.1
 (Enter /sw/target/amd/app/gaussian/Gaussian09RevA.02_gcc-4.9.2/g09/l703.exe)
 Compute integral first derivatives, UseDBF=F ICtDFT=           0.
 Integral derivatives from FoFDir, PRISM(SPDF).
 Calling FoFJK, ICntrl=      2127 FMM=F ISym2X=0 I1Cent= 0 IOpClX= 0 NMat=1 NMatS=1 NMatT=0.
 FoFCou: FMM=F IPFlag=           0 FMFlag=      100000 FMFlg1=         800
         NFxFlg=           0 DoJE=F BraDBF=F KetDBF=F FulRan=T
         Omega=  0.000000  0.000000  1.000000  0.000000  0.000000 ICntrl=    2127 IOpCl=  0
         NMat0=    1 NMatS0=    1 NMatT0=    0 NMatD0=    1 NMtDS0=    0 NMtDT0=    0
         I1Cent=           0 NGrid=           0.
 Symmetry not used in FoFCou.
 Leave Link  703 at Tue Sep 28 15:36:27 2021, MaxMem= 1073741824 cpu:     146.8
 (Enter /sw/target/amd/app/gaussian/Gaussian09RevA.02_gcc-4.9.2/g09/l716.exe)
 Dipole        = 7.95772699D-01-6.85766691D-01-1.12728229D-01
 ***** Axes restored to original set *****
 -------------------------------------------------------------------
 Center     Atomic                   Forces (Hartrees/Bohr)
 Number     Number              X              Y              Z
 -------------------------------------------------------------------
      1        6          -0.011588107    0.004526013   -0.015805112
      2        8           0.015180700   -0.029615097    0.016386160
      3        6          -0.008232220    0.030678993   -0.003526693
      4        7          -0.004707243   -0.011732719   -0.007696249
      5        6           0.001077165   -0.008133771   -0.005729095
      6        8           0.005645910    0.026823714    0.004980864
      7        6           0.003328999   -0.010627870    0.004589693
      8        6           0.000630377   -0.005193994    0.002660064
      9        6          -0.008194333    0.002152115   -0.001872060
     10        6           0.001763622   -0.006010401    0.002497741
     11        6          -0.001961716    0.010578739   -0.005007122
     12        6           0.004854699    0.000361577    0.000478185
     13        6          -0.000006637   -0.000517425   -0.000021119
     14        7           0.001351094   -0.001831816    0.000467276
     15        7          -0.002878965   -0.016646913   -0.001460512
     16        6           0.019620783    0.016100901    0.018914077
     17        7           0.001471332    0.011605046    0.001664911
     18        8          -0.024447739   -0.009041002   -0.026434228
     19        6           0.009439714   -0.007443330    0.013170075
     20        1           0.002037419    0.003210140    0.005626098
     21        1           0.003971562   -0.001995844   -0.000322209
     22        1          -0.002384682   -0.002548850    0.001836686
     23        1           0.001622816    0.002445780    0.000091211
     24        1           0.002186770    0.001845283   -0.000681005
     25        1          -0.002205057   -0.002204392   -0.000229490
     26        1          -0.002112106   -0.001074309    0.001029380
     27        1          -0.001841960    0.006805382   -0.002142301
     28        1          -0.004762908   -0.000695587    0.000400191
     29        1           0.001140713   -0.001820364   -0.003865417
 -------------------------------------------------------------------
 Cartesian Forces:  Max     0.030678993 RMS     0.009411300
 Leave Link  716 at Tue Sep 28 15:36:28 2021, MaxMem= 1073741824 cpu:       0.1
 (Enter /sw/target/amd/app/gaussian/Gaussian09RevA.02_gcc-4.9.2/g09/l103.exe)

 GradGradGradGradGradGradGradGradGradGradGradGradGradGradGradGradGradGrad
 Berny optimization.
 Internal  Forces:  Max     0.029538862 RMS     0.006458804
 Search for a local minimum.
 Step number   1 out of a maximum of  137
 All quantities printed in internal units (Hartrees-Bohrs-Radians)
 RMS Force = .64588D-02 SwitMx=.10000D-02 MixMth= 1
 Mixed Optimization -- RFO/linear search
 Second derivative matrix not updated -- first step.
     Eigenvalues ---    0.01375   0.01388   0.01819   0.01961   0.01971
     Eigenvalues ---    0.02000   0.02102   0.02105   0.02112   0.02114
     Eigenvalues ---    0.02123   0.02132   0.02142   0.02143   0.02145
     Eigenvalues ---    0.02437   0.02476   0.02504   0.02653   0.02665
     Eigenvalues ---    0.02690   0.04834   0.04834   0.09953   0.09967
     Eigenvalues ---    0.10495   0.10505   0.15991   0.15996   0.15999
     Eigenvalues ---    0.15999   0.16000   0.16000   0.16000   0.16000
     Eigenvalues ---    0.16000   0.16000   0.21985   0.22962   0.23992
     Eigenvalues ---    0.24980   0.24983   0.24984   0.24992   0.24996
     Eigenvalues ---    0.24999   0.24999   0.25000   0.25000   0.25000
     Eigenvalues ---    0.25000   0.34064   0.34084   0.34163   0.34180
     Eigenvalues ---    0.34345   0.34374   0.34977   0.35006   0.35091
     Eigenvalues ---    0.35176   0.40872   0.41800   0.41868   0.42017
     Eigenvalues ---    0.42162   0.45657   0.46033   0.46286   0.46361
     Eigenvalues ---    0.47251   0.49168   0.49308   0.49714   0.54462
     Eigenvalues ---    0.55038   0.59918   0.60165   0.60626   0.61000
     Eigenvalues ---    1.261881000.000001000.000001000.000001000.00000
     Eigenvalues --- 1000.000001000.000001000.000001000.000001000.00000
     Eigenvalues --- 1000.000001000.000001000.000001000.000001000.00000
     Eigenvalues --- 1000.000001000.000001000.000001000.000001000.00000
     Eigenvalues --- 1000.000001000.000001000.000001000.000001000.00000
     Eigenvalues --- 1000.000001000.000001000.000001000.000001000.00000
     Eigenvalues --- 1000.000001000.000001000.000001000.000001000.00000
     Eigenvalues --- 1000.000001000.000001000.000001000.000001000.00000
     Eigenvalues --- 1000.000001000.000001000.000001000.000001000.00000
     Eigenvalues --- 1000.000001000.00000
 RFO step:  Lambda=-2.03151310D-02 EMin= 1.37473013D-02
 Linear search not attempted -- first point.
 Maximum step size (   0.300) exceeded in Quadratic search.
    -- Step size scaled by   0.712
 Iteration  1 RMS(Cart)=  0.20075857 RMS(Int)=  0.00586883
 Iteration  2 RMS(Cart)=  0.01212155 RMS(Int)=  0.00034166
 Iteration  3 RMS(Cart)=  0.00006323 RMS(Int)=  0.00034075
 Iteration  4 RMS(Cart)=  0.00000001 RMS(Int)=  0.00034075
 Variable       Old X    -DE/DX   Delta X   Delta X   Delta X     New X
                                 (Linear)    (Quad)   (Total)
    R1        2.68902   0.00946   0.00000   0.01528   0.01528   2.70430
    R2        2.06704  -0.00054   0.00000  -0.00106  -0.00106   2.06598
    R3        2.07056  -0.00213   0.00000  -0.00419  -0.00419   2.06636
    R4        2.07188  -0.00151   0.00000  -0.00297  -0.00297   2.06891
    R5        2.60570  -0.02718   0.00000  -0.03768  -0.03768   2.56802
    R6        2.51041   0.00876   0.00000   0.01003   0.00998   2.52039
    R7        2.50634   0.00230   0.00000   0.00296   0.00277   2.50911
    R8        2.50161   0.00034   0.00000  -0.00005   0.00012   2.50172
    R9        2.62745  -0.01978   0.00000  -0.02857  -0.02857   2.59889
   R10        2.51240  -0.00321   0.00000  -0.00408  -0.00388   2.50852
   R11        2.60155   0.00895   0.00000   0.01231   0.01231   2.61387
   R12        2.63663   0.00031   0.00000   0.00017   0.00020   2.63683
   R13        2.64451  -0.00103   0.00000  -0.00171  -0.00167   2.64284
   R14        2.63964  -0.00468   0.00000  -0.00703  -0.00703   2.63261
   R15        2.05527  -0.00191   0.00000  -0.00366  -0.00366   2.05161
   R16        2.64569   0.00271   0.00000   0.00422   0.00419   2.64987
   R17        2.05713  -0.00264   0.00000  -0.00508  -0.00508   2.05204
   R18        2.63995   0.00714   0.00000   0.01084   0.01081   2.65076
   R19        2.70386   0.00267   0.00000   0.00443   0.00443   2.70829
   R20        2.63601  -0.00395   0.00000  -0.00568  -0.00568   2.63034
   R21        2.05665  -0.00247   0.00000  -0.00475  -0.00475   2.05191
   R22        2.05390  -0.00209   0.00000  -0.00399  -0.00399   2.04991
   R23        2.19676   0.00230   0.00000   0.00128   0.00128   2.19804
   R24        2.50471   0.01120   0.00000   0.01282   0.01284   2.51755
   R25        2.50152   0.00585   0.00000   0.00702   0.00687   2.50839
   R26        2.60714  -0.02954   0.00000  -0.04107  -0.04107   2.56607
   R27        2.69091   0.00737   0.00000   0.01195   0.01195   2.70286
   R28        2.06752  -0.00078   0.00000  -0.00152  -0.00152   2.06600
   R29        2.07222  -0.00220   0.00000  -0.00433  -0.00433   2.06789
   R30        2.07028  -0.00166   0.00000  -0.00326  -0.00326   2.06701
    A1        1.88403  -0.00912   0.00000  -0.03468  -0.03466   1.84937
    A2        1.94580   0.00173   0.00000   0.00641   0.00643   1.95224
    A3        1.93819   0.00083   0.00000   0.00230   0.00230   1.94049
    A4        1.87819   0.00504   0.00000   0.02177   0.02181   1.90000
    A5        1.88028   0.00459   0.00000   0.01884   0.01883   1.89911
    A6        1.93438  -0.00299   0.00000  -0.01409  -0.01409   1.92030
    A7        1.95905   0.02690   0.00000   0.07085   0.07085   2.02990
    A8        2.07774   0.00119   0.00000   0.00302   0.00291   2.08066
    A9        2.00327  -0.00261   0.00000  -0.00698  -0.00708   1.99618
   A10        2.20215   0.00143   0.00000   0.00411   0.00411   2.20626
   A11        1.98597  -0.00192   0.00000  -0.00720  -0.00660   1.97938
   A12        2.00745  -0.00657   0.00000  -0.01546  -0.01760   1.98985
   A13        2.19622   0.00626   0.00000   0.01541   0.01414   2.21035
   A14        2.07909   0.00051   0.00000   0.00317   0.00099   2.08008
   A15        2.03903   0.02428   0.00000   0.06393   0.06393   2.10296
   A16        2.04239  -0.00327   0.00000  -0.00867  -0.00896   2.03343
   A17        2.14470   0.00105   0.00000   0.00272   0.00242   2.14711
   A18        2.09550   0.00214   0.00000   0.00462   0.00448   2.09998
   A19        2.09111   0.00079   0.00000   0.00176   0.00181   2.09292
   A20        2.09808  -0.00248   0.00000  -0.00903  -0.00908   2.08900
   A21        2.09382   0.00170   0.00000   0.00746   0.00741   2.10123
   A22        2.09558  -0.00013   0.00000  -0.00005  -0.00005   2.09553
   A23        2.08470   0.00139   0.00000   0.00531   0.00530   2.09000
   A24        2.10281  -0.00126   0.00000  -0.00516  -0.00518   2.09764
[...]
    23    O    2  py     Ryd( 3p)     0.00118
    24    O    2  pz     Val( 2p)     1.77960
    25    O    2  pz     Ryd( 3p)     0.00212
    26    O    2  dxy    Ryd( 3d)     0.00143
    27    O    2  dxz    Ryd( 3d)     0.00180
    28    O    2  dyz    Ryd( 3d)     0.00055
    29    O    2  dx2y2  Ryd( 3d)     0.00133
    30    O    2  dz2    Ryd( 3d)     0.00077

    31    C    3  S      Cor( 1S)     1.99921
    32    C    3  S      Val( 2S)     0.74706
    33    C    3  S      Ryd( 3S)     0.00237
    34    C    3  S      Ryd( 4S)     0.00040
    35    C    3  px     Val( 2p)     0.75105
    36    C    3  px     Ryd( 3p)     0.01056
    37    C    3  py     Val( 2p)     0.85208
    38    C    3  py     Ryd( 3p)     0.01287
    39    C    3  pz     Val( 2p)     0.84918
    40    C    3  pz     Ryd( 3p)     0.00087
    41    C    3  dxy    Ryd( 3d)     0.00247
    42    C    3  dxz    Ryd( 3d)     0.00252
    43    C    3  dyz    Ryd( 3d)     0.00179
    44    C    3  dx2y2  Ryd( 3d)     0.00248
    45    C    3  dz2    Ryd( 3d)     0.00042

    46    N    4  S      Cor( 1S)     1.99926
    47    N    4  S      Val( 2S)     1.39214
    48    N    4  S      Ryd( 3S)     0.00087
    49    N    4  S      Ryd( 4S)     0.00005
    50    N    4  px     Val( 2p)     1.22559
    51    N    4  px     Ryd( 3p)     0.00228
    52    N    4  py     Val( 2p)     1.64164
    53    N    4  py     Ryd( 3p)     0.00311
    54    N    4  pz     Val( 2p)     1.32406
    55    N    4  pz     Ryd( 3p)     0.00108
    56    N    4  dxy    Ryd( 3d)     0.00380
    57    N    4  dxz    Ryd( 3d)     0.00023
    58    N    4  dyz    Ryd( 3d)     0.00390
    59    N    4  dx2y2  Ryd( 3d)     0.00338
    60    N    4  dz2    Ryd( 3d)     0.00238

    61    C    5  S      Cor( 1S)     1.99916
    62    C    5  S      Val( 2S)     0.74159
    63    C    5  S      Ryd( 3S)     0.00196
    64    C    5  S      Ryd( 4S)     0.00040
    65    C    5  px     Val( 2p)     0.78266
    66    C    5  px     Ryd( 3p)     0.00675
    67    C    5  py     Val( 2p)     0.80808
    68    C    5  py     Ryd( 3p)     0.01536
    69    C    5  pz     Val( 2p)     0.87152
    70    C    5  pz     Ryd( 3p)     0.00181
    71    C    5  dxy    Ryd( 3d)     0.00288
    72    C    5  dxz    Ryd( 3d)     0.00215
    73    C    5  dyz    Ryd( 3d)     0.00195
    74    C    5  dx2y2  Ryd( 3d)     0.00184
    75    C    5  dz2    Ryd( 3d)     0.00042

    76    O    6  S      Cor( 1S)     1.99967
    77    O    6  S      Val( 2S)     1.57118
    78    O    6  S      Ryd( 3S)     0.00112
    79    O    6  S      Ryd( 4S)     0.00009
    80    O    6  px     Val( 2p)     1.39367
    81    O    6  px     Ryd( 3p)     0.00088
    82    O    6  py     Val( 2p)     1.71706
    83    O    6  py     Ryd( 3p)     0.00188
    84    O    6  pz     Val( 2p)     1.78033
    85    O    6  pz     Ryd( 3p)     0.00250
    86    O    6  dxy    Ryd( 3d)     0.00146
    87    O    6  dxz    Ryd( 3d)     0.00036
    88    O    6  dyz    Ryd( 3d)     0.00185
    89    O    6  dx2y2  Ryd( 3d)     0.00136
    90    O    6  dz2    Ryd( 3d)     0.00079

    91    C    7  S      Cor( 1S)     1.99875
    92    C    7  S      Val( 2S)     0.84361
    93    C    7  S      Ryd( 3S)     0.00138
    94    C    7  S      Ryd( 4S)     0.00011
    95    C    7  px     Val( 2p)     0.76414
    96    C    7  px     Ryd( 3p)     0.00699
    97    C    7  py     Val( 2p)     1.01584
    98    C    7  py     Ryd( 3p)     0.00535
    99    C    7  pz     Val( 2p)     1.06458
   100    C    7  pz     Ryd( 3p)     0.00405
   101    C    7  dxy    Ryd( 3d)     0.00132
   102    C    7  dxz    Ryd( 3d)     0.00145
   103    C    7  dyz    Ryd( 3d)     0.00070
   104    C    7  dx2y2  Ryd( 3d)     0.00131
   105    C    7  dz2    Ryd( 3d)     0.00116

   106    C    8  S      Cor( 1S)     1.99903
   107    C    8  S      Val( 2S)     0.97001
   108    C    8  S      Ryd( 3S)     0.00080
   109    C    8  S      Ryd( 4S)     0.00005
   110    C    8  px     Val( 2p)     1.07601
   111    C    8  px     Ryd( 3p)     0.00498
   112    C    8  py     Val( 2p)     1.08093
   113    C    8  py     Ryd( 3p)     0.00477
   114    C    8  pz     Val( 2p)     1.13115
   115    C    8  pz     Ryd( 3p)     0.00491
   116    C    8  dxy    Ryd( 3d)     0.00064
   117    C    8  dxz    Ryd( 3d)     0.00071
   118    C    8  dyz    Ryd( 3d)     0.00058
   119    C    8  dx2y2  Ryd( 3d)     0.00043
   120    C    8  dz2    Ryd( 3d)     0.00056

   121    C    9  S      Cor( 1S)     1.99909
   122    C    9  S      Val( 2S)     0.96520
   123    C    9  S      Ryd( 3S)     0.00064
   124    C    9  S      Ryd( 4S)     0.00004
   125    C    9  px     Val( 2p)     1.09463
   126    C    9  px     Ryd( 3p)     0.00395
   127    C    9  py     Val( 2p)     0.97488
   128    C    9  py     Ryd( 3p)     0.00377
   129    C    9  pz     Val( 2p)     1.10212
   130    C    9  pz     Ryd( 3p)     0.00464
   131    C    9  dxy    Ryd( 3d)     0.00065
   132    C    9  dxz    Ryd( 3d)     0.00085
   133    C    9  dyz    Ryd( 3d)     0.00045
   134    C    9  dx2y2  Ryd( 3d)     0.00061
   135    C    9  dz2    Ryd( 3d)     0.00053

   136    C   10  S      Cor( 1S)     1.99888
   137    C   10  S      Val( 2S)     0.89954
   138    C   10  S      Ryd( 3S)     0.00078
   139    C   10  S      Ryd( 4S)     0.00006
   140    C   10  px     Val( 2p)     1.07817
   141    C   10  px     Ryd( 3p)     0.00540
   142    C   10  py     Val( 2p)     1.06734
   143    C   10  py     Ryd( 3p)     0.00248
   144    C   10  pz     Val( 2p)     1.09911
   145    C   10  pz     Ryd( 3p)     0.00263
   146    C   10  dxy    Ryd( 3d)     0.00071
   147    C   10  dxz    Ryd( 3d)     0.00072
   148    C   10  dyz    Ryd( 3d)     0.00059
   149    C   10  dx2y2  Ryd( 3d)     0.00069
   150    C   10  dz2    Ryd( 3d)     0.00086

   151    C   11  S      Cor( 1S)     1.99909
   152    C   11  S      Val( 2S)     0.95938
   153    C   11  S      Ryd( 3S)     0.00072
   154    C   11  S      Ryd( 4S)     0.00004
   155    C   11  px     Val( 2p)     1.05533
   156    C   11  px     Ryd( 3p)     0.00413
   157    C   11  py     Val( 2p)     1.05717
   158    C   11  py     Ryd( 3p)     0.00490
   159    C   11  pz     Val( 2p)     1.12213
   160    C   11  pz     Ryd( 3p)     0.00495
   161    C   11  dxy    Ryd( 3d)     0.00065
   162    C   11  dxz    Ryd( 3d)     0.00069
   163    C   11  dyz    Ryd( 3d)     0.00053
   164    C   11  dx2y2  Ryd( 3d)     0.00047
   165    C   11  dz2    Ryd( 3d)     0.00052

   166    C   12  S      Cor( 1S)     1.99902
   167    C   12  S      Val( 2S)     0.97464
   168    C   12  S      Ryd( 3S)     0.00077
   169    C   12  S      Ryd( 4S)     0.00006
   170    C   12  px     Val( 2p)     1.11045
   171    C   12  px     Ryd( 3p)     0.00442
   172    C   12  py     Val( 2p)     0.98955
   173    C   12  py     Ryd( 3p)     0.00402
   174    C   12  pz     Val( 2p)     1.12555
   175    C   12  pz     Ryd( 3p)     0.00421
   176    C   12  dxy    Ryd( 3d)     0.00060
   177    C   12  dxz    Ryd( 3d)     0.00085
   178    C   12  dyz    Ryd( 3d)     0.00050
   179    C   12  dx2y2  Ryd( 3d)     0.00062
   180    C   12  dz2    Ryd( 3d)     0.00059

   181    C   13  S      Cor( 1S)     1.99939
   182    C   13  S      Val( 2S)     0.83497
   183    C   13  S      Ryd( 3S)     0.00785
   184    C   13  S      Ryd( 4S)     0.00027
   185    C   13  px     Val( 2p)     0.99534
   186    C   13  px     Ryd( 3p)     0.01736
   187    C   13  py     Val( 2p)     0.94932
   188    C   13  py     Ryd( 3p)     0.00241
   189    C   13  pz     Val( 2p)     0.93107
   190    C   13  pz     Ryd( 3p)     0.00366
   191    C   13  dxy    Ryd( 3d)     0.00100
   192    C   13  dxz    Ryd( 3d)     0.00081
   193    C   13  dyz    Ryd( 3d)     0.00006
   194    C   13  dx2y2  Ryd( 3d)     0.00061
   195    C   13  dz2    Ryd( 3d)     0.00018

   196    N   14  S      Cor( 1S)     1.99966
   197    N   14  S      Val( 2S)     1.59397
   198    N   14  S      Ryd( 3S)     0.00437
   199    N   14  S      Ryd( 4S)     0.00001
   200    N   14  px     Val( 2p)     1.49121
   201    N   14  px     Ryd( 3p)     0.00219
   202    N   14  py     Val( 2p)     1.11648
   203    N   14  py     Ryd( 3p)     0.00122
   204    N   14  pz     Val( 2p)     1.07799
   205    N   14  pz     Ryd( 3p)     0.00054
   206    N   14  dxy    Ryd( 3d)     0.00405
   207    N   14  dxz    Ryd( 3d)     0.00391
   208    N   14  dyz    Ryd( 3d)     0.00024
   209    N   14  dx2y2  Ryd( 3d)     0.00399
   210    N   14  dz2    Ryd( 3d)     0.00132

   211    N   15  S      Cor( 1S)     1.99922
   212    N   15  S      Val( 2S)     1.39073
   213    N   15  S      Ryd( 3S)     0.00085
   214    N   15  S      Ryd( 4S)     0.00008
   215    N   15  px     Val( 2p)     1.56997
   216    N   15  px     Ryd( 3p)     0.00219
   217    N   15  py     Val( 2p)     1.29201
   218    N   15  py     Ryd( 3p)     0.00197
   219    N   15  pz     Val( 2p)     1.34509
   220    N   15  pz     Ryd( 3p)     0.00085
   221    N   15  dxy    Ryd( 3d)     0.00336
   222    N   15  dxz    Ryd( 3d)     0.00316
   223    N   15  dyz    Ryd( 3d)     0.00079
   224    N   15  dx2y2  Ryd( 3d)     0.00350
   225    N   15  dz2    Ryd( 3d)     0.00231

   226    C   16  S      Cor( 1S)     1.99922
   227    C   16  S      Val( 2S)     0.74390
   228    C   16  S      Ryd( 3S)     0.00218
   229    C   16  S      Ryd( 4S)     0.00040
   230    C   16  px     Val( 2p)     0.86441
   231    C   16  px     Ryd( 3p)     0.01517
   232    C   16  py     Val( 2p)     0.73738
   233    C   16  py     Ryd( 3p)     0.00764
   234    C   16  pz     Val( 2p)     0.85404
   235    C   16  pz     Ryd( 3p)     0.00100
   236    C   16  dxy    Ryd( 3d)     0.00203
   237    C   16  dxz    Ryd( 3d)     0.00166
   238    C   16  dyz    Ryd( 3d)     0.00264
   239    C   16  dx2y2  Ryd( 3d)     0.00290
   240    C   16  dz2    Ryd( 3d)     0.00042

   241    N   17  S      Cor( 1S)     1.99926
   242    N   17  S      Val( 2S)     1.38883
   243    N   17  S      Ryd( 3S)     0.00079
   244    N   17  S      Ryd( 4S)     0.00002
   245    N   17  px     Val( 2p)     1.47575
   246    N   17  px     Ryd( 3p)     0.00311
   247    N   17  py     Val( 2p)     1.36640
   248    N   17  py     Ryd( 3p)     0.00286
   249    N   17  pz     Val( 2p)     1.29486
   250    N   17  pz     Ryd( 3p)     0.00110
   251    N   17  dxy    Ryd( 3d)     0.00352
   252    N   17  dxz    Ryd( 3d)     0.00277
   253    N   17  dyz    Ryd( 3d)     0.00165
   254    N   17  dx2y2  Ryd( 3d)     0.00397
   255    N   17  dz2    Ryd( 3d)     0.00239

   256    O   18  S      Cor( 1S)     1.99972
   257    O   18  S      Val( 2S)     1.59531
   258    O   18  S      Ryd( 3S)     0.00141
   259    O   18  S      Ryd( 4S)     0.00006
   260    O   18  px     Val( 2p)     1.59546
   261    O   18  px     Ryd( 3p)     0.00137
   262    O   18  py     Val( 2p)     1.50984
   263    O   18  py     Ryd( 3p)     0.00135
   264    O   18  pz     Val( 2p)     1.78197
   265    O   18  pz     Ryd( 3p)     0.00212
   266    O   18  dxy    Ryd( 3d)     0.00134
   267    O   18  dxz    Ryd( 3d)     0.00100
   268    O   18  dyz    Ryd( 3d)     0.00136
   269    O   18  dx2y2  Ryd( 3d)     0.00142
   270    O   18  dz2    Ryd( 3d)     0.00078

   271    C   19  S      Cor( 1S)     1.99941
   272    C   19  S      Val( 2S)     1.11145
   273    C   19  S      Ryd( 3S)     0.00146
   274    C   19  S      Ryd( 4S)     0.00003
   275    C   19  px     Val( 2p)     0.80341
   276    C   19  px     Ryd( 3p)     0.00303
   277    C   19  py     Val( 2p)     1.15595
   278    C   19  py     Ryd( 3p)     0.00273
   279    C   19  pz     Val( 2p)     1.23768
   280    C   19  pz     Ryd( 3p)     0.00025
   281    C   19  dxy    Ryd( 3d)     0.00126
   282    C   19  dxz    Ryd( 3d)     0.00170
   283    C   19  dyz    Ryd( 3d)     0.00050
   284    C   19  dx2y2  Ryd( 3d)     0.00170
   285    C   19  dz2    Ryd( 3d)     0.00111

   286    H   20  S      Val( 1S)     0.77123
   287    H   20  S      Ryd( 2S)     0.00057

   288    H   21  S      Val( 1S)     0.77657
   289    H   21  S      Ryd( 2S)     0.00131

   290    H   22  S      Val( 1S)     0.77671
   291    H   22  S      Ryd( 2S)     0.00131

   292    H   23  S      Val( 1S)     0.74532
   293    H   23  S      Ryd( 2S)     0.00102

   294    H   24  S      Val( 1S)     0.74724
   295    H   24  S      Ryd( 2S)     0.00072

   296    H   25  S      Val( 1S)     0.74899
   297    H   25  S      Ryd( 2S)     0.00072

   298    H   26  S      Val( 1S)     0.74707
   299    H   26  S      Ryd( 2S)     0.00091

   300    H   27  S      Val( 1S)     0.76936
   301    H   27  S      Ryd( 2S)     0.00056

   302    H   28  S      Val( 1S)     0.78029
   303    H   28  S      Ryd( 2S)     0.00151

   304    H   29  S      Val( 1S)     0.77698
   305    H   29  S      Ryd( 2S)     0.00134

 WARNING:  1 low occupancy (<1.9990e) core orbital  found on  C    7
           1 low occupancy (<1.9990e) core orbital  found on  C   10


 Summary of Natural Population Analysis:                  
                                                          
                                       Natural Population 
                Natural  -----------------------------------------------
    Atom  No    Charge         Core      Valence    Rydberg      Total
 -----------------------------------------------------------------------
      C    1   -0.32166      1.99941     4.30856    0.01370     6.32166
      O    2   -0.49396      1.99972     6.48188    0.01236     8.49396
      C    3    0.76467      1.99921     3.19937    0.03675     5.23533
      N    4   -0.60376      1.99926     5.58343    0.02108     7.60376
      C    5    0.76147      1.99916     3.20385    0.03552     5.23853
      O    6   -0.47420      1.99967     6.46224    0.01229     8.47420
      C    7    0.28926      1.99875     3.68816    0.02382     5.71074
      C    8   -0.27556      1.99903     4.25810    0.01843     6.27556
      C    9   -0.15204      1.99909     4.13682    0.01613     6.15204
      C   10   -0.15795      1.99888     4.14416    0.01492     6.15795
      C   11   -0.21071      1.99909     4.19400    0.01761     6.21071
      C   12   -0.21585      1.99902     4.20019    0.01664     6.21585
      C   13    0.25570      1.99939     3.71070    0.03422     5.74430
      N   14   -0.30114      1.99966     5.27965    0.02183     7.30114
      N   15   -0.61608      1.99922     5.59781    0.01905     7.61608
      C   16    0.76503      1.99922     3.19972    0.03603     5.23497
      N   17   -0.54729      1.99926     5.52584    0.02219     7.54729
      O   18   -0.49453      1.99972     6.48259    0.01223     8.49453
      C   19   -0.32167      1.99941     4.30849    0.01377     6.32167
      H   20    0.22820      0.00000     0.77123    0.00057     0.77180
      H   21    0.22212      0.00000     0.77657    0.00131     0.77788
      H   22    0.22198      0.00000     0.77671    0.00131     0.77802
      H   23    0.25366      0.00000     0.74532    0.00102     0.74634
      H   24    0.25204      0.00000     0.74724    0.00072     0.74796
      H   25    0.25029      0.00000     0.74899    0.00072     0.74971
      H   26    0.25202      0.00000     0.74707    0.00091     0.74798
      H   27    0.23008      0.00000     0.76936    0.00056     0.76992
      H   28    0.21820      0.00000     0.78029    0.00151     0.78180
      H   29    0.22168      0.00000     0.77698    0.00134     0.77832
 =======================================================================
   * Total *   -0.00000     37.98614    95.60533    0.40853   134.00000

                                 Natural Population      
 --------------------------------------------------------
   Core                      37.98614 ( 99.9635% of  38)
   Valence                   95.60533 ( 99.5889% of  96)
   Natural Minimal Basis    133.59147 ( 99.6951% of 134)
   Natural Rydberg Basis      0.40853 (  0.3049% of 134)
 --------------------------------------------------------

    Atom  No          Natural Electron Configuration
 ----------------------------------------------------------------------------
      C    1      [core]2S( 1.11)2p( 3.20)3p( 0.01)3d( 0.01)
      O    2      [core]2S( 1.60)2p( 4.89)3d( 0.01)
      C    3      [core]2S( 0.75)2p( 2.45)3p( 0.02)3d( 0.01)
      N    4      [core]2S( 1.39)2p( 4.19)3p( 0.01)3d( 0.01)
      C    5      [core]2S( 0.74)2p( 2.46)3p( 0.02)3d( 0.01)
      O    6      [core]2S( 1.57)2p( 4.89)3p( 0.01)3d( 0.01)
      C    7      [core]2S( 0.84)2p( 2.84)3p( 0.02)3d( 0.01)
      C    8      [core]2S( 0.97)2p( 3.29)3p( 0.01)
      C    9      [core]2S( 0.97)2p( 3.17)3p( 0.01)
      C   10      [core]2S( 0.90)2p( 3.24)3p( 0.01)
      C   11      [core]2S( 0.96)2p( 3.23)3p( 0.01)
      C   12      [core]2S( 0.97)2p( 3.23)3p( 0.01)
      C   13      [core]2S( 0.83)2p( 2.88)3S( 0.01)3p( 0.02)
      N   14      [core]2S( 1.59)2p( 3.69)3d( 0.01)
      N   15      [core]2S( 1.39)2p( 4.21)3p( 0.01)3d( 0.01)
      C   16      [core]2S( 0.74)2p( 2.46)3p( 0.02)3d( 0.01)
      N   17      [core]2S( 1.39)2p( 4.14)3p( 0.01)3d( 0.01)
      O   18      [core]2S( 1.60)2p( 4.89)3d( 0.01)
      C   19      [core]2S( 1.11)2p( 3.20)3p( 0.01)3d( 0.01)
      H   20            1S( 0.77)
      H   21            1S( 0.78)
      H   22            1S( 0.78)
      H   23            1S( 0.75)
      H   24            1S( 0.75)
      H   25            1S( 0.75)
      H   26            1S( 0.75)
      H   27            1S( 0.77)
      H   28            1S( 0.78)
      H   29            1S( 0.78)


 NBO analysis skipped by request.
 Leave Link  607 at Wed Sep 29 00:40:03 2021, MaxMem= 1073741824 cpu:      15.7
 (Enter /sw/target/amd/app/gaussian/Gaussian09RevA.02_gcc-4.9.2/g09/l9999.exe)
 1\1\GINC-HERMITE\SP\RTD-B3LYP-FC\6-31G(d)\C12H10N4O3\JSCHLEINITZ\29-Se
 p-2021\0\\#p TD(NStates=10, Root=1) b3lyp/6-31G* volume pop=NPA densit
 y=current Geom=AllCheck Guess=Read\\COc1nc(Oc2ccc(cc2)C#N)nc(n1)OC_con
 f_0\\0,1\C,0,1.9053648914,-0.2050085401,-0.9850675917\O,0,2.6211687461
 ,0.0615518319,0.2310171024\C,0,3.196219388,-0.9653292136,0.85078169\N,
 0,3.0847590806,-2.1892874609,0.3138007156\C,0,3.7011371189,-3.12768451
 1,1.0242760004\O,0,3.5759679009,-4.3701779995,0.5018963749\C,0,4.25178
 33575,-5.4505989899,1.0538622434\C,0,3.4798542295,-6.5233263388,1.4953
 552832\C,0,4.108758947,-7.6738649766,1.9608255124\C,0,5.5110221777,-7.
 7471767842,1.9823338098\C,0,6.2748020222,-6.6582627019,1.5255064312\C,
 0,5.6463330848,-5.5106213025,1.0576058668\C,0,6.1628533182,-8.92946329
 52,2.4640123638\N,0,6.6928454531,-9.8878970209,2.8564799427\N,0,4.3789
 59928,-2.9644095283,2.1552938966\C,0,4.4068106548,-1.6875411709,2.5762
 288858\N,0,3.8409007433,-0.6443025389,1.9746867272\O,0,5.0529625932,-1
 .3993595349,3.7034267251\C,0,5.6786321488,-2.4772286788,4.4154494533\H
 ,0,1.5280344662,0.7663093661,-1.3060810333\H,0,1.0796416926,-0.8982496
 738,-0.8058560027\H,0,2.5695595146,-0.629034976,-1.7423790298\H,0,2.39
 82201536,-6.4468918444,1.4653446163\H,0,3.5203123398,-8.5164598555,2.3
 084171168\H,0,7.3579309154,-6.7216690605,1.5350685934\H,0,6.2261686714
 ,-4.6685448603,0.6976295049\H,0,6.1261768796,-2.010653431,5.2933973593
 \H,0,6.4475547446,-2.9552046667,3.8027903567\H,0,4.9416689093,-3.22743
 82667,4.713207377\\Version=AM64L-G09RevA.02\State=1-A\HF=-907.9681204\
 RMSD=5.971e-10\Dipole=-0.6388478,0.9305211,-0.5361917\Quadrupole=10.71
 1896,-22.043455,11.3315589,10.3155527,0.8303643,-0.3559239\PG=C01 [X(C
 12H10N4O3)]\\@


 COMMON SENSE IS NOT SO COMMON.   -- VOLTAIRE
 Job cpu time:  0 days  4 hours 10 minutes 26.3 seconds.
 File lengths (MBytes):  RWF=    307 Int=      0 D2E=      0 Chk=     42 Scr=      1
 Normal termination of Gaussian 09 at Wed Sep 29 00:40:07 2021.
