 Entering Gaussian System, Link 0=g09
 Input=C13H16Li2Zn_49c6_conf_0.com
 Output=C13H16Li2Zn_49c6_conf_0.log
 Initial command:
 /sw/target/amd/app/gaussian/Gaussian09RevA.02_gcc-4.9.2/g09/l1.exe /home/jschleinitz/gaussian/Gau-2757592.inp -scrdir=/home/jschleinitz/gaussian/
 Entering Link 1 = /sw/target/amd/app/gaussian/Gaussian09RevA.02_gcc-4.9.2/g09/l1.exe PID=   2757604.
  
 Copyright (c) 1988,1990,1992,1993,1995,1998,2003,2009, Gaussian, Inc.
                  All Rights Reserved.
  
 This is part of the Gaussian(R) 09 program.  It is based on
 the Gaussian(R) 03 system (copyright 2003, Gaussian, Inc.),
 the Gaussian(R) 98 system (copyright 1998, Gaussian, Inc.),
 the Gaussian(R) 94 system (copyright 1995, Gaussian, Inc.),
 the Gaussian 92(TM) system (copyright 1992, Gaussian, Inc.),
 the Gaussian 90(TM) system (copyright 1990, Gaussian, Inc.),
 the Gaussian 88(TM) system (copyright 1988, Gaussian, Inc.),
 the Gaussian 86(TM) system (copyright 1986, Carnegie Mellon
 University), and the Gaussian 82(TM) system (copyright 1983,
 Carnegie Mellon University). Gaussian is a federally registered
 trademark of Gaussian, Inc.
  
 This software contains proprietary and confidential information,
 including trade secrets, belonging to Gaussian, Inc.
  
 This software is provided under written license and may be
 used, copied, transmitted, or stored only in accord with that
 written license.
  
 The following legend is applicable only to US Government
 contracts under FAR:
  
                    RESTRICTED RIGHTS LEGEND
  
 Use, reproduction and disclosure by the US Government is
 subject to restrictions as set forth in subparagraphs (a)
 and (c) of the Commercial Computer Software - Restricted
 Rights clause in FAR 52.227-19.
  
 Gaussian, Inc.
 340 Quinnipiac St., Bldg. 40, Wallingford CT 06492
  
  
 ---------------------------------------------------------------
 Warning -- This program may not be used in any manner that
 competes with the business of Gaussian, Inc. or will provide
 assistance to any competitor of Gaussian, Inc.  The licensee
 of this program is prohibited from giving any competitor of
 Gaussian, Inc. access to this program.  By using this program,
 the user acknowledges that Gaussian, Inc. is engaged in the
 business of creating and licensing software in the field of
 computational chemistry and represents and warrants to the
 licensee that it is not a competitor of Gaussian, Inc. and that
 it will not use this program in any manner prohibited above.
 ---------------------------------------------------------------
  

 Cite this work as:
 Gaussian 09, Revision A.02,
 M. J. Frisch, G. W. Trucks, H. B. Schlegel, G. E. Scuseria, 
 M. A. Robb, J. R. Cheeseman, G. Scalmani, V. Barone, B. Mennucci, 
 G. A. Petersson, H. Nakatsuji, M. Caricato, X. Li, H. P. Hratchian, 
 A. F. Izmaylov, J. Bloino, G. Zheng, J. L. Sonnenberg, M. Hada, 
 M. Ehara, K. Toyota, R. Fukuda, J. Hasegawa, M. Ishida, T. Nakajima, 
 Y. Honda, O. Kitao, H. Nakai, T. Vreven, J. A. Montgomery, Jr., 
 J. E. Peralta, F. Ogliaro, M. Bearpark, J. J. Heyd, E. Brothers, 
 K. N. Kudin, V. N. Staroverov, R. Kobayashi, J. Normand, 
 K. Raghavachari, A. Rendell, J. C. Burant, S. S. Iyengar, J. Tomasi, 
 M. Cossi, N. Rega, J. M. Millam, M. Klene, J. E. Knox, J. B. Cross, 
 V. Bakken, C. Adamo, J. Jaramillo, R. Gomperts, R. E. Stratmann, 
 O. Yazyev, A. J. Austin, R. Cammi, C. Pomelli, J. W. Ochterski, 
 R. L. Martin, K. Morokuma, V. G. Zakrzewski, G. A. Voth, 
 P. Salvador, J. J. Dannenberg, S. Dapprich, A. D. Daniels, 
 O. Farkas, J. B. Foresman, J. V. Ortiz, J. Cioslowski, 
 and D. J. Fox, Gaussian, Inc., Wallingford CT, 2009.
 
 ******************************************
 Gaussian 09:  AM64L-G09RevA.02 11-Jun-2009
                 3-Oct-2021 
 ******************************************
 %nproc=5
 Will use up to    5 processors via shared memory.
 %mem=10gb
 %chk=C13H16Li2Zn_49c6_conf_0.chk
 -----------------------------------
 #p opt b3lyp/6-31G* scf=(xqc,tight)
 -----------------------------------
 1/14=-1,18=20,19=15,26=3,38=1/1,3;
 2/9=110,12=2,17=6,18=5,40=1/2;
 3/5=1,6=6,7=1,11=2,16=1,25=1,30=1,71=1,74=-5/1,2,3;
 4//1;
 5/5=2,8=3,13=1,32=2,38=5/2,8;
 6/7=2,8=2,9=2,10=2,28=1/1;
 7//1,2,3,16;
 1/14=-1,18=20,19=15/3(2);
 2/9=110/2;
 99//99;
 2/9=110/2;
 3/5=1,6=6,7=1,11=2,16=1,25=1,30=1,71=1,74=-5/1,2,3;
 4/5=5,16=3/1;
 5/5=2,8=3,13=1,32=2,38=5/2,8;
 7//1,2,3,16;
 1/14=-1,18=20,19=15/3(-5);
 2/9=110/2;
 6/7=2,8=2,9=2,10=2,19=2,28=1/1;
 99/9=1/99;
 Leave Link    1 at Sun Oct  3 03:38:59 2021, MaxMem= 1342177280 cpu:       0.1
 (Enter /sw/target/amd/app/gaussian/Gaussian09RevA.02_gcc-4.9.2/g09/l101.exe)
 ----------------------------------------------
 [Li][Zn](c1ccc2c(c1)cccc2)(C)(C)(C)[Li]_conf_0
 ----------------------------------------------
 Symbolic Z-matrix:
 Charge =  0 Multiplicity = 1
 Li                    3.78193  -2.08405   1.39267 
 Zn                    3.55772  -0.06981  -0.04238 
 C                     3.55772   1.07277   1.57469 
 C                     4.56333   1.08246   2.55455 
 C                     4.44499   1.89804   3.68516 
 C                     3.30989   2.70271   3.86018 
 C                     2.2856    2.68684   2.88463 
 C                     2.42074   1.87192   1.75202 
 C                     1.14135   3.47922   3.06279 
 C                     1.01506   4.28207   4.19953 
 C                     2.02742   4.30078   5.16314 
 C                     3.17228   3.51522   4.99684 
 C                     5.54837   0.07314  -0.20327 
 C                     3.36942   1.54441  -1.20801 
 C                     3.55772  -1.21238  -1.65945 
 Li                    1.08761  -0.29223   0.1273 
 H                     5.43675   0.45609   2.45342 
 H                     5.23484   1.89077   4.42678 
 H                     1.63761   1.84368   1.00543 
 H                     0.34603   3.47531   2.32656 
 H                     0.12956   4.8899    4.33465 
 H                     1.92281   4.92385   6.04174 
 H                     3.94511   3.53942   5.75553 
 H                     5.92244  -0.08043  -1.23569 
 H                     6.00116  -0.70999   0.43898 
 H                     5.91465   1.06803   0.12412 
 H                     3.72143   2.46639  -0.70046 
 H                     2.29589   1.66609  -1.45894 
 H                     3.941     1.45783  -2.15458 
 H                     4.13785  -0.82649  -2.52262 
 H                     2.503    -1.34151  -1.978 
 H                     3.96269  -2.20602  -1.3774 
 
 NAtoms=     32 NQM=     32 NQMF=      0 NMic=      0 NMicF=      0 NTot=     32.
                    Isotopes and Nuclear Properties:
 (Nuclear quadrupole moments (NQMom) in fm**2, nuclear magnetic moments (NMagM)
  in nuclear magnetons)

  Atom         1           2           3           4           5           6           7           8           9          10
 IAtWgt=           7          64          12          12          12          12          12          12          12          12
 AtmWgt=   7.0160045  63.9291454  12.0000000  12.0000000  12.0000000  12.0000000  12.0000000  12.0000000  12.0000000  12.0000000
 NucSpn=           3           0           0           0           0           0           0           0           0           0
 AtZEff=   0.0000000   0.0000000   0.0000000   0.0000000   0.0000000   0.0000000   0.0000000   0.0000000   0.0000000   0.0000000
 NQMom=   -4.0100000   0.0000000   0.0000000   0.0000000   0.0000000   0.0000000   0.0000000   0.0000000   0.0000000   0.0000000
 NMagM=    3.2564240   0.0000000   0.0000000   0.0000000   0.0000000   0.0000000   0.0000000   0.0000000   0.0000000   0.0000000

  Atom        11          12          13          14          15          16          17          18          19          20
 IAtWgt=          12          12          12          12          12           7           1           1           1           1
 AtmWgt=  12.0000000  12.0000000  12.0000000  12.0000000  12.0000000   7.0160045   1.0078250   1.0078250   1.0078250   1.0078250
 NucSpn=           0           0           0           0           0           3           1           1           1           1
 AtZEff=   0.0000000   0.0000000   0.0000000   0.0000000   0.0000000   0.0000000   0.0000000   0.0000000   0.0000000   0.0000000
 NQMom=    0.0000000   0.0000000   0.0000000   0.0000000   0.0000000  -4.0100000   0.0000000   0.0000000   0.0000000   0.0000000
 NMagM=    0.0000000   0.0000000   0.0000000   0.0000000   0.0000000   3.2564240   2.7928460   2.7928460   2.7928460   2.7928460

  Atom        21          22          23          24          25          26          27          28          29          30
 IAtWgt=           1           1           1           1           1           1           1           1           1           1
 AtmWgt=   1.0078250   1.0078250   1.0078250   1.0078250   1.0078250   1.0078250   1.0078250   1.0078250   1.0078250   1.0078250
 NucSpn=           1           1           1           1           1           1           1           1           1           1
 AtZEff=   0.0000000   0.0000000   0.0000000   0.0000000   0.0000000   0.0000000   0.0000000   0.0000000   0.0000000   0.0000000
 NQMom=    0.0000000   0.0000000   0.0000000   0.0000000   0.0000000   0.0000000   0.0000000   0.0000000   0.0000000   0.0000000
 NMagM=    2.7928460   2.7928460   2.7928460   2.7928460   2.7928460   2.7928460   2.7928460   2.7928460   2.7928460   2.7928460

  Atom        31          32
 IAtWgt=           1           1
 AtmWgt=   1.0078250   1.0078250
 NucSpn=           1           1
 AtZEff=   0.0000000   0.0000000
 NQMom=    0.0000000   0.0000000
 NMagM=    2.7928460   2.7928460
 Leave Link  101 at Sun Oct  3 03:39:00 2021, MaxMem= 1342177280 cpu:       0.2
 (Enter /sw/target/amd/app/gaussian/Gaussian09RevA.02_gcc-4.9.2/g09/l103.exe)

 GradGradGradGradGradGradGradGradGradGradGradGradGradGradGradGradGradGrad
 Berny optimization.
 Initialization pass.
                           ----------------------------
                           !    Initial Parameters    !
                           ! (Angstroms and Degrees)  !
 --------------------------                            --------------------------
 ! Name  Definition              Value          Derivative Info.                !
 --------------------------------------------------------------------------------
 ! R1    R(1,2)                  2.4833         estimate D2E/DX2                !
 ! R2    R(2,3)                  1.98           estimate D2E/DX2                !
 ! R3    R(2,13)                 2.0023         estimate D2E/DX2                !
 ! R4    R(2,14)                 2.0            estimate D2E/DX2                !
 ! R5    R(2,15)                 1.98           estimate D2E/DX2                !
 ! R6    R(2,16)                 2.4859         estimate D2E/DX2                !
 ! R7    R(3,4)                  1.4041         estimate D2E/DX2                !
 ! R8    R(3,8)                  1.401          estimate D2E/DX2                !
 ! R9    R(4,5)                  1.3991         estimate D2E/DX2                !
 ! R10   R(4,17)                 1.0796         estimate D2E/DX2                !
 ! R11   R(5,6)                  1.4023         estimate D2E/DX2                !
 ! R12   R(5,18)                 1.0835         estimate D2E/DX2                !
 ! R13   R(6,7)                  1.4146         estimate D2E/DX2                !
 ! R14   R(6,12)                 1.404          estimate D2E/DX2                !
 ! R15   R(7,8)                  1.4018         estimate D2E/DX2                !
 ! R16   R(7,9)                  1.4032         estimate D2E/DX2                !
 ! R17   R(8,19)                 1.0823         estimate D2E/DX2                !
 ! R18   R(9,10)                 1.3974         estimate D2E/DX2                !
 ! R19   R(9,20)                 1.0838         estimate D2E/DX2                !
 ! R20   R(10,11)                1.3978         estimate D2E/DX2                !
 ! R21   R(10,21)                1.0825         estimate D2E/DX2                !
 ! R22   R(11,12)                1.3984         estimate D2E/DX2                !
 ! R23   R(11,22)                1.0822         estimate D2E/DX2                !
 ! R24   R(12,23)                1.0833         estimate D2E/DX2                !
 ! R25   R(13,24)                1.1088         estimate D2E/DX2                !
 ! R26   R(13,25)                1.1094         estimate D2E/DX2                !
 ! R27   R(13,26)                1.1096         estimate D2E/DX2                !
 ! R28   R(14,27)                1.1098         estimate D2E/DX2                !
 ! R29   R(14,28)                1.1092         estimate D2E/DX2                !
 ! R30   R(14,29)                1.1091         estimate D2E/DX2                !
 ! R31   R(15,30)                1.1093         estimate D2E/DX2                !
 ! R32   R(15,31)                1.1093         estimate D2E/DX2                !
 ! R33   R(15,32)                1.1094         estimate D2E/DX2                !
 ! A1    A(1,2,3)               89.7769         estimate D2E/DX2                !
 ! A2    A(1,2,13)              90.835          estimate D2E/DX2                !
 ! A3    A(1,2,15)              90.2231         estimate D2E/DX2                !
 ! A4    A(1,2,16)              88.7221         estimate D2E/DX2                !
 ! A5    A(3,2,13)              91.3998         estimate D2E/DX2                !
 ! A6    A(3,2,14)              90.5866         estimate D2E/DX2                !
 ! A7    A(3,2,16)              89.7644         estimate D2E/DX2                !
 ! A8    A(13,2,14)             89.3783         estimate D2E/DX2                !
 ! A9    A(13,2,15)             88.6002         estimate D2E/DX2                !
 ! A10   A(14,2,15)             89.4134         estimate D2E/DX2                !
 ! A11   A(14,2,16)             91.0571         estimate D2E/DX2                !
 ! A12   A(15,2,16)             90.2356         estimate D2E/DX2                !
 ! A13   A(2,3,4)              125.0246         estimate D2E/DX2                !
 ! A14   A(2,3,8)              115.6286         estimate D2E/DX2                !
 ! A15   A(4,3,8)              119.2723         estimate D2E/DX2                !
 ! A16   A(3,4,5)              120.49           estimate D2E/DX2                !
 ! A17   A(3,4,17)             120.6686         estimate D2E/DX2                !
 ! A18   A(5,4,17)             118.8396         estimate D2E/DX2                !
 ! A19   A(4,5,6)              120.2525         estimate D2E/DX2                !
 ! A20   A(4,5,18)             119.1804         estimate D2E/DX2                !
 ! A21   A(6,5,18)             120.5635         estimate D2E/DX2                !
 ! A22   A(5,6,7)              119.5763         estimate D2E/DX2                !
 ! A23   A(5,6,12)             120.8276         estimate D2E/DX2                !
 ! A24   A(7,6,12)             119.594          estimate D2E/DX2                !
 ! A25   A(6,7,8)              119.5973         estimate D2E/DX2                !
 ! A26   A(6,7,9)              119.7734         estimate D2E/DX2                !
 ! A27   A(8,7,9)              120.6282         estimate D2E/DX2                !
 ! A28   A(3,8,7)              120.8031         estimate D2E/DX2                !
 ! A29   A(3,8,19)             119.0124         estimate D2E/DX2                !
 ! A30   A(7,8,19)             120.1805         estimate D2E/DX2                !
 ! A31   A(7,9,10)             120.0942         estimate D2E/DX2                !
 ! A32   A(7,9,20)             120.6729         estimate D2E/DX2                !
 ! A33   A(10,9,20)            119.2327         estimate D2E/DX2                !
 ! A34   A(9,10,11)            120.2014         estimate D2E/DX2                !
 ! A35   A(9,10,21)            119.8722         estimate D2E/DX2                !
 ! A36   A(11,10,21)           119.9264         estimate D2E/DX2                !
 ! A37   A(10,11,12)           120.2288         estimate D2E/DX2                !
 ! A38   A(10,11,22)           119.8286         estimate D2E/DX2                !
 ! A39   A(12,11,22)           119.9424         estimate D2E/DX2                !
 ! A40   A(6,12,11)            120.1081         estimate D2E/DX2                !
 ! A41   A(6,12,23)            120.6657         estimate D2E/DX2                !
 ! A42   A(11,12,23)           119.2257         estimate D2E/DX2                !
 ! A43   A(2,13,24)            113.6001         estimate D2E/DX2                !
 ! A44   A(2,13,25)            107.9908         estimate D2E/DX2                !
 ! A45   A(2,13,26)            111.623          estimate D2E/DX2                !
 ! A46   A(24,13,25)           107.6728         estimate D2E/DX2                !
 ! A47   A(24,13,26)           106.7114         estimate D2E/DX2                !
 ! A48   A(25,13,26)           109.1104         estimate D2E/DX2                !
 ! A49   A(2,14,27)            111.9708         estimate D2E/DX2                !
 ! A50   A(2,14,28)            108.1508         estimate D2E/DX2                !
 ! A51   A(2,14,29)            112.6983         estimate D2E/DX2                !
 ! A52   A(27,14,28)           108.6224         estimate D2E/DX2                !
 ! A53   A(27,14,29)           106.9599         estimate D2E/DX2                !
 ! A54   A(28,14,29)           108.3172         estimate D2E/DX2                !
 ! A55   A(2,15,30)            115.7696         estimate D2E/DX2                !
 ! A56   A(2,15,31)            107.5592         estimate D2E/DX2                !
 ! A57   A(2,15,32)            108.0108         estimate D2E/DX2                !
 ! A58   A(30,15,31)           108.3177         estimate D2E/DX2                !
 ! A59   A(30,15,32)           108.5711         estimate D2E/DX2                !
 ! A60   A(31,15,32)           108.4098         estimate D2E/DX2                !
 ! D1    D(1,2,3,4)             55.815          estimate D2E/DX2                !
 ! D2    D(1,2,3,8)           -121.0089         estimate D2E/DX2                !
 ! D3    D(13,2,3,4)           -35.0149         estimate D2E/DX2                !
 ! D4    D(13,2,3,8)           148.1612         estimate D2E/DX2                !
 ! D5    D(14,2,3,4)          -124.4073         estimate D2E/DX2                !
 ! D6    D(14,2,3,8)            58.7688         estimate D2E/DX2                !
 ! D7    D(16,2,3,4)           144.538          estimate D2E/DX2                !
 ! D8    D(16,2,3,8)           -32.2859         estimate D2E/DX2                !
 ! D9    D(4,3,15,30)          -83.5028         estimate D2E/DX2                !
 ! D10   D(4,3,15,31)          155.2444         estimate D2E/DX2                !
 ! D11   D(4,3,15,32)           38.424          estimate D2E/DX2                !
 ! D12   D(8,3,15,30)           99.6733         estimate D2E/DX2                !
 ! D13   D(8,3,15,31)          -21.5795         estimate D2E/DX2                !
 ! D14   D(8,3,15,32)         -138.4            estimate D2E/DX2                !
 ! D15   D(1,2,13,24)          115.1529         estimate D2E/DX2                !
 ! D16   D(1,2,13,25)           -4.2006         estimate D2E/DX2                !
 ! D17   D(1,2,13,26)         -124.1345         estimate D2E/DX2                !
 ! D18   D(3,2,13,24)         -155.0498         estimate D2E/DX2                !
 ! D19   D(3,2,13,25)           85.5966         estimate D2E/DX2                !
 ! D20   D(3,2,13,26)          -34.3373         estimate D2E/DX2                !
 ! D21   D(14,2,13,24)         -64.4782         estimate D2E/DX2                !
 ! D22   D(14,2,13,25)         176.1683         estimate D2E/DX2                !
 ! D23   D(14,2,13,26)          56.2343         estimate D2E/DX2                !
 ! D24   D(15,2,13,24)          24.9502         estimate D2E/DX2                !
 ! D25   D(15,2,13,25)         -94.4034         estimate D2E/DX2                !
 ! D26   D(15,2,13,26)         145.6627         estimate D2E/DX2                !
 ! D27   D(3,2,14,27)           22.4954         estimate D2E/DX2                !
 ! D28   D(3,2,14,28)          -97.1499         estimate D2E/DX2                !
 ! D29   D(3,2,14,29)          143.1391         estimate D2E/DX2                !
 ! D30   D(13,2,14,27)         -68.8983         estimate D2E/DX2                !
 ! D31   D(13,2,14,28)         171.4565         estimate D2E/DX2                !
 ! D32   D(13,2,14,29)          51.7455         estimate D2E/DX2                !
 ! D33   D(15,2,14,27)        -157.5046         estimate D2E/DX2                !
 ! D34   D(15,2,14,28)          82.8501         estimate D2E/DX2                !
 ! D35   D(15,2,14,29)         -36.8609         estimate D2E/DX2                !
 ! D36   D(16,2,14,27)         112.2705         estimate D2E/DX2                !
 ! D37   D(16,2,14,28)          -7.3747         estimate D2E/DX2                !
 ! D38   D(16,2,14,29)        -127.0857         estimate D2E/DX2                !
 ! D39   D(1,2,15,30)         -139.3178         estimate D2E/DX2                !
 ! D40   D(1,2,15,31)           99.4295         estimate D2E/DX2                !
 ! D41   D(1,2,15,32)          -17.391          estimate D2E/DX2                !
 ! D42   D(13,2,15,30)         -48.488          estimate D2E/DX2                !
 ! D43   D(13,2,15,31)        -169.7407         estimate D2E/DX2                !
 ! D44   D(13,2,15,32)          73.4388         estimate D2E/DX2                !
 ! D45   D(14,2,15,30)          40.9044         estimate D2E/DX2                !
 ! D46   D(14,2,15,31)         -80.3483         estimate D2E/DX2                !
 ! D47   D(14,2,15,32)         162.8312         estimate D2E/DX2                !
 ! D48   D(16,2,15,30)         131.9592         estimate D2E/DX2                !
 ! D49   D(16,2,15,31)          10.7064         estimate D2E/DX2                !
 ! D50   D(16,2,15,32)        -106.114          estimate D2E/DX2                !
 ! D51   D(2,3,4,5)           -177.8402         estimate D2E/DX2                !
 ! D52   D(2,3,4,17)             1.6753         estimate D2E/DX2                !
 ! D53   D(8,3,4,5)             -1.1231         estimate D2E/DX2                !
 ! D54   D(8,3,4,17)           178.3924         estimate D2E/DX2                !
 ! D55   D(2,3,8,7)            177.7101         estimate D2E/DX2                !
 ! D56   D(2,3,8,19)            -1.5641         estimate D2E/DX2                !
 ! D57   D(4,3,8,7)              0.6915         estimate D2E/DX2                !
 ! D58   D(4,3,8,19)          -178.5827         estimate D2E/DX2                !
 ! D59   D(3,4,5,6)              0.8453         estimate D2E/DX2                !
 ! D60   D(3,4,5,18)          -179.8441         estimate D2E/DX2                !
 ! D61   D(17,4,5,6)          -178.679          estimate D2E/DX2                !
 ! D62   D(17,4,5,18)            0.6315         estimate D2E/DX2                !
 ! D63   D(4,5,6,7)             -0.1246         estimate D2E/DX2                !
 ! D64   D(4,5,6,12)           179.3359         estimate D2E/DX2                !
 ! D65   D(18,5,6,7)          -179.4255         estimate D2E/DX2                !
 ! D66   D(18,5,6,12)            0.035          estimate D2E/DX2                !
 ! D67   D(5,6,7,8)             -0.3036         estimate D2E/DX2                !
 ! D68   D(5,6,7,9)            179.3015         estimate D2E/DX2                !
 ! D69   D(12,6,7,8)          -179.7708         estimate D2E/DX2                !
 ! D70   D(12,6,7,9)            -0.1657         estimate D2E/DX2                !
 ! D71   D(5,6,12,11)         -179.3091         estimate D2E/DX2                !
 ! D72   D(5,6,12,23)            0.4319         estimate D2E/DX2                !
 ! D73   D(7,6,12,11)            0.1512         estimate D2E/DX2                !
 ! D74   D(7,6,12,23)          179.8922         estimate D2E/DX2                !
 ! D75   D(6,7,8,3)              0.017          estimate D2E/DX2                !
 ! D76   D(6,7,8,19)           179.2828         estimate D2E/DX2                !
 ! D77   D(9,7,8,3)           -179.5846         estimate D2E/DX2                !
 ! D78   D(9,7,8,19)            -0.3189         estimate D2E/DX2                !
 ! D79   D(6,7,9,10)             0.0606         estimate D2E/DX2                !
 ! D80   D(6,7,9,20)          -179.7608         estimate D2E/DX2                !
 ! D81   D(8,7,9,10)           179.6616         estimate D2E/DX2                !
 ! D82   D(8,7,9,20)            -0.1598         estimate D2E/DX2                !
 ! D83   D(7,9,10,11)            0.06           estimate D2E/DX2                !
 ! D84   D(7,9,10,21)         -179.834          estimate D2E/DX2                !
 ! D85   D(20,9,10,11)         179.884          estimate D2E/DX2                !
 ! D86   D(20,9,10,21)          -0.01           estimate D2E/DX2                !
 ! D87   D(9,10,11,12)          -0.0752         estimate D2E/DX2                !
 ! D88   D(9,10,11,22)        -179.9261         estimate D2E/DX2                !
 ! D89   D(21,10,11,12)        179.8187         estimate D2E/DX2                !
 ! D90   D(21,10,11,22)         -0.0322         estimate D2E/DX2                !
 ! D91   D(10,11,12,6)          -0.0313         estimate D2E/DX2                !
 ! D92   D(10,11,12,23)       -179.776          estimate D2E/DX2                !
 ! D93   D(22,11,12,6)         179.8193         estimate D2E/DX2                !
 ! D94   D(22,11,12,23)          0.0746         estimate D2E/DX2                !
 --------------------------------------------------------------------------------
 Trust Radius=3.00D-01 FncErr=1.00D-07 GrdErr=1.00D-06
 Number of steps in this run= 192 maximum allowed number of steps= 192.
 GradGradGradGradGradGradGradGradGradGradGradGradGradGradGradGradGradGrad

 Leave Link  103 at Sun Oct  3 03:39:00 2021, MaxMem= 1342177280 cpu:       0.0
 (Enter /sw/target/amd/app/gaussian/Gaussian09RevA.02_gcc-4.9.2/g09/l202.exe)
                          Input orientation:                          
 ---------------------------------------------------------------------
 Center     Atomic      Atomic             Coordinates (Angstroms)
 Number     Number       Type             X           Y           Z
 ---------------------------------------------------------------------
      1          3           0        3.781934   -2.084046    1.392667
      2         30           0        3.557716   -0.069806   -0.042380
      3          6           0        3.557716    1.072772    1.574690
      4          6           0        4.563326    1.082462    2.554552
      5          6           0        4.444987    1.898041    3.685158
      6          6           0        3.309887    2.702714    3.860181
      7          6           0        2.285600    2.686841    2.884634
      8          6           0        2.420738    1.871921    1.752020
      9          6           0        1.141348    3.479218    3.062790
     10          6           0        1.015064    4.282074    4.199525
     11          6           0        2.027415    4.300785    5.163139
     12          6           0        3.172279    3.515225    4.996842
     13          6           0        5.548368    0.073136   -0.203272
     14          6           0        3.369422    1.544409   -1.208013
     15          6           0        3.557716   -1.212383   -1.659451
     16          3           0        1.087610   -0.292233    0.127297
     17          1           0        5.436753    0.456091    2.453423
     18          1           0        5.234837    1.890771    4.426780
     19          1           0        1.637613    1.843683    1.005433
     20          1           0        0.346029    3.475306    2.326564
     21          1           0        0.129555    4.889904    4.334646
     22          1           0        1.922811    4.923853    6.041737
     23          1           0        3.945107    3.539416    5.755532
     24          1           0        5.922439   -0.080426   -1.235687
     25          1           0        6.001164   -0.709985    0.438977
     26          1           0        5.914647    1.068030    0.124119
     27          1           0        3.721434    2.466395   -0.700463
     28          1           0        2.295887    1.666087   -1.458935
     29          1           0        3.941001    1.457830   -2.154579
     30          1           0        4.137850   -0.826488   -2.522624
     31          1           0        2.502997   -1.341510   -1.977997
     32          1           0        3.962692   -2.206020   -1.377401
 ---------------------------------------------------------------------
                    Distance matrix (angstroms):
                    1          2          3          4          5
     1  Li   0.000000
     2  Zn   2.483304   0.000000
     3  C    3.170001   1.980000   0.000000
     4  C    3.462272   3.013807   1.404093   0.000000
     5  C    4.642432   4.307461   2.433597   1.399087   0.000000
     6  C    5.405972   4.793565   2.818084   2.429195   1.402349
     7  C    5.217887   4.217202   2.437099   2.805534   2.434336
     8  C    4.199008   2.878002   1.401001   2.420328   2.799158
     9  C    6.380589   5.298725   3.720787   4.208643   3.715036
    10  C    7.487424   6.587693   4.863585   5.053080   4.208629
    11  C    7.619768   6.967160   5.063482   4.857280   3.715138
    12  C    6.686822   6.196351   4.221997   3.717274   2.440406
    13  C    3.212591   2.002253   2.850108   3.097521   4.434819
    14  C    4.483234   1.999960   2.828662   3.974380   5.022451
    15  C    3.182058   1.980000   3.960000   4.902590   6.247146
    16  Li   3.474354   2.485897   3.171688   4.456675   5.359818
    17  H    3.211841   3.168025   2.164081   1.079556   2.140092
    18  H    5.207297   5.160425   3.408266   2.146981   1.083476
    19  H    4.491672   2.906225   2.145961   3.396913   3.881395
    20  H    6.601818   5.338037   4.080737   4.854201   4.597281
    21  H    8.404231   7.450461   5.825817   6.109310   5.291127
    22  H    8.612830   8.039031   6.120314   5.821431   4.590247
    23  H    7.119308   6.840493   4.869687   4.082290   2.688947
    24  H    3.937575   2.648775   3.849675   4.191111   5.505626
    25  H    2.778947   2.571376   3.230868   3.123445   4.445355
    26  H    4.011641   2.622502   2.767545   2.780878   3.940789
    27  H    5.009128   2.625298   2.673071   3.635819   4.481097
    28  H    4.939987   2.571412   3.338729   4.646502   5.579797
    29  H    5.015291   2.634760   3.768636   4.764882   5.877952
    30  H    4.127666   2.657204   4.553210   5.440849   6.786306
    31  H    3.680817   2.544852   4.422982   5.537562   6.807154
    32  H    2.778638   2.551411   4.430500   5.160924   6.534940
                    6          7          8          9         10
     6  C    0.000000
     7  C    1.414605   0.000000
     8  C    2.434162   1.401846   0.000000
     9  C    2.437489   1.403180   2.436875   0.000000
    10  C    2.806376   2.426514   3.711474   1.397387   0.000000
    11  C    2.428223   2.804115   4.205926   2.423129   1.397769
    12  C    1.403962   2.435948   3.714045   2.804734   2.424324
    13  C    5.332647   5.197333   4.103762   6.456809   7.592801
    14  C    5.199212   4.385155   3.125550   5.191104   6.502252
    15  C    6.771687   6.121351   4.737487   7.081632   8.425066
    16  Li   5.276613   4.232371   3.016706   4.779524   6.124752
    17  H    3.398505   3.884836   3.404832   5.287828   6.102323
    18  H    2.164652   3.421979   3.882505   4.597856   4.855560
    19  H    3.418190   2.159213   1.082347   2.674691   4.066392
    20  H    3.425396   2.166808   2.684280   1.083779   2.146268
    21  H    3.888886   3.406546   4.585597   2.152063   1.082516
    22  H    3.408317   3.886275   5.288089   3.401731   2.151657
    23  H    2.167010   3.423873   4.596993   3.887872   3.399684
    24  H    6.367037   6.153162   4.999996   7.348932   8.523806
    25  H    5.531196   5.596882   4.605407   6.931929   7.995222
    26  H    4.838917   4.838489   3.937474   6.101967   7.137572
    27  H    4.585269   3.868222   2.838993   4.673835   5.884812
    28  H    5.513238   4.461910   3.219968   5.006636   6.364124
    29  H    6.174575   5.444675   4.212385   6.256596   7.544011
    30  H    7.340367   6.709154   5.338770   7.662570   9.002027
    31  H    7.147806   6.318231   4.924016   7.106549   8.485306
    32  H    7.207919   6.702065   5.366610   7.745787   9.049088
                   11         12         13         14         15
    11  C    0.000000
    12  C    1.398382   0.000000
    13  C    7.685602   6.673451   0.000000
    14  C    7.070373   6.513310   2.814596   0.000000
    15  C    8.904189   8.173437   2.781315   2.799849   0.000000
    16  Li   6.880316   6.523423   4.487887   3.219156   3.184425
    17  H    5.809287   4.577676   2.686473   4.343317   4.819784
    18  H    4.078964   2.686628   4.983922   5.945640   7.034522
    19  H    4.845185   4.591361   4.459799   2.826317   4.486417
    20  H    3.399211   3.888402   6.711122   5.036119   6.941014
    21  H    2.152983   3.403882   8.553215   7.239485   9.215172
    22  H    1.082169   2.153418   8.699095   8.128480   9.981713
    23  H    2.146661   1.083263   7.077632   7.266528   8.815421
    24  H    8.678202   7.703019   1.108779   3.026343   2.655715
    25  H    7.950862   6.828552   1.109409   3.836787   3.259792
    26  H    7.138137   6.103505   1.109576   2.911990   3.733167
    27  H    6.373109   5.819012   3.051651   1.109764   3.805242
    28  H    7.132011   6.772329   3.833121   1.109164   3.149287
    29  H    8.080420   7.481084   2.882465   1.109137   2.742645
    30  H    9.477015   8.736428   2.859769   2.817772   1.109297
    31  H    9.113588   8.525502   3.798047   3.109999   1.109314
    32  H    9.426690   8.601650   3.014549   3.800839   1.109447
                   16         17         18         19         20
    16  Li   0.000000
    17  H    4.988576   0.000000
    18  H    6.360075   2.448104   0.000000
    19  H    2.373976   4.295992   4.964660   0.000000
    20  H    4.425050   5.920069   5.551766   2.464908   0.000000
    21  H    6.743456   7.166871   5.921756   4.757874   2.465835
    22  H    7.930051   6.721955   4.772546   5.910426   4.288011
    23  H    7.384027   4.757712   2.479318   5.546484   4.971448
    24  H    5.027739   3.759424   6.035059   5.204282   7.511938
    25  H    4.941120   2.395055   4.822216   5.087501   7.284243
    26  H    5.015038   2.455302   4.433050   4.435242   6.454087
    27  H    3.902850   4.114686   5.376835   2.764084   4.644798
    28  H    2.794831   5.160976   6.582519   2.556947   4.626578
    29  H    4.051112   4.947164   6.721289   3.929396   6.088897
    30  H    4.075717   5.300302   7.541955   5.082144   7.509857
    31  H    2.745280   5.610327   7.676702   4.449179   6.810540
    32  H    3.767332   4.892331   7.217380   5.242517   7.686161
                   21         22         23         24         25
    21  H    0.000000
    22  H    2.476101   0.000000
    23  H    4.289659   2.467440   0.000000
    24  H    9.449354   9.695397   8.117280   0.000000
    25  H    9.000600   8.931070   7.109890   1.790821   0.000000
    26  H    8.111877   8.112973   6.457526   1.779911   1.807750
    27  H    6.642839   7.398068   6.548380   3.408399   4.072455
    28  H    6.975068   8.186105   7.633992   4.031380   4.793419
    29  H    8.271414   9.125020   8.179417   2.671459   3.958564
    30  H    9.785996  10.550881   9.360883   2.323268   3.500941
    31  H    9.182222  10.193503   9.258001   3.719401   4.298577
    32  H    9.882943  10.489987   9.159099   2.894623   3.113313
                   26         27         28         29         30
    26  H    0.000000
    27  H    2.728652   0.000000
    28  H    3.994891   1.802209   0.000000
    29  H    3.039685   1.783217   1.798246   0.000000
    30  H    3.708295   3.786390   3.276765   2.322137   0.000000
    31  H    4.675910   4.197239   3.059077   3.152038   1.798503
    32  H    4.096840   4.727358   4.216408   3.745434   1.801478
                   31         32
    31  H    0.000000
    32  H    1.799668   0.000000
 Stoichiometry    C13H16Li2Zn
 Framework group  C1[X(C13H16Li2Zn)]
 Deg. of freedom    90
 Full point group                 C1      NOp   1
 Largest Abelian subgroup         C1      NOp   1
 Largest concise Abelian subgroup C1      NOp   1
                         Standard orientation:                         
 ---------------------------------------------------------------------
 Center     Atomic      Atomic             Coordinates (Angstroms)
 Number     Number       Type             X           Y           Z
 ---------------------------------------------------------------------
      1          3           0       -2.340976    1.188323   -2.303891
      2         30           0       -2.157845   -0.135563   -0.210904
      3          6           0       -0.242164    0.348057   -0.081763
      4          6           0        0.258547    1.659744   -0.066131
      5          6           0        1.637215    1.892769   -0.016989
      6          6           0        2.535597    0.816096   -0.000631
      7          6           0        2.039033   -0.508132   -0.031468
      8          6           0        0.655097   -0.727871   -0.071534
      9          6           0        2.934626   -1.588329   -0.030096
     10          6           0        4.312222   -1.356308    0.002909
     11          6           0        4.804395   -0.048473    0.035952
     12          6           0        3.921757    1.036155    0.034614
     13          6           0       -2.684540    1.459516    0.878744
     14          6           0       -2.020776   -1.211102    1.469651
     15          6           0       -4.073526   -0.619182   -0.340045
     16          3           0       -1.554210   -2.118236   -1.583608
     17          1           0       -0.411645    2.505418   -0.099608
     18          1           0        2.000280    2.913511   -0.003205
     19          1           0        0.265175   -1.736917   -0.107059
     20          1           0        2.570251   -2.608654   -0.057378
     21          1           0        4.999972   -2.192272    0.001136
     22          1           0        5.872410    0.124285    0.060205
     23          1           0        4.320952    2.042938    0.056807
     24          1           0       -3.652237    1.337041    1.405958
     25          1           0       -2.781998    2.326021    0.192845
     26          1           0       -1.926134    1.693496    1.654135
     27          1           0       -1.166269   -0.888974    2.100229
     28          1           0       -1.872782   -2.273824    1.188645
     29          1           0       -2.931668   -1.140426    2.098513
     30          1           0       -4.638110   -0.612242    0.614803
     31          1           0       -4.132832   -1.638908   -0.772735
     32          1           0       -4.559350    0.088483   -1.042938
 ---------------------------------------------------------------------
 Rotational constants (GHZ):      1.2156340      0.2604089      0.2367276
 Leave Link  202 at Sun Oct  3 03:39:00 2021, MaxMem= 1342177280 cpu:       0.1
 (Enter /sw/target/amd/app/gaussian/Gaussian09RevA.02_gcc-4.9.2/g09/l301.exe)
 Standard basis: 6-31G(d) (6D, 7F)
 Ernie: Thresh=  0.10000D-02 Tol=  0.10000D-05 Strict=F.
 There are   293 symmetry adapted basis functions of A   symmetry.
 Integral buffers will be    131072 words long.
 Raffenetti 2 integral format.
 Two-electron integral symmetry is turned on.
   293 basis functions,   588 primitive gaussians,   296 cartesian basis functions
    65 alpha electrons       65 beta electrons
       nuclear repulsion energy      1268.1997963754 Hartrees.
 IExCor=  402 DFT=T Ex+Corr=B3LYP ExCW=0 ScaHFX=  0.200000
 ScaDFX=  0.800000  0.720000  1.000000  0.810000 ScalE2=  1.000000  1.000000
 IRadAn=      0 IRanWt=     -1 IRanGd=            0 ICorTp=0
 NAtoms=   32 NActive=   32 NUniq=   32 SFac= 7.50D-01 NAtFMM=   80 NAOKFM=F Big=F
 Leave Link  301 at Sun Oct  3 03:39:01 2021, MaxMem= 1342177280 cpu:       0.1
 (Enter /sw/target/amd/app/gaussian/Gaussian09RevA.02_gcc-4.9.2/g09/l302.exe)
 NPDir=0 NMtPBC=     1 NCelOv=     1 NCel=       1 NClECP=     1 NCelD=      1
         NCelK=      1 NCelE2=     1 NClLst=     1 CellRange=     0.0.
 One-electron integrals computed using PRISM.
 NBasis=   293 RedAO= T  NBF=   293
 NBsUse=   293 1.00D-06 NBFU=   293
 Precomputing XC quadrature grid using
 IXCGrd= 2 IRadAn=           0 IRanWt=          -1 IRanGd=           0 AccXCQ= 1.00D-10.
 NRdTot=    2057 NPtTot=      265494 NUsed=      280322 NTot=      280354
 NSgBfM=   295   295   295   295   295 NAtAll=    32    32.
 Leave Link  302 at Sun Oct  3 03:39:08 2021, MaxMem= 1342177280 cpu:       3.3
 (Enter /sw/target/amd/app/gaussian/Gaussian09RevA.02_gcc-4.9.2/g09/l303.exe)
 DipDrv:  MaxL=1.
 Leave Link  303 at Sun Oct  3 03:39:09 2021, MaxMem= 1342177280 cpu:       0.4
 (Enter /sw/target/amd/app/gaussian/Gaussian09RevA.02_gcc-4.9.2/g09/l401.exe)
 Harris functional with IExCor=  402 diagonalized for initial guess.
 ExpMin= 3.60D-02 ExpMax= 8.24D+04 ExpMxC= 1.24D+04 IAcc=3 IRadAn=         0 AccDes= 0.00D+00
 HarFok:  IExCor=  402 AccDes= 0.00D+00 IRadAn=         0 IDoV= 1
 ScaDFX=  1.000000  1.000000  1.000000  1.000000
 FoFCou: FMM=F IPFlag=           0 FMFlag=      100000 FMFlg1=           0
         NFxFlg=           0 DoJE=T BraDBF=F KetDBF=T FulRan=T
         Omega=  0.000000  0.000000  1.000000  0.000000  0.000000 ICntrl=     500 IOpCl=  0
         NMat0=    1 NMatS0=    1 NMatT0=    0 NMatD0=    1 NMtDS0=    0 NMtDT0=    0
         I1Cent=           4 NGrid=           0.
 Petite list used in FoFCou.
 Harris En= -2299.34465803388    
 Initial guess orbital symmetries:
       Occupied  (A) (A) (A) (A) (A) (A) (A) (A) (A) (A) (A) (A)
                 (A) (A) (A) (A) (A) (A) (A) (A) (A) (A) (A) (A)
                 (A) (A) (A) (A) (A) (A) (A) (A) (A) (A) (A) (A)
                 (A) (A) (A) (A) (A) (A) (A) (A) (A) (A) (A) (A)
                 (A) (A) (A) (A) (A) (A) (A) (A) (A) (A) (A) (A)
                 (A) (A) (A) (A) (A)
       Virtual   (A) (A) (A) (A) (A) (A) (A) (A) (A) (A) (A) (A)
                 (A) (A) (A) (A) (A) (A) (A) (A) (A) (A) (A) (A)
                 (A) (A) (A) (A) (A) (A) (A) (A) (A) (A) (A) (A)
                 (A) (A) (A) (A) (A) (A) (A) (A) (A) (A) (A) (A)
                 (A) (A) (A) (A) (A) (A) (A) (A) (A) (A) (A) (A)
                 (A) (A) (A) (A) (A) (A) (A) (A) (A) (A) (A) (A)
                 (A) (A) (A) (A) (A) (A) (A) (A) (A) (A) (A) (A)
                 (A) (A) (A) (A) (A) (A) (A) (A) (A) (A) (A) (A)
                 (A) (A) (A) (A) (A) (A) (A) (A) (A) (A) (A) (A)
                 (A) (A) (A) (A) (A) (A) (A) (A) (A) (A) (A) (A)
                 (A) (A) (A) (A) (A) (A) (A) (A) (A) (A) (A) (A)
                 (A) (A) (A) (A) (A) (A) (A) (A) (A) (A) (A) (A)
                 (A) (A) (A) (A) (A) (A) (A) (A) (A) (A) (A) (A)
                 (A) (A) (A) (A) (A) (A) (A) (A) (A) (A) (A) (A)
                 (A) (A) (A) (A) (A) (A) (A) (A) (A) (A) (A) (A)
                 (A) (A) (A) (A) (A) (A) (A) (A) (A) (A) (A) (A)
                 (A) (A) (A) (A) (A) (A) (A) (A) (A) (A) (A) (A)
                 (A) (A) (A) (A) (A) (A) (A) (A) (A) (A) (A) (A)
                 (A) (A) (A) (A) (A) (A) (A) (A) (A) (A) (A) (A)
 The electronic state of the initial guess is 1-A.
 Leave Link  401 at Sun Oct  3 03:39:52 2021, MaxMem= 1342177280 cpu:      28.5
 (Enter /sw/target/amd/app/gaussian/Gaussian09RevA.02_gcc-4.9.2/g09/l502.exe)
 Closed shell SCF:
 Requested convergence on RMS density matrix=1.00D-08 within  64 cycles.
 Requested convergence on MAX density matrix=1.00D-06.
 Requested convergence on             energy=1.00D-06.
 No special actions if energy rises.
 Using DIIS extrapolation, IDIIS=  1040.
 Integral symmetry usage will be decided dynamically.
       280021 words used for storage of precomputed grid.
 Keep R1 ints in memory in canonical form, NReq=979738264.
 IEnd=      552416 IEndB=      552416 NGot=  1342177280 MDV=   375630027
 LenX=   375630027 LenY=   375541970
 Symmetry not used in FoFDir.
 MinBra= 0 MaxBra= 3 Meth= 1.
 IRaf=       0 NMat=   1 IRICut=       1 DoRegI=T DoRafI=F ISym2E= 0 JSym2E=0.

 Cycle   1  Pass 1  IDiag  1:
 E= -2298.00656020246    
 DIIS: error= 1.17D-01 at cycle   1 NSaved=   1.
 NSaved= 1 IEnMin= 1 EnMin= -2298.00656020246     IErMin= 1 ErrMin= 1.17D-01
 ErrMax= 1.17D-01 EMaxC= 1.00D-01 BMatC= 1.35D+00 BMatP= 1.35D+00
 IDIUse=3 WtCom= 0.00D+00 WtEn= 1.00D+00
 Coeff-Com:  0.100D+01
 Coeff-En:   0.100D+01
 Coeff:      0.100D+01
 Gap=     0.249 Goal=   None    Shift=    0.000
 GapD=    0.249 DampG=1.000 DampE=0.125 DampFc=0.1250 IDamp=-1.
 Damping current iteration by 1.25D-01
 RMSDP=1.43D-02 MaxDP=1.50D+00              OVMax= 8.80D-01

 Cycle   2  Pass 1  IDiag  1:
 E= -2298.27321862908     Delta-E=       -0.266658426616 Rises=F Damp=T
 DIIS: error= 7.79D-02 at cycle   2 NSaved=   2.
 NSaved= 2 IEnMin= 2 EnMin= -2298.27321862908     IErMin= 2 ErrMin= 7.79D-02
 ErrMax= 7.79D-02 EMaxC= 1.00D-01 BMatC= 6.06D-01 BMatP= 1.35D+00
 IDIUse=3 WtCom= 2.21D-01 WtEn= 7.79D-01
 Coeff-Com: -0.173D+01 0.273D+01
 Coeff-En:   0.000D+00 0.100D+01
 Coeff:     -0.381D+00 0.138D+01
 Gap=    -0.072 Goal=   None    Shift=    0.000
 RMSDP=5.73D-03 MaxDP=1.56D-01 DE=-2.67D-01 OVMax= 9.72D-01

 Cycle   3  Pass 1  IDiag  1:
 E= -2298.50639728324     Delta-E=       -0.233178654167 Rises=F Damp=F
 DIIS: error= 1.27D-01 at cycle   3 NSaved=   3.
 NSaved= 3 IEnMin= 3 EnMin= -2298.50639728324     IErMin= 2 ErrMin= 7.79D-02
 ErrMax= 1.27D-01 EMaxC= 1.00D-01 BMatC= 9.14D-01 BMatP= 6.06D-01
 IDIUse=2 WtCom= 0.00D+00 WtEn= 1.00D+00
 EnCoef did   100 forward-backward iterations
 Coeff-En:   0.351D+00 0.286D-02 0.646D+00
 Coeff:      0.351D+00 0.286D-02 0.646D+00
 Gap=     0.013 Goal=   None    Shift=    0.000
 RMSDP=5.52D-03 MaxDP=2.09D-01 DE=-2.33D-01 OVMax= 4.53D-01

 Cycle   4  Pass 1  IDiag  1:
 E= -2298.22572893056     Delta-E=        0.280668352681 Rises=F Damp=F
 DIIS: error= 1.50D-01 at cycle   4 NSaved=   4.
 NSaved= 4 IEnMin= 3 EnMin= -2298.50639728324     IErMin= 2 ErrMin= 7.79D-02
 ErrMax= 1.50D-01 EMaxC= 1.00D-01 BMatC= 1.43D+00 BMatP= 6.06D-01
 IDIUse=2 WtCom= 0.00D+00 WtEn= 1.00D+00
 EnCoef did   100 forward-backward iterations
 Coeff-En:   0.180D+00 0.346D-02 0.539D+00 0.278D+00
 Coeff:      0.180D+00 0.346D-02 0.539D+00 0.278D+00
 Gap=     0.090 Goal=   None    Shift=    0.000
 RMSDP=4.47D-03 MaxDP=1.59D-01 DE= 2.81D-01 OVMax= 6.12D-01

 Cycle   5  Pass 1  IDiag  1:
 E= -2298.91275653099     Delta-E=       -0.687027600433 Rises=F Damp=F
 DIIS: error= 1.09D-02 at cycle   5 NSaved=   5.
 NSaved= 5 IEnMin= 5 EnMin= -2298.91275653099     IErMin= 5 ErrMin= 1.09D-02
 ErrMax= 1.09D-02 EMaxC= 1.00D-01 BMatC= 9.08D-02 BMatP= 6.06D-01
 IDIUse=3 WtCom= 8.91D-01 WtEn= 1.09D-01
 EnCoef did     3 forward-backward iterations
 Coeff-Com: -0.556D+00 0.754D+00 0.884D-01 0.122D+00 0.592D+00
 Coeff-En:   0.000D+00 0.000D+00 0.927D-01 0.151D+00 0.756D+00
 Coeff:     -0.495D+00 0.672D+00 0.889D-01 0.125D+00 0.610D+00
 Gap=     0.070 Goal=   None    Shift=    0.000
 RMSDP=1.10D-03 MaxDP=4.80D-02 DE=-6.87D-01 OVMax= 1.45D-01

 Cycle   6  Pass 1  IDiag  1:
 E= -2299.00550061010     Delta-E=       -0.092744079103 Rises=F Damp=F
 DIIS: error= 6.95D-03 at cycle   6 NSaved=   6.
 NSaved= 6 IEnMin= 6 EnMin= -2299.00550061010     IErMin= 6 ErrMin= 6.95D-03
 ErrMax= 6.95D-03 EMaxC= 1.00D-01 BMatC= 1.37D-02 BMatP= 9.08D-02
 IDIUse=3 WtCom= 9.30D-01 WtEn= 6.95D-02
 Coeff-Com: -0.561D+00 0.680D+00-0.613D-01 0.594D-01 0.374D+00 0.509D+00
 Coeff-En:   0.000D+00 0.000D+00 0.000D+00 0.000D+00 0.000D+00 0.100D+01
 Coeff:     -0.522D+00 0.632D+00-0.570D-01 0.552D-01 0.348D+00 0.543D+00
 Gap=     0.068 Goal=   None    Shift=    0.000
 RMSDP=5.40D-04 MaxDP=2.11D-02 DE=-9.27D-02 OVMax= 6.29D-02

 Cycle   7  Pass 1  IDiag  1:
 E= -2299.01580761335     Delta-E=       -0.010307003257 Rises=F Damp=F
 DIIS: error= 2.94D-03 at cycle   7 NSaved=   7.
 NSaved= 7 IEnMin= 7 EnMin= -2299.01580761335     IErMin= 7 ErrMin= 2.94D-03
 ErrMax= 2.94D-03 EMaxC= 1.00D-01 BMatC= 6.07D-03 BMatP= 1.37D-02
 IDIUse=3 WtCom= 9.71D-01 WtEn= 2.94D-02
 Coeff-Com: -0.319D+00 0.395D+00-0.388D-01 0.323D-01 0.895D-01 0.345D+00
 Coeff-Com:  0.496D+00
 Coeff-En:   0.000D+00 0.000D+00 0.000D+00 0.000D+00 0.000D+00 0.141D+00
 Coeff-En:   0.859D+00
 Coeff:     -0.309D+00 0.383D+00-0.377D-01 0.313D-01 0.869D-01 0.339D+00
 Coeff:      0.507D+00
 Gap=     0.062 Goal=   None    Shift=    0.000
 RMSDP=4.92D-04 MaxDP=1.56D-02 DE=-1.03D-02 OVMax= 9.35D-02

 Cycle   8  Pass 1  IDiag  1:
 E= -2299.02625046307     Delta-E=       -0.010442849717 Rises=F Damp=F
 DIIS: error= 1.15D-03 at cycle   8 NSaved=   8.
 NSaved= 8 IEnMin= 8 EnMin= -2299.02625046307     IErMin= 8 ErrMin= 1.15D-03
 ErrMax= 1.15D-03 EMaxC= 1.00D-01 BMatC= 5.46D-04 BMatP= 6.07D-03
 IDIUse=3 WtCom= 9.89D-01 WtEn= 1.15D-02
 Coeff-Com: -0.177D-01 0.230D-01 0.422D-02 0.200D-02-0.389D-01-0.128D+00
 Coeff-Com:  0.120D+00 0.104D+01
 Coeff-En:   0.000D+00 0.000D+00 0.000D+00 0.000D+00 0.000D+00 0.000D+00
 Coeff-En:   0.000D+00 0.100D+01
 Coeff:     -0.175D-01 0.227D-01 0.417D-02 0.197D-02-0.385D-01-0.127D+00
 Coeff:      0.119D+00 0.103D+01
 Gap=     0.060 Goal=   None    Shift=    0.000
 RMSDP=3.49D-04 MaxDP=1.48D-02 DE=-1.04D-02 OVMax= 6.54D-02

 Cycle   9  Pass 1  IDiag  1:
 E= -2299.02691177987     Delta-E=       -0.000661316796 Rises=F Damp=F
 DIIS: error= 7.72D-04 at cycle   9 NSaved=   9.
 NSaved= 9 IEnMin= 9 EnMin= -2299.02691177987     IErMin= 9 ErrMin= 7.72D-04
 ErrMax= 7.72D-04 EMaxC= 1.00D-01 BMatC= 4.33D-04 BMatP= 5.46D-04
 IDIUse=3 WtCom= 9.92D-01 WtEn= 7.72D-03
 Coeff-Com:  0.919D-02-0.123D-01 0.449D-02-0.933D-03-0.825D-02-0.870D-01
 Coeff-Com:  0.475D-01 0.613D+00 0.434D+00
 Coeff-En:   0.000D+00 0.000D+00 0.000D+00 0.000D+00 0.000D+00 0.000D+00
 Coeff-En:   0.000D+00 0.327D+00 0.673D+00
 Coeff:      0.912D-02-0.122D-01 0.446D-02-0.926D-03-0.819D-02-0.863D-01
 Coeff:      0.471D-01 0.611D+00 0.436D+00
 Gap=     0.063 Goal=   None    Shift=    0.000
 RMSDP=8.79D-05 MaxDP=2.64D-03 DE=-6.61D-04 OVMax= 9.75D-03

 Cycle  10  Pass 1  IDiag  1:
 E= -2299.02735471056     Delta-E=       -0.000442930692 Rises=F Damp=F
 DIIS: error= 4.60D-04 at cycle  10 NSaved=  10.
 NSaved=10 IEnMin=10 EnMin= -2299.02735471056     IErMin=10 ErrMin= 4.60D-04
 ErrMax= 4.60D-04 EMaxC= 1.00D-01 BMatC= 9.63D-05 BMatP= 4.33D-04
 IDIUse=3 WtCom= 9.95D-01 WtEn= 4.60D-03
 Coeff-Com: -0.211D-02 0.202D-02-0.263D-03-0.806D-03 0.122D-01-0.339D-02
 Coeff-Com:  0.431D-01 0.152D+00 0.214D+00 0.584D+00
 Coeff-En:   0.000D+00 0.000D+00 0.000D+00 0.000D+00 0.000D+00 0.000D+00
 Coeff-En:   0.000D+00 0.605D-02 0.000D+00 0.994D+00
 Coeff:     -0.210D-02 0.201D-02-0.262D-03-0.802D-03 0.122D-01-0.337D-02
 Coeff:      0.429D-01 0.151D+00 0.213D+00 0.585D+00
 Gap=     0.064 Goal=   None    Shift=    0.000
 RMSDP=5.62D-05 MaxDP=2.37D-03 DE=-4.43D-04 OVMax= 8.88D-03

 Cycle  11  Pass 1  IDiag  1:
 E= -2299.02748693489     Delta-E=       -0.000132224330 Rises=F Damp=F
 DIIS: error= 1.88D-04 at cycle  11 NSaved=  11.
 NSaved=11 IEnMin=11 EnMin= -2299.02748693489     IErMin=11 ErrMin= 1.88D-04
 ErrMax= 1.88D-04 EMaxC= 1.00D-01 BMatC= 7.27D-06 BMatP= 9.63D-05
 IDIUse=3 WtCom= 9.98D-01 WtEn= 1.88D-03
 Coeff-Com: -0.308D-02 0.386D-02-0.639D-03-0.592D-03 0.884D-02 0.123D-01
 Coeff-Com:  0.235D-01-0.627D-02 0.440D-01 0.303D+00 0.615D+00
 Coeff-En:   0.000D+00 0.000D+00 0.000D+00 0.000D+00 0.000D+00 0.000D+00
 Coeff-En:   0.000D+00 0.000D+00 0.000D+00 0.000D+00 0.100D+01
 Coeff:     -0.307D-02 0.386D-02-0.638D-03-0.591D-03 0.883D-02 0.123D-01
 Coeff:      0.235D-01-0.626D-02 0.439D-01 0.303D+00 0.615D+00
 Gap=     0.065 Goal=   None    Shift=    0.000
 RMSDP=1.63D-05 MaxDP=5.39D-04 DE=-1.32D-04 OVMax= 1.92D-03

 Cycle  12  Pass 1  IDiag  1:
 E= -2299.02749488665     Delta-E=       -0.000007951756 Rises=F Damp=F
 DIIS: error= 8.03D-05 at cycle  12 NSaved=  12.
 NSaved=12 IEnMin=12 EnMin= -2299.02749488665     IErMin=12 ErrMin= 8.03D-05
 ErrMax= 8.03D-05 EMaxC= 1.00D-01 BMatC= 1.06D-06 BMatP= 7.27D-06
 IDIUse=1 WtCom= 1.00D+00 WtEn= 0.00D+00
 Coeff-Com: -0.680D-03 0.949D-03 0.629D-04-0.225D-03 0.221D-02 0.588D-02
 Coeff-Com:  0.406D-02-0.342D-01-0.253D-01 0.183D-01 0.331D+00 0.698D+00
 Coeff:     -0.680D-03 0.949D-03 0.629D-04-0.225D-03 0.221D-02 0.588D-02
 Coeff:      0.406D-02-0.342D-01-0.253D-01 0.183D-01 0.331D+00 0.698D+00
 Gap=     0.065 Goal=   None    Shift=    0.000
 RMSDP=8.56D-06 MaxDP=2.72D-04 DE=-7.95D-06 OVMax= 1.55D-03

 Cycle  13  Pass 1  IDiag  1:
 E= -2299.02749608727     Delta-E=       -0.000001200623 Rises=F Damp=F
 DIIS: error= 3.43D-05 at cycle  13 NSaved=  13.
 NSaved=13 IEnMin=13 EnMin= -2299.02749608727     IErMin=13 ErrMin= 3.43D-05
 ErrMax= 3.43D-05 EMaxC= 1.00D-01 BMatC= 3.32D-07 BMatP= 1.06D-06
 IDIUse=1 WtCom= 1.00D+00 WtEn= 0.00D+00
 Coeff-Com:  0.727D-04-0.721D-04 0.190D-03-0.798D-04 0.671D-03 0.254D-02
 Coeff-Com:  0.394D-03-0.228D-01-0.230D-01-0.268D-01 0.143D+00 0.455D+00
 Coeff-Com:  0.471D+00
 Coeff:      0.727D-04-0.721D-04 0.190D-03-0.798D-04 0.671D-03 0.254D-02
 Coeff:      0.394D-03-0.228D-01-0.230D-01-0.268D-01 0.143D+00 0.455D+00
 Coeff:      0.471D+00
 Gap=     0.065 Goal=   None    Shift=    0.000
 RMSDP=3.00D-06 MaxDP=8.39D-05 DE=-1.20D-06 OVMax= 4.06D-04

 Cycle  14  Pass 1  IDiag  1:
 E= -2299.02749640836     Delta-E=       -0.000000321090 Rises=F Damp=F
 DIIS: error= 2.17D-05 at cycle  14 NSaved=  14.
 NSaved=14 IEnMin=14 EnMin= -2299.02749640836     IErMin=14 ErrMin= 2.17D-05
 ErrMax= 2.17D-05 EMaxC= 1.00D-01 BMatC= 8.52D-08 BMatP= 3.32D-07
 IDIUse=1 WtCom= 1.00D+00 WtEn= 0.00D+00
 Coeff-Com:  0.135D-03-0.187D-03 0.112D-03-0.199D-04 0.138D-03 0.655D-03
 Coeff-Com:  0.809D-04-0.761D-02-0.991D-02-0.228D-01 0.210D-01 0.132D+00
 Coeff-Com:  0.263D+00 0.624D+00
 Coeff:      0.135D-03-0.187D-03 0.112D-03-0.199D-04 0.138D-03 0.655D-03
 Coeff:      0.809D-04-0.761D-02-0.991D-02-0.228D-01 0.210D-01 0.132D+00
 Coeff:      0.263D+00 0.624D+00
 Gap=     0.065 Goal=   None    Shift=    0.000
 RMSDP=1.49D-06 MaxDP=5.86D-05 DE=-3.21D-07 OVMax= 1.69D-04

 Cycle  15  Pass 1  IDiag  1:
 E= -2299.02749650676     Delta-E=       -0.000000098402 Rises=F Damp=F
 DIIS: error= 8.13D-06 at cycle  15 NSaved=  15.
 NSaved=15 IEnMin=15 EnMin= -2299.02749650676     IErMin=15 ErrMin= 8.13D-06
 ErrMax= 8.13D-06 EMaxC= 1.00D-01 BMatC= 1.41D-08 BMatP= 8.52D-08
 IDIUse=1 WtCom= 1.00D+00 WtEn= 0.00D+00
 Coeff-Com:  0.550D-05-0.173D-04 0.243D-04-0.624D-05 0.377D-05-0.607D-05
 Coeff-Com:  0.221D-03 0.140D-03-0.144D-02-0.989D-02-0.170D-01-0.158D-01
 Coeff-Com:  0.602D-01 0.364D+00 0.620D+00
 Coeff:      0.550D-05-0.173D-04 0.243D-04-0.624D-05 0.377D-05-0.607D-05
 Coeff:      0.221D-03 0.140D-03-0.144D-02-0.989D-02-0.170D-01-0.158D-01
 Coeff:      0.602D-01 0.364D+00 0.620D+00
 Gap=     0.065 Goal=   None    Shift=    0.000
 RMSDP=8.68D-07 MaxDP=3.86D-05 DE=-9.84D-08 OVMax= 9.87D-05

 Cycle  16  Pass 1  IDiag  1:
 E= -2299.02749652694     Delta-E=       -0.000000020184 Rises=F Damp=F
 DIIS: error= 8.02D-07 at cycle  16 NSaved=  16.
 NSaved=16 IEnMin=16 EnMin= -2299.02749652694     IErMin=16 ErrMin= 8.02D-07
 ErrMax= 8.02D-07 EMaxC= 1.00D-01 BMatC= 3.87D-10 BMatP= 1.41D-08
 IDIUse=1 WtCom= 1.00D+00 WtEn= 0.00D+00
 Coeff-Com: -0.256D-04 0.295D-04-0.822D-07-0.360D-05-0.548D-05-0.335D-04
 Coeff-Com:  0.131D-03 0.685D-03 0.113D-03-0.359D-02-0.107D-01-0.205D-01
 Coeff-Com:  0.127D-01 0.141D+00 0.340D+00 0.540D+00
 Coeff:     -0.256D-04 0.295D-04-0.822D-07-0.360D-05-0.548D-05-0.335D-04
 Coeff:      0.131D-03 0.685D-03 0.113D-03-0.359D-02-0.107D-01-0.205D-01
 Coeff:      0.127D-01 0.141D+00 0.340D+00 0.540D+00
 Gap=     0.065 Goal=   None    Shift=    0.000
 RMSDP=2.00D-07 MaxDP=9.28D-06 DE=-2.02D-08 OVMax= 2.00D-05

 Cycle  17  Pass 1  IDiag  1:
 E= -2299.02749652740     Delta-E=       -0.000000000457 Rises=F Damp=F
 DIIS: error= 8.40D-07 at cycle  17 NSaved=  17.
 NSaved=17 IEnMin=17 EnMin= -2299.02749652740     IErMin=16 ErrMin= 8.02D-07
 ErrMax= 8.40D-07 EMaxC= 1.00D-01 BMatC= 1.35D-10 BMatP= 3.87D-10
 IDIUse=1 WtCom= 1.00D+00 WtEn= 0.00D+00
 Coeff-Com:  0.159D-05-0.531D-06-0.205D-05-0.715D-06-0.190D-04-0.310D-04
 Coeff-Com:  0.741D-05 0.335D-03 0.348D-03-0.327D-03-0.263D-02-0.837D-02
 Coeff-Com: -0.444D-03 0.139D-01 0.750D-01 0.278D+00 0.644D+00
 Coeff:      0.159D-05-0.531D-06-0.205D-05-0.715D-06-0.190D-04-0.310D-04
 Coeff:      0.741D-05 0.335D-03 0.348D-03-0.327D-03-0.263D-02-0.837D-02
 Coeff:     -0.444D-03 0.139D-01 0.750D-01 0.278D+00 0.644D+00
 Gap=     0.065 Goal=   None    Shift=    0.000
 RMSDP=8.55D-08 MaxDP=2.35D-06 DE=-4.57D-10 OVMax= 1.81D-05

 Cycle  18  Pass 1  IDiag  1:
 E= -2299.02749652756     Delta-E=       -0.000000000161 Rises=F Damp=F
 DIIS: error= 2.39D-07 at cycle  18 NSaved=  18.
 NSaved=18 IEnMin=18 EnMin= -2299.02749652756     IErMin=18 ErrMin= 2.39D-07
 ErrMax= 2.39D-07 EMaxC= 1.00D-01 BMatC= 1.02D-11 BMatP= 1.35D-10
 IDIUse=1 WtCom= 1.00D+00 WtEn= 0.00D+00
 Coeff-Com:  0.423D-05-0.453D-05-0.198D-05 0.632D-06-0.994D-05-0.133D-04
 Coeff-Com: -0.128D-04 0.122D-03 0.217D-03 0.332D-03-0.709D-04-0.253D-02
 Coeff-Com: -0.188D-02-0.115D-01-0.469D-02 0.653D-01 0.305D+00 0.650D+00
 Coeff:      0.423D-05-0.453D-05-0.198D-05 0.632D-06-0.994D-05-0.133D-04
 Coeff:     -0.128D-04 0.122D-03 0.217D-03 0.332D-03-0.709D-04-0.253D-02
 Coeff:     -0.188D-02-0.115D-01-0.469D-02 0.653D-01 0.305D+00 0.650D+00
 Gap=     0.065 Goal=   None    Shift=    0.000
 RMSDP=2.79D-08 MaxDP=6.78D-07 DE=-1.61D-10 OVMax= 4.48D-06

 Cycle  19  Pass 1  IDiag  1:
 E= -2299.02749652756     Delta-E=        0.000000000000 Rises=F Damp=F
 DIIS: error= 5.12D-08 at cycle  19 NSaved=  19.
 NSaved=19 IEnMin=18 EnMin= -2299.02749652756     IErMin=19 ErrMin= 5.12D-08
 ErrMax= 5.12D-08 EMaxC= 1.00D-01 BMatC= 1.58D-12 BMatP= 1.02D-11
 IDIUse=1 WtCom= 1.00D+00 WtEn= 0.00D+00
 Coeff-Com:  0.247D-05-0.276D-05-0.974D-06 0.410D-06-0.431D-05-0.412D-05
 Coeff-Com: -0.607D-05 0.393D-04 0.896D-04 0.199D-03 0.255D-03-0.621D-03
 Coeff-Com: -0.804D-03-0.813D-02-0.109D-01 0.498D-02 0.908D-01 0.369D+00
 Coeff-Com:  0.555D+00
 Coeff:      0.247D-05-0.276D-05-0.974D-06 0.410D-06-0.431D-05-0.412D-05
 Coeff:     -0.607D-05 0.393D-04 0.896D-04 0.199D-03 0.255D-03-0.621D-03
 Coeff:     -0.804D-03-0.813D-02-0.109D-01 0.498D-02 0.908D-01 0.369D+00
 Coeff:      0.555D+00
 Gap=     0.065 Goal=   None    Shift=    0.000
 RMSDP=9.15D-09 MaxDP=2.65D-07 DE= 0.00D+00 OVMax= 1.22D-06

 SCF Done:  E(RB3LYP) =  -2299.02749653     A.U. after   19 cycles
             Convg  =    0.9152D-08             -V/T =  2.0036
 KE= 2.290854460696D+03 PE=-7.999281658495D+03 EE= 2.141199904897D+03
 Leave Link  502 at Sun Oct  3 04:13:26 2021, MaxMem= 1342177280 cpu:     668.6
 (Enter /sw/target/amd/app/gaussian/Gaussian09RevA.02_gcc-4.9.2/g09/l508.exe)
 QCSCF skips out because SCF is already converged.
 Leave Link  508 at Sun Oct  3 04:13:37 2021, MaxMem= 1342177280 cpu:       0.0
 (Enter /sw/target/amd/app/gaussian/Gaussian09RevA.02_gcc-4.9.2/g09/l601.exe)
 Copying SCF densities to generalized density rwf, IOpCl= 0 IROHF=0.

 **********************************************************************

            Population analysis using the SCF density.

 **********************************************************************

 Orbital symmetries:
       Occupied  (A) (A) (A) (A) (A) (A) (A) (A) (A) (A) (A) (A)
                 (A) (A) (A) (A) (A) (A) (A) (A) (A) (A) (A) (A)
                 (A) (A) (A) (A) (A) (A) (A) (A) (A) (A) (A) (A)
                 (A) (A) (A) (A) (A) (A) (A) (A) (A) (A) (A) (A)
                 (A) (A) (A) (A) (A) (A) (A) (A) (A) (A) (A) (A)
                 (A) (A) (A) (A) (A)
       Virtual   (A) (A) (A) (A) (A) (A) (A) (A) (A) (A) (A) (A)
                 (A) (A) (A) (A) (A) (A) (A) (A) (A) (A) (A) (A)
                 (A) (A) (A) (A) (A) (A) (A) (A) (A) (A) (A) (A)
                 (A) (A) (A) (A) (A) (A) (A) (A) (A) (A) (A) (A)
                 (A) (A) (A) (A) (A) (A) (A) (A) (A) (A) (A) (A)
                 (A) (A) (A) (A) (A) (A) (A) (A) (A) (A) (A) (A)
                 (A) (A) (A) (A) (A) (A) (A) (A) (A) (A) (A) (A)
                 (A) (A) (A) (A) (A) (A) (A) (A) (A) (A) (A) (A)
                 (A) (A) (A) (A) (A) (A) (A) (A) (A) (A) (A) (A)
                 (A) (A) (A) (A) (A) (A) (A) (A) (A) (A) (A) (A)
                 (A) (A) (A) (A) (A) (A) (A) (A) (A) (A) (A) (A)
                 (A) (A) (A) (A) (A) (A) (A) (A) (A) (A) (A) (A)
                 (A) (A) (A) (A) (A) (A) (A) (A) (A) (A) (A) (A)
                 (A) (A) (A) (A) (A) (A) (A) (A) (A) (A) (A) (A)
                 (A) (A) (A) (A) (A) (A) (A) (A) (A) (A) (A) (A)
                 (A) (A) (A) (A) (A) (A) (A) (A) (A) (A) (A) (A)
                 (A) (A) (A) (A) (A) (A) (A) (A) (A) (A) (A) (A)
                 (A) (A) (A) (A) (A) (A) (A) (A) (A) (A) (A) (A)
                 (A) (A) (A) (A) (A) (A) (A) (A) (A) (A) (A) (A)
 The electronic state is 1-A.
 Alpha  occ. eigenvalues -- -347.24473 -42.22302 -37.20849 -37.20514 -37.20410
 Alpha  occ. eigenvalues --  -10.17783 -10.17764 -10.17714 -10.17654 -10.17606
 Alpha  occ. eigenvalues --  -10.17502 -10.17494 -10.16862 -10.16813 -10.16554
 Alpha  occ. eigenvalues --  -10.15366 -10.10086 -10.09837  -4.77989  -3.17218
 Alpha  occ. eigenvalues --   -3.16649  -3.16534  -2.05300  -2.04673  -0.85875
 Alpha  occ. eigenvalues --   -0.79812  -0.75852  -0.72144  -0.69484  -0.64944
 Alpha  occ. eigenvalues --   -0.61413  -0.60709  -0.59794  -0.58460  -0.58398
 Alpha  occ. eigenvalues --   -0.50068  -0.48717  -0.46543  -0.44122  -0.43651
 Alpha  occ. eigenvalues --   -0.43419  -0.42992  -0.42689  -0.42553  -0.41414
 Alpha  occ. eigenvalues --   -0.40490  -0.39113  -0.37578  -0.36611  -0.36500
 Alpha  occ. eigenvalues --   -0.36157  -0.34292  -0.33753  -0.32568  -0.32237
 Alpha  occ. eigenvalues --   -0.31780  -0.30798  -0.30745  -0.30140  -0.26898
 Alpha  occ. eigenvalues --   -0.22998  -0.21337  -0.19515  -0.14391  -0.14320
 Alpha virt. eigenvalues --   -0.07826  -0.06019  -0.02819  -0.02058  -0.00952
 Alpha virt. eigenvalues --    0.00290   0.01400   0.01808   0.02138   0.04344
 Alpha virt. eigenvalues --    0.06109   0.06864   0.08748   0.09279   0.10276
 Alpha virt. eigenvalues --    0.10518   0.11196   0.11822   0.12124   0.12959
 Alpha virt. eigenvalues --    0.14478   0.14539   0.15567   0.16054   0.17240
 Alpha virt. eigenvalues --    0.17928   0.19145   0.19575   0.20931   0.22076
 Alpha virt. eigenvalues --    0.22482   0.22937   0.23482   0.24219   0.24610
 Alpha virt. eigenvalues --    0.25769   0.26536   0.27612   0.27917   0.29736
 Alpha virt. eigenvalues --    0.30836   0.33109   0.33566   0.35185   0.35790
 Alpha virt. eigenvalues --    0.37845   0.40846   0.41958   0.42151   0.43229
 Alpha virt. eigenvalues --    0.44423   0.45169   0.47745   0.48491   0.49414
 Alpha virt. eigenvalues --    0.50297   0.52502   0.52803   0.53355   0.53672
 Alpha virt. eigenvalues --    0.54385   0.55805   0.57639   0.58047   0.58682
 Alpha virt. eigenvalues --    0.59548   0.59959   0.60924   0.61811   0.62525
 Alpha virt. eigenvalues --    0.62625   0.63000   0.63415   0.64302   0.64798
 Alpha virt. eigenvalues --    0.65869   0.66523   0.67157   0.67457   0.67974
 Alpha virt. eigenvalues --    0.68409   0.71275   0.75575   0.78508   0.79678
 Alpha virt. eigenvalues --    0.81313   0.82595   0.82990   0.84168   0.85025
 Alpha virt. eigenvalues --    0.85883   0.85958   0.87145   0.89627   0.90318
 Alpha virt. eigenvalues --    0.90593   0.91176   0.92336   0.92961   0.94592
 Alpha virt. eigenvalues --    0.95950   0.96304   0.96728   0.97914   0.98419
 Alpha virt. eigenvalues --    0.98545   0.99052   1.00643   1.01717   1.02972
 Alpha virt. eigenvalues --    1.05504   1.06213   1.07671   1.10874   1.11327
 Alpha virt. eigenvalues --    1.12541   1.14285   1.15572   1.18365   1.19818
 Alpha virt. eigenvalues --    1.20255   1.22866   1.24663   1.26087   1.26978
 Alpha virt. eigenvalues --    1.28795   1.34313   1.35854   1.38488   1.40749
 Alpha virt. eigenvalues --    1.41667   1.43445   1.46973   1.48140   1.48727
 Alpha virt. eigenvalues --    1.50514   1.50870   1.51571   1.53418   1.54277
 Alpha virt. eigenvalues --    1.55039   1.61194   1.65610   1.68447   1.70888
 Alpha virt. eigenvalues --    1.72744   1.74090   1.74804   1.75886   1.77355
 Alpha virt. eigenvalues --    1.78498   1.82230   1.83452   1.86651   1.88532
 Alpha virt. eigenvalues --    1.89448   1.91980   1.94282   1.95681   1.97072
 Alpha virt. eigenvalues --    1.99101   2.00297   2.01689   2.03687   2.06282
 Alpha virt. eigenvalues --    2.09941   2.10903   2.15533   2.16805   2.17720
 Alpha virt. eigenvalues --    2.20326   2.20782   2.22158   2.25314   2.26795
 Alpha virt. eigenvalues --    2.28732   2.29673   2.30583   2.32773   2.33260
 Alpha virt. eigenvalues --    2.33468   2.34145   2.35245   2.35905   2.36006
 Alpha virt. eigenvalues --    2.37704   2.39469   2.40437   2.44082   2.46222
 Alpha virt. eigenvalues --    2.48942   2.53971   2.54969   2.57148   2.58464
 Alpha virt. eigenvalues --    2.63421   2.64203   2.65848   2.67111   2.70275
 Alpha virt. eigenvalues --    2.75704   2.78096   2.79201   2.81127   2.84314
 Alpha virt. eigenvalues --    2.86437   2.87995   2.89946   2.93223   2.99285
 Alpha virt. eigenvalues --    3.02677   3.12361   3.40895   3.50009   4.10487
 Alpha virt. eigenvalues --    4.13754   4.15203   4.16609   4.28004   4.28794
 Alpha virt. eigenvalues --    4.32210   4.34946   4.37426   4.40434   4.43784
 Alpha virt. eigenvalues --    4.55151   4.83411  47.53595
          Condensed to atoms (all electrons):
              1          2          3          4          5          6
     1  Li   2.696421  -0.044763   0.036426   0.020538   0.011211   0.000889
     2  Zn  -0.044763  28.675897   0.277409  -0.034761  -0.002152  -0.001475
     3  C    0.036426   0.277409   5.043344   0.438972  -0.021816  -0.048825
     4  C    0.020538  -0.034761   0.438972   5.104774   0.474048  -0.004586
     5  C    0.011211  -0.002152  -0.021816   0.474048   5.194580   0.439015
     6  C    0.000889  -0.001475  -0.048825  -0.004586   0.439015   4.713504
     7  C   -0.001936   0.000078   0.008178  -0.032844  -0.032237   0.484182
     8  C   -0.017267  -0.037167   0.380910  -0.073144  -0.077629  -0.019556
     9  C    0.000036  -0.000421   0.011735  -0.000485   0.017621  -0.034552
    10  C    0.000033  -0.000010  -0.000513   0.000054  -0.000653  -0.039044
    11  C   -0.000029   0.000015   0.000102  -0.000366   0.008813  -0.003072
    12  C   -0.000292   0.000117  -0.000968   0.009263  -0.103417   0.438155
    13  C   -0.004440   0.357353  -0.020389  -0.006103   0.000259  -0.000003
    14  C   -0.030139   0.376320  -0.019523  -0.001042  -0.000139   0.000036
    15  C    0.033476   0.295994  -0.004441   0.000040  -0.000003  -0.000000
    16  Li   0.104347  -0.011906   0.013442  -0.010900  -0.003479   0.000809
    17  H    0.004892  -0.014491  -0.043390   0.353958  -0.045586   0.002153
    18  H   -0.000031   0.000189   0.005038  -0.044388   0.349106  -0.046060
    19  H   -0.003396  -0.023308  -0.060874   0.005196   0.000715   0.004667
    20  H   -0.000061  -0.000617   0.000374   0.000017  -0.000173   0.004641
    21  H    0.000001   0.000002   0.000003  -0.000001   0.000013   0.001103
    22  H    0.000001   0.000002  -0.000000   0.000003  -0.000222   0.002818
    23  H   -0.000005  -0.000015   0.000011   0.000205  -0.008958  -0.041224
    24  H    0.002439   0.010538   0.001229  -0.000130  -0.000008   0.000000
    25  H    0.017848  -0.041226  -0.001794  -0.001695  -0.000055  -0.000001
    26  H    0.002278  -0.001415  -0.010126   0.001434  -0.000080  -0.000018
    27  H    0.000655  -0.007558  -0.009785  -0.000413  -0.000028   0.000005
    28  H    0.002125  -0.039217  -0.000593   0.000023   0.000002  -0.000002
    29  H    0.004642   0.014330   0.001085   0.000069   0.000001  -0.000001
    30  H    0.003698   0.002273   0.000143  -0.000003   0.000000   0.000000
    31  H   -0.009566  -0.030842   0.000270   0.000013   0.000000  -0.000000
    32  H    0.004939  -0.031614   0.000209  -0.000024  -0.000000   0.000000
              7          8          9         10         11         12
     1  Li  -0.001936  -0.017267   0.000036   0.000033  -0.000029  -0.000292
     2  Zn   0.000078  -0.037167  -0.000421  -0.000010   0.000015   0.000117
     3  C    0.008178   0.380910   0.011735  -0.000513   0.000102  -0.000968
     4  C   -0.032844  -0.073144  -0.000485   0.000054  -0.000366   0.009263
     5  C   -0.032237  -0.077629   0.017621  -0.000653   0.008813  -0.103417
     6  C    0.484182  -0.019556  -0.034552  -0.039044  -0.003072   0.438155
     7  C    4.721856   0.400960   0.415435   0.004515  -0.040336  -0.027721
     8  C    0.400960   5.429582  -0.104639   0.008906  -0.000683   0.018130
     9  C    0.415435  -0.104639   5.191238   0.497465  -0.017917  -0.078532
    10  C    0.004515   0.008906   0.497465   4.905962   0.505864  -0.017088
    11  C   -0.040336  -0.000683  -0.017917   0.505864   4.912468   0.503414
    12  C   -0.027721   0.018130  -0.078532  -0.017088   0.503414   5.149498
    13  C   -0.000085  -0.000093   0.000001  -0.000000  -0.000000   0.000000
    14  C    0.000230  -0.010334  -0.000007  -0.000000  -0.000000   0.000000
    15  C    0.000001   0.000257   0.000000  -0.000000   0.000000  -0.000000
    16  Li   0.006959   0.021657   0.001911  -0.000335  -0.000057   0.000105
    17  H    0.001286   0.004958   0.000022  -0.000001   0.000004  -0.000238
    18  H    0.004831   0.000497  -0.000145   0.000004   0.000264  -0.009194
    19  H   -0.047624   0.336273  -0.008771   0.000262   0.000012  -0.000216
    20  H   -0.045348  -0.010343   0.354329  -0.047883   0.004721   0.000482
    21  H    0.002756  -0.000230  -0.038072   0.354922  -0.042893   0.004400
    22  H    0.001066   0.000011   0.004513  -0.043308   0.356022  -0.037716
    23  H    0.004704  -0.000192   0.000612   0.004570  -0.046613   0.354066
    24  H    0.000000   0.000056  -0.000000   0.000000   0.000000  -0.000000
    25  H    0.000001  -0.000018   0.000000  -0.000000   0.000000   0.000000
    26  H    0.000023  -0.000251   0.000000  -0.000000   0.000000  -0.000000
    27  H   -0.000406   0.002992  -0.000025  -0.000000   0.000000  -0.000000
    28  H   -0.000147  -0.000134  -0.000000  -0.000000  -0.000000   0.000000
    29  H    0.000002   0.000106  -0.000000  -0.000000   0.000000  -0.000000
    30  H   -0.000000  -0.000003  -0.000000   0.000000  -0.000000   0.000000
    31  H   -0.000000  -0.000043   0.000000  -0.000000   0.000000  -0.000000
    32  H    0.000000   0.000011  -0.000000   0.000000  -0.000000   0.000000
             13         14         15         16         17         18
     1  Li  -0.004440  -0.030139   0.033476   0.104347   0.004892  -0.000031
     2  Zn   0.357353   0.376320   0.295994  -0.011906  -0.014491   0.000189
     3  C   -0.020389  -0.019523  -0.004441   0.013442  -0.043390   0.005038
     4  C   -0.006103  -0.001042   0.000040  -0.010900   0.353958  -0.044388
     5  C    0.000259  -0.000139  -0.000003  -0.003479  -0.045586   0.349106
     6  C   -0.000003   0.000036  -0.000000   0.000809   0.002153  -0.046060
     7  C   -0.000085   0.000230   0.000001   0.006959   0.001286   0.004831
     8  C   -0.000093  -0.010334   0.000257   0.021657   0.004958   0.000497
     9  C    0.000001  -0.000007   0.000000   0.001911   0.000022  -0.000145
    10  C   -0.000000  -0.000000  -0.000000  -0.000335  -0.000001   0.000004
    11  C   -0.000000  -0.000000   0.000000  -0.000057   0.000004   0.000264
    12  C    0.000000   0.000000  -0.000000   0.000105  -0.000238  -0.009194
    13  C    5.389576  -0.054497  -0.018553  -0.032600   0.003292   0.000001
    14  C   -0.054497   5.379624  -0.024773  -0.000440   0.000036   0.000001
    15  C   -0.018553  -0.024773   5.189190   0.035440   0.000094   0.000000
    16  Li  -0.032600  -0.000440   0.035440   2.653546  -0.002051   0.000166
    17  H    0.003292   0.000036   0.000094  -0.002051   0.610168  -0.004319
    18  H    0.000001   0.000001   0.000000   0.000166  -0.004319   0.617471
    19  H    0.000030   0.000046   0.000239   0.018761  -0.000171   0.000029
    20  H    0.000000  -0.000003   0.000000   0.003190   0.000000   0.000003
    21  H    0.000000  -0.000000   0.000000  -0.000007   0.000000   0.000000
    22  H    0.000000  -0.000000  -0.000000  -0.000015  -0.000000  -0.000012
    23  H    0.000000  -0.000000   0.000000   0.000022  -0.000011   0.006394
    24  H    0.349402  -0.003270  -0.008118   0.004424  -0.000229  -0.000000
    25  H    0.303513   0.002776  -0.001531   0.001966   0.003156   0.000003
    26  H    0.351258  -0.004394   0.001299   0.001161   0.002067   0.000003
    27  H   -0.002638   0.347682   0.001472   0.007170  -0.000022   0.000001
    28  H    0.002748   0.304947  -0.001767   0.018753   0.000003  -0.000000
    29  H   -0.004941   0.347313  -0.007529  -0.001447  -0.000002  -0.000000
    30  H   -0.010999  -0.010618   0.368248   0.004851  -0.000002  -0.000000
    31  H    0.003147  -0.004060   0.340288  -0.001528  -0.000000  -0.000000
    32  H   -0.005533   0.002820   0.341941  -0.008980  -0.000005  -0.000000
             19         20         21         22         23         24
     1  Li  -0.003396  -0.000061   0.000001   0.000001  -0.000005   0.002439
     2  Zn  -0.023308  -0.000617   0.000002   0.000002  -0.000015   0.010538
     3  C   -0.060874   0.000374   0.000003  -0.000000   0.000011   0.001229
     4  C    0.005196   0.000017  -0.000001   0.000003   0.000205  -0.000130
     5  C    0.000715  -0.000173   0.000013  -0.000222  -0.008958  -0.000008
     6  C    0.004667   0.004641   0.001103   0.002818  -0.041224   0.000000
     7  C   -0.047624  -0.045348   0.002756   0.001066   0.004704   0.000000
     8  C    0.336273  -0.010343  -0.000230   0.000011  -0.000192   0.000056
     9  C   -0.008771   0.354329  -0.038072   0.004513   0.000612  -0.000000
    10  C    0.000262  -0.047883   0.354922  -0.043308   0.004570   0.000000
    11  C    0.000012   0.004721  -0.042893   0.356022  -0.046613   0.000000
    12  C   -0.000216   0.000482   0.004400  -0.037716   0.354066  -0.000000
    13  C    0.000030   0.000000   0.000000   0.000000   0.000000   0.349402
    14  C    0.000046  -0.000003  -0.000000  -0.000000  -0.000000  -0.003270
    15  C    0.000239   0.000000   0.000000  -0.000000   0.000000  -0.008118
    16  Li   0.018761   0.003190  -0.000007  -0.000015   0.000022   0.004424
    17  H   -0.000171   0.000000   0.000000  -0.000000  -0.000011  -0.000229
    18  H    0.000029   0.000003   0.000000  -0.000012   0.006394  -0.000000
    19  H    0.662497   0.006786  -0.000011   0.000000   0.000003  -0.000001
    20  H    0.006786   0.617494  -0.005213  -0.000201   0.000020  -0.000000
    21  H   -0.000011  -0.005213   0.609058  -0.005475  -0.000198  -0.000000
    22  H    0.000000  -0.000201  -0.005475   0.607530  -0.005230  -0.000000
    23  H    0.000003   0.000020  -0.000198  -0.005230   0.607547  -0.000000
    24  H   -0.000001  -0.000000  -0.000000  -0.000000  -0.000000   0.574921
    25  H    0.000005  -0.000000  -0.000000   0.000000  -0.000000  -0.038807
    26  H   -0.000014   0.000000   0.000000   0.000000   0.000000  -0.041834
    27  H    0.001311  -0.000001   0.000000  -0.000000   0.000000  -0.000011
    28  H    0.000687  -0.000014   0.000000   0.000000  -0.000000   0.000030
    29  H   -0.000072   0.000000  -0.000000   0.000000   0.000000  -0.000223
    30  H   -0.000005  -0.000000  -0.000000   0.000000  -0.000000   0.000073
    31  H   -0.000030   0.000000  -0.000000   0.000000   0.000000   0.000070
    32  H   -0.000000  -0.000000  -0.000000  -0.000000  -0.000000  -0.000108
             25         26         27         28         29         30
     1  Li   0.017848   0.002278   0.000655   0.002125   0.004642   0.003698
     2  Zn  -0.041226  -0.001415  -0.007558  -0.039217   0.014330   0.002273
     3  C   -0.001794  -0.010126  -0.009785  -0.000593   0.001085   0.000143
     4  C   -0.001695   0.001434  -0.000413   0.000023   0.000069  -0.000003
     5  C   -0.000055  -0.000080  -0.000028   0.000002   0.000001   0.000000
     6  C   -0.000001  -0.000018   0.000005  -0.000002  -0.000001   0.000000
     7  C    0.000001   0.000023  -0.000406  -0.000147   0.000002  -0.000000
     8  C   -0.000018  -0.000251   0.002992  -0.000134   0.000106  -0.000003
     9  C    0.000000   0.000000  -0.000025  -0.000000  -0.000000  -0.000000
    10  C   -0.000000  -0.000000  -0.000000  -0.000000  -0.000000   0.000000
    11  C    0.000000   0.000000   0.000000  -0.000000   0.000000  -0.000000
    12  C    0.000000  -0.000000  -0.000000   0.000000  -0.000000   0.000000
    13  C    0.303513   0.351258  -0.002638   0.002748  -0.004941  -0.010999
    14  C    0.002776  -0.004394   0.347682   0.304947   0.347313  -0.010618
    15  C   -0.001531   0.001299   0.001472  -0.001767  -0.007529   0.368248
    16  Li   0.001966   0.001161   0.007170   0.018753  -0.001447   0.004851
    17  H    0.003156   0.002067  -0.000022   0.000003  -0.000002  -0.000002
    18  H    0.000003   0.000003   0.000001  -0.000000  -0.000000  -0.000000
    19  H    0.000005  -0.000014   0.001311   0.000687  -0.000072  -0.000005
    20  H   -0.000000   0.000000  -0.000001  -0.000014   0.000000  -0.000000
    21  H   -0.000000   0.000000   0.000000   0.000000  -0.000000  -0.000000
    22  H    0.000000   0.000000  -0.000000   0.000000   0.000000   0.000000
    23  H   -0.000000   0.000000   0.000000  -0.000000   0.000000  -0.000000
    24  H   -0.038807  -0.041834  -0.000011   0.000030  -0.000223   0.000073
    25  H    0.704041  -0.032597   0.000009  -0.000041   0.000051   0.000218
    26  H   -0.032597   0.571020  -0.000767   0.000045  -0.000218   0.000153
    27  H    0.000009  -0.000767   0.572162  -0.033089  -0.039743   0.000138
    28  H   -0.000041   0.000045  -0.033089   0.692057  -0.037167   0.000164
    29  H    0.000051  -0.000218  -0.039743  -0.037167   0.571939   0.000075
    30  H    0.000218   0.000153   0.000138   0.000164   0.000075   0.533905
    31  H   -0.000070  -0.000037   0.000043   0.000396  -0.000066  -0.039445
    32  H    0.000547   0.000060  -0.000027  -0.000045  -0.000002  -0.037809
             31         32
     1  Li  -0.009566   0.004939
     2  Zn  -0.030842  -0.031614
     3  C    0.000270   0.000209
     4  C    0.000013  -0.000024
     5  C    0.000000  -0.000000
     6  C   -0.000000   0.000000
     7  C   -0.000000   0.000000
     8  C   -0.000043   0.000011
     9  C    0.000000  -0.000000
    10  C   -0.000000   0.000000
    11  C    0.000000  -0.000000
    12  C   -0.000000   0.000000
    13  C    0.003147  -0.005533
    14  C   -0.004060   0.002820
    15  C    0.340288   0.341941
    16  Li  -0.001528  -0.008980
    17  H   -0.000000  -0.000005
    18  H   -0.000000  -0.000000
    19  H   -0.000030  -0.000000
    20  H    0.000000  -0.000000
    21  H   -0.000000  -0.000000
    22  H    0.000000  -0.000000
    23  H    0.000000  -0.000000
    24  H    0.000070  -0.000108
    25  H   -0.000070   0.000547
    26  H   -0.000037   0.000060
    27  H    0.000043  -0.000027
    28  H    0.000396  -0.000045
    29  H   -0.000066  -0.000002
    30  H   -0.039445  -0.037809
    31  H    0.643452  -0.033300
    32  H   -0.033300   0.632062
 Mulliken atomic charges:
              1
     1  Li   0.165031
     2  Zn   0.312441
     3  C    0.024159
     4  C   -0.197724
     5  C   -0.198750
     6  C    0.146444
     7  C    0.171621
[...]
    28   Zn    2  py     Cor( 3p)     1.99925
    29   Zn    2  py     Val( 4p)     0.18283
    30   Zn    2  py     Ryd( 5p)     0.00178
    31   Zn    2  pz     Cor( 2p)     2.00000
    32   Zn    2  pz     Cor( 3p)     1.99868
    33   Zn    2  pz     Val( 4p)     0.10338
    34   Zn    2  pz     Ryd( 5p)     0.00176
    35   Zn    2  dxy    Val( 3d)     1.96453
    36   Zn    2  dxy    Ryd( 4d)     0.00010
    37   Zn    2  dxz    Val( 3d)     1.98801
    38   Zn    2  dxz    Ryd( 4d)     0.00007
    39   Zn    2  dyz    Val( 3d)     1.98315
    40   Zn    2  dyz    Ryd( 4d)     0.00006
    41   Zn    2  dx2y2  Val( 3d)     1.93515
    42   Zn    2  dx2y2  Ryd( 4d)     0.00011
    43   Zn    2  dz2    Val( 3d)     1.96279
    44   Zn    2  dz2    Ryd( 4d)     0.00006
    45   Zn    2  f(0)   Ryd( 4f)     0.00003
    46   Zn    2  f(C1)  Ryd( 4f)     0.00002
    47   Zn    2  f(S1)  Ryd( 4f)     0.00002
    48   Zn    2  f(C2)  Ryd( 4f)     0.00003
    49   Zn    2  f(S2)  Ryd( 4f)     0.00002
    50   Zn    2  f(C3)  Ryd( 4f)     0.00007
    51   Zn    2  f(S3)  Ryd( 4f)     0.00007

    52    C    3  S      Cor( 1S)     1.99870
    53    C    3  S      Val( 2S)     1.00548
    54    C    3  S      Ryd( 3S)     0.00350
    55    C    3  S      Ryd( 4S)     0.00004
    56    C    3  px     Val( 2p)     1.11304
    57    C    3  px     Ryd( 3p)     0.01157
    58    C    3  py     Val( 2p)     1.07929
    59    C    3  py     Ryd( 3p)     0.01068
    60    C    3  pz     Val( 2p)     1.17534
    61    C    3  pz     Ryd( 3p)     0.00372
    62    C    3  dxy    Ryd( 3d)     0.00068
    63    C    3  dxz    Ryd( 3d)     0.00040
    64    C    3  dyz    Ryd( 3d)     0.00110
    65    C    3  dx2y2  Ryd( 3d)     0.00050
    66    C    3  dz2    Ryd( 3d)     0.00040

    67    C    4  S      Cor( 1S)     1.99904
    68    C    4  S      Val( 2S)     0.93153
    69    C    4  S      Ryd( 3S)     0.00193
    70    C    4  S      Ryd( 4S)     0.00006
    71    C    4  px     Val( 2p)     1.13228
    72    C    4  px     Ryd( 3p)     0.00516
    73    C    4  py     Val( 2p)     1.12794
    74    C    4  py     Ryd( 3p)     0.00585
    75    C    4  pz     Val( 2p)     1.12065
    76    C    4  pz     Ryd( 3p)     0.00321
    77    C    4  dxy    Ryd( 3d)     0.00104
    78    C    4  dxz    Ryd( 3d)     0.00086
    79    C    4  dyz    Ryd( 3d)     0.00041
    80    C    4  dx2y2  Ryd( 3d)     0.00056
    81    C    4  dz2    Ryd( 3d)     0.00050

    82    C    5  S      Cor( 1S)     1.99900
    83    C    5  S      Val( 2S)     0.93090
    84    C    5  S      Ryd( 3S)     0.00104
    85    C    5  S      Ryd( 4S)     0.00006
    86    C    5  px     Val( 2p)     1.05248
    87    C    5  px     Ryd( 3p)     0.00436
    88    C    5  py     Val( 2p)     1.17207
    89    C    5  py     Ryd( 3p)     0.00463
    90    C    5  pz     Val( 2p)     1.12320
    91    C    5  pz     Ryd( 3p)     0.00402
    92    C    5  dxy    Ryd( 3d)     0.00069
    93    C    5  dxz    Ryd( 3d)     0.00049
    94    C    5  dyz    Ryd( 3d)     0.00027
    95    C    5  dx2y2  Ryd( 3d)     0.00072
    96    C    5  dz2    Ryd( 3d)     0.00043

    97    C    6  S      Cor( 1S)     1.99901
    98    C    6  S      Val( 2S)     0.86719
    99    C    6  S      Ryd( 3S)     0.00049
   100    C    6  S      Ryd( 4S)     0.00007
   101    C    6  px     Val( 2p)     1.09839
   102    C    6  px     Ryd( 3p)     0.00522
   103    C    6  py     Val( 2p)     1.07741
   104    C    6  py     Ryd( 3p)     0.00549
   105    C    6  pz     Val( 2p)     0.96666
   106    C    6  pz     Ryd( 3p)     0.00030
   107    C    6  dxy    Ryd( 3d)     0.00070
   108    C    6  dxz    Ryd( 3d)     0.00096
   109    C    6  dyz    Ryd( 3d)     0.00050
   110    C    6  dx2y2  Ryd( 3d)     0.00069
   111    C    6  dz2    Ryd( 3d)     0.00035

   112    C    7  S      Cor( 1S)     1.99897
   113    C    7  S      Val( 2S)     0.86328
   114    C    7  S      Ryd( 3S)     0.00059
   115    C    7  S      Ryd( 4S)     0.00007
   116    C    7  px     Val( 2p)     1.07241
   117    C    7  px     Ryd( 3p)     0.00512
   118    C    7  py     Val( 2p)     1.09083
   119    C    7  py     Ryd( 3p)     0.00580
   120    C    7  pz     Val( 2p)     0.98631
   121    C    7  pz     Ryd( 3p)     0.00060
   122    C    7  dxy    Ryd( 3d)     0.00064
   123    C    7  dxz    Ryd( 3d)     0.00087
   124    C    7  dyz    Ryd( 3d)     0.00051
   125    C    7  dx2y2  Ryd( 3d)     0.00076
   126    C    7  dz2    Ryd( 3d)     0.00035

   127    C    8  S      Cor( 1S)     1.99899
   128    C    8  S      Val( 2S)     0.91969
   129    C    8  S      Ryd( 3S)     0.00196
   130    C    8  S      Ryd( 4S)     0.00007
   131    C    8  px     Val( 2p)     1.07462
   132    C    8  px     Ryd( 3p)     0.00384
   133    C    8  py     Val( 2p)     1.18053
   134    C    8  py     Ryd( 3p)     0.00601
   135    C    8  pz     Val( 2p)     1.18157
   136    C    8  pz     Ryd( 3p)     0.00490
   137    C    8  dxy    Ryd( 3d)     0.00070
   138    C    8  dxz    Ryd( 3d)     0.00059
   139    C    8  dyz    Ryd( 3d)     0.00024
   140    C    8  dx2y2  Ryd( 3d)     0.00089
   141    C    8  dz2    Ryd( 3d)     0.00049

   142    C    9  S      Cor( 1S)     1.99905
   143    C    9  S      Val( 2S)     0.93752
   144    C    9  S      Ryd( 3S)     0.00064
   145    C    9  S      Ryd( 4S)     0.00005
   146    C    9  px     Val( 2p)     1.07617
   147    C    9  px     Ryd( 3p)     0.00403
   148    C    9  py     Val( 2p)     1.15993
   149    C    9  py     Ryd( 3p)     0.00451
   150    C    9  pz     Val( 2p)     1.08662
   151    C    9  pz     Ryd( 3p)     0.00171
   152    C    9  dxy    Ryd( 3d)     0.00074
   153    C    9  dxz    Ryd( 3d)     0.00054
   154    C    9  dyz    Ryd( 3d)     0.00026
   155    C    9  dx2y2  Ryd( 3d)     0.00071
   156    C    9  dz2    Ryd( 3d)     0.00043

   157    C   10  S      Cor( 1S)     1.99910
   158    C   10  S      Val( 2S)     0.95394
   159    C   10  S      Ryd( 3S)     0.00056
   160    C   10  S      Ryd( 4S)     0.00003
   161    C   10  px     Val( 2p)     1.12109
   162    C   10  px     Ryd( 3p)     0.00471
   163    C   10  py     Val( 2p)     1.12933
   164    C   10  py     Ryd( 3p)     0.00479
   165    C   10  pz     Val( 2p)     1.03536
   166    C   10  pz     Ryd( 3p)     0.00138
   167    C   10  dxy    Ryd( 3d)     0.00086
   168    C   10  dxz    Ryd( 3d)     0.00058
   169    C   10  dyz    Ryd( 3d)     0.00041
   170    C   10  dx2y2  Ryd( 3d)     0.00061
   171    C   10  dz2    Ryd( 3d)     0.00044

   172    C   11  S      Cor( 1S)     1.99910
   173    C   11  S      Val( 2S)     0.95551
   174    C   11  S      Ryd( 3S)     0.00053
   175    C   11  S      Ryd( 4S)     0.00003
   176    C   11  px     Val( 2p)     1.18560
   177    C   11  px     Ryd( 3p)     0.00496
   178    C   11  py     Val( 2p)     1.06663
   179    C   11  py     Ryd( 3p)     0.00453
   180    C   11  pz     Val( 2p)     1.01903
   181    C   11  pz     Ryd( 3p)     0.00119
   182    C   11  dxy    Ryd( 3d)     0.00065
   183    C   11  dxz    Ryd( 3d)     0.00034
   184    C   11  dyz    Ryd( 3d)     0.00070
   185    C   11  dx2y2  Ryd( 3d)     0.00082
   186    C   11  dz2    Ryd( 3d)     0.00043

   187    C   12  S      Cor( 1S)     1.99905
   188    C   12  S      Val( 2S)     0.93906
   189    C   12  S      Ryd( 3S)     0.00064
   190    C   12  S      Ryd( 4S)     0.00005
   191    C   12  px     Val( 2p)     1.05676
   192    C   12  px     Ryd( 3p)     0.00410
   193    C   12  py     Val( 2p)     1.18159
   194    C   12  py     Ryd( 3p)     0.00464
   195    C   12  pz     Val( 2p)     1.08577
   196    C   12  pz     Ryd( 3p)     0.00189
   197    C   12  dxy    Ryd( 3d)     0.00065
   198    C   12  dxz    Ryd( 3d)     0.00041
   199    C   12  dyz    Ryd( 3d)     0.00035
   200    C   12  dx2y2  Ryd( 3d)     0.00080
   201    C   12  dz2    Ryd( 3d)     0.00042

   202    C   13  S      Cor( 1S)     1.99948
   203    C   13  S      Val( 2S)     1.24664
   204    C   13  S      Ryd( 3S)     0.00412
   205    C   13  S      Ryd( 4S)     0.00005
   206    C   13  px     Val( 2p)     1.31758
   207    C   13  px     Ryd( 3p)     0.00511
   208    C   13  py     Val( 2p)     1.37483
   209    C   13  py     Ryd( 3p)     0.00506
   210    C   13  pz     Val( 2p)     1.28274
   211    C   13  pz     Ryd( 3p)     0.00247
   212    C   13  dxy    Ryd( 3d)     0.00074
   213    C   13  dxz    Ryd( 3d)     0.00087
   214    C   13  dyz    Ryd( 3d)     0.00040
   215    C   13  dx2y2  Ryd( 3d)     0.00074
   216    C   13  dz2    Ryd( 3d)     0.00068

   217    C   14  S      Cor( 1S)     1.99948
   218    C   14  S      Val( 2S)     1.24688
   219    C   14  S      Ryd( 3S)     0.00394
   220    C   14  S      Ryd( 4S)     0.00004
   221    C   14  px     Val( 2p)     1.24312
   222    C   14  px     Ryd( 3p)     0.00368
   223    C   14  py     Val( 2p)     1.44657
   224    C   14  py     Ryd( 3p)     0.00692
   225    C   14  pz     Val( 2p)     1.26924
   226    C   14  pz     Ryd( 3p)     0.00187
   227    C   14  dxy    Ryd( 3d)     0.00079
   228    C   14  dxz    Ryd( 3d)     0.00074
   229    C   14  dyz    Ryd( 3d)     0.00086
   230    C   14  dx2y2  Ryd( 3d)     0.00059
   231    C   14  dz2    Ryd( 3d)     0.00045

   232    C   15  S      Cor( 1S)     1.99940
   233    C   15  S      Val( 2S)     1.26290
   234    C   15  S      Ryd( 3S)     0.00349
   235    C   15  S      Ryd( 4S)     0.00000
   236    C   15  px     Val( 2p)     1.24355
   237    C   15  px     Ryd( 3p)     0.00281
   238    C   15  py     Val( 2p)     1.23955
   239    C   15  py     Ryd( 3p)     0.00066
   240    C   15  pz     Val( 2p)     1.40072
   241    C   15  pz     Ryd( 3p)     0.00741
   242    C   15  dxy    Ryd( 3d)     0.00032
   243    C   15  dxz    Ryd( 3d)     0.00036
   244    C   15  dyz    Ryd( 3d)     0.00088
   245    C   15  dx2y2  Ryd( 3d)     0.00086
   246    C   15  dz2    Ryd( 3d)     0.00026

   247   Li   16  S      Cor( 1S)     1.99165
   248   Li   16  S      Val( 2S)     0.10874
   249   Li   16  S      Ryd( 3S)     0.00091
   250   Li   16  S      Ryd( 4S)     0.00017
   251   Li   16  px     Val( 2p)     0.07477
   252   Li   16  px     Ryd( 3p)     0.00160
   253   Li   16  py     Val( 2p)     0.10684
   254   Li   16  py     Ryd( 3p)     0.00205
   255   Li   16  pz     Val( 2p)     0.08873
   256   Li   16  pz     Ryd( 3p)     0.00209
   257   Li   16  dxy    Ryd( 3d)     0.00083
   258   Li   16  dxz    Ryd( 3d)     0.00092
   259   Li   16  dyz    Ryd( 3d)     0.00076
   260   Li   16  dx2y2  Ryd( 3d)     0.00042
   261   Li   16  dz2    Ryd( 3d)     0.00121

   262    H   17  S      Val( 1S)     0.78068
   263    H   17  S      Ryd( 2S)     0.00128

   264    H   18  S      Val( 1S)     0.76796
   265    H   18  S      Ryd( 2S)     0.00106

   266    H   19  S      Val( 1S)     0.77450
   267    H   19  S      Ryd( 2S)     0.00131

   268    H   20  S      Val( 1S)     0.78065
   269    H   20  S      Ryd( 2S)     0.00108

   270    H   21  S      Val( 1S)     0.77322
   271    H   21  S      Ryd( 2S)     0.00081

   272    H   22  S      Val( 1S)     0.77344
   273    H   22  S      Ryd( 2S)     0.00082

   274    H   23  S      Val( 1S)     0.77690
   275    H   23  S      Ryd( 2S)     0.00106

   276    H   24  S      Val( 1S)     0.74916
   277    H   24  S      Ryd( 2S)     0.00141

   278    H   25  S      Val( 1S)     0.77687
   279    H   25  S      Ryd( 2S)     0.00119

   280    H   26  S      Val( 1S)     0.72907
   281    H   26  S      Ryd( 2S)     0.00110

   282    H   27  S      Val( 1S)     0.73430
   283    H   27  S      Ryd( 2S)     0.00119

   284    H   28  S      Val( 1S)     0.78029
   285    H   28  S      Ryd( 2S)     0.00115

   286    H   29  S      Val( 1S)     0.74888
   287    H   29  S      Ryd( 2S)     0.00165

   288    H   30  S      Val( 1S)     0.76245
   289    H   30  S      Ryd( 2S)     0.00113

   290    H   31  S      Val( 1S)     0.76304
   291    H   31  S      Ryd( 2S)     0.00050

   292    H   32  S      Val( 1S)     0.76532
   293    H   32  S      Ryd( 2S)     0.00060

 WARNING:  1 low occupancy (<1.9990e) core orbital  found on Li    1
           3 low occupancy (<1.9990e) core orbitals found on Zn    2
           1 low occupancy (<1.9990e) core orbital  found on  C    3
           1 low occupancy (<1.9990e) core orbital  found on  C    5
           1 low occupancy (<1.9990e) core orbital  found on  C    7
           1 low occupancy (<1.9990e) core orbital  found on  C    8
           1 low occupancy (<1.9990e) core orbital  found on Li   16


 Summary of Natural Population Analysis:                  
                                                          
                                       Natural Population 
                Natural  -----------------------------------------------
    Atom  No    Charge         Core      Valence    Rydberg      Total
 -----------------------------------------------------------------------
     Li    1    0.64253      1.99133     0.35426    0.01189     2.35747
     Zn    2    1.12090     17.99129    10.87963    0.00819    28.87910
      C    3   -0.40444      1.99870     4.37315    0.03259     6.40444
      C    4   -0.33102      1.99904     4.31240    0.01958     6.33102
      C    5   -0.29436      1.99900     4.27865    0.01672     6.29436
      C    6   -0.02344      1.99901     4.00965    0.01478     6.02344
      C    7   -0.02713      1.99897     4.01284    0.01532     6.02713
      C    8   -0.37508      1.99899     4.35641    0.01968     6.37508
      C    9   -0.27290      1.99905     4.26024    0.01362     6.27290
      C   10   -0.25320      1.99910     4.23973    0.01437     6.25320
      C   11   -0.24004      1.99910     4.22677    0.01417     6.24004
      C   12   -0.27619      1.99905     4.26319    0.01395     6.27619
      C   13   -1.24151      1.99948     5.22179    0.02024     7.24151
      C   14   -1.22518      1.99948     5.20580    0.01990     7.22518
      C   15   -1.16315      1.99940     5.14671    0.01704     7.16315
     Li   16    0.61830      1.99165     0.37908    0.01097     2.38170
      H   17    0.21805      0.00000     0.78068    0.00128     0.78195
      H   18    0.23097      0.00000     0.76796    0.00106     0.76903
      H   19    0.22418      0.00000     0.77450    0.00131     0.77582
      H   20    0.21827      0.00000     0.78065    0.00108     0.78173
      H   21    0.22597      0.00000     0.77322    0.00081     0.77403
      H   22    0.22573      0.00000     0.77344    0.00082     0.77427
      H   23    0.22204      0.00000     0.77690    0.00106     0.77796
      H   24    0.24944      0.00000     0.74916    0.00141     0.75056
      H   25    0.22194      0.00000     0.77687    0.00119     0.77806
      H   26    0.26982      0.00000     0.72907    0.00110     0.73018
      H   27    0.26451      0.00000     0.73430    0.00119     0.73549
      H   28    0.21856      0.00000     0.78029    0.00115     0.78144
      H   29    0.24947      0.00000     0.74888    0.00165     0.75053
      H   30    0.23642      0.00000     0.76245    0.00113     0.76358
      H   31    0.23647      0.00000     0.76304    0.00050     0.76353
      H   32    0.23408      0.00000     0.76532    0.00060     0.76592
 =======================================================================
   * Total *    0.00000     47.96263    81.75702    0.28035   130.00000

                                 Natural Population      
 --------------------------------------------------------
   Core                      47.96263 ( 99.9222% of  48)
   Valence                   81.75702 ( 99.7037% of  82)
   Natural Minimal Basis    129.71965 ( 99.7843% of 130)
   Natural Rydberg Basis      0.28035 (  0.2157% of 130)
 --------------------------------------------------------

    Atom  No          Natural Electron Configuration
 ----------------------------------------------------------------------------
     Li    1      [core]2S( 0.09)2p( 0.26)3p( 0.01)
     Zn    2      [core]4S( 0.62)3d( 9.83)4p( 0.43)
      C    3      [core]2S( 1.01)2p( 3.37)3p( 0.03)
      C    4      [core]2S( 0.93)2p( 3.38)3p( 0.01)
      C    5      [core]2S( 0.93)2p( 3.35)3p( 0.01)
      C    6      [core]2S( 0.87)2p( 3.14)3p( 0.01)
      C    7      [core]2S( 0.86)2p( 3.15)3p( 0.01)
      C    8      [core]2S( 0.92)2p( 3.44)3p( 0.01)
      C    9      [core]2S( 0.94)2p( 3.32)3p( 0.01)
      C   10      [core]2S( 0.95)2p( 3.29)3p( 0.01)
      C   11      [core]2S( 0.96)2p( 3.27)3p( 0.01)
      C   12      [core]2S( 0.94)2p( 3.32)3p( 0.01)
      C   13      [core]2S( 1.25)2p( 3.98)3p( 0.01)
      C   14      [core]2S( 1.25)2p( 3.96)3p( 0.01)
      C   15      [core]2S( 1.26)2p( 3.88)3p( 0.01)
     Li   16      [core]2S( 0.11)2p( 0.27)3p( 0.01)
      H   17            1S( 0.78)
      H   18            1S( 0.77)
      H   19            1S( 0.77)
      H   20            1S( 0.78)
      H   21            1S( 0.77)
      H   22            1S( 0.77)
      H   23            1S( 0.78)
      H   24            1S( 0.75)
      H   25            1S( 0.78)
      H   26            1S( 0.73)
      H   27            1S( 0.73)
      H   28            1S( 0.78)
      H   29            1S( 0.75)
      H   30            1S( 0.76)
      H   31            1S( 0.76)
      H   32            1S( 0.77)


 NBO analysis skipped by request.
 Leave Link  607 at Mon Oct  4 07:08:58 2021, MaxMem= 1342177280 cpu:      23.6
 (Enter /sw/target/amd/app/gaussian/Gaussian09RevA.02_gcc-4.9.2/g09/l9999.exe)
 1\1\GINC-HERMITE\SP\RTD-B3LYP-FC\6-31G(d)\C13H16Li2Zn1\JSCHLEINITZ\04-
 Oct-2021\0\\#p TD(NStates=10, Root=1) b3lyp/6-31G* volume pop=NPA dens
 ity=current Geom=AllCheck Guess=Read\\[Li][Zn](c1ccc2c(c1)cccc2)(C)(C)
 (C)[Li]_conf_0\\0,1\Li,0,4.5168198443,-0.5801521076,0.7551181161\Zn,0,
 4.6777551107,1.2994595339,-0.7212403622\C,0,3.9603039881,1.6688062914,
 1.2447278658\C,0,4.6704883842,1.2670595007,2.4248284744\C,0,4.26783085
 84,1.5918054602,3.7029250166\C,0,3.1045944813,2.3779020846,3.917802185
 3\C,0,2.3757271388,2.8343405988,2.7730582836\C,0,2.8376609731,2.459797
 0763,1.4768541814\C,0,1.2254745753,3.6437102542,2.9731593405\C,0,0.810
 4195877,3.9779428704,4.243031611\C,0,1.5300847644,3.5212887754,5.37493
 88419\C,0,2.6525741621,2.7401336058,5.2146914731\C,0,6.2849988611,0.07
 19529433,-0.6436471125\C,0,3.2731195711,1.8263060982,-2.0679104291\C,0
 ,2.7898655475,-1.4483257483,-0.0172836873\Li,0,2.4480022881,0.60499220
 75,-0.1187529044\H,0,5.6093817158,0.7117833824,2.3215572729\H,0,4.8461
 560233,1.2667911369,4.5662183898\H,0,2.2735325433,2.8661875522,0.62929
 52226\H,0,0.6767085077,3.9983020677,2.1030891591\H,0,-0.0719666743,4.5
 967329025,4.3824280875\H,0,1.1922407397,3.793028163,6.3712447363\H,0,3
 .2101220833,2.3912575919,6.0808858306\H,0,6.220944052,-0.7710340982,-1
 .3443674929\H,0,6.6052460689,-0.3459903297,0.3322969789\H,0,7.15953639
 48,0.6594180039,-0.9549124028\H,0,3.5675082736,2.7842251684,-2.5188120
 176\H,0,2.2383240584,2.0229166018,-1.7209829005\H,0,3.1894351245,1.106
 4866883,-2.8913726599\H,0,2.9906317958,-1.8511037038,-1.0240967398\H,0
 ,1.6843843183,-1.4577443064,0.0772398386\H,0,3.0760348894,-2.264208232
 2,0.6778927689\\Version=AM64L-G09RevA.02\State=1-A\HF=-2299.2401506\RM
 SD=3.671e-09\Dipole=0.6035158,-1.695494,-2.0283255\Quadrupole=1.295930
 6,0.9331399,-2.2290704,-2.2503479,3.4267983,-2.316766\PG=C01 [X(C13H16
 Li2Zn1)]\\@


 IT IS DOUBTED WHETHER A MAN EVER BRINGS HIS FACULTIES TO BEAR WITH THEIR FULL FORCE
 ON A SUBJECT UNTIL HE WRITES UPON IT.

                          -- CICERO
 Job cpu time:  0 days  5 hours  9 minutes 36.3 seconds.
 File lengths (MBytes):  RWF=    251 Int=      0 D2E=      0 Chk=     38 Scr=      1
 Normal termination of Gaussian 09 at Mon Oct  4 07:09:25 2021.
