 Entering Gaussian System, Link 0=g09
 Input=C13H16OSi_44ef_conf_0.com
 Output=C13H16OSi_44ef_conf_0.log
 Initial command:
 /sw/target/amd/app/gaussian/Gaussian09RevA.02_gcc-4.9.2/g09/l1.exe /home/jschleinitz/gaussian/Gau-4013164.inp -scrdir=/home/jschleinitz/gaussian/
 Entering Link 1 = /sw/target/amd/app/gaussian/Gaussian09RevA.02_gcc-4.9.2/g09/l1.exe PID=   4013176.
  
 Copyright (c) 1988,1990,1992,1993,1995,1998,2003,2009, Gaussian, Inc.
                  All Rights Reserved.
  
 This is part of the Gaussian(R) 09 program.  It is based on
 the Gaussian(R) 03 system (copyright 2003, Gaussian, Inc.),
 the Gaussian(R) 98 system (copyright 1998, Gaussian, Inc.),
 the Gaussian(R) 94 system (copyright 1995, Gaussian, Inc.),
 the Gaussian 92(TM) system (copyright 1992, Gaussian, Inc.),
 the Gaussian 90(TM) system (copyright 1990, Gaussian, Inc.),
 the Gaussian 88(TM) system (copyright 1988, Gaussian, Inc.),
 the Gaussian 86(TM) system (copyright 1986, Carnegie Mellon
 University), and the Gaussian 82(TM) system (copyright 1983,
 Carnegie Mellon University). Gaussian is a federally registered
 trademark of Gaussian, Inc.
  
 This software contains proprietary and confidential information,
 including trade secrets, belonging to Gaussian, Inc.
  
 This software is provided under written license and may be
 used, copied, transmitted, or stored only in accord with that
 written license.
  
 The following legend is applicable only to US Government
 contracts under FAR:
  
                    RESTRICTED RIGHTS LEGEND
  
 Use, reproduction and disclosure by the US Government is
 subject to restrictions as set forth in subparagraphs (a)
 and (c) of the Commercial Computer Software - Restricted
 Rights clause in FAR 52.227-19.
  
 Gaussian, Inc.
 340 Quinnipiac St., Bldg. 40, Wallingford CT 06492
  
  
 ---------------------------------------------------------------
 Warning -- This program may not be used in any manner that
 competes with the business of Gaussian, Inc. or will provide
 assistance to any competitor of Gaussian, Inc.  The licensee
 of this program is prohibited from giving any competitor of
 Gaussian, Inc. access to this program.  By using this program,
 the user acknowledges that Gaussian, Inc. is engaged in the
 business of creating and licensing software in the field of
 computational chemistry and represents and warrants to the
 licensee that it is not a competitor of Gaussian, Inc. and that
 it will not use this program in any manner prohibited above.
 ---------------------------------------------------------------
  

 Cite this work as:
 Gaussian 09, Revision A.02,
 M. J. Frisch, G. W. Trucks, H. B. Schlegel, G. E. Scuseria, 
 M. A. Robb, J. R. Cheeseman, G. Scalmani, V. Barone, B. Mennucci, 
 G. A. Petersson, H. Nakatsuji, M. Caricato, X. Li, H. P. Hratchian, 
 A. F. Izmaylov, J. Bloino, G. Zheng, J. L. Sonnenberg, M. Hada, 
 M. Ehara, K. Toyota, R. Fukuda, J. Hasegawa, M. Ishida, T. Nakajima, 
 Y. Honda, O. Kitao, H. Nakai, T. Vreven, J. A. Montgomery, Jr., 
 J. E. Peralta, F. Ogliaro, M. Bearpark, J. J. Heyd, E. Brothers, 
 K. N. Kudin, V. N. Staroverov, R. Kobayashi, J. Normand, 
 K. Raghavachari, A. Rendell, J. C. Burant, S. S. Iyengar, J. Tomasi, 
 M. Cossi, N. Rega, J. M. Millam, M. Klene, J. E. Knox, J. B. Cross, 
 V. Bakken, C. Adamo, J. Jaramillo, R. Gomperts, R. E. Stratmann, 
 O. Yazyev, A. J. Austin, R. Cammi, C. Pomelli, J. W. Ochterski, 
 R. L. Martin, K. Morokuma, V. G. Zakrzewski, G. A. Voth, 
 P. Salvador, J. J. Dannenberg, S. Dapprich, A. D. Daniels, 
 O. Farkas, J. B. Foresman, J. V. Ortiz, J. Cioslowski, 
 and D. J. Fox, Gaussian, Inc., Wallingford CT, 2009.
 
 ******************************************
 Gaussian 09:  AM64L-G09RevA.02 11-Jun-2009
                30-Sep-2021 
 ******************************************
 %nproc=5
 Will use up to    5 processors via shared memory.
 %mem=10gb
 %chk=C13H16OSi_44ef_conf_0.chk
 -----------------------------------
 #p opt b3lyp/6-31G* scf=(xqc,tight)
 -----------------------------------
 1/14=-1,18=20,19=15,26=3,38=1/1,3;
 2/9=110,12=2,17=6,18=5,40=1/2;
 3/5=1,6=6,7=1,11=2,16=1,25=1,30=1,71=1,74=-5/1,2,3;
 4//1;
 5/5=2,8=3,13=1,32=2,38=5/2,8;
 6/7=2,8=2,9=2,10=2,28=1/1;
 7//1,2,3,16;
 1/14=-1,18=20,19=15/3(2);
 2/9=110/2;
 99//99;
 2/9=110/2;
 3/5=1,6=6,7=1,11=2,16=1,25=1,30=1,71=1,74=-5/1,2,3;
 4/5=5,16=3/1;
 5/5=2,8=3,13=1,32=2,38=5/2,8;
 7//1,2,3,16;
 1/14=-1,18=20,19=15/3(-5);
 2/9=110/2;
 6/7=2,8=2,9=2,10=2,19=2,28=1/1;
 99/9=1/99;
 Leave Link    1 at Thu Sep 30 18:05:32 2021, MaxMem= 1342177280 cpu:       0.1
 (Enter /sw/target/amd/app/gaussian/Gaussian09RevA.02_gcc-4.9.2/g09/l101.exe)
 ---------------------------------
 C[Si](Oc1cccc2c1cccc2)(C)C_conf_0
 ---------------------------------
 Symbolic Z-matrix:
 Charge =  0 Multiplicity = 1
 C                     3.71467   0.49633   1.38548 
 Si                    2.48297   0.69035  -0.03447 
 O                     3.30829   0.87144  -1.47201 
 C                     2.9614    1.04247  -2.79243 
 C                     1.63131   1.09123  -3.2207 
 C                     1.33542   1.23532  -4.57552 
 C                     2.36308   1.33616  -5.50961 
 C                     3.70469   1.30823  -5.10531 
 C                     4.01944   1.16343  -3.73086 
 C                     5.38382   1.15146  -3.36423 
 C                     6.397     1.27698  -4.31561 
 C                     6.0736    1.41331  -5.66085 
 C                     4.73513   1.42731  -6.05143 
 C                     1.39044  -0.84283  -0.01255 
 C                     1.41343   2.19243   0.33485 
 H                     4.35008  -0.37869   1.22015 
 H                     3.1856    0.3654    2.33413 
 H                     4.35318   1.38074   1.46218 
 H                     0.80583   1.01927  -2.52255 
 H                     0.29969   1.26696  -4.90421 
 H                     2.10785   1.441    -6.56245 
 H                     5.6634    1.04752  -2.31731 
 H                     7.43909   1.27057  -4.00527 
 H                     6.85891   1.51107  -6.40516 
 H                     4.50114   1.53617  -7.10918 
 H                     1.94959  -1.72141  -0.34693 
 H                     0.51737  -0.71829  -0.65867 
 H                     1.03392  -1.0349    1.00491 
 H                     2.03894   3.06359   0.54963 
 H                     0.77407   2.00497   1.20252 
 H                     0.77025   2.43495  -0.51543 
 
 NAtoms=     31 NQM=     31 NQMF=      0 NMic=      0 NMicF=      0 NTot=     31.
                    Isotopes and Nuclear Properties:
 (Nuclear quadrupole moments (NQMom) in fm**2, nuclear magnetic moments (NMagM)
  in nuclear magnetons)

  Atom         1           2           3           4           5           6           7           8           9          10
 IAtWgt=          12          28          16          12          12          12          12          12          12          12
 AtmWgt=  12.0000000  27.9769284  15.9949146  12.0000000  12.0000000  12.0000000  12.0000000  12.0000000  12.0000000  12.0000000
 NucSpn=           0           0           0           0           0           0           0           0           0           0
 AtZEff=   0.0000000   0.0000000   0.0000000   0.0000000   0.0000000   0.0000000   0.0000000   0.0000000   0.0000000   0.0000000
 NQMom=    0.0000000   0.0000000   0.0000000   0.0000000   0.0000000   0.0000000   0.0000000   0.0000000   0.0000000   0.0000000
 NMagM=    0.0000000   0.0000000   0.0000000   0.0000000   0.0000000   0.0000000   0.0000000   0.0000000   0.0000000   0.0000000

  Atom        11          12          13          14          15          16          17          18          19          20
 IAtWgt=          12          12          12          12          12           1           1           1           1           1
 AtmWgt=  12.0000000  12.0000000  12.0000000  12.0000000  12.0000000   1.0078250   1.0078250   1.0078250   1.0078250   1.0078250
 NucSpn=           0           0           0           0           0           1           1           1           1           1
 AtZEff=   0.0000000   0.0000000   0.0000000   0.0000000   0.0000000   0.0000000   0.0000000   0.0000000   0.0000000   0.0000000
 NQMom=    0.0000000   0.0000000   0.0000000   0.0000000   0.0000000   0.0000000   0.0000000   0.0000000   0.0000000   0.0000000
 NMagM=    0.0000000   0.0000000   0.0000000   0.0000000   0.0000000   2.7928460   2.7928460   2.7928460   2.7928460   2.7928460

  Atom        21          22          23          24          25          26          27          28          29          30
 IAtWgt=           1           1           1           1           1           1           1           1           1           1
 AtmWgt=   1.0078250   1.0078250   1.0078250   1.0078250   1.0078250   1.0078250   1.0078250   1.0078250   1.0078250   1.0078250
 NucSpn=           1           1           1           1           1           1           1           1           1           1
 AtZEff=   0.0000000   0.0000000   0.0000000   0.0000000   0.0000000   0.0000000   0.0000000   0.0000000   0.0000000   0.0000000
 NQMom=    0.0000000   0.0000000   0.0000000   0.0000000   0.0000000   0.0000000   0.0000000   0.0000000   0.0000000   0.0000000
 NMagM=    2.7928460   2.7928460   2.7928460   2.7928460   2.7928460   2.7928460   2.7928460   2.7928460   2.7928460   2.7928460

  Atom        31
 IAtWgt=           1
 AtmWgt=   1.0078250
 NucSpn=           1
 AtZEff=   0.0000000
 NQMom=    0.0000000
 NMagM=    2.7928460
 Leave Link  101 at Thu Sep 30 18:05:33 2021, MaxMem= 1342177280 cpu:       0.2
 (Enter /sw/target/amd/app/gaussian/Gaussian09RevA.02_gcc-4.9.2/g09/l103.exe)

 GradGradGradGradGradGradGradGradGradGradGradGradGradGradGradGradGradGrad
 Berny optimization.
 Initialization pass.
                           ----------------------------
                           !    Initial Parameters    !
                           ! (Angstroms and Degrees)  !
 --------------------------                            --------------------------
 ! Name  Definition              Value          Derivative Info.                !
 --------------------------------------------------------------------------------
 ! R1    R(1,2)                  1.8897         estimate D2E/DX2                !
 ! R2    R(1,16)                 1.094          estimate D2E/DX2                !
 ! R3    R(1,17)                 1.0941         estimate D2E/DX2                !
 ! R4    R(1,18)                 1.0935         estimate D2E/DX2                !
 ! R5    R(2,3)                  1.6675         estimate D2E/DX2                !
 ! R6    R(2,14)                 1.8828         estimate D2E/DX2                !
 ! R7    R(2,15)                 1.8806         estimate D2E/DX2                !
 ! R8    R(3,4)                  1.3759         estimate D2E/DX2                !
 ! R9    R(4,5)                  1.3982         estimate D2E/DX2                !
 ! R10   R(4,9)                  1.4194         estimate D2E/DX2                !
 ! R11   R(5,6)                  1.3942         estimate D2E/DX2                !
 ! R12   R(5,19)                 1.0835         estimate D2E/DX2                !
 ! R13   R(6,7)                  1.3924         estimate D2E/DX2                !
 ! R14   R(6,20)                 1.0871         estimate D2E/DX2                !
 ! R15   R(7,8)                  1.4015         estimate D2E/DX2                !
 ! R16   R(7,21)                 1.0884         estimate D2E/DX2                !
 ! R17   R(8,9)                  1.4175         estimate D2E/DX2                !
 ! R18   R(8,13)                 1.404          estimate D2E/DX2                !
 ! R19   R(9,10)                 1.4128         estimate D2E/DX2                !
 ! R20   R(10,11)                1.3955         estimate D2E/DX2                !
 ! R21   R(10,22)                1.0886         estimate D2E/DX2                !
 ! R22   R(11,12)                1.3903         estimate D2E/DX2                !
 ! R23   R(11,23)                1.0873         estimate D2E/DX2                !
 ! R24   R(12,13)                1.3944         estimate D2E/DX2                !
 ! R25   R(12,24)                1.0864         estimate D2E/DX2                !
 ! R26   R(13,25)                1.0888         estimate D2E/DX2                !
 ! R27   R(14,26)                1.0938         estimate D2E/DX2                !
 ! R28   R(14,27)                1.0933         estimate D2E/DX2                !
 ! R29   R(14,28)                1.0951         estimate D2E/DX2                !
 ! R30   R(15,29)                1.0938         estimate D2E/DX2                !
 ! R31   R(15,30)                1.094          estimate D2E/DX2                !
 ! R32   R(15,31)                1.0934         estimate D2E/DX2                !
 ! A1    A(2,1,16)             110.3135         estimate D2E/DX2                !
 ! A2    A(2,1,17)             110.4036         estimate D2E/DX2                !
 ! A3    A(2,1,18)             110.5031         estimate D2E/DX2                !
 ! A4    A(16,1,17)            108.4328         estimate D2E/DX2                !
 ! A5    A(16,1,18)            108.5638         estimate D2E/DX2                !
 ! A6    A(17,1,18)            108.5623         estimate D2E/DX2                !
 ! A7    A(1,2,3)              109.6539         estimate D2E/DX2                !
 ! A8    A(1,2,14)             106.6109         estimate D2E/DX2                !
 ! A9    A(1,2,15)             107.7666         estimate D2E/DX2                !
 ! A10   A(3,2,14)             112.6861         estimate D2E/DX2                !
 ! A11   A(3,2,15)             111.3497         estimate D2E/DX2                !
 ! A12   A(14,2,15)            108.5496         estimate D2E/DX2                !
 ! A13   A(2,3,4)              135.73           estimate D2E/DX2                !
 ! A14   A(3,4,5)              122.5562         estimate D2E/DX2                !
 ! A15   A(3,4,9)              117.203          estimate D2E/DX2                !
 ! A16   A(5,4,9)              120.2398         estimate D2E/DX2                !
 ! A17   A(4,5,6)              120.2083         estimate D2E/DX2                !
 ! A18   A(4,5,19)             121.6728         estimate D2E/DX2                !
 ! A19   A(6,5,19)             118.1189         estimate D2E/DX2                !
 ! A20   A(5,6,7)              120.1816         estimate D2E/DX2                !
 ! A21   A(5,6,20)             119.9353         estimate D2E/DX2                !
 ! A22   A(7,6,20)             119.8831         estimate D2E/DX2                !
 ! A23   A(6,7,8)              120.7669         estimate D2E/DX2                !
 ! A24   A(6,7,21)             118.8707         estimate D2E/DX2                !
 ! A25   A(8,7,21)             120.3621         estimate D2E/DX2                !
 ! A26   A(7,8,9)              119.6259         estimate D2E/DX2                !
 ! A27   A(7,8,13)             120.4311         estimate D2E/DX2                !
 ! A28   A(9,8,13)             119.9426         estimate D2E/DX2                !
 ! A29   A(4,9,8)              118.9646         estimate D2E/DX2                !
 ! A30   A(4,9,10)             123.1997         estimate D2E/DX2                !
 ! A31   A(8,9,10)             117.8355         estimate D2E/DX2                !
 ! A32   A(9,10,11)            121.5647         estimate D2E/DX2                !
 ! A33   A(9,10,22)            119.8944         estimate D2E/DX2                !
 ! A34   A(11,10,22)           118.5402         estimate D2E/DX2                !
 ! A35   A(10,11,12)           119.9737         estimate D2E/DX2                !
 ! A36   A(10,11,23)           120.0474         estimate D2E/DX2                !
 ! A37   A(12,11,23)           119.9787         estimate D2E/DX2                !
 ! A38   A(11,12,13)           119.6904         estimate D2E/DX2                !
 ! A39   A(11,12,24)           120.2384         estimate D2E/DX2                !
 ! A40   A(13,12,24)           120.071          estimate D2E/DX2                !
 ! A41   A(8,13,12)            120.9919         estimate D2E/DX2                !
 ! A42   A(8,13,25)            120.3595         estimate D2E/DX2                !
 ! A43   A(12,13,25)           118.6482         estimate D2E/DX2                !
 ! A44   A(2,14,26)            110.7265         estimate D2E/DX2                !
 ! A45   A(2,14,27)            111.3315         estimate D2E/DX2                !
 ! A46   A(2,14,28)            110.0325         estimate D2E/DX2                !
 ! A47   A(26,14,27)           108.6073         estimate D2E/DX2                !
 ! A48   A(26,14,28)           108.0341         estimate D2E/DX2                !
 ! A49   A(27,14,28)           108.0046         estimate D2E/DX2                !
 ! A50   A(2,15,29)            110.4564         estimate D2E/DX2                !
 ! A51   A(2,15,30)            110.5658         estimate D2E/DX2                !
 ! A52   A(2,15,31)            111.0389         estimate D2E/DX2                !
 ! A53   A(29,15,30)           108.3588         estimate D2E/DX2                !
 ! A54   A(29,15,31)           108.207          estimate D2E/DX2                !
 ! A55   A(30,15,31)           108.1199         estimate D2E/DX2                !
 ! D1    D(16,1,2,3)           -59.5431         estimate D2E/DX2                !
 ! D2    D(16,1,2,14)           62.7275         estimate D2E/DX2                !
 ! D3    D(16,1,2,15)          179.0993         estimate D2E/DX2                !
 ! D4    D(17,1,2,3)          -179.373          estimate D2E/DX2                !
 ! D5    D(17,1,2,14)          -57.1023         estimate D2E/DX2                !
 ! D6    D(17,1,2,15)           59.2694         estimate D2E/DX2                !
 ! D7    D(18,1,2,3)            60.5138         estimate D2E/DX2                !
 ! D8    D(18,1,2,14)         -177.2156         estimate D2E/DX2                !
 ! D9    D(18,1,2,15)          -60.8438         estimate D2E/DX2                !
 ! D10   D(1,2,3,4)            179.7942         estimate D2E/DX2                !
 ! D11   D(14,2,3,4)            61.2195         estimate D2E/DX2                !
 ! D12   D(15,2,3,4)           -61.0299         estimate D2E/DX2                !
 ! D13   D(1,2,14,26)          -71.3144         estimate D2E/DX2                !
 ! D14   D(1,2,14,27)          167.7535         estimate D2E/DX2                !
 ! D15   D(1,2,14,28)           48.0453         estimate D2E/DX2                !
 ! D16   D(3,2,14,26)           49.025          estimate D2E/DX2                !
 ! D17   D(3,2,14,27)          -71.9071         estimate D2E/DX2                !
 ! D18   D(3,2,14,28)          168.3847         estimate D2E/DX2                !
 ! D19   D(15,2,14,26)         172.8378         estimate D2E/DX2                !
 ! D20   D(15,2,14,27)          51.9057         estimate D2E/DX2                !
 ! D21   D(15,2,14,28)         -67.8024         estimate D2E/DX2                !
 ! D22   D(1,2,15,29)           52.3378         estimate D2E/DX2                !
 ! D23   D(1,2,15,30)          -67.5962         estimate D2E/DX2                !
 ! D24   D(1,2,15,31)          172.3894         estimate D2E/DX2                !
 ! D25   D(3,2,15,29)          -67.9572         estimate D2E/DX2                !
 ! D26   D(3,2,15,30)          172.1088         estimate D2E/DX2                !
 ! D27   D(3,2,15,31)           52.0944         estimate D2E/DX2                !
 ! D28   D(14,2,15,29)         167.4351         estimate D2E/DX2                !
 ! D29   D(14,2,15,30)          47.501          estimate D2E/DX2                !
 ! D30   D(14,2,15,31)         -72.5133         estimate D2E/DX2                !
 ! D31   D(2,3,4,5)             -0.5735         estimate D2E/DX2                !
 ! D32   D(2,3,4,9)            179.777          estimate D2E/DX2                !
 ! D33   D(3,4,5,6)           -178.5035         estimate D2E/DX2                !
 ! D34   D(3,4,5,19)             1.4806         estimate D2E/DX2                !
 ! D35   D(9,4,5,6)              1.1356         estimate D2E/DX2                !
 ! D36   D(9,4,5,19)          -178.8803         estimate D2E/DX2                !
 ! D37   D(3,4,9,8)            178.4785         estimate D2E/DX2                !
 ! D38   D(3,4,9,10)            -1.7356         estimate D2E/DX2                !
 ! D39   D(5,4,9,8)             -1.1795         estimate D2E/DX2                !
 ! D40   D(5,4,9,10)           178.6064         estimate D2E/DX2                !
 ! D41   D(4,5,6,7)             -0.2228         estimate D2E/DX2                !
 ! D42   D(4,5,6,20)           179.6477         estimate D2E/DX2                !
 ! D43   D(19,5,6,7)           179.7925         estimate D2E/DX2                !
 ! D44   D(19,5,6,20)           -0.3369         estimate D2E/DX2                !
 ! D45   D(5,6,7,8)             -0.6406         estimate D2E/DX2                !
 ! D46   D(5,6,7,21)           179.5758         estimate D2E/DX2                !
 ! D47   D(20,6,7,8)           179.4888         estimate D2E/DX2                !
 ! D48   D(20,6,7,21)           -0.2948         estimate D2E/DX2                !
 ! D49   D(6,7,8,9)              0.5785         estimate D2E/DX2                !
 ! D50   D(6,7,8,13)          -179.1982         estimate D2E/DX2                !
 ! D51   D(21,7,8,9)          -179.6412         estimate D2E/DX2                !
 ! D52   D(21,7,8,13)            0.5822         estimate D2E/DX2                !
 ! D53   D(7,8,9,4)              0.3273         estimate D2E/DX2                !
 ! D54   D(7,8,9,10)          -179.4701         estimate D2E/DX2                !
 ! D55   D(13,8,9,4)          -179.895          estimate D2E/DX2                !
 ! D56   D(13,8,9,10)            0.3077         estimate D2E/DX2                !
 ! D57   D(7,8,13,12)          179.4074         estimate D2E/DX2                !
 ! D58   D(7,8,13,25)           -0.3881         estimate D2E/DX2                !
 ! D59   D(9,8,13,12)           -0.3685         estimate D2E/DX2                !
 ! D60   D(9,8,13,25)          179.836          estimate D2E/DX2                !
 ! D61   D(4,9,10,11)         -179.8049         estimate D2E/DX2                !
 ! D62   D(4,9,10,22)           -0.122          estimate D2E/DX2                !
 ! D63   D(8,9,10,11)           -0.0167         estimate D2E/DX2                !
 ! D64   D(8,9,10,22)          179.6661         estimate D2E/DX2                !
 ! D65   D(9,10,11,12)          -0.2229         estimate D2E/DX2                !
 ! D66   D(9,10,11,23)         179.6332         estimate D2E/DX2                !
 ! D67   D(22,10,11,12)       -179.9099         estimate D2E/DX2                !
 ! D68   D(22,10,11,23)         -0.0538         estimate D2E/DX2                !
 ! D69   D(10,11,12,13)          0.1677         estimate D2E/DX2                !
 ! D70   D(10,11,12,24)       -179.9833         estimate D2E/DX2                !
 ! D71   D(23,11,12,13)       -179.6884         estimate D2E/DX2                !
 ! D72   D(23,11,12,24)          0.1605         estimate D2E/DX2                !
 ! D73   D(11,12,13,8)           0.1268         estimate D2E/DX2                !
 ! D74   D(11,12,13,25)        179.9258         estimate D2E/DX2                !
 ! D75   D(24,12,13,8)        -179.7223         estimate D2E/DX2                !
 ! D76   D(24,12,13,25)          0.0766         estimate D2E/DX2                !
 --------------------------------------------------------------------------------
 Trust Radius=3.00D-01 FncErr=1.00D-07 GrdErr=1.00D-06
 Number of steps in this run= 173 maximum allowed number of steps= 186.
 GradGradGradGradGradGradGradGradGradGradGradGradGradGradGradGradGradGrad

 Leave Link  103 at Thu Sep 30 18:05:33 2021, MaxMem= 1342177280 cpu:       0.0
 (Enter /sw/target/amd/app/gaussian/Gaussian09RevA.02_gcc-4.9.2/g09/l202.exe)
                          Input orientation:                          
 ---------------------------------------------------------------------
 Center     Atomic      Atomic             Coordinates (Angstroms)
 Number     Number       Type             X           Y           Z
 ---------------------------------------------------------------------
      1          6           0        3.714668    0.496328    1.385476
      2         14           0        2.482967    0.690353   -0.034467
      3          8           0        3.308289    0.871436   -1.472006
      4          6           0        2.961401    1.042470   -2.792429
      5          6           0        1.631315    1.091233   -3.220700
      6          6           0        1.335421    1.235317   -4.575518
      7          6           0        2.363083    1.336161   -5.509614
      8          6           0        3.704689    1.308234   -5.105314
      9          6           0        4.019442    1.163426   -3.730858
     10          6           0        5.383818    1.151459   -3.364230
     11          6           0        6.396995    1.276976   -4.315608
     12          6           0        6.073595    1.413315   -5.660854
     13          6           0        4.735130    1.427307   -6.051427
     14          6           0        1.390437   -0.842832   -0.012554
     15          6           0        1.413432    2.192429    0.334847
     16          1           0        4.350077   -0.378692    1.220154
     17          1           0        3.185601    0.365397    2.334128
     18          1           0        4.353181    1.380736    1.462179
     19          1           0        0.805833    1.019272   -2.522551
     20          1           0        0.299692    1.266956   -4.904208
     21          1           0        2.107850    1.441003   -6.562450
     22          1           0        5.663404    1.047522   -2.317308
     23          1           0        7.439094    1.270570   -4.005272
     24          1           0        6.858908    1.511066   -6.405160
     25          1           0        4.501135    1.536171   -7.109181
     26          1           0        1.949585   -1.721409   -0.346931
     27          1           0        0.517366   -0.718289   -0.658666
     28          1           0        1.033923   -1.034897    1.004907
     29          1           0        2.038940    3.063595    0.549626
     30          1           0        0.774070    2.004972    1.202523
     31          1           0        0.770252    2.434950   -0.515431
 ---------------------------------------------------------------------
                    Distance matrix (angstroms):
                    1          2          3          4          5
     1  C    0.000000
     2  Si   1.889702   0.000000
     3  O    2.910508   1.667473   0.000000
     4  C    4.280255   2.821212   1.375900   0.000000
     5  C    5.090298   3.322362   2.432793   1.398185   0.000000
     6  C    6.460679   4.715399   3.695457   2.420827   1.394218
     7  C    7.076325   5.514406   4.172728   2.797737   2.415492
     8  C    6.541380   5.252415   3.680877   2.443878   2.810292
     9  C    5.168635   4.030863   2.386087   1.419412   2.443077
    10  C    5.076906   4.440144   2.822542   2.491373   3.755730
    11  C    6.348752   5.830258   4.217895   3.765418   4.893366
    12  C    7.487067   6.713532   5.048465   4.248663   5.078577
    13  C    7.564100   6.466773   4.828661   3.730319   4.214218
    14  C    3.024879   1.882752   2.957511   3.708099   3.753775
    15  C    3.045696   1.880566   2.932614   3.674027   3.728541
    16  H    1.093954   2.490589   3.145769   4.477605   5.410501
    17  H    1.094073   2.491894   3.841586   5.175934   5.813670
    18  H    1.093508   2.492847   3.156046   4.489228   5.424180
    19  H    4.899742   3.018530   2.718048   2.172521   1.083518
    20  H    7.198337   5.367824   4.581277   3.405099   2.153671
    21  H    8.163566   6.581698   5.260996   3.885928   3.393629
    22  H    4.220426   3.931172   2.508407   2.743462   4.132284
    23  H    6.597800   6.377079   4.862129   4.644648   5.863277
    24  H    8.462266   7.772268   6.111631   5.334976   6.135534
    25  H    8.594126   7.405402   5.800215   4.609649   4.853259
    26  H    3.321914   2.489724   3.136035   3.826652   4.033708
    27  H    3.984540   2.497495   3.313307   3.691413   3.328554
    28  H    3.110607   2.481233   3.865482   4.738185   4.767920
    29  H    3.177667   2.484070   3.240957   4.013130   4.274544
    30  H    3.310075   2.485699   3.854903   4.655155   4.597248
    31  H    4.005157   2.491653   3.130693   3.453238   3.140937
                    6          7          8          9         10
     6  C    0.000000
     7  C    1.392406   0.000000
     8  C    2.428874   1.401479   0.000000
     9  C    2.814709   2.436664   1.417451   0.000000
    10  C    4.226554   3.709666   2.423927   1.412827   0.000000
    11  C    5.068414   4.207326   2.805909   2.451038   1.395494
    12  C    4.864147   3.714394   2.435444   2.829642   2.412227
    13  C    3.711225   2.434846   1.403966   2.442721   2.778114
    14  C    5.014216   5.992638   5.993250   4.976195   5.581937
    15  C    5.003382   5.982705   5.968837   4.937621   5.525465
    16  H    6.729263   7.223478   6.578281   5.196149   4.942323
    17  H    7.205771   7.946270   7.516894   6.173832   6.158031
    18  H    6.751430   7.250405   6.599831   5.208286   4.940548
    19  H    2.131153   3.383488   3.893267   3.436287   4.656591
    20  H    1.087094   2.151486   3.411180   3.901796   5.313493
    21  H    2.141694   1.088394   2.165818   3.427703   4.587419
    22  H    4.885306   4.600679   3.417238   2.171214   1.088586
    23  H    6.130355   5.294642   3.893237   3.432318   2.156220
    24  H    5.825164   4.587487   3.417578   3.916033   3.398891
    25  H    4.065920   2.677664   2.168355   3.432787   3.866753
    26  H    5.196188   6.014400   5.907735   4.904849   5.399206
    27  H    4.452810   5.582037   5.834252   5.024316   5.873533
    28  H    6.032074   7.058865   7.068101   6.014434   6.541491
    29  H    5.486769   6.309000   6.150963   5.084837   5.492061
    30  H    5.856043   6.930011   6.990191   5.964804   6.544731
    31  H    4.271164   5.355961   5.563042   4.744785   5.572073
                   11         12         13         14         15
    11  C    0.000000
    12  C    1.390274   0.000000
    13  C    2.407792   1.394357   0.000000
    14  C    6.933649   7.676292   7.266945   0.000000
    15  C    6.877550   7.633647   7.239033   3.055163   0.000000
    16  H    6.129908   7.316424   7.502385   3.239516   4.002289
    17  H    7.440633   8.564951   8.593383   3.192076   3.236627
    18  H    6.129500   7.327925   7.523453   3.987098   3.251438
    19  H    5.877292   6.144390   5.297060   3.179509   3.148047
    20  H    6.125656   5.825109   4.584206   5.437757   5.435496
    21  H    4.844788   4.067036   2.676553   6.973644   6.972774
    22  H    2.141030   3.388416   3.866468   5.209949   5.138774
    23  H    1.087346   2.150794   3.394516   7.549471   7.482985
    24  H    2.152763   1.086399   2.154663   8.735583   8.691672
    25  H    3.386076   2.141349   1.088782   8.105443   8.085675
    26  H    6.672344   7.421033   7.086251   1.093779   4.008791
    27  H    7.205855   7.774143   7.174608   1.093263   3.203479
    28  H    7.900328   8.707721   8.339859   1.095089   3.317927
    29  H    6.771643   7.587616   7.315790   3.999596   1.093764
    30  H    7.911829   8.691431   8.285137   3.156946   1.093977
    31  H    6.887851   7.459529   6.883521   3.373628   1.093375
                   16         17         18         19         20
    16  H    0.000000
    17  H    1.774996   0.000000
    18  H    1.775999   1.776078   0.000000
    19  H    5.340768   5.447769   5.347187   0.000000
    20  H    7.524731   7.844412   7.548153   2.447410   0.000000
    21  H    8.301072   9.025940   8.333056   4.265430   2.459572
    22  H    4.033924   5.314194   4.014005   4.861987   5.958994
    23  H    6.290243   7.687622   6.279173   6.801600   7.195774
    24  H    8.246867   9.548869   8.257765   7.208067   6.733184
    25  H    8.547943   9.606114   8.574046   5.912665   4.752526
    26  H    3.165597   3.615324   4.321280   3.681416   5.693966
    27  H    4.281935   4.153393   4.859771   2.564449   4.691823
    28  H    3.387302   2.890911   4.130600   4.088349   6.383985
    29  H    4.200036   3.432136   3.003411   3.890768   5.999766
    30  H    4.297673   3.127975   3.642408   3.853413   6.169430
    31  H    4.872779   4.270474   4.226072   2.456408   4.565852
                   21         22         23         24         25
    21  H    0.000000
    22  H    5.551399   0.000000
    23  H    5.915267   2.460092   0.000000
    24  H    4.754178   4.284231   2.480709   0.000000
    25  H    2.456784   4.954966   4.282102   2.460766   0.000000
    26  H    6.975570   5.034065   7.243625   8.441119   7.927815
    27  H    6.484354   5.687784   7.941389   8.843493   7.909624
    28  H    8.034196   6.066768   8.452413   9.763272   9.190777
    29  H    7.295147   5.041884   7.288600   8.602992   8.188574
    30  H    7.898850   6.100124   8.490172   9.754283   9.121141
    31  H    6.272443   5.395799   7.616313   8.521397   7.629209
                   26         27         28         29         30
    26  H    0.000000
    27  H    1.776142   0.000000
    28  H    1.771215   1.770466   0.000000
    29  H    4.869092   4.251800   4.244405   0.000000
    30  H    4.203399   3.308485   3.057349   1.773937   0.000000
    31  H    4.323718   3.166604   3.797471   1.771753   1.770949
                   31
    31  H    0.000000
 Stoichiometry    C13H16OSi
 Framework group  C1[X(C13H16OSi)]
 Deg. of freedom    87
 Full point group                 C1      NOp   1
 Largest Abelian subgroup         C1      NOp   1
 Largest concise Abelian subgroup C1      NOp   1
                         Standard orientation:                         
 ---------------------------------------------------------------------
 Center     Atomic      Atomic             Coordinates (Angstroms)
 Number     Number       Type             X           Y           Z
 ---------------------------------------------------------------------
      1          6           0       -3.470524   -1.972052   -0.040637
      2         14           0       -2.636428   -0.276816   -0.002761
      3          8           0       -0.979802   -0.466666   -0.006414
      4          6           0        0.108385    0.375183    0.009171
      5          6           0       -0.017693    1.767601    0.023289
      6          6           0        1.118789    2.575065    0.007330
      7          6           0        2.386308    1.999267   -0.018089
      8          6           0        2.541187    0.606377   -0.014554
      9          6           0        1.394113   -0.226142    0.002802
     10          6           0        1.594150   -1.624660    0.017360
     11          6           0        2.874598   -2.179501    0.014543
     12          6           0        3.990647   -1.350764   -0.007599
     13          6           0        3.822869    0.033372   -0.023358
     14          6           0       -3.262721    0.664928   -1.507962
     15          6           0       -3.219893    0.615313    1.546498
     16          1           0       -3.171227   -2.522619   -0.937316
     17          1           0       -4.558958   -1.861494   -0.049776
     18          1           0       -3.187505   -2.557887    0.838258
     19          1           0       -0.987196    2.250859    0.046414
     20          1           0        1.015501    3.657229    0.012615
     21          1           0        3.258716    2.649758   -0.037239
     22          1           0        0.736807   -2.295197    0.036382
     23          1           0        3.000048   -3.259444    0.032018
     24          1           0        4.989464   -1.778106   -0.010151
     25          1           0        4.708569    0.666400   -0.039380
     26          1           0       -2.839555    0.250528   -2.427503
     27          1           0       -3.001786    1.725050   -1.450700
     28          1           0       -4.353221    0.587719   -1.571747
     29          1           0       -3.069484   -0.013076    2.429009
     30          1           0       -4.284304    0.856983    1.472942
     31          1           0       -2.668758    1.548130    1.693370
 ---------------------------------------------------------------------
 Rotational constants (GHZ):      1.0270634      0.3265175      0.2686153
 Leave Link  202 at Thu Sep 30 18:05:33 2021, MaxMem= 1342177280 cpu:       0.1
 (Enter /sw/target/amd/app/gaussian/Gaussian09RevA.02_gcc-4.9.2/g09/l301.exe)
 Standard basis: 6-31G(d) (6D, 7F)
 Ernie: Thresh=  0.10000D-02 Tol=  0.10000D-05 Strict=F.
 There are   261 symmetry adapted basis functions of A   symmetry.
 Integral buffers will be    131072 words long.
 Raffenetti 2 integral format.
 Two-electron integral symmetry is turned on.
   261 basis functions,   508 primitive gaussians,   261 cartesian basis functions
    58 alpha electrons       58 beta electrons
       nuclear repulsion energy      1052.1727159971 Hartrees.
 IExCor=  402 DFT=T Ex+Corr=B3LYP ExCW=0 ScaHFX=  0.200000
 ScaDFX=  0.800000  0.720000  1.000000  0.810000 ScalE2=  1.000000  1.000000
 IRadAn=      0 IRanWt=     -1 IRanGd=            0 ICorTp=0
 NAtoms=   31 NActive=   31 NUniq=   31 SFac= 7.50D-01 NAtFMM=   80 NAOKFM=F Big=F
 Leave Link  301 at Thu Sep 30 18:05:33 2021, MaxMem= 1342177280 cpu:       0.1
 (Enter /sw/target/amd/app/gaussian/Gaussian09RevA.02_gcc-4.9.2/g09/l302.exe)
 NPDir=0 NMtPBC=     1 NCelOv=     1 NCel=       1 NClECP=     1 NCelD=      1
         NCelK=      1 NCelE2=     1 NClLst=     1 CellRange=     0.0.
 One-electron integrals computed using PRISM.
 NBasis=   261 RedAO= T  NBF=   261
 NBsUse=   261 1.00D-06 NBFU=   261
 Precomputing XC quadrature grid using
 IXCGrd= 2 IRadAn=           0 IRanWt=          -1 IRanGd=           0 AccXCQ= 1.00D-10.
 NRdTot=    1966 NPtTot=      250258 NUsed=      264436 NTot=      264468
 NSgBfM=   260   260   260   260   260 NAtAll=    31    31.
 Leave Link  302 at Thu Sep 30 18:05:38 2021, MaxMem= 1342177280 cpu:       2.7
 (Enter /sw/target/amd/app/gaussian/Gaussian09RevA.02_gcc-4.9.2/g09/l303.exe)
 DipDrv:  MaxL=1.
 Leave Link  303 at Thu Sep 30 18:05:38 2021, MaxMem= 1342177280 cpu:       0.2
 (Enter /sw/target/amd/app/gaussian/Gaussian09RevA.02_gcc-4.9.2/g09/l401.exe)
 Harris functional with IExCor=  402 diagonalized for initial guess.
 ExpMin= 7.78D-02 ExpMax= 1.61D+04 ExpMxC= 2.43D+03 IAcc=2 IRadAn=         0 AccDes= 0.00D+00
 HarFok:  IExCor=  402 AccDes= 0.00D+00 IRadAn=         0 IDoV= 1
 ScaDFX=  1.000000  1.000000  1.000000  1.000000
 FoFCou: FMM=F IPFlag=           0 FMFlag=      100000 FMFlg1=           0
         NFxFlg=           0 DoJE=T BraDBF=F KetDBF=T FulRan=T
         Omega=  0.000000  0.000000  1.000000  0.000000  0.000000 ICntrl=     500 IOpCl=  0
         NMat0=    1 NMatS0=    1 NMatT0=    0 NMatD0=    1 NMtDS0=    0 NMtDT0=    0
         I1Cent=           4 NGrid=           0.
 Petite list used in FoFCou.
 Harris En= -870.030608961713    
 Initial guess orbital symmetries:
       Occupied  (A) (A) (A) (A) (A) (A) (A) (A) (A) (A) (A) (A)
                 (A) (A) (A) (A) (A) (A) (A) (A) (A) (A) (A) (A)
                 (A) (A) (A) (A) (A) (A) (A) (A) (A) (A) (A) (A)
                 (A) (A) (A) (A) (A) (A) (A) (A) (A) (A) (A) (A)
                 (A) (A) (A) (A) (A) (A) (A) (A) (A) (A)
       Virtual   (A) (A) (A) (A) (A) (A) (A) (A) (A) (A) (A) (A)
                 (A) (A) (A) (A) (A) (A) (A) (A) (A) (A) (A) (A)
                 (A) (A) (A) (A) (A) (A) (A) (A) (A) (A) (A) (A)
                 (A) (A) (A) (A) (A) (A) (A) (A) (A) (A) (A) (A)
                 (A) (A) (A) (A) (A) (A) (A) (A) (A) (A) (A) (A)
                 (A) (A) (A) (A) (A) (A) (A) (A) (A) (A) (A) (A)
                 (A) (A) (A) (A) (A) (A) (A) (A) (A) (A) (A) (A)
                 (A) (A) (A) (A) (A) (A) (A) (A) (A) (A) (A) (A)
                 (A) (A) (A) (A) (A) (A) (A) (A) (A) (A) (A) (A)
                 (A) (A) (A) (A) (A) (A) (A) (A) (A) (A) (A) (A)
                 (A) (A) (A) (A) (A) (A) (A) (A) (A) (A) (A) (A)
                 (A) (A) (A) (A) (A) (A) (A) (A) (A) (A) (A) (A)
                 (A) (A) (A) (A) (A) (A) (A) (A) (A) (A) (A) (A)
                 (A) (A) (A) (A) (A) (A) (A) (A) (A) (A) (A) (A)
                 (A) (A) (A) (A) (A) (A) (A) (A) (A) (A) (A) (A)
                 (A) (A) (A) (A) (A) (A) (A) (A) (A) (A) (A) (A)
                 (A) (A) (A) (A) (A) (A) (A) (A) (A) (A) (A)
 The electronic state of the initial guess is 1-A.
 Leave Link  401 at Thu Sep 30 18:06:02 2021, MaxMem= 1342177280 cpu:      24.8
 (Enter /sw/target/amd/app/gaussian/Gaussian09RevA.02_gcc-4.9.2/g09/l502.exe)
 Closed shell SCF:
 Requested convergence on RMS density matrix=1.00D-08 within  64 cycles.
 Requested convergence on MAX density matrix=1.00D-06.
 Requested convergence on             energy=1.00D-06.
 No special actions if energy rises.
 Using DIIS extrapolation, IDIIS=  1040.
 Integral symmetry usage will be decided dynamically.
       264144 words used for storage of precomputed grid.
 Keep R1 ints in memory in canonical form, NReq=593999176.
 IEnd=      477593 IEndB=      477593 NGot=  1342177280 MDV=   757242930
 LenX=   757242930 LenY=   757174368
 Symmetry not used in FoFDir.
 MinBra= 0 MaxBra= 2 Meth= 1.
 IRaf=       0 NMat=   1 IRICut=       1 DoRegI=T DoRafI=F ISym2E= 0 JSym2E=0.
 Integral accuracy reduced to 1.0D-05 until final iterations.

 Cycle   1  Pass 0  IDiag  1:
 E= -869.211139060805    
 DIIS: error= 5.74D-02 at cycle   1 NSaved=   1.
 NSaved= 1 IEnMin= 1 EnMin= -869.211139060805     IErMin= 1 ErrMin= 5.74D-02
 ErrMax= 5.74D-02 EMaxC= 1.00D-01 BMatC= 5.94D-01 BMatP= 5.94D-01
 IDIUse=3 WtCom= 4.26D-01 WtEn= 5.74D-01
 Coeff-Com:  0.100D+01
 Coeff-En:   0.100D+01
 Coeff:      0.100D+01
 Gap=     0.164 Goal=   None    Shift=    0.000
 GapD=    0.164 DampG=1.000 DampE=0.500 DampFc=0.5000 IDamp=-1.
 Damping current iteration by 5.00D-01
 RMSDP=6.38D-03 MaxDP=1.85D-01              OVMax= 2.23D-01

 Cycle   2  Pass 0  IDiag  1:
 E= -869.495262577002     Delta-E=       -0.284123516197 Rises=F Damp=T
 DIIS: error= 9.48D-03 at cycle   2 NSaved=   2.
 NSaved= 2 IEnMin= 2 EnMin= -869.495262577002     IErMin= 2 ErrMin= 9.48D-03
 ErrMax= 9.48D-03 EMaxC= 1.00D-01 BMatC= 2.03D-02 BMatP= 5.94D-01
 IDIUse=3 WtCom= 9.05D-01 WtEn= 9.48D-02
 Coeff-Com:  0.498D-01 0.950D+00
 Coeff-En:   0.827D-01 0.917D+00
 Coeff:      0.529D-01 0.947D+00
 Gap=     0.168 Goal=   None    Shift=    0.000
 RMSDP=1.56D-03 MaxDP=4.90D-02 DE=-2.84D-01 OVMax= 1.69D-01

 Cycle   3  Pass 0  IDiag  1:
 E= -869.808797392178     Delta-E=       -0.313534815176 Rises=F Damp=F
 DIIS: error= 6.98D-03 at cycle   3 NSaved=   3.
 NSaved= 3 IEnMin= 3 EnMin= -869.808797392178     IErMin= 3 ErrMin= 6.98D-03
 ErrMax= 6.98D-03 EMaxC= 1.00D-01 BMatC= 1.11D-02 BMatP= 2.03D-02
 IDIUse=3 WtCom= 9.30D-01 WtEn= 6.98D-02
 Coeff-Com:  0.411D-02 0.403D+00 0.593D+00
 Coeff-En:   0.000D+00 0.000D+00 0.100D+01
 Coeff:      0.383D-02 0.375D+00 0.621D+00
 Gap=     0.164 Goal=   None    Shift=    0.000
 RMSDP=8.16D-04 MaxDP=4.43D-02 DE=-3.14D-01 OVMax= 9.75D-02

 Cycle   4  Pass 0  IDiag  1:
 E= -869.812380638108     Delta-E=       -0.003583245930 Rises=F Damp=F
 DIIS: error= 6.82D-03 at cycle   4 NSaved=   4.
 NSaved= 4 IEnMin= 4 EnMin= -869.812380638108     IErMin= 4 ErrMin= 6.82D-03
 ErrMax= 6.82D-03 EMaxC= 1.00D-01 BMatC= 7.49D-03 BMatP= 1.11D-02
 IDIUse=3 WtCom= 9.32D-01 WtEn= 6.82D-02
 Coeff-Com: -0.375D-02 0.822D-01 0.443D+00 0.479D+00
 Coeff-En:   0.000D+00 0.000D+00 0.433D+00 0.567D+00
 Coeff:     -0.349D-02 0.766D-01 0.442D+00 0.485D+00
 Gap=     0.162 Goal=   None    Shift=    0.000
 RMSDP=4.43D-04 MaxDP=1.92D-02 DE=-3.58D-03 OVMax= 5.64D-02

 Cycle   5  Pass 0  IDiag  1:
 E= -869.820637431331     Delta-E=       -0.008256793222 Rises=F Damp=F
 DIIS: error= 1.19D-03 at cycle   5 NSaved=   5.
 NSaved= 5 IEnMin= 5 EnMin= -869.820637431331     IErMin= 5 ErrMin= 1.19D-03
 ErrMax= 1.19D-03 EMaxC= 1.00D-01 BMatC= 3.90D-04 BMatP= 7.49D-03
 IDIUse=3 WtCom= 9.88D-01 WtEn= 1.19D-02
 Coeff-Com: -0.137D-02 0.167D-01 0.215D+00 0.282D+00 0.488D+00
 Coeff-En:   0.000D+00 0.000D+00 0.000D+00 0.000D+00 0.100D+01
 Coeff:     -0.135D-02 0.165D-01 0.212D+00 0.279D+00 0.494D+00
 Gap=     0.162 Goal=   None    Shift=    0.000
 RMSDP=1.00D-04 MaxDP=3.86D-03 DE=-8.26D-03 OVMax= 1.11D-02

 Cycle   6  Pass 0  IDiag  1:
 E= -869.820996292513     Delta-E=       -0.000358861183 Rises=F Damp=F
 DIIS: error= 3.33D-04 at cycle   6 NSaved=   6.
 NSaved= 6 IEnMin= 6 EnMin= -869.820996292513     IErMin= 6 ErrMin= 3.33D-04
 ErrMax= 3.33D-04 EMaxC= 1.00D-01 BMatC= 3.89D-05 BMatP= 3.90D-04
 IDIUse=3 WtCom= 9.97D-01 WtEn= 3.33D-03
 Coeff-Com: -0.128D-03-0.623D-03 0.643D-01 0.956D-01 0.285D+00 0.556D+00
 Coeff-En:   0.000D+00 0.000D+00 0.000D+00 0.000D+00 0.562D-01 0.944D+00
 Coeff:     -0.127D-03-0.621D-03 0.641D-01 0.953D-01 0.285D+00 0.557D+00
 Gap=     0.162 Goal=   None    Shift=    0.000
 RMSDP=2.92D-05 MaxDP=1.03D-03 DE=-3.59D-04 OVMax= 2.59D-03

 Cycle   7  Pass 0  IDiag  1:
 E= -869.821030873296     Delta-E=       -0.000034580783 Rises=F Damp=F
 DIIS: error= 1.16D-04 at cycle   7 NSaved=   7.
 NSaved= 7 IEnMin= 7 EnMin= -869.821030873296     IErMin= 7 ErrMin= 1.16D-04
 ErrMax= 1.16D-04 EMaxC= 1.00D-01 BMatC= 2.75D-06 BMatP= 3.89D-05
 IDIUse=3 WtCom= 9.99D-01 WtEn= 1.16D-03
 Coeff-Com:  0.423D-04-0.118D-02 0.257D-01 0.393D-01 0.135D+00 0.315D+00
 Coeff-Com:  0.486D+00
 Coeff-En:   0.000D+00 0.000D+00 0.000D+00 0.000D+00 0.000D+00 0.000D+00
 Coeff-En:   0.100D+01
 Coeff:      0.423D-04-0.118D-02 0.257D-01 0.393D-01 0.135D+00 0.315D+00
 Coeff:      0.486D+00
 Gap=     0.162 Goal=   None    Shift=    0.000
 RMSDP=7.71D-06 MaxDP=2.39D-04 DE=-3.46D-05 OVMax= 6.96D-04

 Initial convergence to 1.0D-05 achieved.  Increase integral accuracy.
 Cycle   8  Pass 1  IDiag  1:
 E= -869.821109537775     Delta-E=       -0.000078664478 Rises=F Damp=F
 DIIS: error= 3.78D-05 at cycle   1 NSaved=   1.
 NSaved= 1 IEnMin= 1 EnMin= -869.821109537775     IErMin= 1 ErrMin= 3.78D-05
 ErrMax= 3.78D-05 EMaxC= 1.00D-01 BMatC= 3.13D-07 BMatP= 3.13D-07
 IDIUse=1 WtCom= 1.00D+00 WtEn= 0.00D+00
 Coeff-Com:  0.100D+01
 Coeff:      0.100D+01
 Gap=     0.162 Goal=   None    Shift=    0.000
 RMSDP=7.71D-06 MaxDP=2.39D-04 DE=-7.87D-05 OVMax= 5.47D-04

 Cycle   9  Pass 1  IDiag  1:
 E= -869.821109329122     Delta-E=        0.000000208653 Rises=F Damp=F
 DIIS: error= 7.07D-05 at cycle   2 NSaved=   2.
 NSaved= 2 IEnMin= 1 EnMin= -869.821109537775     IErMin= 1 ErrMin= 3.78D-05
 ErrMax= 7.07D-05 EMaxC= 1.00D-01 BMatC= 5.46D-07 BMatP= 3.13D-07
 IDIUse=1 WtCom= 1.00D+00 WtEn= 0.00D+00
 Coeff-Com:  0.582D+00 0.418D+00
 Coeff:      0.582D+00 0.418D+00
 Gap=     0.162 Goal=   None    Shift=    0.000
 RMSDP=3.89D-06 MaxDP=1.27D-04 DE= 2.09D-07 OVMax= 4.16D-04

 Cycle  10  Pass 1  IDiag  1:
 E= -869.821109918280     Delta-E=       -0.000000589158 Rises=F Damp=F
 DIIS: error= 1.75D-05 at cycle   3 NSaved=   3.
 NSaved= 3 IEnMin= 3 EnMin= -869.821109918280     IErMin= 3 ErrMin= 1.75D-05
 ErrMax= 1.75D-05 EMaxC= 1.00D-01 BMatC= 3.62D-08 BMatP= 3.13D-07
 IDIUse=1 WtCom= 1.00D+00 WtEn= 0.00D+00
 Coeff-Com:  0.348D-01 0.203D+00 0.762D+00
 Coeff:      0.348D-01 0.203D+00 0.762D+00
 Gap=     0.162 Goal=   None    Shift=    0.000
 RMSDP=1.09D-06 MaxDP=2.84D-05 DE=-5.89D-07 OVMax= 1.22D-04

 Cycle  11  Pass 1  IDiag  1:
 E= -869.821109953071     Delta-E=       -0.000000034791 Rises=F Damp=F
 DIIS: error= 4.47D-06 at cycle   4 NSaved=   4.
 NSaved= 4 IEnMin= 4 EnMin= -869.821109953071     IErMin= 4 ErrMin= 4.47D-06
 ErrMax= 4.47D-06 EMaxC= 1.00D-01 BMatC= 8.27D-09 BMatP= 3.62D-08
 IDIUse=1 WtCom= 1.00D+00 WtEn= 0.00D+00
 Coeff-Com: -0.138D-01 0.103D+00 0.483D+00 0.428D+00
 Coeff:     -0.138D-01 0.103D+00 0.483D+00 0.428D+00
 Gap=     0.162 Goal=   None    Shift=    0.000
 RMSDP=3.90D-07 MaxDP=1.69D-05 DE=-3.48D-08 OVMax= 4.10D-05

 Cycle  12  Pass 1  IDiag  1:
 E= -869.821109960614     Delta-E=       -0.000000007543 Rises=F Damp=F
 DIIS: error= 1.21D-06 at cycle   5 NSaved=   5.
 NSaved= 5 IEnMin= 5 EnMin= -869.821109960614     IErMin= 5 ErrMin= 1.21D-06
 ErrMax= 1.21D-06 EMaxC= 1.00D-01 BMatC= 2.84D-10 BMatP= 8.27D-09
 IDIUse=1 WtCom= 1.00D+00 WtEn= 0.00D+00
 Coeff-Com: -0.986D-02 0.450D-01 0.225D+00 0.234D+00 0.506D+00
 Coeff:     -0.986D-02 0.450D-01 0.225D+00 0.234D+00 0.506D+00
 Gap=     0.162 Goal=   None    Shift=    0.000
 RMSDP=1.00D-07 MaxDP=3.86D-06 DE=-7.54D-09 OVMax= 1.21D-05

 Cycle  13  Pass 1  IDiag  1:
 E= -869.821109960847     Delta-E=       -0.000000000233 Rises=F Damp=F
 DIIS: error= 5.03D-07 at cycle   6 NSaved=   6.
 NSaved= 6 IEnMin= 6 EnMin= -869.821109960847     IErMin= 6 ErrMin= 5.03D-07
 ErrMax= 5.03D-07 EMaxC= 1.00D-01 BMatC= 5.65D-11 BMatP= 2.84D-10
 IDIUse=1 WtCom= 1.00D+00 WtEn= 0.00D+00
 Coeff-Com: -0.388D-02 0.125D-01 0.676D-01 0.830D-01 0.329D+00 0.511D+00
 Coeff:     -0.388D-02 0.125D-01 0.676D-01 0.830D-01 0.329D+00 0.511D+00
 Gap=     0.162 Goal=   None    Shift=    0.000
 RMSDP=3.87D-08 MaxDP=1.63D-06 DE=-2.33D-10 OVMax= 4.67D-06

 Cycle  14  Pass 1  IDiag  1:
 E= -869.821109960925     Delta-E=       -0.000000000078 Rises=F Damp=F
 DIIS: error= 8.70D-08 at cycle   7 NSaved=   7.
 NSaved= 7 IEnMin= 7 EnMin= -869.821109960925     IErMin= 7 ErrMin= 8.70D-08
 ErrMax= 8.70D-08 EMaxC= 1.00D-01 BMatC= 1.53D-12 BMatP= 5.65D-11
 IDIUse=1 WtCom= 1.00D+00 WtEn= 0.00D+00
 Coeff-Com: -0.544D-03 0.688D-03 0.499D-02 0.114D-01 0.734D-01 0.196D+00
 Coeff-Com:  0.714D+00
 Coeff:     -0.544D-03 0.688D-03 0.499D-02 0.114D-01 0.734D-01 0.196D+00
 Coeff:      0.714D+00
 Gap=     0.162 Goal=   None    Shift=    0.000
 RMSDP=7.70D-09 MaxDP=2.25D-07 DE=-7.78D-11 OVMax= 6.83D-07

 SCF Done:  E(RB3LYP) =  -869.821109961     A.U. after   14 cycles
             Convg  =    0.7700D-08             -V/T =  2.0078
 KE= 8.631133110407D+02 PE=-4.139395187887D+03 EE= 1.354288050889D+03
 Leave Link  502 at Thu Sep 30 18:12:30 2021, MaxMem= 1342177280 cpu:     251.1
 (Enter /sw/target/amd/app/gaussian/Gaussian09RevA.02_gcc-4.9.2/g09/l508.exe)
 QCSCF skips out because SCF is already converged.
 Leave Link  508 at Thu Sep 30 18:12:32 2021, MaxMem= 1342177280 cpu:       0.0
 (Enter /sw/target/amd/app/gaussian/Gaussian09RevA.02_gcc-4.9.2/g09/l601.exe)
 Copying SCF densities to generalized density rwf, IOpCl= 0 IROHF=0.

 **********************************************************************

            Population analysis using the SCF density.

 **********************************************************************

 Orbital symmetries:
       Occupied  (A) (A) (A) (A) (A) (A) (A) (A) (A) (A) (A) (A)
                 (A) (A) (A) (A) (A) (A) (A) (A) (A) (A) (A) (A)
                 (A) (A) (A) (A) (A) (A) (A) (A) (A) (A) (A) (A)
                 (A) (A) (A) (A) (A) (A) (A) (A) (A) (A) (A) (A)
                 (A) (A) (A) (A) (A) (A) (A) (A) (A) (A)
       Virtual   (A) (A) (A) (A) (A) (A) (A) (A) (A) (A) (A) (A)
                 (A) (A) (A) (A) (A) (A) (A) (A) (A) (A) (A) (A)
                 (A) (A) (A) (A) (A) (A) (A) (A) (A) (A) (A) (A)
                 (A) (A) (A) (A) (A) (A) (A) (A) (A) (A) (A) (A)
                 (A) (A) (A) (A) (A) (A) (A) (A) (A) (A) (A) (A)
                 (A) (A) (A) (A) (A) (A) (A) (A) (A) (A) (A) (A)
                 (A) (A) (A) (A) (A) (A) (A) (A) (A) (A) (A) (A)
                 (A) (A) (A) (A) (A) (A) (A) (A) (A) (A) (A) (A)
                 (A) (A) (A) (A) (A) (A) (A) (A) (A) (A) (A) (A)
                 (A) (A) (A) (A) (A) (A) (A) (A) (A) (A) (A) (A)
                 (A) (A) (A) (A) (A) (A) (A) (A) (A) (A) (A) (A)
                 (A) (A) (A) (A) (A) (A) (A) (A) (A) (A) (A) (A)
                 (A) (A) (A) (A) (A) (A) (A) (A) (A) (A) (A) (A)
                 (A) (A) (A) (A) (A) (A) (A) (A) (A) (A) (A) (A)
                 (A) (A) (A) (A) (A) (A) (A) (A) (A) (A) (A) (A)
                 (A) (A) (A) (A) (A) (A) (A) (A) (A) (A) (A) (A)
                 (A) (A) (A) (A) (A) (A) (A) (A) (A) (A) (A)
 The electronic state is 1-A.
 Alpha  occ. eigenvalues --  -66.14774 -19.16120 -10.25386 -10.19082 -10.19015
 Alpha  occ. eigenvalues --  -10.18786 -10.18537 -10.18526 -10.18488 -10.18460
 Alpha  occ. eigenvalues --  -10.18389 -10.17942 -10.16247 -10.16093 -10.16046
 Alpha  occ. eigenvalues --   -5.28901  -3.64997  -3.64699  -3.64674  -1.03073
 Alpha  occ. eigenvalues --   -0.86750  -0.81408  -0.76220  -0.74199  -0.71669
 Alpha  occ. eigenvalues --   -0.70308  -0.67882  -0.67795  -0.62823  -0.60999
 Alpha  occ. eigenvalues --   -0.59669  -0.53770  -0.51166  -0.49619  -0.47619
 Alpha  occ. eigenvalues --   -0.44793  -0.43083  -0.42286  -0.42245  -0.41766
 Alpha  occ. eigenvalues --   -0.41001  -0.40754  -0.40369  -0.39541  -0.39185
 Alpha  occ. eigenvalues --   -0.38955  -0.38238  -0.37276  -0.36261  -0.34961
 Alpha  occ. eigenvalues --   -0.33479  -0.32263  -0.31668  -0.29457  -0.28635
 Alpha  occ. eigenvalues --   -0.25936  -0.24331  -0.19548
 Alpha virt. eigenvalues --   -0.03381  -0.00110   0.04402   0.06654   0.07333
 Alpha virt. eigenvalues --    0.09405   0.09844   0.10543   0.11971   0.12250
 Alpha virt. eigenvalues --    0.13252   0.13882   0.14354   0.14958   0.16644
 Alpha virt. eigenvalues --    0.16796   0.17514   0.18850   0.18952   0.19762
 Alpha virt. eigenvalues --    0.20490   0.20672   0.20996   0.21798   0.24133
 Alpha virt. eigenvalues --    0.25459   0.27019   0.29507   0.30962   0.32223
 Alpha virt. eigenvalues --    0.34195   0.35345   0.36050   0.37443   0.38358
 Alpha virt. eigenvalues --    0.40134   0.41139   0.44656   0.46173   0.48639
 Alpha virt. eigenvalues --    0.51329   0.52014   0.52283   0.54148   0.55562
 Alpha virt. eigenvalues --    0.55967   0.56074   0.56669   0.58881   0.59838
 Alpha virt. eigenvalues --    0.60528   0.60910   0.61612   0.61994   0.62590
 Alpha virt. eigenvalues --    0.62695   0.63313   0.64731   0.64978   0.66174
 Alpha virt. eigenvalues --    0.67779   0.69074   0.71749   0.72759   0.73353
 Alpha virt. eigenvalues --    0.74511   0.76053   0.76984   0.77189   0.78750
 Alpha virt. eigenvalues --    0.81073   0.83229   0.83681   0.84112   0.84924
 Alpha virt. eigenvalues --    0.85453   0.86411   0.87427   0.88404   0.88787
 Alpha virt. eigenvalues --    0.89890   0.90802   0.91633   0.91790   0.92580
 Alpha virt. eigenvalues --    0.93267   0.93680   0.94042   0.95532   0.96879
 Alpha virt. eigenvalues --    0.97114   0.99371   0.99946   1.01775   1.02832
 Alpha virt. eigenvalues --    1.03689   1.04904   1.06485   1.08469   1.11873
 Alpha virt. eigenvalues --    1.12796   1.12965   1.18999   1.21196   1.23405
 Alpha virt. eigenvalues --    1.24410   1.25908   1.26684   1.28511   1.29289
 Alpha virt. eigenvalues --    1.35129   1.38830   1.39563   1.42058   1.43575
 Alpha virt. eigenvalues --    1.45251   1.47287   1.47798   1.48942   1.49512
 Alpha virt. eigenvalues --    1.50118   1.51004   1.51353   1.64083   1.66147
 Alpha virt. eigenvalues --    1.69304   1.69930   1.73048   1.76318   1.78650
 Alpha virt. eigenvalues --    1.79108   1.80913   1.81880   1.82845   1.84792
 Alpha virt. eigenvalues --    1.89731   1.90325   1.90793   1.91758   1.93010
 Alpha virt. eigenvalues --    1.93793   1.95038   1.97828   1.99894   2.03066
 Alpha virt. eigenvalues --    2.05660   2.08079   2.08927   2.09669   2.15071
 Alpha virt. eigenvalues --    2.15624   2.20383   2.21883   2.23246   2.24242
 Alpha virt. eigenvalues --    2.24585   2.27160   2.27269   2.27813   2.27978
 Alpha virt. eigenvalues --    2.28743   2.29291   2.29319   2.31641   2.32193
 Alpha virt. eigenvalues --    2.33986   2.34376   2.35913   2.42191   2.49379
 Alpha virt. eigenvalues --    2.51919   2.60257   2.63136   2.63919   2.64875
 Alpha virt. eigenvalues --    2.67949   2.69268   2.73967   2.78081   2.79967
 Alpha virt. eigenvalues --    2.82092   2.87325   2.93798   2.97806   3.04986
 Alpha virt. eigenvalues --    3.10523   3.16812   3.39744   3.49878   4.07823
 Alpha virt. eigenvalues --    4.09562   4.10469   4.13244   4.13963   4.17502
 Alpha virt. eigenvalues --    4.21822   4.23870   4.25148   4.33161   4.36196
 Alpha virt. eigenvalues --    4.45758   4.57366   4.86025
          Condensed to atoms (all electrons):
              1          2          3          4          5          6
     1  C    5.273016   0.392143  -0.018667  -0.000062  -0.000085   0.000001
     2  Si   0.392143  11.767936   0.350014  -0.012617  -0.001858   0.000217
     3  O   -0.018667   0.350014   8.185870   0.278361  -0.065092   0.004000
     4  C   -0.000062  -0.012617   0.278361   4.768457   0.445212   0.013586
     5  C   -0.000085  -0.001858  -0.065092   0.445212   5.157588   0.457682
     6  C    0.000001   0.000217   0.004000   0.013586   0.457682   4.909462
     7  C    0.000000   0.000026   0.000122  -0.077746  -0.020156   0.504397
     8  C    0.000001   0.000381   0.003551   0.005647  -0.052371   0.010052
     9  C    0.000126  -0.003776  -0.074552   0.385082  -0.050000  -0.037917
    10  C   -0.000080   0.000019  -0.002128  -0.102545   0.014487  -0.001932
    11  C   -0.000001   0.000106   0.000623   0.007783  -0.000324   0.000080
    12  C    0.000000  -0.000002  -0.000007  -0.000795   0.000040  -0.000398
    13  C   -0.000000   0.000010  -0.000061   0.015223  -0.000766   0.009293
    14  C   -0.035229   0.383879  -0.016941  -0.001511   0.000349   0.000018
    15  C   -0.033501   0.386455  -0.017532  -0.001770  -0.000300   0.000032
    16  H    0.363988  -0.020638  -0.000324  -0.000055   0.000001   0.000000
    17  H    0.360335  -0.010117   0.000428   0.000010   0.000001  -0.000000
    18  H    0.363991  -0.021036  -0.000302  -0.000055   0.000000   0.000000
    19  H   -0.000007   0.008532  -0.006513  -0.036705   0.347675  -0.037898
    20  H   -0.000000  -0.000100  -0.000051   0.002996  -0.038849   0.354606
    21  H   -0.000000  -0.000003   0.000002   0.000598   0.005140  -0.045747
    22  H    0.000039   0.001324   0.006879  -0.011157   0.000276  -0.000008
    23  H   -0.000000  -0.000002  -0.000001  -0.000164   0.000003  -0.000001
    24  H    0.000000   0.000000   0.000000   0.000017  -0.000001   0.000004
    25  H   -0.000000   0.000000   0.000000  -0.000167   0.000021   0.000288
    26  H   -0.000832  -0.020471  -0.000664  -0.000011   0.000111  -0.000002
    27  H    0.001433  -0.023898  -0.000324   0.000052   0.000027  -0.000004
    28  H   -0.000955  -0.010905   0.000457   0.000049   0.000009  -0.000000
    29  H   -0.001412  -0.021391  -0.000551  -0.000010   0.000074  -0.000001
    30  H   -0.000247  -0.009949   0.000505   0.000056  -0.000012  -0.000000
    31  H    0.001351  -0.025436  -0.001065   0.000386   0.001240   0.000011
              7          8          9         10         11         12
     1  C    0.000000   0.000001   0.000126  -0.000080  -0.000001   0.000000
     2  Si   0.000026   0.000381  -0.003776   0.000019   0.000106  -0.000002
     3  O    0.000122   0.003551  -0.074552  -0.002128   0.000623  -0.000007
     4  C   -0.077746   0.005647   0.385082  -0.102545   0.007783  -0.000795
     5  C   -0.020156  -0.052371  -0.050000   0.014487  -0.000324   0.000040
     6  C    0.504397   0.010052  -0.037917  -0.001932   0.000080  -0.000398
     7  C    5.148141   0.438390  -0.032302   0.017954  -0.000653   0.009037
     8  C    0.438390   4.680056   0.476866  -0.049856  -0.037012  -0.000543
     9  C   -0.032302   0.476866   4.904376   0.424068  -0.003602  -0.040241
    10  C    0.017954  -0.049856   0.424068   5.164626   0.498772  -0.016588
    11  C   -0.000653  -0.037012  -0.003602   0.498772   4.908207   0.503111
    12  C    0.009037  -0.000543  -0.040241  -0.016588   0.503111   4.902542
    13  C   -0.099255   0.450899  -0.026505  -0.076466  -0.021139   0.503994
    14  C   -0.000001   0.000000  -0.000163   0.000007   0.000000  -0.000000
    15  C   -0.000001  -0.000000  -0.000188   0.000010   0.000000  -0.000000
    16  H   -0.000000   0.000000   0.000002  -0.000006  -0.000000   0.000000
    17  H    0.000000  -0.000000  -0.000001   0.000001   0.000000  -0.000000
    18  H   -0.000000   0.000000   0.000003  -0.000007  -0.000000   0.000000
    19  H    0.004219   0.000828   0.003411  -0.000115   0.000002  -0.000000
    20  H   -0.033092   0.002485   0.001144   0.000016  -0.000000   0.000003
    21  H    0.355851  -0.042921   0.004660  -0.000188   0.000011   0.000271
    22  H   -0.000188   0.004657  -0.033447   0.357224  -0.047916   0.004585
    23  H    0.000010   0.000973   0.002561  -0.037398   0.359240  -0.043016
    24  H   -0.000210   0.002624   0.001097   0.004163  -0.042116   0.355931
    25  H   -0.009189  -0.042012   0.004662   0.000549   0.004726  -0.046763
    26  H   -0.000000   0.000000  -0.000008   0.000000  -0.000000  -0.000000
    27  H   -0.000001   0.000000   0.000003  -0.000001  -0.000000   0.000000
    28  H    0.000000  -0.000000   0.000002  -0.000000  -0.000000   0.000000
    29  H   -0.000000   0.000000   0.000001  -0.000000  -0.000000  -0.000000
    30  H    0.000000  -0.000000   0.000002  -0.000000  -0.000000   0.000000
    31  H   -0.000003  -0.000000   0.000004  -0.000002  -0.000000   0.000000
             13         14         15         16         17         18
     1  C   -0.000000  -0.035229  -0.033501   0.363988   0.360335   0.363991
     2  Si   0.000010   0.383879   0.386455  -0.020638  -0.010117  -0.021036
     3  O   -0.000061  -0.016941  -0.017532  -0.000324   0.000428  -0.000302
     4  C    0.015223  -0.001511  -0.001770  -0.000055   0.000010  -0.000055
     5  C   -0.000766   0.000349  -0.000300   0.000001   0.000001   0.000000
     6  C    0.009293   0.000018   0.000032   0.000000  -0.000000   0.000000
     7  C   -0.099255  -0.000001  -0.000001  -0.000000   0.000000  -0.000000
     8  C    0.450899   0.000000  -0.000000   0.000000  -0.000000   0.000000
     9  C   -0.026505  -0.000163  -0.000188   0.000002  -0.000001   0.000003
    10  C   -0.076466   0.000007   0.000010  -0.000006   0.000001  -0.000007
    11  C   -0.021139   0.000000   0.000000  -0.000000   0.000000  -0.000000
    12  C    0.503994  -0.000000  -0.000000   0.000000  -0.000000   0.000000
    13  C    5.134602   0.000000   0.000000   0.000000   0.000000   0.000000
    14  C    0.000000   5.294356  -0.034875  -0.001063  -0.000812   0.001392
    15  C    0.000000  -0.034875   5.294606   0.001319  -0.000454  -0.001463
    16  H    0.000000  -0.001063   0.001319   0.537628  -0.024868  -0.022829
    17  H    0.000000  -0.000812  -0.000454  -0.024868   0.534232  -0.024755
    18  H    0.000000   0.001392  -0.001463  -0.022829  -0.024755   0.538580
    19  H    0.000006  -0.000178  -0.000492   0.000000   0.000001   0.000000
    20  H   -0.000240   0.000001   0.000001  -0.000000   0.000000  -0.000000
    21  H   -0.008628   0.000000   0.000000  -0.000000  -0.000000  -0.000000
    22  H    0.000602  -0.000002  -0.000004   0.000018  -0.000000   0.000023
    23  H    0.004486   0.000000   0.000000  -0.000000   0.000000  -0.000000
    24  H   -0.036259  -0.000000  -0.000000   0.000000  -0.000000   0.000000
    25  H    0.356773   0.000000   0.000000   0.000000  -0.000000  -0.000000
    26  H    0.000000   0.365524   0.001265   0.000482  -0.000009  -0.000008
    27  H    0.000000   0.364735  -0.001613  -0.000001  -0.000009  -0.000026
    28  H    0.000000   0.359595  -0.000581  -0.000059   0.000135   0.000020
    29  H    0.000000   0.001259   0.366492   0.000015  -0.000079   0.000904
    30  H   -0.000000  -0.000887   0.358892  -0.000008  -0.000098  -0.000034
    31  H    0.000000  -0.001252   0.363565  -0.000024   0.000004  -0.000006
             19         20         21         22         23         24
     1  C   -0.000007  -0.000000  -0.000000   0.000039  -0.000000   0.000000
     2  Si   0.008532  -0.000100  -0.000003   0.001324  -0.000002   0.000000
     3  O   -0.006513  -0.000051   0.000002   0.006879  -0.000001   0.000000
     4  C   -0.036705   0.002996   0.000598  -0.011157  -0.000164   0.000017
     5  C    0.347675  -0.038849   0.005140   0.000276   0.000003  -0.000001
     6  C   -0.037898   0.354606  -0.045747  -0.000008  -0.000001   0.000004
     7  C    0.004219  -0.033092   0.355851  -0.000188   0.000010  -0.000210
     8  C    0.000828   0.002485  -0.042921   0.004657   0.000973   0.002624
     9  C    0.003411   0.001144   0.004660  -0.033447   0.002561   0.001097
    10  C   -0.000115   0.000016  -0.000188   0.357224  -0.037398   0.004163
    11  C    0.000002  -0.000000   0.000011  -0.047916   0.359240  -0.042116
    12  C   -0.000000   0.000003   0.000271   0.004585  -0.043016   0.355931
    13  C    0.000006  -0.000240  -0.008628   0.000602   0.004486  -0.036259
    14  C   -0.000178   0.000001   0.000000  -0.000002   0.000000  -0.000000
    15  C   -0.000492   0.000001   0.000000  -0.000004   0.000000  -0.000000
    16  H    0.000000  -0.000000  -0.000000   0.000018  -0.000000   0.000000
    17  H    0.000001   0.000000  -0.000000  -0.000000   0.000000  -0.000000
    18  H    0.000000  -0.000000  -0.000000   0.000023  -0.000000   0.000000
    19  H    0.581795  -0.005110  -0.000202  -0.000004  -0.000000   0.000000
    20  H   -0.005110   0.591351  -0.005071   0.000000  -0.000000  -0.000000
    21  H   -0.000202  -0.005071   0.606552   0.000002   0.000000  -0.000013
    22  H   -0.000004   0.000000   0.000002   0.575828  -0.005140  -0.000192
    23  H   -0.000000  -0.000000   0.000000  -0.005140   0.596023  -0.005170
    24  H    0.000000  -0.000000  -0.000013  -0.000192  -0.005170   0.597931
    25  H    0.000000  -0.000011   0.006260   0.000018  -0.000204  -0.005303
    26  H   -0.000081   0.000000  -0.000000  -0.000002   0.000000  -0.000000
    27  H    0.001952  -0.000002  -0.000000   0.000000  -0.000000   0.000000
    28  H    0.000014  -0.000000  -0.000000   0.000000  -0.000000   0.000000
    29  H   -0.000038   0.000000  -0.000000  -0.000002   0.000000  -0.000000
    30  H    0.000016  -0.000000  -0.000000   0.000000  -0.000000   0.000000
    31  H    0.002175  -0.000002  -0.000000  -0.000000  -0.000000   0.000000
             25         26         27         28         29         30
     1  C   -0.000000  -0.000832   0.001433  -0.000955  -0.001412  -0.000247
     2  Si   0.000000  -0.020471  -0.023898  -0.010905  -0.021391  -0.009949
     3  O    0.000000  -0.000664  -0.000324   0.000457  -0.000551   0.000505
     4  C   -0.000167  -0.000011   0.000052   0.000049  -0.000010   0.000056
     5  C    0.000021   0.000111   0.000027   0.000009   0.000074  -0.000012
     6  C    0.000288  -0.000002  -0.000004  -0.000000  -0.000001  -0.000000
     7  C   -0.009189  -0.000000  -0.000001   0.000000  -0.000000   0.000000
     8  C   -0.042012   0.000000   0.000000  -0.000000   0.000000  -0.000000
     9  C    0.004662  -0.000008   0.000003   0.000002   0.000001   0.000002
    10  C    0.000549   0.000000  -0.000001  -0.000000  -0.000000  -0.000000
    11  C    0.004726  -0.000000  -0.000000  -0.000000  -0.000000  -0.000000
    12  C   -0.046763  -0.000000   0.000000   0.000000  -0.000000   0.000000
    13  C    0.356773   0.000000   0.000000   0.000000   0.000000  -0.000000
    14  C    0.000000   0.365524   0.364735   0.359595   0.001259  -0.000887
    15  C    0.000000   0.001265  -0.001613  -0.000581   0.366492   0.358892
    16  H    0.000000   0.000482  -0.000001  -0.000059   0.000015  -0.000008
    17  H   -0.000000  -0.000009  -0.000009   0.000135  -0.000079  -0.000098
    18  H   -0.000000  -0.000008  -0.000026   0.000020   0.000904  -0.000034
    19  H    0.000000  -0.000081   0.001952   0.000014  -0.000038   0.000016
    20  H   -0.000011   0.000000  -0.000002  -0.000000   0.000000  -0.000000
    21  H    0.006260  -0.000000  -0.000000  -0.000000  -0.000000  -0.000000
    22  H    0.000018  -0.000002   0.000000   0.000000  -0.000002   0.000000
    23  H   -0.000204   0.000000  -0.000000  -0.000000   0.000000  -0.000000
    24  H   -0.005303  -0.000000   0.000000   0.000000  -0.000000   0.000000
    25  H    0.601595   0.000000  -0.000000  -0.000000   0.000000  -0.000000
    26  H    0.000000   0.533646  -0.022732  -0.024502  -0.000023   0.000018
    27  H   -0.000000  -0.022732   0.545423  -0.025232   0.000011  -0.000057
    28  H   -0.000000  -0.024502  -0.025232   0.538637  -0.000010   0.000032
    29  H    0.000000  -0.000023   0.000011  -0.000010   0.536405  -0.025200
    30  H   -0.000000   0.000018  -0.000057   0.000032  -0.025200   0.538353
    31  H    0.000000  -0.000008   0.000316   0.000015  -0.022516  -0.024395
             31
     1  C    0.001351
     2  Si  -0.025436
     3  O   -0.001065
     4  C    0.000386
     5  C    0.001240
     6  C    0.000011
     7  C   -0.000003
     8  C   -0.000000
     9  C    0.000004
    10  C   -0.000002
    11  C   -0.000000
    12  C    0.000000
    13  C    0.000000
    14  C   -0.001252
    15  C    0.363565
    16  H   -0.000024
    17  H    0.000004
    18  H   -0.000006
    19  H    0.002175
    20  H   -0.000002
    21  H   -0.000000
    22  H   -0.000000
    23  H   -0.000000
    24  H    0.000000
    25  H    0.000000
    26  H   -0.000008
    27  H    0.000316
    28  H    0.000015
    29  H   -0.022516
    30  H   -0.024395
    31  H    0.543034
 Mulliken atomic charges:
              1
     1  C   -0.665346
     2  Si   0.891156
     3  O   -0.626039
     4  C    0.321856
     5  C   -0.200124
     6  C   -0.139819
     7  C   -0.205349
     8  C    0.147307
     9  C    0.094633
    10  C   -0.194585
    11  C   -0.129898
    12  C   -0.131159
    13  C   -0.206572
    14  C   -0.678199
    15  C   -0.679864
    16  H    0.166421
    17  H    0.166054
    18  H    0.165605
    19  H    0.136716
    20  H    0.129926
    21  H    0.123428
    22  H    0.146583
    23  H    0.127797
    24  H    0.127496
    25  H    0.128754
    26  H    0.168306
    27  H    0.159947
    28  H    0.163279
    29  H    0.166071
    30  H    0.163011
    31  H    0.162607
 Sum of Mulliken atomic charges =  -0.00000
 Mulliken charges with hydrogens summed into heavy atoms:
              1
     1  C   -0.167266
     2  Si   0.891156
     3  O   -0.626039
     4  C    0.321856
     5  C   -0.063408
     6  C   -0.009893
     7  C   -0.081921
     8  C    0.147307
     9  C    0.094633
    10  C   -0.048002
    11  C   -0.002100
    12  C   -0.003663
    13  C   -0.077817
    14  C   -0.186667
    15  C   -0.188175
 Sum of Mulliken charges with hydrogens summed into heavy atoms =  -0.00000
 Electronic spatial extent (au):  <R**2>=           4189.2619
 Charge=             -0.0000 electrons
 Dipole moment (field-independent basis, Debye):
    X=             -0.9526    Y=              0.3127    Z=              0.0044  Tot=              1.0026
 Quadrupole moment (field-independent basis, Debye-Ang):
   XX=            -85.7279   YY=            -89.6502   ZZ=            -99.8308
   XY=             -0.5625   XZ=             -0.0461   YZ=             -0.0540
 Traceless Quadrupole moment (field-independent basis, Debye-Ang):
   XX=              6.0084   YY=              2.0861   ZZ=             -8.0945
   XY=             -0.5625   XZ=             -0.0461   YZ=             -0.0540
 Octapole moment (field-independent basis, Debye-Ang**2):
  XXX=              5.5389  YYY=              2.0849  ZZZ=             -0.3947  XYY=              9.0881
  XXY=             -3.3650  XXZ=             -0.7784  XZZ=            -12.9230  YZZ=             -5.4591
  YYZ=              0.6792  XYZ=             -0.3262
 Hexadecapole moment (field-independent basis, Debye-Ang**3):
 XXXX=          -3886.6350 YYYY=          -1193.4581 ZZZZ=           -357.2054 XXXY=             -8.0898
 XXXZ=              0.5024 YYYX=            -19.6487 YYYZ=             -0.7127 ZZZX=              0.2772
 ZZZY=             -0.4268 XXYY=           -871.1133 XXZZ=           -798.3689 YYZZ=           -288.3297
 XXYZ=             -0.7716 YYXZ=             -0.9972 ZZXY=             13.9084
 N-N= 1.052172715997D+03 E-N=-4.139395176743D+03  KE= 8.631133110407D+02
 No NMR shielding tensors so no spin-rotation constants.
 Leave Link  601 at Thu Sep 30 18:12:35 2021, MaxMem= 1342177280 cpu:       1.8
 (Enter /sw/target/amd/app/gaussian/Gaussian09RevA.02_gcc-4.9.2/g09/l701.exe)
 Compute integral first derivatives.
 ... and contract with generalized density number  0.
 Leave Link  701 at Thu Sep 30 18:12:38 2021, MaxMem= 1342177280 cpu:       1.6
 (Enter /sw/target/amd/app/gaussian/Gaussian09RevA.02_gcc-4.9.2/g09/l702.exe)
 L702 exits ... SP integral derivatives will be done elsewhere.
 Leave Link  702 at Thu Sep 30 18:12:38 2021, MaxMem= 1342177280 cpu:       0.1
 (Enter /sw/target/amd/app/gaussian/Gaussian09RevA.02_gcc-4.9.2/g09/l703.exe)
 Compute integral first derivatives, UseDBF=F ICtDFT=           0.
 Integral derivatives from FoFDir, PRISM(SPDF).
 Calling FoFJK, ICntrl=      2127 FMM=F ISym2X=0 I1Cent= 0 IOpClX= 0 NMat=1 NMatS=1 NMatT=0.
 FoFCou: FMM=F IPFlag=           0 FMFlag=      100000 FMFlg1=         800
         NFxFlg=           0 DoJE=F BraDBF=F KetDBF=F FulRan=T
         Omega=  0.000000  0.000000  1.000000  0.000000  0.000000 ICntrl=    2127 IOpCl=  0
         NMat0=    1 NMatS0=    1 NMatT0=    0 NMatD0=    1 NMtDS0=    0 NMtDT0=    0
         I1Cent=           0 NGrid=           0.
 Symmetry not used in FoFCou.
 Leave Link  703 at Thu Sep 30 18:14:20 2021, MaxMem= 1342177280 cpu:     112.2
 (Enter /sw/target/amd/app/gaussian/Gaussian09RevA.02_gcc-4.9.2/g09/l716.exe)
 Dipole        =-3.74794079D-01 1.23024890D-01 1.73936207D-03
 ***** Axes restored to original set *****
 -------------------------------------------------------------------
 Center     Atomic                   Forces (Hartrees/Bohr)
 Number     Number              X              Y              Z
 -------------------------------------------------------------------
      1        6           0.003324285    0.001751727   -0.012183006
      2       14          -0.012070736   -0.002657820    0.020802082
      3        8           0.008209529    0.002031655   -0.013258204
      4        6          -0.017608175   -0.002029006    0.011252523
      5        6           0.011303817   -0.001552300    0.013944916
      6        6           0.011017071    0.002469880   -0.021767883
      7        6          -0.029310204   -0.000378676    0.001962269
      8        6          -0.005793198    0.000915138   -0.008738822
      9        6           0.010808647   -0.000661113    0.007481238
     10        6           0.018005367    0.000098968    0.001785133
     11        6          -0.007360264   -0.002545179    0.023008246
     12        6          -0.016656086    0.001623466   -0.018630177
     13        6           0.027674611    0.001124209   -0.005616503
     14        6           0.001745802    0.001134312   -0.005607287
     15        6           0.002214602    0.000764358   -0.004952731
     16        1           0.002253317   -0.000630187    0.002058310
     17        1          -0.001382058    0.000172392    0.000053529
     18        1           0.002507768    0.000113256    0.002182919
     19        1           0.001764393   -0.001156315    0.004012775
     20        1           0.000359168   -0.000087889    0.000659394
     21        1           0.002749535    0.000144404    0.000356495
     22        1          -0.003490790   -0.000060552   -0.001703220
     23        1          -0.000919159   -0.000268628    0.001181037
     24        1          -0.000207998    0.000001040   -0.000714512
     25        1          -0.003073662   -0.000206469    0.001942422
     26        1          -0.001064381   -0.002494992   -0.000672665
     27        1          -0.001794619   -0.002709007   -0.001036821
     28        1          -0.000134873    0.000371938    0.000684480
     29        1          -0.000739622    0.002444199    0.000219287
     30        1          -0.000514114   -0.000146534    0.001323843
     31        1          -0.001817972    0.002423723   -0.000029068
 -------------------------------------------------------------------
 Cartesian Forces:  Max     0.029310204 RMS     0.008058157
 Leave Link  716 at Thu Sep 30 18:14:20 2021, MaxMem= 1342177280 cpu:       0.1
 (Enter /sw/target/amd/app/gaussian/Gaussian09RevA.02_gcc-4.9.2/g09/l103.exe)

 GradGradGradGradGradGradGradGradGradGradGradGradGradGradGradGradGradGrad
 Berny optimization.
 Internal  Forces:  Max     0.020225600 RMS     0.004096789
 Search for a local minimum.
 Step number   1 out of a maximum of  173
 All quantities printed in internal units (Hartrees-Bohrs-Radians)
 RMS Force = .40968D-02 SwitMx=.10000D-02 MixMth= 1
 Mixed Optimization -- RFO/linear search
 Second derivative matrix not updated -- first step.
     Eigenvalues ---    0.00904   0.00996   0.01025   0.01895   0.01908
     Eigenvalues ---    0.01968   0.01994   0.02011   0.02034   0.02057
     Eigenvalues ---    0.02070   0.02097   0.02123   0.02138   0.02156
     Eigenvalues ---    0.02172   0.02177   0.02178   0.02194   0.03447
     Eigenvalues ---    0.05924   0.05931   0.05977   0.05995   0.06000
     Eigenvalues ---    0.06044   0.06072   0.06240   0.06659   0.15969
     Eigenvalues ---    0.16000   0.16000   0.16000   0.16000   0.16000
     Eigenvalues ---    0.16000   0.16000   0.16000   0.16000   0.16000
     Eigenvalues ---    0.16000   0.16000   0.16000   0.16000   0.16000
     Eigenvalues ---    0.16000   0.16228   0.20156   0.20549   0.20674
     Eigenvalues ---    0.22000   0.22080   0.22570   0.23520   0.24492
     Eigenvalues ---    0.24927   0.25000   0.25000   0.34231   0.34346
     Eigenvalues ---    0.34357   0.34360   0.34380   0.34381   0.34410
     Eigenvalues ---    0.34426   0.34438   0.34954   0.34977   0.34999
     Eigenvalues ---    0.35121   0.35151   0.35232   0.35573   0.38142
     Eigenvalues ---    0.40108   0.40485   0.41032   0.43217   0.43894
     Eigenvalues ---    0.45356   0.45627   0.45666   0.45800   0.46601
     Eigenvalues ---    0.46850   0.498591000.000001000.000001000.00000
     Eigenvalues --- 1000.000001000.000001000.000001000.000001000.00000
     Eigenvalues --- 1000.000001000.000001000.000001000.000001000.00000
     Eigenvalues --- 1000.000001000.000001000.000001000.000001000.00000
     Eigenvalues --- 1000.000001000.000001000.000001000.000001000.00000
     Eigenvalues --- 1000.000001000.000001000.000001000.000001000.00000
     Eigenvalues --- 1000.000001000.000001000.000001000.000001000.00000
     Eigenvalues --- 1000.000001000.000001000.000001000.000001000.00000
     Eigenvalues --- 1000.000001000.000001000.000001000.000001000.00000
     Eigenvalues --- 1000.000001000.000001000.000001000.000001000.00000
     Eigenvalues --- 1000.000001000.000001000.000001000.000001000.00000
     Eigenvalues --- 1000.000001000.000001000.000001000.000001000.00000
     Eigenvalues --- 1000.000001000.000001000.000001000.000001000.00000
     Eigenvalues --- 1000.000001000.000001000.000001000.000001000.00000
     Eigenvalues --- 1000.000001000.000001000.000001000.000001000.00000
     Eigenvalues --- 1000.000001000.000001000.00000
 RFO step:  Lambda=-9.11243612D-03 EMin= 9.03937554D-03
 Linear search not attempted -- first point.
 Iteration  1 RMS(Cart)=  0.04397739 RMS(Int)=  0.00055487
 Iteration  2 RMS(Cart)=  0.00092209 RMS(Int)=  0.00023201
 Iteration  3 RMS(Cart)=  0.00000026 RMS(Int)=  0.00023201
 Variable       Old X    -DE/DX   Delta X   Delta X   Delta X     New X
                                 (Linear)    (Quad)   (Total)
    R1        3.57102  -0.00170   0.00000  -0.00806  -0.00806   3.56296
    R2        2.06727   0.00150   0.00000   0.00426   0.00426   2.07154
    R3        2.06750   0.00069   0.00000   0.00196   0.00196   2.06946
[...]
 ******************************Gaussian NBO Version 3.1******************************
             N A T U R A L   A T O M I C   O R B I T A L   A N D
          N A T U R A L   B O N D   O R B I T A L   A N A L Y S I S
 ******************************Gaussian NBO Version 3.1******************************
       /RESON  / : Allow strongly delocalized NBO set

 Analyzing the CI density

 Job title: C[Si](Oc1cccc2c1cccc2)(C)C_conf_0                               

 Storage needed:    207538 in NPA (1342172165 available)


 NATURAL POPULATIONS:  Natural atomic orbital occupancies 
                                                          
   NAO  Atom  No  lang   Type(AO)    Occupancy
 --------------------------------------------
     1    C    1  S      Cor( 1S)     1.99949
     2    C    1  S      Val( 2S)     1.23272
     3    C    1  S      Ryd( 3S)     0.00156
     4    C    1  S      Ryd( 4S)     0.00001
     5    C    1  px     Val( 2p)     1.28891
     6    C    1  px     Ryd( 3p)     0.00112
     7    C    1  py     Val( 2p)     1.41058
     8    C    1  py     Ryd( 3p)     0.00288
     9    C    1  pz     Val( 2p)     1.27990
    10    C    1  pz     Ryd( 3p)     0.00059
    11    C    1  dxy    Ryd( 3d)     0.00026
    12    C    1  dxz    Ryd( 3d)     0.00033
    13    C    1  dyz    Ryd( 3d)     0.00063
    14    C    1  dx2y2  Ryd( 3d)     0.00080
    15    C    1  dz2    Ryd( 3d)     0.00073

    16   Si    2  S      Cor( 1S)     2.00000
    17   Si    2  S      Cor( 2S)     1.99864
    18   Si    2  S      Val( 3S)     0.74318
    19   Si    2  S      Ryd( 4S)     0.00123
    20   Si    2  S      Ryd( 5S)     0.00001
    21   Si    2  px     Cor( 2p)     1.99957
    22   Si    2  px     Val( 3p)     0.28277
    23   Si    2  px     Ryd( 4p)     0.00152
    24   Si    2  py     Cor( 2p)     1.99981
    25   Si    2  py     Val( 3p)     0.46474
    26   Si    2  py     Ryd( 4p)     0.00294
    27   Si    2  pz     Cor( 2p)     1.99982
    28   Si    2  pz     Val( 3p)     0.45841
    29   Si    2  pz     Ryd( 4p)     0.00480
    30   Si    2  dxy    Ryd( 3d)     0.00636
    31   Si    2  dxz    Ryd( 3d)     0.00693
    32   Si    2  dyz    Ryd( 3d)     0.00734
    33   Si    2  dx2y2  Ryd( 3d)     0.00777
    34   Si    2  dz2    Ryd( 3d)     0.00764

    35    O    3  S      Cor( 1S)     1.99976
    36    O    3  S      Val( 2S)     1.64001
    37    O    3  S      Ryd( 3S)     0.00138
    38    O    3  S      Ryd( 4S)     0.00010
    39    O    3  px     Val( 2p)     1.61991
    40    O    3  px     Ryd( 3p)     0.00199
    41    O    3  py     Val( 2p)     1.78133
    42    O    3  py     Ryd( 3p)     0.00187
    43    O    3  pz     Val( 2p)     1.75395
    44    O    3  pz     Ryd( 3p)     0.00186
    45    O    3  dxy    Ryd( 3d)     0.00130
    46    O    3  dxz    Ryd( 3d)     0.00039
    47    O    3  dyz    Ryd( 3d)     0.00120
    48    O    3  dx2y2  Ryd( 3d)     0.00130
    49    O    3  dz2    Ryd( 3d)     0.00091

    50    C    4  S      Cor( 1S)     1.99873
    51    C    4  S      Val( 2S)     0.82200
    52    C    4  S      Ryd( 3S)     0.00138
    53    C    4  S      Ryd( 4S)     0.00014
    54    C    4  px     Val( 2p)     0.86484
    55    C    4  px     Ryd( 3p)     0.00433
    56    C    4  py     Val( 2p)     0.95548
    57    C    4  py     Ryd( 3p)     0.00785
    58    C    4  pz     Val( 2p)     0.95227
    59    C    4  pz     Ryd( 3p)     0.00222
    60    C    4  dxy    Ryd( 3d)     0.00174
    61    C    4  dxz    Ryd( 3d)     0.00131
    62    C    4  dyz    Ryd( 3d)     0.00122
    63    C    4  dx2y2  Ryd( 3d)     0.00154
    64    C    4  dz2    Ryd( 3d)     0.00044

    65    C    5  S      Cor( 1S)     1.99904
    66    C    5  S      Val( 2S)     0.96406
    67    C    5  S      Ryd( 3S)     0.00063
    68    C    5  S      Ryd( 4S)     0.00006
    69    C    5  px     Val( 2p)     1.17489
    70    C    5  px     Ryd( 3p)     0.00380
    71    C    5  py     Val( 2p)     1.08558
    72    C    5  py     Ryd( 3p)     0.00424
    73    C    5  pz     Val( 2p)     1.04858
    74    C    5  pz     Ryd( 3p)     0.00222
    75    C    5  dxy    Ryd( 3d)     0.00055
    76    C    5  dxz    Ryd( 3d)     0.00035
    77    C    5  dyz    Ryd( 3d)     0.00075
    78    C    5  dx2y2  Ryd( 3d)     0.00085
    79    C    5  dz2    Ryd( 3d)     0.00045

    80    C    6  S      Cor( 1S)     1.99912
    81    C    6  S      Val( 2S)     0.96205
    82    C    6  S      Ryd( 3S)     0.00067
    83    C    6  S      Ryd( 4S)     0.00004
    84    C    6  px     Val( 2p)     1.05958
    85    C    6  px     Ryd( 3p)     0.00495
    86    C    6  py     Val( 2p)     1.19191
    87    C    6  py     Ryd( 3p)     0.00526
    88    C    6  pz     Val( 2p)     1.00213
    89    C    6  pz     Ryd( 3p)     0.00164
    90    C    6  dxy    Ryd( 3d)     0.00062
    91    C    6  dxz    Ryd( 3d)     0.00081
    92    C    6  dyz    Ryd( 3d)     0.00033
    93    C    6  dx2y2  Ryd( 3d)     0.00086
    94    C    6  dz2    Ryd( 3d)     0.00044

    95    C    7  S      Cor( 1S)     1.99904
    96    C    7  S      Val( 2S)     0.95741
    97    C    7  S      Ryd( 3S)     0.00060
    98    C    7  S      Ryd( 4S)     0.00005
    99    C    7  px     Val( 2p)     1.14791
   100    C    7  px     Ryd( 3p)     0.00418
   101    C    7  py     Val( 2p)     1.09568
   102    C    7  py     Ryd( 3p)     0.00432
   103    C    7  pz     Val( 2p)     0.94714
   104    C    7  pz     Ryd( 3p)     0.00274
   105    C    7  dxy    Ryd( 3d)     0.00088
   106    C    7  dxz    Ryd( 3d)     0.00053
   107    C    7  dyz    Ryd( 3d)     0.00050
   108    C    7  dx2y2  Ryd( 3d)     0.00068
   109    C    7  dz2    Ryd( 3d)     0.00042

   110    C    8  S      Cor( 1S)     1.99904
   111    C    8  S      Val( 2S)     0.87258
   112    C    8  S      Ryd( 3S)     0.00052
   113    C    8  S      Ryd( 4S)     0.00006
   114    C    8  px     Val( 2p)     1.09454
   115    C    8  px     Ryd( 3p)     0.00561
   116    C    8  py     Val( 2p)     1.08068
   117    C    8  py     Ryd( 3p)     0.00512
   118    C    8  pz     Val( 2p)     0.99604
   119    C    8  pz     Ryd( 3p)     0.00062
   120    C    8  dxy    Ryd( 3d)     0.00070
   121    C    8  dxz    Ryd( 3d)     0.00092
   122    C    8  dyz    Ryd( 3d)     0.00066
   123    C    8  dx2y2  Ryd( 3d)     0.00070
   124    C    8  dz2    Ryd( 3d)     0.00034

   125    C    9  S      Cor( 1S)     1.99897
   126    C    9  S      Val( 2S)     0.87522
   127    C    9  S      Ryd( 3S)     0.00061
   128    C    9  S      Ryd( 4S)     0.00006
   129    C    9  px     Val( 2p)     1.06756
   130    C    9  px     Ryd( 3p)     0.00513
   131    C    9  py     Val( 2p)     1.10691
   132    C    9  py     Ryd( 3p)     0.00517
   133    C    9  pz     Val( 2p)     1.01375
   134    C    9  pz     Ryd( 3p)     0.00076
   135    C    9  dxy    Ryd( 3d)     0.00078
   136    C    9  dxz    Ryd( 3d)     0.00049
   137    C    9  dyz    Ryd( 3d)     0.00105
   138    C    9  dx2y2  Ryd( 3d)     0.00061
   139    C    9  dz2    Ryd( 3d)     0.00035

   140    C   10  S      Cor( 1S)     1.99907
   141    C   10  S      Val( 2S)     0.94146
   142    C   10  S      Ryd( 3S)     0.00072
   143    C   10  S      Ryd( 4S)     0.00005
   144    C   10  px     Val( 2p)     1.15790
   145    C   10  px     Ryd( 3p)     0.00476
   146    C   10  py     Val( 2p)     1.08304
   147    C   10  py     Ryd( 3p)     0.00463
   148    C   10  pz     Val( 2p)     1.08822
   149    C   10  pz     Ryd( 3p)     0.00511
   150    C   10  dxy    Ryd( 3d)     0.00076
   151    C   10  dxz    Ryd( 3d)     0.00045
   152    C   10  dyz    Ryd( 3d)     0.00036
   153    C   10  dx2y2  Ryd( 3d)     0.00069
   154    C   10  dz2    Ryd( 3d)     0.00042

   155    C   11  S      Cor( 1S)     1.99911
   156    C   11  S      Val( 2S)     0.96097
   157    C   11  S      Ryd( 3S)     0.00060
   158    C   11  S      Ryd( 4S)     0.00004
   159    C   11  px     Val( 2p)     1.06321
   160    C   11  px     Ryd( 3p)     0.00468
   161    C   11  py     Val( 2p)     1.18759
   162    C   11  py     Ryd( 3p)     0.00493
   163    C   11  pz     Val( 2p)     0.99049
   164    C   11  pz     Ryd( 3p)     0.00210
   165    C   11  dxy    Ryd( 3d)     0.00061
   166    C   11  dxz    Ryd( 3d)     0.00092
   167    C   11  dyz    Ryd( 3d)     0.00030
   168    C   11  dx2y2  Ryd( 3d)     0.00089
   169    C   11  dz2    Ryd( 3d)     0.00044

   170    C   12  S      Cor( 1S)     1.99911
   171    C   12  S      Val( 2S)     0.95815
   172    C   12  S      Ryd( 3S)     0.00060
   173    C   12  S      Ryd( 4S)     0.00003
   174    C   12  px     Val( 2p)     1.16675
   175    C   12  px     Ryd( 3p)     0.00496
   176    C   12  py     Val( 2p)     1.08499
   177    C   12  py     Ryd( 3p)     0.00484
   178    C   12  pz     Val( 2p)     1.02402
   179    C   12  pz     Ryd( 3p)     0.00235
   180    C   12  dxy    Ryd( 3d)     0.00071
   181    C   12  dxz    Ryd( 3d)     0.00033
   182    C   12  dyz    Ryd( 3d)     0.00082
   183    C   12  dx2y2  Ryd( 3d)     0.00076
   184    C   12  dz2    Ryd( 3d)     0.00043

   185    C   13  S      Cor( 1S)     1.99906
   186    C   13  S      Val( 2S)     0.93957
   187    C   13  S      Ryd( 3S)     0.00068
   188    C   13  S      Ryd( 4S)     0.00004
   189    C   13  px     Val( 2p)     1.11854
   190    C   13  px     Ryd( 3p)     0.00446
   191    C   13  py     Val( 2p)     1.11236
   192    C   13  py     Ryd( 3p)     0.00441
   193    C   13  pz     Val( 2p)     1.09668
   194    C   13  pz     Ryd( 3p)     0.00458
   195    C   13  dxy    Ryd( 3d)     0.00083
   196    C   13  dxz    Ryd( 3d)     0.00030
   197    C   13  dyz    Ryd( 3d)     0.00052
   198    C   13  dx2y2  Ryd( 3d)     0.00061
   199    C   13  dz2    Ryd( 3d)     0.00043

   200    C   14  S      Cor( 1S)     1.99948
   201    C   14  S      Val( 2S)     1.23468
   202    C   14  S      Ryd( 3S)     0.00198
   203    C   14  S      Ryd( 4S)     0.00001
   204    C   14  px     Val( 2p)     1.29522
   205    C   14  px     Ryd( 3p)     0.00096
   206    C   14  py     Val( 2p)     1.31729
   207    C   14  py     Ryd( 3p)     0.00150
   208    C   14  pz     Val( 2p)     1.36824
   209    C   14  pz     Ryd( 3p)     0.00232
   210    C   14  dxy    Ryd( 3d)     0.00029
   211    C   14  dxz    Ryd( 3d)     0.00026
   212    C   14  dyz    Ryd( 3d)     0.00057
   213    C   14  dx2y2  Ryd( 3d)     0.00092
   214    C   14  dz2    Ryd( 3d)     0.00075

   215    C   15  S      Cor( 1S)     1.99948
   216    C   15  S      Val( 2S)     1.23446
   217    C   15  S      Ryd( 3S)     0.00195
   218    C   15  S      Ryd( 4S)     0.00001
   219    C   15  px     Val( 2p)     1.27762
   220    C   15  px     Ryd( 3p)     0.00076
   221    C   15  py     Val( 2p)     1.30357
   222    C   15  py     Ryd( 3p)     0.00116
   223    C   15  pz     Val( 2p)     1.40075
   224    C   15  pz     Ryd( 3p)     0.00274
   225    C   15  dxy    Ryd( 3d)     0.00045
   226    C   15  dxz    Ryd( 3d)     0.00022
   227    C   15  dyz    Ryd( 3d)     0.00062
   228    C   15  dx2y2  Ryd( 3d)     0.00080
   229    C   15  dz2    Ryd( 3d)     0.00068

   230    H   16  S      Val( 1S)     0.73904
   231    H   16  S      Ryd( 2S)     0.00077

   232    H   17  S      Val( 1S)     0.74588
   233    H   17  S      Ryd( 2S)     0.00058

   234    H   18  S      Val( 1S)     0.73903
   235    H   18  S      Ryd( 2S)     0.00077

   236    H   19  S      Val( 1S)     0.76742
   237    H   19  S      Ryd( 2S)     0.00106

   238    H   20  S      Val( 1S)     0.76106
   239    H   20  S      Ryd( 2S)     0.00083

   240    H   21  S      Val( 1S)     0.76351
   241    H   21  S      Ryd( 2S)     0.00115

   242    H   22  S      Val( 1S)     0.76287
   243    H   22  S      Ryd( 2S)     0.00117

   244    H   23  S      Val( 1S)     0.77082
   245    H   23  S      Ryd( 2S)     0.00087

   246    H   24  S      Val( 1S)     0.77067
   247    H   24  S      Ryd( 2S)     0.00084

   248    H   25  S      Val( 1S)     0.77671
   249    H   25  S      Ryd( 2S)     0.00113

   250    H   26  S      Val( 1S)     0.73818
   251    H   26  S      Ryd( 2S)     0.00077

   252    H   27  S      Val( 1S)     0.74748
   253    H   27  S      Ryd( 2S)     0.00069

   254    H   28  S      Val( 1S)     0.74267
   255    H   28  S      Ryd( 2S)     0.00060

   256    H   29  S      Val( 1S)     0.73811
   257    H   29  S      Ryd( 2S)     0.00077

   258    H   30  S      Val( 1S)     0.74286
   259    H   30  S      Ryd( 2S)     0.00059

   260    H   31  S      Val( 1S)     0.74322
   261    H   31  S      Ryd( 2S)     0.00091

 WARNING:  1 low occupancy (<1.9990e) core orbital  found on Si    2
           1 low occupancy (<1.9990e) core orbital  found on  C    4
           1 low occupancy (<1.9990e) core orbital  found on  C    9


 Summary of Natural Population Analysis:                  
                                                          
                                       Natural Population 
                Natural  -----------------------------------------------
    Atom  No    Charge         Core      Valence    Rydberg      Total
 -----------------------------------------------------------------------
      C    1   -1.22051      1.99949     5.21211    0.00891     7.22051
     Si    2    2.00654      9.99783     1.94910    0.04654    11.99346
      O    3   -0.80728      1.99976     6.79521    0.01232     8.80728
      C    4    0.38450      1.99873     3.59460    0.02217     5.61550
      C    5   -0.28606      1.99904     4.27311    0.01391     6.28606
      C    6   -0.23040      1.99912     4.21565    0.01562     6.23040
      C    7   -0.16207      1.99904     4.14814    0.01489     6.16207
      C    8   -0.05812      1.99904     4.04383    0.01525     6.05812
      C    9   -0.07740      1.99897     4.06344    0.01500     6.07740
      C   10   -0.28762      1.99907     4.27061    0.01794     6.28762
      C   11   -0.21687      1.99911     4.20226    0.01551     6.21687
      C   12   -0.24886      1.99911     4.23392    0.01584     6.24886
      C   13   -0.28307      1.99906     4.26714    0.01687     6.28307
      C   14   -1.22448      1.99948     5.21543    0.00957     7.22448
      C   15   -1.22528      1.99948     5.21639    0.00941     7.22528
      H   16    0.26018      0.00000     0.73904    0.00077     0.73982
      H   17    0.25354      0.00000     0.74588    0.00058     0.74646
      H   18    0.26020      0.00000     0.73903    0.00077     0.73980
      H   19    0.23152      0.00000     0.76742    0.00106     0.76848
      H   20    0.23811      0.00000     0.76106    0.00083     0.76189
      H   21    0.23534      0.00000     0.76351    0.00115     0.76466
      H   22    0.23596      0.00000     0.76287    0.00117     0.76404
      H   23    0.22831      0.00000     0.77082    0.00087     0.77169
      H   24    0.22849      0.00000     0.77067    0.00084     0.77151
      H   25    0.22216      0.00000     0.77671    0.00113     0.77784
      H   26    0.26105      0.00000     0.73818    0.00077     0.73895
      H   27    0.25183      0.00000     0.74748    0.00069     0.74817
      H   28    0.25673      0.00000     0.74267    0.00060     0.74327
      H   29    0.26112      0.00000     0.73811    0.00077     0.73888
      H   30    0.25656      0.00000     0.74286    0.00059     0.74344
      H   31    0.25587      0.00000     0.74322    0.00091     0.74413
 =======================================================================
   * Total *   -0.00000     37.98632    77.75044    0.26324   116.00000

                                 Natural Population      
 --------------------------------------------------------
   Core                      37.98632 ( 99.9640% of  38)
   Valence                   77.75044 ( 99.6801% of  78)
   Natural Minimal Basis    115.73676 ( 99.7731% of 116)
   Natural Rydberg Basis      0.26324 (  0.2269% of 116)
 --------------------------------------------------------

    Atom  No          Natural Electron Configuration
 ----------------------------------------------------------------------------
      C    1      [core]2S( 1.23)2p( 3.98)
     Si    2      [core]3S( 0.74)3p( 1.21)3d( 0.04)4p( 0.01)
      O    3      [core]2S( 1.64)2p( 5.16)3p( 0.01)3d( 0.01)
      C    4      [core]2S( 0.82)2p( 2.77)3p( 0.01)3d( 0.01)
      C    5      [core]2S( 0.96)2p( 3.31)3p( 0.01)
      C    6      [core]2S( 0.96)2p( 3.25)3p( 0.01)
      C    7      [core]2S( 0.96)2p( 3.19)3p( 0.01)
      C    8      [core]2S( 0.87)2p( 3.17)3p( 0.01)
      C    9      [core]2S( 0.88)2p( 3.19)3p( 0.01)
      C   10      [core]2S( 0.94)2p( 3.33)3p( 0.01)
      C   11      [core]2S( 0.96)2p( 3.24)3p( 0.01)
      C   12      [core]2S( 0.96)2p( 3.28)3p( 0.01)
      C   13      [core]2S( 0.94)2p( 3.33)3p( 0.01)
      C   14      [core]2S( 1.23)2p( 3.98)
      C   15      [core]2S( 1.23)2p( 3.98)
      H   16            1S( 0.74)
      H   17            1S( 0.75)
      H   18            1S( 0.74)
      H   19            1S( 0.77)
      H   20            1S( 0.76)
      H   21            1S( 0.76)
      H   22            1S( 0.76)
      H   23            1S( 0.77)
      H   24            1S( 0.77)
      H   25            1S( 0.78)
      H   26            1S( 0.74)
      H   27            1S( 0.75)
      H   28            1S( 0.74)
      H   29            1S( 0.74)
      H   30            1S( 0.74)
      H   31            1S( 0.74)


 NBO analysis skipped by request.
 Leave Link  607 at Fri Oct  1 03:00:23 2021, MaxMem= 1342177280 cpu:      20.9
 (Enter /sw/target/amd/app/gaussian/Gaussian09RevA.02_gcc-4.9.2/g09/l9999.exe)
 1\1\GINC-HERMITE\SP\RTD-B3LYP-FC\6-31G(d)\C13H16O1Si1\JSCHLEINITZ\01-O
 ct-2021\0\\#p TD(NStates=10, Root=1) b3lyp/6-31G* volume pop=NPA densi
 ty=current Geom=AllCheck Guess=Read\\C[Si](Oc1cccc2c1cccc2)(C)C_conf_0
 \\0,1\C,0,3.7816074895,0.4741884354,1.2810977588\Si,0,2.4390735086,0.6
 539798102,-0.02113974\O,0,3.3077542367,0.6749300845,-1.4758224949\C,0,
 2.9424123926,0.8981922087,-2.7698666269\C,0,1.6297170857,0.911317393,-
 3.2022512241\C,0,1.326520891,1.1453609838,-4.5643695411\C,0,2.32422946
 92,1.3599795044,-5.4852106678\C,0,3.6855970807,1.3472430781,-5.0774511
 049\C,0,4.0091513773,1.1135572939,-3.7015451927\C,0,5.3704707628,1.101
 5628234,-3.3015154097\C,0,6.3747017704,1.3118352589,-4.2209550076\C,0,
 6.0610980366,1.5439109248,-5.5813868984\C,0,4.7484984769,1.5607030217,
 -5.99620132\C,0,1.2767062951,-0.83080924,0.0389531895\C,0,1.4990095482
 ,2.2739986044,0.1935029371\H,0,4.3546301582,-0.4478410576,1.1308805024
 \H,0,3.3512743452,0.4396594212,2.289377928\H,0,4.4844901868,1.31411472
 38,1.2453655598\H,0,0.8221818414,0.7333249343,-2.4999016354\H,0,0.2851
 889065,1.1514459211,-4.875666504\H,0,2.0873703443,1.5390872136,-6.5307
 334984\H,0,5.6021069489,0.921860551,-2.2576025958\H,0,7.4137442721,1.2
 996692894,-3.9025672855\H,0,6.8610080743,1.7087974829,-6.2985520012\H,
 0,4.5035331138,1.7382934896,-7.0408871075\H,0,1.8232412097,-1.75967147
 67,-0.1618497081\H,0,0.4582926382,-0.7652656195,-0.6861022039\H,0,0.82
 6906893,-0.9204232751,1.0360094589\H,0,2.1876493243,3.1268209445,0.195
 6223182\H,0,0.9567275552,2.2816489033,1.147293619\H,0,0.7687013006,2.4
 410650089,-0.6054215739\\Version=AM64L-G09RevA.02\State=1-A\HF=-869.82
 72947\RMSD=6.381e-09\Dipole=-1.1750543,-0.115794,1.0732492\Quadrupole=
 0.6025505,-4.6661519,4.0636014,0.1148588,1.4547031,-1.1576882\PG=C01 [
 X(C13H16O1Si1)]\\@


 I CLAIM NOT TO HAVE CONTROLLED EVENTS,
 BUT CONFESS PLAINLY THAT EVENTS HAVE CONTROLLED ME.

                                         A. LINCOLN
 Job cpu time:  0 days  4 hours  0 minutes 49.1 seconds.
 File lengths (MBytes):  RWF=    217 Int=      0 D2E=      0 Chk=     31 Scr=      1
 Normal termination of Gaussian 09 at Fri Oct  1 03:00:25 2021.
