 Entering Gaussian System, Link 0=g09
 Input=C13H13N3O4_1ad7_conf_0.com
 Output=C13H13N3O4_1ad7_conf_0.log
 Initial command:
 /sw/target/amd/app/gaussian/Gaussian09RevA.02_gcc-4.9.2/g09/l1.exe /home/jschleinitz/gaussian/Gau-3299281.inp -scrdir=/home/jschleinitz/gaussian/
 Entering Link 1 = /sw/target/amd/app/gaussian/Gaussian09RevA.02_gcc-4.9.2/g09/l1.exe PID=   3299283.
  
 Copyright (c) 1988,1990,1992,1993,1995,1998,2003,2009, Gaussian, Inc.
                  All Rights Reserved.
  
 This is part of the Gaussian(R) 09 program.  It is based on
 the Gaussian(R) 03 system (copyright 2003, Gaussian, Inc.),
 the Gaussian(R) 98 system (copyright 1998, Gaussian, Inc.),
 the Gaussian(R) 94 system (copyright 1995, Gaussian, Inc.),
 the Gaussian 92(TM) system (copyright 1992, Gaussian, Inc.),
 the Gaussian 90(TM) system (copyright 1990, Gaussian, Inc.),
 the Gaussian 88(TM) system (copyright 1988, Gaussian, Inc.),
 the Gaussian 86(TM) system (copyright 1986, Carnegie Mellon
 University), and the Gaussian 82(TM) system (copyright 1983,
 Carnegie Mellon University). Gaussian is a federally registered
 trademark of Gaussian, Inc.
  
 This software contains proprietary and confidential information,
 including trade secrets, belonging to Gaussian, Inc.
  
 This software is provided under written license and may be
 used, copied, transmitted, or stored only in accord with that
 written license.
  
 The following legend is applicable only to US Government
 contracts under FAR:
  
                    RESTRICTED RIGHTS LEGEND
  
 Use, reproduction and disclosure by the US Government is
 subject to restrictions as set forth in subparagraphs (a)
 and (c) of the Commercial Computer Software - Restricted
 Rights clause in FAR 52.227-19.
  
 Gaussian, Inc.
 340 Quinnipiac St., Bldg. 40, Wallingford CT 06492
  
  
 ---------------------------------------------------------------
 Warning -- This program may not be used in any manner that
 competes with the business of Gaussian, Inc. or will provide
 assistance to any competitor of Gaussian, Inc.  The licensee
 of this program is prohibited from giving any competitor of
 Gaussian, Inc. access to this program.  By using this program,
 the user acknowledges that Gaussian, Inc. is engaged in the
 business of creating and licensing software in the field of
 computational chemistry and represents and warrants to the
 licensee that it is not a competitor of Gaussian, Inc. and that
 it will not use this program in any manner prohibited above.
 ---------------------------------------------------------------
  

 Cite this work as:
 Gaussian 09, Revision A.02,
 M. J. Frisch, G. W. Trucks, H. B. Schlegel, G. E. Scuseria, 
 M. A. Robb, J. R. Cheeseman, G. Scalmani, V. Barone, B. Mennucci, 
 G. A. Petersson, H. Nakatsuji, M. Caricato, X. Li, H. P. Hratchian, 
 A. F. Izmaylov, J. Bloino, G. Zheng, J. L. Sonnenberg, M. Hada, 
 M. Ehara, K. Toyota, R. Fukuda, J. Hasegawa, M. Ishida, T. Nakajima, 
 Y. Honda, O. Kitao, H. Nakai, T. Vreven, J. A. Montgomery, Jr., 
 J. E. Peralta, F. Ogliaro, M. Bearpark, J. J. Heyd, E. Brothers, 
 K. N. Kudin, V. N. Staroverov, R. Kobayashi, J. Normand, 
 K. Raghavachari, A. Rendell, J. C. Burant, S. S. Iyengar, J. Tomasi, 
 M. Cossi, N. Rega, J. M. Millam, M. Klene, J. E. Knox, J. B. Cross, 
 V. Bakken, C. Adamo, J. Jaramillo, R. Gomperts, R. E. Stratmann, 
 O. Yazyev, A. J. Austin, R. Cammi, C. Pomelli, J. W. Ochterski, 
 R. L. Martin, K. Morokuma, V. G. Zakrzewski, G. A. Voth, 
 P. Salvador, J. J. Dannenberg, S. Dapprich, A. D. Daniels, 
 O. Farkas, J. B. Foresman, J. V. Ortiz, J. Cioslowski, 
 and D. J. Fox, Gaussian, Inc., Wallingford CT, 2009.
 
 ******************************************
 Gaussian 09:  AM64L-G09RevA.02 11-Jun-2009
                28-Sep-2021 
 ******************************************
 %nproc=5
 Will use up to    5 processors via shared memory.
 %mem=10gb
 %chk=C13H13N3O4_1ad7_conf_0.chk
 -----------------------------------
 #p opt b3lyp/6-31G* scf=(xqc,tight)
 -----------------------------------
 1/14=-1,18=20,19=15,26=3,38=1/1,3;
 2/9=110,12=2,17=6,18=5,40=1/2;
 3/5=1,6=6,7=1,11=2,16=1,25=1,30=1,71=1,74=-5/1,2,3;
 4//1;
 5/5=2,8=3,13=1,32=2,38=5/2,8;
 6/7=2,8=2,9=2,10=2,28=1/1;
 7//1,2,3,16;
 1/14=-1,18=20,19=15/3(2);
 2/9=110/2;
 99//99;
 2/9=110/2;
 3/5=1,6=6,7=1,11=2,16=1,25=1,30=1,71=1,74=-5/1,2,3;
 4/5=5,16=3/1;
 5/5=2,8=3,13=1,32=2,38=5/2,8;
 7//1,2,3,16;
 1/14=-1,18=20,19=15/3(-5);
 2/9=110/2;
 6/7=2,8=2,9=2,10=2,19=2,28=1/1;
 99/9=1/99;
 Leave Link    1 at Tue Sep 28 15:18:16 2021, MaxMem= 1342177280 cpu:       0.1
 (Enter /sw/target/amd/app/gaussian/Gaussian09RevA.02_gcc-4.9.2/g09/l101.exe)
 ----------------------------------------
 COc1nc(Oc2ccc(cc2)C(=O)C)nc(n1)OC_conf_0
 ----------------------------------------
 Symbolic Z-matrix:
 Charge =  0 Multiplicity = 1
 C                     5.43979   4.31671  -0.31914 
 O                     4.3932    3.99417   0.58761 
 C                     4.61622   2.82405   1.28092 
 N                     3.57506   2.39764   1.97852 
 C                     3.76267   1.22854   2.58277 
 O                     2.72879   0.6675    3.32382 
 C                     1.43308   0.97059   2.97305 
 C                     0.9897    1.06473   1.65198 
 C                    -0.34893   1.35925   1.38166 
 C                    -1.26599   1.52668   2.42669 
 C                    -0.82916   1.38429   3.7502 
 C                     0.51612   1.1024    4.01886 
 C                    -2.68249   1.84824   2.07751 
 O                    -3.01097   1.96096   0.89697 
 C                    -3.68501   2.03504   3.18298 
 N                     4.88908   0.52398   2.57657 
 C                     5.86167   1.07353   1.85921 
 N                     5.79025   2.21508   1.18944 
 O                     7.08969   0.4519    1.78969 
 C                     7.00983  -0.94653   2.0323 
 H                     5.13224   5.20356  -0.88175 
 H                     5.60928   3.51056  -1.04226 
 H                     6.36197   4.56405   0.21723 
 H                     1.67158   0.92611   0.81717 
 H                    -0.66968   1.46051   0.3468 
 H                    -1.51043   1.49018   4.58948 
 H                     0.84889   0.99227   5.0478 
 H                    -3.75977   1.12781   3.78729 
 H                    -4.6697    2.2289    2.74401 
 H                    -3.41238   2.89611   3.79936 
 H                     8.00472  -1.37034   1.86465 
 H                     6.3196   -1.43003   1.33171 
 H                     6.72911  -1.15917   3.06913 
 
 NAtoms=     33 NQM=     33 NQMF=      0 NMic=      0 NMicF=      0 NTot=     33.
                    Isotopes and Nuclear Properties:
 (Nuclear quadrupole moments (NQMom) in fm**2, nuclear magnetic moments (NMagM)
  in nuclear magnetons)

  Atom         1           2           3           4           5           6           7           8           9          10
 IAtWgt=          12          16          12          14          12          16          12          12          12          12
 AtmWgt=  12.0000000  15.9949146  12.0000000  14.0030740  12.0000000  15.9949146  12.0000000  12.0000000  12.0000000  12.0000000
 NucSpn=           0           0           0           2           0           0           0           0           0           0
 AtZEff=   0.0000000   0.0000000   0.0000000   0.0000000   0.0000000   0.0000000   0.0000000   0.0000000   0.0000000   0.0000000
 NQMom=    0.0000000   0.0000000   0.0000000   2.0440000   0.0000000   0.0000000   0.0000000   0.0000000   0.0000000   0.0000000
 NMagM=    0.0000000   0.0000000   0.0000000   0.4037610   0.0000000   0.0000000   0.0000000   0.0000000   0.0000000   0.0000000

  Atom        11          12          13          14          15          16          17          18          19          20
 IAtWgt=          12          12          12          16          12          14          12          14          16          12
 AtmWgt=  12.0000000  12.0000000  12.0000000  15.9949146  12.0000000  14.0030740  12.0000000  14.0030740  15.9949146  12.0000000
 NucSpn=           0           0           0           0           0           2           0           2           0           0
 AtZEff=   0.0000000   0.0000000   0.0000000   0.0000000   0.0000000   0.0000000   0.0000000   0.0000000   0.0000000   0.0000000
 NQMom=    0.0000000   0.0000000   0.0000000   0.0000000   0.0000000   2.0440000   0.0000000   2.0440000   0.0000000   0.0000000
 NMagM=    0.0000000   0.0000000   0.0000000   0.0000000   0.0000000   0.4037610   0.0000000   0.4037610   0.0000000   0.0000000

  Atom        21          22          23          24          25          26          27          28          29          30
 IAtWgt=           1           1           1           1           1           1           1           1           1           1
 AtmWgt=   1.0078250   1.0078250   1.0078250   1.0078250   1.0078250   1.0078250   1.0078250   1.0078250   1.0078250   1.0078250
 NucSpn=           1           1           1           1           1           1           1           1           1           1
 AtZEff=   0.0000000   0.0000000   0.0000000   0.0000000   0.0000000   0.0000000   0.0000000   0.0000000   0.0000000   0.0000000
 NQMom=    0.0000000   0.0000000   0.0000000   0.0000000   0.0000000   0.0000000   0.0000000   0.0000000   0.0000000   0.0000000
 NMagM=    2.7928460   2.7928460   2.7928460   2.7928460   2.7928460   2.7928460   2.7928460   2.7928460   2.7928460   2.7928460

  Atom        31          32          33
 IAtWgt=           1           1           1
 AtmWgt=   1.0078250   1.0078250   1.0078250
 NucSpn=           1           1           1
 AtZEff=   0.0000000   0.0000000   0.0000000
 NQMom=    0.0000000   0.0000000   0.0000000
 NMagM=    2.7928460   2.7928460   2.7928460
 Leave Link  101 at Tue Sep 28 15:18:17 2021, MaxMem= 1342177280 cpu:       0.2
 (Enter /sw/target/amd/app/gaussian/Gaussian09RevA.02_gcc-4.9.2/g09/l103.exe)

 GradGradGradGradGradGradGradGradGradGradGradGradGradGradGradGradGradGrad
 Berny optimization.
 Initialization pass.
                           ----------------------------
                           !    Initial Parameters    !
                           ! (Angstroms and Degrees)  !
 --------------------------                            --------------------------
 ! Name  Definition              Value          Derivative Info.                !
 --------------------------------------------------------------------------------
 ! R1    R(1,2)                  1.4218         estimate D2E/DX2                !
 ! R2    R(1,21)                 1.0944         estimate D2E/DX2                !
 ! R3    R(1,22)                 1.0961         estimate D2E/DX2                !
 ! R4    R(1,23)                 1.0951         estimate D2E/DX2                !
 ! R5    R(2,3)                  1.3783         estimate D2E/DX2                !
 ! R6    R(3,4)                  1.3238         estimate D2E/DX2                !
 ! R7    R(3,18)                 1.3257         estimate D2E/DX2                !
 ! R8    R(4,5)                  1.3293         estimate D2E/DX2                !
 ! R9    R(5,6)                  1.3903         estimate D2E/DX2                !
 ! R10   R(5,16)                 1.3286         estimate D2E/DX2                !
 ! R11   R(6,7)                  1.3761         estimate D2E/DX2                !
 ! R12   R(7,8)                  1.3967         estimate D2E/DX2                !
 ! R13   R(7,12)                 1.3971         estimate D2E/DX2                !
 ! R14   R(8,9)                  1.397          estimate D2E/DX2                !
 ! R15   R(8,24)                 1.0868         estimate D2E/DX2                !
 ! R16   R(9,10)                 1.4004         estimate D2E/DX2                !
 ! R17   R(9,25)                 1.0882         estimate D2E/DX2                !
 ! R18   R(10,11)                1.401          estimate D2E/DX2                !
 ! R19   R(10,13)                1.4939         estimate D2E/DX2                !
 ! R20   R(11,12)                1.4005         estimate D2E/DX2                !
 ! R21   R(11,26)                1.0862         estimate D2E/DX2                !
 ! R22   R(12,27)                1.087          estimate D2E/DX2                !
 ! R23   R(13,14)                1.2306         estimate D2E/DX2                !
 ! R24   R(13,15)                1.504          estimate D2E/DX2                !
 ! R25   R(15,28)                1.0926         estimate D2E/DX2                !
 ! R26   R(15,29)                1.0954         estimate D2E/DX2                !
 ! R27   R(15,30)                1.0935         estimate D2E/DX2                !
 ! R28   R(16,17)                1.3276         estimate D2E/DX2                !
 ! R29   R(17,18)                1.3255         estimate D2E/DX2                !
 ! R30   R(17,19)                1.3781         estimate D2E/DX2                !
 ! R31   R(19,20)                1.4216         estimate D2E/DX2                !
 ! R32   R(20,31)                1.0943         estimate D2E/DX2                !
 ! R33   R(20,32)                1.0959         estimate D2E/DX2                !
 ! R34   R(20,33)                1.095          estimate D2E/DX2                !
 ! A1    A(2,1,21)             107.7478         estimate D2E/DX2                !
 ! A2    A(2,1,22)             111.5735         estimate D2E/DX2                !
 ! A3    A(2,1,23)             111.0223         estimate D2E/DX2                !
 ! A4    A(21,1,22)            107.4758         estimate D2E/DX2                !
 ! A5    A(21,1,23)            107.7833         estimate D2E/DX2                !
 ! A6    A(22,1,23)            111.0395         estimate D2E/DX2                !
 ! A7    A(1,2,3)              113.2214         estimate D2E/DX2                !
 ! A8    A(2,3,4)              114.285          estimate D2E/DX2                !
 ! A9    A(2,3,18)             119.905          estimate D2E/DX2                !
 ! A10   A(4,3,18)             125.7958         estimate D2E/DX2                !
 ! A11   A(3,4,5)              114.3187         estimate D2E/DX2                !
 ! A12   A(4,5,6)              119.4881         estimate D2E/DX2                !
 ! A13   A(4,5,16)             125.7257         estimate D2E/DX2                !
 ! A14   A(6,5,16)             114.7693         estimate D2E/DX2                !
 ! A15   A(5,6,7)              118.3889         estimate D2E/DX2                !
 ! A16   A(6,7,8)              123.6998         estimate D2E/DX2                !
 ! A17   A(6,7,12)             116.6119         estimate D2E/DX2                !
 ! A18   A(8,7,12)             119.5595         estimate D2E/DX2                !
 ! A19   A(7,8,9)              120.0932         estimate D2E/DX2                !
 ! A20   A(7,8,24)             121.2515         estimate D2E/DX2                !
 ! A21   A(9,8,24)             118.65           estimate D2E/DX2                !
 ! A22   A(8,9,10)             120.5499         estimate D2E/DX2                !
 ! A23   A(8,9,25)             119.0827         estimate D2E/DX2                !
 ! A24   A(10,9,25)            120.3671         estimate D2E/DX2                !
 ! A25   A(9,10,11)            119.2508         estimate D2E/DX2                !
 ! A26   A(9,10,13)            118.1796         estimate D2E/DX2                !
 ! A27   A(11,10,13)           122.5693         estimate D2E/DX2                !
 ! A28   A(10,11,12)           120.0782         estimate D2E/DX2                !
 ! A29   A(10,11,26)           121.6345         estimate D2E/DX2                !
 ! A30   A(12,11,26)           118.287          estimate D2E/DX2                !
 ! A31   A(7,12,11)            120.3869         estimate D2E/DX2                !
 ! A32   A(7,12,27)            119.8737         estimate D2E/DX2                !
 ! A33   A(11,12,27)           119.7381         estimate D2E/DX2                !
 ! A34   A(10,13,14)           119.8051         estimate D2E/DX2                !
 ! A35   A(10,13,15)           119.1412         estimate D2E/DX2                !
 ! A36   A(14,13,15)           121.0531         estimate D2E/DX2                !
 ! A37   A(13,15,28)           110.4265         estimate D2E/DX2                !
 ! A38   A(13,15,29)           109.0645         estimate D2E/DX2                !
 ! A39   A(13,15,30)           110.2384         estimate D2E/DX2                !
 ! A40   A(28,15,29)           107.8834         estimate D2E/DX2                !
 ! A41   A(28,15,30)           111.0471         estimate D2E/DX2                !
 ! A42   A(29,15,30)           108.0994         estimate D2E/DX2                !
 ! A43   A(5,16,17)            113.835          estimate D2E/DX2                !
 ! A44   A(16,17,18)           126.162          estimate D2E/DX2                !
 ! A45   A(16,17,19)           119.5597         estimate D2E/DX2                !
 ! A46   A(18,17,19)           114.2679         estimate D2E/DX2                !
 ! A47   A(3,18,17)            114.1083         estimate D2E/DX2                !
 ! A48   A(17,19,20)           112.6473         estimate D2E/DX2                !
 ! A49   A(19,20,31)           107.6837         estimate D2E/DX2                !
 ! A50   A(19,20,32)           111.1178         estimate D2E/DX2                !
 ! A51   A(19,20,33)           111.5322         estimate D2E/DX2                !
 ! A52   A(31,20,32)           107.6861         estimate D2E/DX2                !
 ! A53   A(31,20,33)           107.6335         estimate D2E/DX2                !
 ! A54   A(32,20,33)           110.9883         estimate D2E/DX2                !
 ! D1    D(21,1,2,3)           174.9832         estimate D2E/DX2                !
 ! D2    D(22,1,2,3)            57.2335         estimate D2E/DX2                !
 ! D3    D(23,1,2,3)           -67.2062         estimate D2E/DX2                !
 ! D4    D(1,2,3,4)           -170.3839         estimate D2E/DX2                !
 ! D5    D(1,2,3,18)             8.3198         estimate D2E/DX2                !
 ! D6    D(2,3,4,5)            176.1714         estimate D2E/DX2                !
 ! D7    D(18,3,4,5)            -2.4431         estimate D2E/DX2                !
 ! D8    D(2,3,18,17)         -177.4419         estimate D2E/DX2                !
 ! D9    D(4,3,18,17)            1.1013         estimate D2E/DX2                !
 ! D10   D(3,4,5,6)           -178.7631         estimate D2E/DX2                !
 ! D11   D(3,4,5,16)             2.8146         estimate D2E/DX2                !
 ! D12   D(4,5,6,7)             27.9464         estimate D2E/DX2                !
 ! D13   D(16,5,6,7)          -153.4641         estimate D2E/DX2                !
 ! D14   D(4,5,16,17)           -1.7797         estimate D2E/DX2                !
 ! D15   D(6,5,16,17)          179.7327         estimate D2E/DX2                !
 ! D16   D(5,6,7,8)             40.1908         estimate D2E/DX2                !
 ! D17   D(5,6,7,12)          -143.9637         estimate D2E/DX2                !
 ! D18   D(6,7,8,9)            179.1081         estimate D2E/DX2                !
 ! D19   D(6,7,8,24)            -1.741          estimate D2E/DX2                !
 ! D20   D(12,7,8,9)             3.3785         estimate D2E/DX2                !
 ! D21   D(12,7,8,24)         -177.4706         estimate D2E/DX2                !
 ! D22   D(6,7,12,11)         -178.7656         estimate D2E/DX2                !
 ! D23   D(6,7,12,27)            1.6419         estimate D2E/DX2                !
 ! D24   D(8,7,12,11)           -2.7388         estimate D2E/DX2                !
 ! D25   D(8,7,12,27)          177.6686         estimate D2E/DX2                !
 ! D26   D(7,8,9,10)            -1.7513         estimate D2E/DX2                !
 ! D27   D(7,8,9,25)           178.0358         estimate D2E/DX2                !
 ! D28   D(24,8,9,10)          179.0758         estimate D2E/DX2                !
 ! D29   D(24,8,9,25)           -1.1371         estimate D2E/DX2                !
 ! D30   D(8,9,10,11)           -0.5405         estimate D2E/DX2                !
 ! D31   D(8,9,10,13)          179.6538         estimate D2E/DX2                !
 ! D32   D(25,9,10,11)         179.6751         estimate D2E/DX2                !
 ! D33   D(25,9,10,13)          -0.1307         estimate D2E/DX2                !
 ! D34   D(9,10,11,12)           1.1846         estimate D2E/DX2                !
 ! D35   D(9,10,11,26)        -179.0124         estimate D2E/DX2                !
 ! D36   D(13,10,11,12)       -179.0185         estimate D2E/DX2                !
 ! D37   D(13,10,11,26)          0.7844         estimate D2E/DX2                !
 ! D38   D(9,10,13,14)          -0.152          estimate D2E/DX2                !
 ! D39   D(9,10,13,15)        -179.8901         estimate D2E/DX2                !
 ! D40   D(11,10,13,14)       -179.9509         estimate D2E/DX2                !
 ! D41   D(11,10,13,15)          0.311          estimate D2E/DX2                !
 ! D42   D(10,11,12,7)           0.4552         estimate D2E/DX2                !
 ! D43   D(10,11,12,27)       -179.9517         estimate D2E/DX2                !
 ! D44   D(26,11,12,7)        -179.3543         estimate D2E/DX2                !
 ! D45   D(26,11,12,27)          0.2388         estimate D2E/DX2                !
 ! D46   D(10,13,15,28)        -59.6907         estimate D2E/DX2                !
 ! D47   D(10,13,15,29)       -178.0765         estimate D2E/DX2                !
 ! D48   D(10,13,15,30)         63.3858         estimate D2E/DX2                !
 ! D49   D(14,13,15,28)        120.5746         estimate D2E/DX2                !
 ! D50   D(14,13,15,29)          2.1888         estimate D2E/DX2                !
 ! D51   D(14,13,15,30)       -116.3489         estimate D2E/DX2                !
 ! D52   D(5,16,17,18)           0.1867         estimate D2E/DX2                !
 ! D53   D(5,16,17,19)         178.9448         estimate D2E/DX2                !
 ! D54   D(16,17,18,3)           0.1261         estimate D2E/DX2                !
 ! D55   D(19,17,18,3)        -178.689          estimate D2E/DX2                !
 ! D56   D(16,17,19,20)         24.4925         estimate D2E/DX2                !
 ! D57   D(18,17,19,20)       -156.6072         estimate D2E/DX2                !
 ! D58   D(17,19,20,31)        174.7231         estimate D2E/DX2                !
 ! D59   D(17,19,20,32)         57.0152         estimate D2E/DX2                !
 ! D60   D(17,19,20,33)        -67.3981         estimate D2E/DX2                !
 --------------------------------------------------------------------------------
 Trust Radius=3.00D-01 FncErr=1.00D-07 GrdErr=1.00D-06
 Number of steps in this run= 158 maximum allowed number of steps= 198.
 GradGradGradGradGradGradGradGradGradGradGradGradGradGradGradGradGradGrad

 Leave Link  103 at Tue Sep 28 15:18:17 2021, MaxMem= 1342177280 cpu:       0.0
 (Enter /sw/target/amd/app/gaussian/Gaussian09RevA.02_gcc-4.9.2/g09/l202.exe)
                          Input orientation:                          
 ---------------------------------------------------------------------
 Center     Atomic      Atomic             Coordinates (Angstroms)
 Number     Number       Type             X           Y           Z
 ---------------------------------------------------------------------
      1          6           0        5.439794    4.316710   -0.319143
      2          8           0        4.393198    3.994171    0.587610
      3          6           0        4.616219    2.824047    1.280924
      4          7           0        3.575061    2.397644    1.978520
      5          6           0        3.762670    1.228541    2.582767
      6          8           0        2.728786    0.667504    3.323817
      7          6           0        1.433078    0.970586    2.973050
      8          6           0        0.989701    1.064728    1.651980
      9          6           0       -0.348929    1.359250    1.381663
     10          6           0       -1.265986    1.526681    2.426686
     11          6           0       -0.829162    1.384295    3.750197
     12          6           0        0.516124    1.102401    4.018861
     13          6           0       -2.682490    1.848240    2.077509
     14          8           0       -3.010973    1.960962    0.896971
     15          6           0       -3.685015    2.035040    3.182982
     16          7           0        4.889082    0.523983    2.576568
     17          6           0        5.861672    1.073532    1.859211
     18          7           0        5.790247    2.215075    1.189437
     19          8           0        7.089688    0.451901    1.789689
     20          6           0        7.009830   -0.946530    2.032298
     21          1           0        5.132244    5.203565   -0.881749
     22          1           0        5.609279    3.510557   -1.042264
     23          1           0        6.361970    4.564046    0.217226
     24          1           0        1.671583    0.926108    0.817170
     25          1           0       -0.669676    1.460512    0.346799
     26          1           0       -1.510434    1.490177    4.589478
     27          1           0        0.848889    0.992270    5.047800
     28          1           0       -3.759772    1.127815    3.787293
     29          1           0       -4.669702    2.228896    2.744014
     30          1           0       -3.412376    2.896105    3.799357
     31          1           0        8.004715   -1.370338    1.864651
     32          1           0        6.319600   -1.430028    1.331711
     33          1           0        6.729109   -1.159165    3.069131
 ---------------------------------------------------------------------
                    Distance matrix (angstroms):
                    1          2          3          4          5
     1  C    0.000000
     2  O    1.421827   0.000000
     3  C    2.338061   1.378265   0.000000
     4  N    3.526939   2.269995   1.323809   0.000000
     5  C    4.557478   3.467986   2.229121   1.329328   0.000000
     6  O    5.825583   4.617771   3.519445   2.349338   1.390264
     7  C    6.171616   4.857438   4.053516   2.759289   2.376102
     8  C    5.853549   4.615010   4.047780   2.927009   2.929600
     9  C    6.719272   5.482800   5.177690   4.102706   4.285438
    10  C    7.764748   6.441822   6.131580   4.939146   5.039904
    11  C    8.028598   6.639763   6.149990   4.854163   4.740472
    12  C    7.307023   5.930221   5.222178   3.898428   3.552230
    13  C    8.820929   7.542558   7.406613   6.282403   6.494567
    14  O    8.856858   7.684491   7.685467   6.688519   7.018589
    15  C   10.036584   8.708139   8.552827   7.368236   7.515232
    16  N    4.803457   4.030392   2.653948   2.365358   1.328624
    17  C    3.929556   3.507637   2.224830   2.645014   2.225616
    18  N    2.610651   2.340752   1.325729   2.358608   2.650601
    19  O    4.701710   4.611261   3.464674   4.021714   3.507306
    20  C    5.974612   5.774462   4.528928   4.794166   3.946897
    21  H    1.094360   2.041528   3.256615   4.298738   5.447882
    22  H    1.096135   2.090268   2.618141   3.808117   4.664591
    23  H    1.095114   2.082787   2.684529   3.944910   4.845383
    24  H    5.194882   4.107663   3.533854   2.671587   2.753442
    25  H    6.776944   5.666578   5.538276   4.643115   4.969814
    26  H    8.966020   7.558956   7.089543   5.788165   5.648094
    27  H    7.805920   6.439475   5.633608   4.339075   3.823916
    28  H   10.567112   9.215470   8.905971   7.660541   7.618934
    29  H   10.767721   9.481690   9.419298   8.281943   8.493033
    30  H    9.866157   8.511642   8.414632   7.237968   7.466066
    31  H    6.609863   6.591801   5.423606   5.816571   5.026411
    32  H    6.043540   5.804020   4.582711   4.754149   3.894999
    33  H    6.567187   6.178293   4.850564   4.877330   3.838939
                    6          7          8          9         10
     6  O    0.000000
     7  C    1.376138   0.000000
     8  C    2.444840   1.396665   0.000000
     9  C    3.704430   2.420563   1.397048   0.000000
    10  C    4.183447   2.809396   2.429340   1.400392   0.000000
    11  C    3.654393   2.427518   2.795156   2.416858   1.400989
    12  C    2.359681   1.397104   2.414088   2.787310   2.427128
    13  C    5.677089   4.302346   3.778883   2.483711   1.493925
    14  O    6.364547   5.004053   4.168773   2.771906   2.360849
    15  C    6.559484   5.231827   5.013825   3.851092   2.584979
    16  N    2.290383   3.507222   4.043815   5.437115   6.238006
    17  C    3.482082   4.567677   4.876384   6.235483   7.164557
    18  N    4.040185   4.869799   4.958073   6.201521   7.196880
    19  O    4.627904   5.802294   6.132240   7.504851   8.448562
    20  C    4.753994   5.971641   6.358597   7.738945   8.646469
    21  H    6.636207   6.816261   6.380471   7.067181   8.087185
    22  H    5.953390   6.325729   5.880606   6.782609   7.952273
    23  H    6.167169   6.693392   6.570009   7.527469   8.502529
    24  H    2.732734   2.169489   1.086778   2.142133   3.403019
    25  H    4.587052   3.399824   2.147946   1.088153   2.164693
    26  H    4.499964   3.398099   3.880796   3.414134   2.176869
    27  H    2.571304   2.155535   3.399511   3.874274   3.410063
    28  H    6.521356   5.258650   5.207785   4.180247   2.868678
    29  H    7.583650   6.235362   5.880193   4.613173   3.489855
    30  H    6.550319   5.279094   5.229097   4.194267   2.892497
    31  H    5.841009   7.063631   7.428674   8.801551   9.729054
    32  H    4.611080   5.686390   5.893573   7.228543   8.214755
    33  H    4.405016   5.709029   6.316235   7.699908   8.458608
                   11         12         13         14         15
    11  C    0.000000
    12  C    1.400514   0.000000
    13  C    2.539282   3.815266   0.000000
    14  O    3.637821   4.787874   1.230560   0.000000
    15  C    2.983471   4.383843   1.504001   2.384464   0.000000
    16  N    5.900496   4.640855   7.702689   8.203464   8.727323
    17  C    6.959860   5.765397   8.581989   8.968682   9.685871
    18  N    7.145926   6.087697   8.527046   8.809743   9.684380
    19  O    8.211038   6.971664   9.875631  10.251711  10.979154
    20  C    8.356656   7.093149  10.087311  10.495664  11.162147
    21  H    8.460503   7.883152   9.004748   8.943730  10.213013
    22  H    8.303144   7.573271   9.013863   8.970542  10.315704
    23  H    8.620039   7.785199   9.624890   9.751418  10.776524
    24  H    3.881534   3.408370   4.625661   4.796209   5.959861
    25  H    3.407985   3.875358   2.682744   2.456586   4.179269
    26  H    1.086156   2.140773   2.794980   4.013461   2.646490
    27  H    2.157154   1.087004   4.693181   5.750329   5.012105
    28  H    2.942045   4.282237   2.145439   3.099805   1.092629
    29  H    4.059003   5.457748   2.130291   2.496946   1.095391
    30  H    2.993490   4.324196   2.143715   3.075624   1.093473
    31  H    9.443552   8.175210  11.163374  11.548998  12.246811
    32  H    8.054457   6.878539   9.609416   9.937173  10.748312
    33  H    8.003780   6.679660   9.930056  10.455748  10.893571
                   16         17         18         19         20
    16  N    0.000000
    17  C    1.327606   0.000000
    18  N    2.365592   1.325451   0.000000
    19  O    2.338171   1.378145   2.271043   0.000000
    20  C    2.637463   2.329995   3.491926   1.421565   0.000000
    21  H    5.823879   5.010200   3.695111   5.791932   7.059792
    22  H    4.747026   3.797545   2.586795   4.423454   5.592861
    23  H    4.904896   3.889743   2.605710   4.462281   5.837864
    24  H    3.689103   4.320234   4.331675   5.525082   5.786207
    25  H    6.062074   6.715329   6.558201   7.956567   8.222503
    26  H    6.777841   7.872477   8.086142   9.103787   9.223427
    27  H    4.759142   5.941523   6.387428   7.060798   7.128070
    28  H    8.754035   9.812880   9.956598  11.052514  11.107080
    29  H    9.711082  10.631443  10.574849  11.931124  12.124411
    30  H    8.719884   9.648518   9.589773  10.968421  11.247698
    31  H    3.715165   3.250410   4.267900   2.040453   1.094311
    32  H    2.722905   2.599186   3.686087   2.084331   1.095906
    33  H    2.541911   2.683522   3.974948   2.088666   1.095007
                   21         22         23         24         25
    21  H    0.000000
    22  H    1.766240   0.000000
    23  H    1.768886   1.806294   0.000000
    24  H    5.758397   5.063825   5.966092   0.000000
    25  H    7.012991   6.749626   7.687181   2.447106   0.000000
    26  H    9.372766   9.299934   9.515251   4.967264   4.325284
    27  H    8.440479   8.129696   8.153900   4.310387   4.962328
    28  H   10.838802  10.806534  11.269548   6.193701   4.636419
    29  H   10.866138  11.028872  11.555750   6.754397   4.726232
    30  H   10.012375  10.257149  10.542842   6.214577   4.637186
    31  H    7.681797   6.165339   6.374130   6.817583   9.250008
    32  H    7.093220   5.527178   6.096950   5.236429   7.627270
    33  H    7.657922   6.321700   6.404944   5.915933   8.307576
                   26         27         28         29         30
    26  H    0.000000
    27  H    2.454460   0.000000
    28  H    2.415435   4.779854   0.000000
    29  H    3.732616   6.106678   1.768837   0.000000
    30  H    2.493654   4.831312   1.802132   1.771944   0.000000
    31  H   10.302684   8.180477  12.179510  13.204871  12.340810
    32  H    8.969396   7.043118  10.684857  11.668208  10.932340
    33  H    8.787522   6.566642  10.759305  11.896115  10.946605
                   31         32         33
    31  H    0.000000
    32  H    1.768389   0.000000
    33  H    1.767070   1.805462   0.000000
 Stoichiometry    C13H13N3O4
 Framework group  C1[X(C13H13N3O4)]
 Deg. of freedom    93
 Full point group                 C1      NOp   1
 Largest Abelian subgroup         C1      NOp   1
 Largest concise Abelian subgroup C1      NOp   1
                         Standard orientation:                         
 ---------------------------------------------------------------------
 Center     Atomic      Atomic             Coordinates (Angstroms)
 Number     Number       Type             X           Y           Z
 ---------------------------------------------------------------------
      1          6           0       -3.264660    3.404688   -0.171599
      2          8           0       -2.121947    2.654626   -0.563016
      3          6           0       -2.289202    1.294213   -0.418392
      4          7           0       -1.181137    0.588870   -0.583175
      5          6           0       -1.324447   -0.714618   -0.365242
      6          8           0       -0.221960   -1.553393   -0.482776
      7          6           0        1.027444   -1.029476   -0.241416
      8          6           0        1.303672   -0.127061    0.788156
      9          6           0        2.605513    0.343469    0.976714
     10          6           0        3.651092   -0.109830    0.162844
     11          6           0        3.380298   -1.051571   -0.838437
     12          6           0        2.072007   -1.511460   -1.034183
     13          6           0        5.021010    0.434326    0.405801
     14          8           0        5.201503    1.259697    1.300487
     15          6           0        6.159496   -0.035763   -0.457267
     16          7           0       -2.462275   -1.330013   -0.062129
     17          6           0       -3.501327   -0.511413    0.051012
     18          7           0       -3.482256    0.803796   -0.112335
     19          8           0       -4.745517   -1.028155    0.341272
     20          6           0       -4.675591   -2.278634    1.013773
     21          1           0       -3.005202    4.465899   -0.235924
     22          1           0       -3.546593    3.197127    0.867124
     23          1           0       -4.104655    3.223987   -0.850591
     24          1           0        0.518559    0.233960    1.447207
     25          1           0        2.796327    1.070718    1.763338
     26          1           0        4.164437   -1.441266   -1.481088
     27          1           0        1.868278   -2.242780   -1.812157
     28          1           0        6.283819   -1.117661   -0.368511
     29          1           0        7.086278    0.438401   -0.116495
     30          1           0        5.991133    0.256150   -1.497519
     31          1           0       -5.695309   -2.566356    1.287465
     32          1           0       -4.092973   -2.197635    1.938438
     33          1           0       -4.272877   -3.062516    0.363857
 ---------------------------------------------------------------------
 Rotational constants (GHZ):      0.7048939      0.1499753      0.1317073
 Leave Link  202 at Tue Sep 28 15:18:17 2021, MaxMem= 1342177280 cpu:       0.1
 (Enter /sw/target/amd/app/gaussian/Gaussian09RevA.02_gcc-4.9.2/g09/l301.exe)
 Standard basis: 6-31G(d) (6D, 7F)
 Ernie: Thresh=  0.10000D-02 Tol=  0.10000D-05 Strict=F.
 There are   326 symmetry adapted basis functions of A   symmetry.
 Integral buffers will be    131072 words long.
 Raffenetti 2 integral format.
 Two-electron integral symmetry is turned on.
   326 basis functions,   612 primitive gaussians,   326 cartesian basis functions
    72 alpha electrons       72 beta electrons
       nuclear repulsion energy      1471.3835330988 Hartrees.
 IExCor=  402 DFT=T Ex+Corr=B3LYP ExCW=0 ScaHFX=  0.200000
 ScaDFX=  0.800000  0.720000  1.000000  0.810000 ScalE2=  1.000000  1.000000
 IRadAn=      0 IRanWt=     -1 IRanGd=            0 ICorTp=0
 NAtoms=   33 NActive=   33 NUniq=   33 SFac= 7.50D-01 NAtFMM=   80 NAOKFM=F Big=F
 Leave Link  301 at Tue Sep 28 15:18:17 2021, MaxMem= 1342177280 cpu:       0.1
 (Enter /sw/target/amd/app/gaussian/Gaussian09RevA.02_gcc-4.9.2/g09/l302.exe)
 NPDir=0 NMtPBC=     1 NCelOv=     1 NCel=       1 NClECP=     1 NCelD=      1
         NCelK=      1 NCelE2=     1 NClLst=     1 CellRange=     0.0.
 One-electron integrals computed using PRISM.
 NBasis=   326 RedAO= T  NBF=   326
 NBsUse=   326 1.00D-06 NBFU=   326
 Precomputing XC quadrature grid using
 IXCGrd= 2 IRadAn=           0 IRanWt=          -1 IRanGd=           0 AccXCQ= 1.00D-10.
 NRdTot=    2112 NPtTot=      269586 NUsed=      284812 NTot=      284844
 NSgBfM=   322   322   322   322   322 NAtAll=    33    33.
 Leave Link  302 at Tue Sep 28 15:18:20 2021, MaxMem= 1342177280 cpu:       3.1
 (Enter /sw/target/amd/app/gaussian/Gaussian09RevA.02_gcc-4.9.2/g09/l303.exe)
 DipDrv:  MaxL=1.
 Leave Link  303 at Tue Sep 28 15:18:20 2021, MaxMem= 1342177280 cpu:       0.2
 (Enter /sw/target/amd/app/gaussian/Gaussian09RevA.02_gcc-4.9.2/g09/l401.exe)
 Harris functional with IExCor=  402 diagonalized for initial guess.
 ExpMin= 1.61D-01 ExpMax= 5.48D+03 ExpMxC= 8.25D+02 IAcc=1 IRadAn=         1 AccDes= 0.00D+00
 HarFok:  IExCor=  402 AccDes= 0.00D+00 IRadAn=         1 IDoV= 1
 ScaDFX=  1.000000  1.000000  1.000000  1.000000
 FoFCou: FMM=F IPFlag=           0 FMFlag=      100000 FMFlg1=           0
         NFxFlg=           0 DoJE=T BraDBF=F KetDBF=T FulRan=T
         Omega=  0.000000  0.000000  1.000000  0.000000  0.000000 ICntrl=     500 IOpCl=  0
         NMat0=    1 NMatS0=    1 NMatT0=    0 NMatD0=    1 NMtDS0=    0 NMtDT0=    0
         I1Cent=           4 NGrid=           0.
 Petite list used in FoFCou.
 Harris En= -968.446136247714    
 Initial guess orbital symmetries:
       Occupied  (A) (A) (A) (A) (A) (A) (A) (A) (A) (A) (A) (A)
                 (A) (A) (A) (A) (A) (A) (A) (A) (A) (A) (A) (A)
                 (A) (A) (A) (A) (A) (A) (A) (A) (A) (A) (A) (A)
                 (A) (A) (A) (A) (A) (A) (A) (A) (A) (A) (A) (A)
                 (A) (A) (A) (A) (A) (A) (A) (A) (A) (A) (A) (A)
                 (A) (A) (A) (A) (A) (A) (A) (A) (A) (A) (A) (A)
       Virtual   (A) (A) (A) (A) (A) (A) (A) (A) (A) (A) (A) (A)
                 (A) (A) (A) (A) (A) (A) (A) (A) (A) (A) (A) (A)
                 (A) (A) (A) (A) (A) (A) (A) (A) (A) (A) (A) (A)
                 (A) (A) (A) (A) (A) (A) (A) (A) (A) (A) (A) (A)
                 (A) (A) (A) (A) (A) (A) (A) (A) (A) (A) (A) (A)
                 (A) (A) (A) (A) (A) (A) (A) (A) (A) (A) (A) (A)
                 (A) (A) (A) (A) (A) (A) (A) (A) (A) (A) (A) (A)
                 (A) (A) (A) (A) (A) (A) (A) (A) (A) (A) (A) (A)
                 (A) (A) (A) (A) (A) (A) (A) (A) (A) (A) (A) (A)
                 (A) (A) (A) (A) (A) (A) (A) (A) (A) (A) (A) (A)
                 (A) (A) (A) (A) (A) (A) (A) (A) (A) (A) (A) (A)
                 (A) (A) (A) (A) (A) (A) (A) (A) (A) (A) (A) (A)
                 (A) (A) (A) (A) (A) (A) (A) (A) (A) (A) (A) (A)
                 (A) (A) (A) (A) (A) (A) (A) (A) (A) (A) (A) (A)
                 (A) (A) (A) (A) (A) (A) (A) (A) (A) (A) (A) (A)
                 (A) (A) (A) (A) (A) (A) (A) (A) (A) (A) (A) (A)
                 (A) (A) (A) (A) (A) (A) (A) (A) (A) (A) (A) (A)
                 (A) (A) (A) (A) (A) (A) (A) (A) (A) (A) (A) (A)
                 (A) (A) (A) (A) (A) (A) (A) (A) (A) (A) (A) (A)
                 (A) (A) (A) (A) (A) (A) (A) (A) (A) (A) (A) (A)
                 (A) (A) (A) (A) (A) (A) (A) (A) (A) (A) (A) (A)
                 (A) (A)
 The electronic state of the initial guess is 1-A.
 Leave Link  401 at Tue Sep 28 15:18:33 2021, MaxMem= 1342177280 cpu:      13.1
 (Enter /sw/target/amd/app/gaussian/Gaussian09RevA.02_gcc-4.9.2/g09/l502.exe)
 Closed shell SCF:
 Requested convergence on RMS density matrix=1.00D-08 within  64 cycles.
 Requested convergence on MAX density matrix=1.00D-06.
 Requested convergence on             energy=1.00D-06.
 No special actions if energy rises.
 Using DIIS extrapolation, IDIIS=  1040.
 Integral symmetry usage will be decided dynamically.
       284502 words used for storage of precomputed grid.
 IEnd=      613278 IEndB=      613278 NGot=  1342177280 MDV=  1341674829
 LenX=  1341674829 LenY=  1341568112
 Fock matrices will be formed incrementally for  20 cycles.
 Integral accuracy reduced to 1.0D-05 until final iterations.

 Cycle   1  Pass 0  IDiag  1:
 FoFCou: FMM=F IPFlag=           0 FMFlag=      100000 FMFlg1=           0
         NFxFlg=           0 DoJE=F BraDBF=F KetDBF=F FulRan=T
         Omega=  0.000000  0.000000  1.000000  0.000000  0.000000 ICntrl=       0 IOpCl=  0
         NMat0=    1 NMatS0=    1 NMatT0=    0 NMatD0=    1 NMtDS0=    0 NMtDT0=    0
         I1Cent=           0 NGrid=           0.
 Symmetry not used in FoFCou.
 E= -967.898464669816    
 DIIS: error= 2.33D-02 at cycle   1 NSaved=   1.
 NSaved= 1 IEnMin= 1 EnMin= -967.898464669816     IErMin= 1 ErrMin= 2.33D-02
 ErrMax= 2.33D-02 EMaxC= 1.00D-01 BMatC= 5.14D-01 BMatP= 5.14D-01
 IDIUse=3 WtCom= 7.67D-01 WtEn= 2.33D-01
 Coeff-Com:  0.100D+01
 Coeff-En:   0.100D+01
 Coeff:      0.100D+01
 Gap=     0.192 Goal=   None    Shift=    0.000
 GapD=    0.192 DampG=1.000 DampE=0.500 DampFc=0.5000 IDamp=-1.
 Damping current iteration by 5.00D-01
 RMSDP=4.86D-03 MaxDP=1.59D-01              OVMax= 2.28D-01

 Cycle   2  Pass 0  IDiag  1:
 RMSU=  1.70D-03    CP:  9.84D-01
 E= -968.068520619188     Delta-E=       -0.170055949372 Rises=F Damp=T
 DIIS: error= 1.17D-02 at cycle   2 NSaved=   2.
 NSaved= 2 IEnMin= 2 EnMin= -968.068520619188     IErMin= 2 ErrMin= 1.17D-02
 ErrMax= 1.17D-02 EMaxC= 1.00D-01 BMatC= 5.20D-02 BMatP= 5.14D-01
 IDIUse=3 WtCom= 8.83D-01 WtEn= 1.17D-01
 Coeff-Com:  0.156D+00 0.844D+00
 Coeff-En:   0.244D+00 0.756D+00
 Coeff:      0.166D+00 0.834D+00
 Gap=     0.232 Goal=   None    Shift=    0.000
 RMSDP=1.38D-03 MaxDP=5.63D-02 DE=-1.70D-01 OVMax= 1.95D-01

 Cycle   3  Pass 0  IDiag  1:
 RMSU=  8.89D-04    CP:  9.77D-01  7.69D-01
 E= -968.318596622503     Delta-E=       -0.250076003315 Rises=F Damp=F
 DIIS: error= 1.68D-02 at cycle   3 NSaved=   3.
 NSaved= 3 IEnMin= 3 EnMin= -968.318596622503     IErMin= 2 ErrMin= 1.17D-02
 ErrMax= 1.68D-02 EMaxC= 1.00D-01 BMatC= 4.63D-02 BMatP= 5.20D-02
 IDIUse=3 WtCom= 8.32D-01 WtEn= 1.68D-01
 Coeff-Com:  0.427D-01 0.481D+00 0.476D+00
 Coeff-En:   0.000D+00 0.000D+00 0.100D+01
 Coeff:      0.355D-01 0.400D+00 0.564D+00
 Gap=     0.197 Goal=   None    Shift=    0.000
 RMSDP=1.08D-03 MaxDP=5.84D-02 DE=-2.50D-01 OVMax= 1.04D-01

 Cycle   4  Pass 0  IDiag  1:
 RMSU=  4.32D-04    CP:  9.81D-01  9.22D-01  3.63D-01
 E= -968.342488700950     Delta-E=       -0.023892078447 Rises=F Damp=F
 DIIS: error= 1.31D-02 at cycle   4 NSaved=   4.
 NSaved= 4 IEnMin= 4 EnMin= -968.342488700950     IErMin= 2 ErrMin= 1.17D-02
 ErrMax= 1.31D-02 EMaxC= 1.00D-01 BMatC= 2.09D-02 BMatP= 4.63D-02
 IDIUse=3 WtCom= 8.69D-01 WtEn= 1.31D-01
 Coeff-Com:  0.106D-01 0.118D+00 0.393D+00 0.478D+00
 Coeff-En:   0.000D+00 0.000D+00 0.335D+00 0.665D+00
 Coeff:      0.924D-02 0.102D+00 0.386D+00 0.503D+00
 Gap=     0.192 Goal=   None    Shift=    0.000
 RMSDP=5.15D-04 MaxDP=2.86D-02 DE=-2.39D-02 OVMax= 3.94D-02

 Cycle   5  Pass 0  IDiag  1:
 RMSU=  1.25D-04    CP:  9.80D-01  8.31D-01  6.09D-01  5.10D-01
 E= -968.359075721661     Delta-E=       -0.016587020711 Rises=F Damp=F
 DIIS: error= 2.03D-03 at cycle   5 NSaved=   5.
 NSaved= 5 IEnMin= 5 EnMin= -968.359075721661     IErMin= 5 ErrMin= 2.03D-03
 ErrMax= 2.03D-03 EMaxC= 1.00D-01 BMatC= 9.46D-04 BMatP= 2.09D-02
 IDIUse=3 WtCom= 9.80D-01 WtEn= 2.03D-02
 Coeff-Com:  0.284D-02 0.138D-01 0.164D+00 0.284D+00 0.536D+00
 Coeff-En:   0.000D+00 0.000D+00 0.000D+00 0.000D+00 0.100D+01
 Coeff:      0.278D-02 0.135D-01 0.161D+00 0.278D+00 0.545D+00
 Gap=     0.187 Goal=   None    Shift=    0.000
 RMSDP=1.09D-04 MaxDP=5.05D-03 DE=-1.66D-02 OVMax= 7.96D-03

 Cycle   6  Pass 0  IDiag  1:
 RMSU=  3.85D-05    CP:  9.80D-01  8.43D-01  6.01D-01  5.66D-01  5.39D-01
 E= -968.359792256281     Delta-E=       -0.000716534620 Rises=F Damp=F
 DIIS: error= 3.96D-04 at cycle   6 NSaved=   6.
 NSaved= 6 IEnMin= 6 EnMin= -968.359792256281     IErMin= 6 ErrMin= 3.96D-04
 ErrMax= 3.96D-04 EMaxC= 1.00D-01 BMatC= 8.59D-05 BMatP= 9.46D-04
 IDIUse=3 WtCom= 9.96D-01 WtEn= 3.96D-03
 Coeff-Com:  0.933D-03-0.986D-03 0.621D-01 0.120D+00 0.315D+00 0.503D+00
 Coeff-En:   0.000D+00 0.000D+00 0.000D+00 0.000D+00 0.167D-01 0.983D+00
 Coeff:      0.930D-03-0.982D-03 0.618D-01 0.120D+00 0.314D+00 0.505D+00
 Gap=     0.187 Goal=   None    Shift=    0.000
 RMSDP=3.57D-05 MaxDP=1.37D-03 DE=-7.17D-04 OVMax= 2.96D-03

 Cycle   7  Pass 0  IDiag  1:
 RMSU=  1.61D-05    CP:  9.80D-01  8.43D-01  6.00D-01  5.64D-01  6.07D-01
                    CP:  5.47D-01
 E= -968.359856980564     Delta-E=       -0.000064724283 Rises=F Damp=F
 DIIS: error= 1.29D-04 at cycle   7 NSaved=   7.
 NSaved= 7 IEnMin= 7 EnMin= -968.359856980564     IErMin= 7 ErrMin= 1.29D-04
 ErrMax= 1.29D-04 EMaxC= 1.00D-01 BMatC= 1.25D-05 BMatP= 8.59D-05
 IDIUse=3 WtCom= 9.99D-01 WtEn= 1.29D-03
 Coeff-Com:  0.243D-03-0.201D-02 0.196D-01 0.410D-01 0.136D+00 0.327D+00
 Coeff-Com:  0.479D+00
 Coeff-En:   0.000D+00 0.000D+00 0.000D+00 0.000D+00 0.000D+00 0.136D+00
 Coeff-En:   0.864D+00
 Coeff:      0.243D-03-0.200D-02 0.196D-01 0.409D-01 0.136D+00 0.326D+00
 Coeff:      0.479D+00
 Gap=     0.187 Goal=   None    Shift=    0.000
 RMSDP=1.33D-05 MaxDP=4.41D-04 DE=-6.47D-05 OVMax= 1.15D-03

 Cycle   8  Pass 0  IDiag  1:
 RMSU=  3.91D-06    CP:  9.80D-01  8.42D-01  6.02D-01  5.67D-01  6.01D-01
                    CP:  6.31D-01  5.32D-01
 E= -968.359869189920     Delta-E=       -0.000012209356 Rises=F Damp=F
 DIIS: error= 2.52D-05 at cycle   8 NSaved=   8.
 NSaved= 8 IEnMin= 8 EnMin= -968.359869189920     IErMin= 8 ErrMin= 2.52D-05
 ErrMax= 2.52D-05 EMaxC= 1.00D-01 BMatC= 6.62D-07 BMatP= 1.25D-05
 IDIUse=1 WtCom= 1.00D+00 WtEn= 0.00D+00
 Coeff-Com:  0.699D-04-0.984D-03 0.470D-02 0.102D-01 0.440D-01 0.128D+00
 Coeff-Com:  0.255D+00 0.559D+00
 Coeff:      0.699D-04-0.984D-03 0.470D-02 0.102D-01 0.440D-01 0.128D+00
 Coeff:      0.255D+00 0.559D+00
 Gap=     0.187 Goal=   None    Shift=    0.000
 RMSDP=3.26D-06 MaxDP=1.10D-04 DE=-1.22D-05 OVMax= 2.85D-04

 Initial convergence to 1.0D-05 achieved.  Increase integral accuracy.
 Cycle   9  Pass 1  IDiag  1:
 E= -968.359914414354     Delta-E=       -0.000045224434 Rises=F Damp=F
 DIIS: error= 2.16D-05 at cycle   1 NSaved=   1.
 NSaved= 1 IEnMin= 1 EnMin= -968.359914414354     IErMin= 1 ErrMin= 2.16D-05
 ErrMax= 2.16D-05 EMaxC= 1.00D-01 BMatC= 3.00D-07 BMatP= 3.00D-07
 IDIUse=1 WtCom= 1.00D+00 WtEn= 0.00D+00
 Coeff-Com:  0.100D+01
 Coeff:      0.100D+01
 Gap=     0.187 Goal=   None    Shift=    0.000
 RMSDP=3.26D-06 MaxDP=1.10D-04 DE=-4.52D-05 OVMax= 2.71D-04

 Cycle  10  Pass 1  IDiag  1:
 RMSU=  1.01D-05    CP:  1.00D+00
 E= -968.359914480225     Delta-E=       -0.000000065871 Rises=F Damp=F
 DIIS: error= 1.61D-05 at cycle   2 NSaved=   2.
 NSaved= 2 IEnMin= 2 EnMin= -968.359914480225     IErMin= 2 ErrMin= 1.61D-05
 ErrMax= 1.61D-05 EMaxC= 1.00D-01 BMatC= 2.69D-07 BMatP= 3.00D-07
 IDIUse=1 WtCom= 1.00D+00 WtEn= 0.00D+00
 Coeff-Com:  0.482D+00 0.518D+00
 Coeff:      0.482D+00 0.518D+00
 Gap=     0.187 Goal=   None    Shift=    0.000
 RMSDP=2.49D-06 MaxDP=1.16D-04 DE=-6.59D-08 OVMax= 2.46D-04

 Cycle  11  Pass 1  IDiag  1:
 RMSU=  1.75D-06    CP:  1.00D+00  9.81D-01
 E= -968.359914658809     Delta-E=       -0.000000178584 Rises=F Damp=F
 DIIS: error= 1.00D-05 at cycle   3 NSaved=   3.
 NSaved= 3 IEnMin= 3 EnMin= -968.359914658809     IErMin= 3 ErrMin= 1.00D-05
 ErrMax= 1.00D-05 EMaxC= 1.00D-01 BMatC= 8.89D-08 BMatP= 2.69D-07
 IDIUse=1 WtCom= 1.00D+00 WtEn= 0.00D+00
 Coeff-Com:  0.334D-02 0.363D+00 0.634D+00
 Coeff:      0.334D-02 0.363D+00 0.634D+00
 Gap=     0.187 Goal=   None    Shift=    0.000
 RMSDP=1.07D-06 MaxDP=4.53D-05 DE=-1.79D-07 OVMax= 9.75D-05

 Cycle  12  Pass 1  IDiag  1:
 RMSU=  2.93D-07    CP:  1.00D+00  1.00D+00  6.16D-01
 E= -968.359914746379     Delta-E=       -0.000000087570 Rises=F Damp=F
 DIIS: error= 1.83D-06 at cycle   4 NSaved=   4.
 NSaved= 4 IEnMin= 4 EnMin= -968.359914746379     IErMin= 4 ErrMin= 1.83D-06
 ErrMax= 1.83D-06 EMaxC= 1.00D-01 BMatC= 4.78D-09 BMatP= 8.89D-08
 IDIUse=1 WtCom= 1.00D+00 WtEn= 0.00D+00
 Coeff-Com: -0.102D-01 0.212D+00 0.393D+00 0.405D+00
 Coeff:     -0.102D-01 0.212D+00 0.393D+00 0.405D+00
 Gap=     0.187 Goal=   None    Shift=    0.000
 RMSDP=2.44D-07 MaxDP=1.19D-05 DE=-8.76D-08 OVMax= 1.98D-05

 Cycle  13  Pass 1  IDiag  1:
 RMSU=  8.85D-08    CP:  1.00D+00  1.00D+00  6.44D-01  5.23D-01
 E= -968.359914750729     Delta-E=       -0.000000004350 Rises=F Damp=F
 DIIS: error= 3.74D-07 at cycle   5 NSaved=   5.
 NSaved= 5 IEnMin= 5 EnMin= -968.359914750729     IErMin= 5 ErrMin= 3.74D-07
 ErrMax= 3.74D-07 EMaxC= 1.00D-01 BMatC= 1.54D-10 BMatP= 4.78D-09
 IDIUse=1 WtCom= 1.00D+00 WtEn= 0.00D+00
 Coeff-Com: -0.556D-02 0.872D-01 0.165D+00 0.215D+00 0.538D+00
 Coeff:     -0.556D-02 0.872D-01 0.165D+00 0.215D+00 0.538D+00
 Gap=     0.187 Goal=   None    Shift=    0.000
 RMSDP=4.72D-08 MaxDP=2.31D-06 DE=-4.35D-09 OVMax= 3.95D-06

 Cycle  14  Pass 1  IDiag  1:
 RMSU=  2.75D-08    CP:  1.00D+00  1.00D+00  6.42D-01  5.52D-01  8.13D-01
 E= -968.359914750899     Delta-E=       -0.000000000170 Rises=F Damp=F
 DIIS: error= 9.63D-08 at cycle   6 NSaved=   6.
 NSaved= 6 IEnMin= 6 EnMin= -968.359914750899     IErMin= 6 ErrMin= 9.63D-08
 ErrMax= 9.63D-08 EMaxC= 1.00D-01 BMatC= 1.06D-11 BMatP= 1.54D-10
 IDIUse=1 WtCom= 1.00D+00 WtEn= 0.00D+00
 Coeff-Com: -0.147D-02 0.176D-01 0.338D-01 0.562D-01 0.249D+00 0.645D+00
 Coeff:     -0.147D-02 0.176D-01 0.338D-01 0.562D-01 0.249D+00 0.645D+00
 Gap=     0.187 Goal=   None    Shift=    0.000
 RMSDP=1.34D-08 MaxDP=6.42D-07 DE=-1.70D-10 OVMax= 1.25D-06

 Cycle  15  Pass 1  IDiag  1:
 RMSU=  6.49D-09    CP:  1.00D+00  1.00D+00  6.42D-01  5.55D-01  8.65D-01
                    CP:  8.16D-01
 E= -968.359914750928     Delta-E=       -0.000000000029 Rises=F Damp=F
 DIIS: error= 4.54D-08 at cycle   7 NSaved=   7.
 NSaved= 7 IEnMin= 7 EnMin= -968.359914750928     IErMin= 7 ErrMin= 4.54D-08
 ErrMax= 4.54D-08 EMaxC= 1.00D-01 BMatC= 1.81D-12 BMatP= 1.06D-11
 IDIUse=1 WtCom= 1.00D+00 WtEn= 0.00D+00
 Coeff-Com: -0.104D-03-0.127D-02-0.224D-02 0.440D-02 0.667D-01 0.349D+00
 Coeff-Com:  0.584D+00
 Coeff:     -0.104D-03-0.127D-02-0.224D-02 0.440D-02 0.667D-01 0.349D+00
 Coeff:      0.584D+00
 Gap=     0.187 Goal=   None    Shift=    0.000
 RMSDP=5.07D-09 MaxDP=1.98D-07 DE=-2.86D-11 OVMax= 5.06D-07

 SCF Done:  E(RB3LYP) =  -968.359914751     A.U. after   15 cycles
             Convg  =    0.5068D-08             -V/T =  2.0092
 KE= 9.594856295446D+02 PE=-5.199639929823D+03 EE= 1.800410852429D+03
 Leave Link  502 at Tue Sep 28 15:36:16 2021, MaxMem= 1342177280 cpu:     762.8
 (Enter /sw/target/amd/app/gaussian/Gaussian09RevA.02_gcc-4.9.2/g09/l508.exe)
 QCSCF skips out because SCF is already converged.
 Leave Link  508 at Tue Sep 28 15:36:27 2021, MaxMem= 1342177280 cpu:       0.0
 (Enter /sw/target/amd/app/gaussian/Gaussian09RevA.02_gcc-4.9.2/g09/l601.exe)
 Copying SCF densities to generalized density rwf, IOpCl= 0 IROHF=0.

 **********************************************************************

            Population analysis using the SCF density.

 **********************************************************************

 Orbital symmetries:
       Occupied  (A) (A) (A) (A) (A) (A) (A) (A) (A) (A) (A) (A)
                 (A) (A) (A) (A) (A) (A) (A) (A) (A) (A) (A) (A)
                 (A) (A) (A) (A) (A) (A) (A) (A) (A) (A) (A) (A)
                 (A) (A) (A) (A) (A) (A) (A) (A) (A) (A) (A) (A)
                 (A) (A) (A) (A) (A) (A) (A) (A) (A) (A) (A) (A)
                 (A) (A) (A) (A) (A) (A) (A) (A) (A) (A) (A) (A)
       Virtual   (A) (A) (A) (A) (A) (A) (A) (A) (A) (A) (A) (A)
                 (A) (A) (A) (A) (A) (A) (A) (A) (A) (A) (A) (A)
                 (A) (A) (A) (A) (A) (A) (A) (A) (A) (A) (A) (A)
                 (A) (A) (A) (A) (A) (A) (A) (A) (A) (A) (A) (A)
                 (A) (A) (A) (A) (A) (A) (A) (A) (A) (A) (A) (A)
                 (A) (A) (A) (A) (A) (A) (A) (A) (A) (A) (A) (A)
                 (A) (A) (A) (A) (A) (A) (A) (A) (A) (A) (A) (A)
                 (A) (A) (A) (A) (A) (A) (A) (A) (A) (A) (A) (A)
                 (A) (A) (A) (A) (A) (A) (A) (A) (A) (A) (A) (A)
                 (A) (A) (A) (A) (A) (A) (A) (A) (A) (A) (A) (A)
                 (A) (A) (A) (A) (A) (A) (A) (A) (A) (A) (A) (A)
                 (A) (A) (A) (A) (A) (A) (A) (A) (A) (A) (A) (A)
                 (A) (A) (A) (A) (A) (A) (A) (A) (A) (A) (A) (A)
                 (A) (A) (A) (A) (A) (A) (A) (A) (A) (A) (A) (A)
                 (A) (A) (A) (A) (A) (A) (A) (A) (A) (A) (A) (A)
                 (A) (A) (A) (A) (A) (A) (A) (A) (A) (A) (A) (A)
                 (A) (A) (A) (A) (A) (A) (A) (A) (A) (A) (A) (A)
                 (A) (A) (A) (A) (A) (A) (A) (A) (A) (A) (A) (A)
                 (A) (A) (A) (A) (A) (A) (A) (A) (A) (A) (A) (A)
                 (A) (A) (A) (A) (A) (A) (A) (A) (A) (A) (A) (A)
                 (A) (A) (A) (A) (A) (A) (A) (A) (A) (A) (A) (A)
                 (A) (A)
 The electronic state is 1-A.
 Alpha  occ. eigenvalues --  -19.21962 -19.20435 -19.20303 -19.13057 -14.35504
 Alpha  occ. eigenvalues --  -14.35220 -14.35166 -10.34713 -10.33991 -10.33847
 Alpha  occ. eigenvalues --  -10.27282 -10.26886 -10.24437 -10.24288 -10.20905
 Alpha  occ. eigenvalues --  -10.20314 -10.20307 -10.20169 -10.20035 -10.18849
 Alpha  occ. eigenvalues --   -1.12014  -1.10138  -1.09145  -1.02646  -1.01787
 Alpha  occ. eigenvalues --   -0.92039  -0.91717  -0.86519  -0.78025  -0.76174
 Alpha  occ. eigenvalues --   -0.74116  -0.73961  -0.72868  -0.68953  -0.64896
 Alpha  occ. eigenvalues --   -0.62527  -0.62351  -0.59606  -0.57352  -0.55699
 Alpha  occ. eigenvalues --   -0.53329  -0.51453  -0.51265  -0.49377  -0.48105
 Alpha  occ. eigenvalues --   -0.47549  -0.46105  -0.45321  -0.44874  -0.44744
 Alpha  occ. eigenvalues --   -0.44136  -0.43251  -0.43065  -0.42021  -0.40718
 Alpha  occ. eigenvalues --   -0.40146  -0.39716  -0.37799  -0.37564  -0.37185
 Alpha  occ. eigenvalues --   -0.36417  -0.36198  -0.35793  -0.34638  -0.31950
 Alpha  occ. eigenvalues --   -0.29669  -0.29369  -0.29092  -0.28669  -0.26068
 Alpha  occ. eigenvalues --   -0.24553  -0.24405
 Alpha virt. eigenvalues --   -0.05660  -0.03559  -0.03212  -0.01212   0.04321
 Alpha virt. eigenvalues --    0.08518   0.10366   0.11229   0.11320   0.11935
 Alpha virt. eigenvalues --    0.12808   0.12900   0.14058   0.14756   0.15017
 Alpha virt. eigenvalues --    0.15100   0.15442   0.16207   0.17016   0.17170
 Alpha virt. eigenvalues --    0.17197   0.18017   0.19445   0.21973   0.23182
 Alpha virt. eigenvalues --    0.23871   0.24631   0.26197   0.28307   0.28690
 Alpha virt. eigenvalues --    0.29048   0.29215   0.32415   0.33075   0.36137
 Alpha virt. eigenvalues --    0.37493   0.40226   0.41374   0.46599   0.48518
 Alpha virt. eigenvalues --    0.49165   0.49411   0.50797   0.51552   0.51907
 Alpha virt. eigenvalues --    0.52927   0.53000   0.54199   0.54251   0.54467
 Alpha virt. eigenvalues --    0.55272   0.55618   0.57205   0.57804   0.58213
 Alpha virt. eigenvalues --    0.58429   0.58584   0.59400   0.59961   0.60537
 Alpha virt. eigenvalues --    0.61324   0.62458   0.63474   0.64388   0.64841
 Alpha virt. eigenvalues --    0.66419   0.67194   0.68109   0.68480   0.69048
 Alpha virt. eigenvalues --    0.70358   0.72236   0.75127   0.75464   0.76709
 Alpha virt. eigenvalues --    0.78375   0.79822   0.80577   0.81901   0.82474
 Alpha virt. eigenvalues --    0.83328   0.83528   0.84101   0.85076   0.85553
 Alpha virt. eigenvalues --    0.86114   0.86648   0.87687   0.87826   0.89660
 Alpha virt. eigenvalues --    0.90326   0.90938   0.92957   0.93288   0.94024
 Alpha virt. eigenvalues --    0.94521   0.95191   0.96360   0.97429   0.98471
 Alpha virt. eigenvalues --    0.98974   1.00540   1.01445   1.02220   1.02714
 Alpha virt. eigenvalues --    1.03660   1.05883   1.06432   1.07148   1.09587
 Alpha virt. eigenvalues --    1.11779   1.12711   1.14280   1.15653   1.18384
 Alpha virt. eigenvalues --    1.19315   1.22187   1.23989   1.25068   1.26645
 Alpha virt. eigenvalues --    1.31019   1.31900   1.32917   1.33958   1.34270
 Alpha virt. eigenvalues --    1.36790   1.37311   1.39884   1.41044   1.42267
 Alpha virt. eigenvalues --    1.43611   1.44840   1.45299   1.45699   1.47116
 Alpha virt. eigenvalues --    1.49023   1.49290   1.49878   1.50116   1.50636
 Alpha virt. eigenvalues --    1.52980   1.53818   1.55979   1.60599   1.65842
 Alpha virt. eigenvalues --    1.66630   1.68430   1.69675   1.70683   1.75290
 Alpha virt. eigenvalues --    1.76164   1.77510   1.78492   1.79092   1.80337
 Alpha virt. eigenvalues --    1.82020   1.82937   1.83871   1.84183   1.85979
 Alpha virt. eigenvalues --    1.86386   1.90387   1.92601   1.94043   1.94257
 Alpha virt. eigenvalues --    1.95801   1.96999   1.97407   1.98425   2.02219
 Alpha virt. eigenvalues --    2.02937   2.04015   2.04856   2.05312   2.07012
 Alpha virt. eigenvalues --    2.07135   2.08769   2.10114   2.11392   2.13401
 Alpha virt. eigenvalues --    2.13504   2.18170   2.18454   2.20249   2.22774
 Alpha virt. eigenvalues --    2.23317   2.25053   2.25981   2.27561   2.28067
 Alpha virt. eigenvalues --    2.28098   2.29222   2.30325   2.33538   2.36975
 Alpha virt. eigenvalues --    2.38481   2.39387   2.41517   2.42500   2.44558
 Alpha virt. eigenvalues --    2.45306   2.47334   2.48635   2.50691   2.51560
 Alpha virt. eigenvalues --    2.53982   2.56378   2.56879   2.58402   2.60796
 Alpha virt. eigenvalues --    2.62373   2.64870   2.66046   2.66980   2.67957
 Alpha virt. eigenvalues --    2.71805   2.75081   2.75708   2.76226   2.78303
 Alpha virt. eigenvalues --    2.80344   2.84639   2.87756   2.90309   2.94946
 Alpha virt. eigenvalues --    2.97535   2.98234   3.03211   3.15174   3.20003
 Alpha virt. eigenvalues --    3.22682   3.31097   3.41388   3.46356   3.96772
 Alpha virt. eigenvalues --    4.03627   4.03971   4.07688   4.09502   4.10121
 Alpha virt. eigenvalues --    4.12120   4.16014   4.20587   4.22877   4.25839
 Alpha virt. eigenvalues --    4.27171   4.29008   4.33085   4.38899   4.51489
 Alpha virt. eigenvalues --    4.54820   4.64817   4.69803   4.83131
          Condensed to atoms (all electrons):
              1          2          3          4          5          6
     1  C    4.899051   0.226194  -0.031226   0.004493  -0.000093   0.000001
     2  O    0.226194   8.175820   0.311721  -0.080623   0.001136  -0.000010
     3  C   -0.031226   0.311721   4.328771   0.454388  -0.045103   0.002132
     4  N    0.004493  -0.080623   0.454388   6.938405   0.408401  -0.077544
     5  C   -0.000093   0.001136  -0.045103   0.408401   4.352862   0.279334
     6  O    0.000001  -0.000010   0.002132  -0.077544   0.279334   8.288362
     7  C   -0.000000   0.000002   0.000531  -0.001460  -0.016338   0.222286
     8  C   -0.000000   0.000015   0.000014  -0.001583  -0.002831  -0.050760
     9  C    0.000000   0.000001   0.000009  -0.000731  -0.000077   0.003856
    10  C    0.000000  -0.000000   0.000000   0.000021   0.000048   0.000069
    11  C    0.000000  -0.000000  -0.000000  -0.000008  -0.000028   0.003488
    12  C   -0.000000   0.000000  -0.000016  -0.000141  -0.000589  -0.050539
    13  C   -0.000000  -0.000000  -0.000000  -0.000000   0.000000   0.000000
    14  O   -0.000000   0.000000  -0.000000  -0.000000   0.000000  -0.000000
    15  C   -0.000000   0.000000  -0.000000  -0.000000   0.000000  -0.000000
    16  N    0.000086  -0.000199  -0.031426  -0.076015   0.444941  -0.078168
    17  C    0.000588   0.001679  -0.041596  -0.031194  -0.041174   0.001085
    18  N   -0.008226  -0.081156   0.381825  -0.074616  -0.032600  -0.000180
    19  O   -0.000019  -0.000011   0.001319  -0.000195   0.001287  -0.000010
    20  C    0.000000   0.000001  -0.000085   0.000078   0.000538  -0.000017
    21  H    0.375099  -0.030219   0.004113  -0.000003   0.000003  -0.000000
    22  H    0.372519  -0.031665  -0.007213  -0.000010   0.000071   0.000000
    23  H    0.375613  -0.031120  -0.008435  -0.000208   0.000033   0.000000
    24  H   -0.000000  -0.000015   0.000134   0.002587   0.004941  -0.006494
    25  H   -0.000000   0.000000  -0.000001  -0.000010  -0.000011  -0.000042
    26  H    0.000000  -0.000000  -0.000000  -0.000000  -0.000001  -0.000055
    27  H   -0.000000   0.000000  -0.000001   0.000008   0.000109  -0.001376
    28  H    0.000000   0.000000   0.000000   0.000000  -0.000000   0.000000
    29  H   -0.000000  -0.000000  -0.000000   0.000000  -0.000000  -0.000000
    30  H   -0.000000  -0.000000  -0.000000   0.000000  -0.000000   0.000000
    31  H   -0.000000  -0.000000   0.000002   0.000001  -0.000006  -0.000000
    32  H   -0.000000   0.000000   0.000051  -0.000025   0.000102  -0.000001
    33  H   -0.000000   0.000000   0.000049   0.000003  -0.000075   0.000005
              7          8          9         10         11         12
     1  C   -0.000000  -0.000000   0.000000   0.000000   0.000000  -0.000000
     2  O    0.000002   0.000015   0.000001  -0.000000  -0.000000   0.000000
     3  C    0.000531   0.000014   0.000009   0.000000  -0.000000  -0.000016
     4  N   -0.001460  -0.001583  -0.000731   0.000021  -0.000008  -0.000141
     5  C   -0.016338  -0.002831  -0.000077   0.000048  -0.000028  -0.000589
     6  O    0.222286  -0.050760   0.003856   0.000069   0.003488  -0.050539
     7  C    4.508659   0.489589  -0.003863  -0.032148  -0.017166   0.542991
     8  C    0.489589   5.053595   0.447310  -0.025848  -0.037662  -0.063875
     9  C   -0.003863   0.447310   5.050724   0.480748  -0.079820  -0.037160
    10  C   -0.032148  -0.025848   0.480748   5.017300   0.500721  -0.018332
    11  C   -0.017166  -0.037662  -0.079820   0.500721   5.048379   0.494364
    12  C    0.542991  -0.063875  -0.037160  -0.018332   0.494364   4.994717
    13  C    0.000086   0.007477  -0.029112   0.278056  -0.041399   0.004363
    14  O   -0.000023   0.001357   0.001587  -0.093333   0.004436  -0.000056
    15  C   -0.000025  -0.000100   0.011396  -0.128035  -0.010670  -0.000112
    16  N    0.001228  -0.000019  -0.000006   0.000000   0.000002  -0.000238
    17  C    0.000073   0.000079  -0.000001   0.000000  -0.000000   0.000002
    18  N    0.000049  -0.000018  -0.000000   0.000000  -0.000000  -0.000001
    19  O   -0.000000   0.000000   0.000000  -0.000000   0.000000  -0.000000
    20  C    0.000000  -0.000000   0.000000   0.000000   0.000000  -0.000000
    21  H   -0.000000   0.000000   0.000000  -0.000000   0.000000   0.000000
    22  H    0.000000  -0.000000   0.000000  -0.000000   0.000000   0.000000
    23  H    0.000000   0.000000   0.000000   0.000000  -0.000000   0.000000
    24  H   -0.039927   0.351179  -0.035676   0.003332   0.000565   0.005295
    25  H    0.003126  -0.038614   0.354230  -0.039222   0.005461   0.000418
    26  H    0.003592   0.000174   0.005714  -0.035887   0.353494  -0.041185
    27  H   -0.036693   0.006381   0.000279   0.003629  -0.038245   0.349369
    28  H    0.000004  -0.000007  -0.000395   0.001991   0.000731   0.000105
    29  H    0.000000   0.000002  -0.000138   0.005492   0.000113   0.000001
    30  H    0.000003  -0.000005  -0.000377   0.002105   0.000619   0.000076
    31  H    0.000000  -0.000000  -0.000000   0.000000   0.000000  -0.000000
    32  H    0.000000   0.000000  -0.000000   0.000000  -0.000000  -0.000000
    33  H    0.000000  -0.000000   0.000000  -0.000000  -0.000000   0.000000
             13         14         15         16         17         18
     1  C   -0.000000  -0.000000  -0.000000   0.000086   0.000588  -0.008226
     2  O   -0.000000   0.000000   0.000000  -0.000199   0.001679  -0.081156
     3  C   -0.000000  -0.000000  -0.000000  -0.031426  -0.041596   0.381825
     4  N   -0.000000  -0.000000  -0.000000  -0.076015  -0.031194  -0.074616
     5  C    0.000000   0.000000   0.000000   0.444941  -0.041174  -0.032600
     6  O    0.000000  -0.000000  -0.000000  -0.078168   0.001085  -0.000180
     7  C    0.000086  -0.000023  -0.000025   0.001228   0.000073   0.000049
     8  C    0.007477   0.001357  -0.000100  -0.000019   0.000079  -0.000018
     9  C   -0.029112   0.001587   0.011396  -0.000006  -0.000001  -0.000000
    10  C    0.278056  -0.093333  -0.128035   0.000000   0.000000   0.000000
    11  C   -0.041399   0.004436  -0.010670   0.000002  -0.000000  -0.000000
    12  C    0.004363  -0.000056  -0.000112  -0.000238   0.000002  -0.000001
    13  C    4.556226   0.580625   0.315187  -0.000000  -0.000000   0.000000
    14  O    0.580625   8.033023  -0.093281  -0.000000   0.000000  -0.000000
    15  C    0.315187  -0.093281   5.393328  -0.000000   0.000000  -0.000000
    16  N   -0.000000  -0.000000  -0.000000   6.994636   0.384083  -0.075695
    17  C   -0.000000   0.000000   0.000000   0.384083   4.321296   0.463778
    18  N    0.000000  -0.000000  -0.000000  -0.075695   0.463778   6.980761
    19  O   -0.000000   0.000000  -0.000000  -0.080409   0.309349  -0.083364
    20  C    0.000000  -0.000000  -0.000000  -0.008727  -0.031032   0.004052
    21  H   -0.000000   0.000000   0.000000   0.000001  -0.000005   0.000936
    22  H    0.000000  -0.000000  -0.000000  -0.000022   0.000001   0.007089
    23  H   -0.000000   0.000000   0.000000  -0.000003   0.000036   0.006535
    24  H   -0.000123   0.000004   0.000002  -0.000326   0.000070  -0.000019
    25  H   -0.009217   0.016550   0.000701  -0.000000   0.000000  -0.000000
    26  H   -0.011881   0.000048   0.008003  -0.000000   0.000000  -0.000000
    27  H   -0.000090   0.000000   0.000008  -0.000013   0.000000  -0.000000
    28  H   -0.017877   0.001636   0.347060   0.000000   0.000000  -0.000000
    29  H   -0.019652   0.006186   0.349183   0.000000  -0.000000   0.000000
    30  H   -0.017979   0.001338   0.349060  -0.000000  -0.000000   0.000000
    31  H    0.000000   0.000000  -0.000000   0.000769   0.004135  -0.000006
    32  H    0.000000   0.000000   0.000000   0.004095  -0.004655   0.000312
    33  H    0.000000  -0.000000   0.000000   0.008835  -0.009894  -0.000268
             19         20         21         22         23         24
     1  C   -0.000019   0.000000   0.375099   0.372519   0.375613  -0.000000
     2  O   -0.000011   0.000001  -0.030219  -0.031665  -0.031120  -0.000015
     3  C    0.001319  -0.000085   0.004113  -0.007213  -0.008435   0.000134
     4  N   -0.000195   0.000078  -0.000003  -0.000010  -0.000208   0.002587
     5  C    0.001287   0.000538   0.000003   0.000071   0.000033   0.004941
     6  O   -0.000010  -0.000017  -0.000000   0.000000   0.000000  -0.006494
     7  C   -0.000000   0.000000  -0.000000   0.000000   0.000000  -0.039927
     8  C    0.000000  -0.000000   0.000000  -0.000000   0.000000   0.351179
     9  C    0.000000   0.000000   0.000000   0.000000   0.000000  -0.035676
    10  C   -0.000000   0.000000  -0.000000  -0.000000   0.000000   0.003332
    11  C    0.000000   0.000000   0.000000   0.000000  -0.000000   0.000565
    12  C   -0.000000  -0.000000   0.000000   0.000000   0.000000   0.005295
    13  C   -0.000000   0.000000  -0.000000   0.000000  -0.000000  -0.000123
    14  O    0.000000  -0.000000   0.000000  -0.000000   0.000000   0.000004
    15  C   -0.000000  -0.000000   0.000000  -0.000000   0.000000   0.000002
    16  N   -0.080409  -0.008727   0.000001  -0.000022  -0.000003  -0.000326
    17  C    0.309349  -0.031032  -0.000005   0.000001   0.000036   0.000070
    18  N   -0.083364   0.004052   0.000936   0.007089   0.006535  -0.000019
    19  O    8.182837   0.227552  -0.000000  -0.000003   0.000004   0.000000
    20  C    0.227552   4.902914   0.000000  -0.000000   0.000000  -0.000000
    21  H   -0.000000   0.000000   0.550033  -0.033704  -0.034129  -0.000000
    22  H   -0.000003  -0.000000  -0.033704   0.561649  -0.035365   0.000000
    23  H    0.000004   0.000000  -0.034129  -0.035365   0.554140   0.000000
    24  H    0.000000  -0.000000  -0.000000   0.000000   0.000000   0.574357
    25  H   -0.000000   0.000000   0.000000   0.000000   0.000000  -0.004881
    26  H   -0.000000  -0.000000   0.000000   0.000000   0.000000   0.000014
    27  H   -0.000000   0.000000  -0.000000   0.000000   0.000000  -0.000150
    28  H    0.000000   0.000000   0.000000  -0.000000   0.000000   0.000000
    29  H    0.000000  -0.000000   0.000000   0.000000  -0.000000  -0.000000
    30  H    0.000000   0.000000  -0.000000   0.000000  -0.000000   0.000000
    31  H   -0.030319   0.376428  -0.000000  -0.000000   0.000000  -0.000000
    32  H   -0.034196   0.371962   0.000000   0.000000  -0.000000  -0.000000
    33  H   -0.030698   0.374705  -0.000000   0.000000   0.000000   0.000000
             25         26         27         28         29         30
     1  C   -0.000000   0.000000  -0.000000   0.000000  -0.000000  -0.000000
     2  O    0.000000  -0.000000   0.000000   0.000000  -0.000000  -0.000000
     3  C   -0.000001  -0.000000  -0.000001   0.000000  -0.000000  -0.000000
     4  N   -0.000010  -0.000000   0.000008   0.000000   0.000000   0.000000
     5  C   -0.000011  -0.000001   0.000109  -0.000000  -0.000000  -0.000000
     6  O   -0.000042  -0.000055  -0.001376   0.000000  -0.000000   0.000000
     7  C    0.003126   0.003592  -0.036693   0.000004   0.000000   0.000003
     8  C   -0.038614   0.000174   0.006381  -0.000007   0.000002  -0.000005
     9  C    0.354230   0.005714   0.000279  -0.000395  -0.000138  -0.000377
    10  C   -0.039222  -0.035887   0.003629   0.001991   0.005492   0.002105
    11  C    0.005461   0.353494  -0.038245   0.000731   0.000113   0.000619
    12  C    0.000418  -0.041185   0.349369   0.000105   0.000001   0.000076
    13  C   -0.009217  -0.011881  -0.000090  -0.017877  -0.019652  -0.017979
    14  O    0.016550   0.000048   0.000000   0.001636   0.006186   0.001338
    15  C    0.000701   0.008003   0.000008   0.347060   0.349183   0.349060
    16  N   -0.000000  -0.000000  -0.000013   0.000000   0.000000  -0.000000
    17  C    0.000000   0.000000   0.000000   0.000000  -0.000000  -0.000000
    18  N   -0.000000  -0.000000  -0.000000  -0.000000   0.000000   0.000000
    19  O   -0.000000  -0.000000  -0.000000   0.000000   0.000000   0.000000
    20  C    0.000000  -0.000000   0.000000   0.000000  -0.000000   0.000000
    21  H    0.000000   0.000000  -0.000000   0.000000   0.000000  -0.000000
    22  H    0.000000   0.000000   0.000000  -0.000000   0.000000   0.000000
    23  H    0.000000   0.000000   0.000000   0.000000  -0.000000  -0.000000
    24  H   -0.004881   0.000014  -0.000150   0.000000  -0.000000   0.000000
    25  H    0.540700  -0.000151   0.000015  -0.000021  -0.000016  -0.000020
    26  H   -0.000151   0.579300  -0.005675   0.001387  -0.000100   0.000997
    27  H    0.000015  -0.005675   0.574140  -0.000005  -0.000000  -0.000004
    28  H   -0.000021   0.001387  -0.000005   0.542452  -0.023069  -0.024760
    29  H   -0.000016  -0.000100  -0.000000  -0.023069   0.522300  -0.022104
    30  H   -0.000020   0.000997  -0.000004  -0.024760  -0.022104   0.536879
    31  H   -0.000000  -0.000000   0.000000   0.000000   0.000000   0.000000
    32  H    0.000000  -0.000000   0.000000  -0.000000  -0.000000   0.000000
    33  H   -0.000000   0.000000  -0.000000   0.000000   0.000000  -0.000000
             31         32         33
     1  C   -0.000000  -0.000000  -0.000000
     2  O   -0.000000   0.000000   0.000000
     3  C    0.000002   0.000051   0.000049
     4  N    0.000001  -0.000025   0.000003
     5  C   -0.000006   0.000102  -0.000075
     6  O   -0.000000  -0.000001   0.000005
     7  C    0.000000   0.000000   0.000000
     8  C   -0.000000   0.000000  -0.000000
     9  C   -0.000000  -0.000000   0.000000
    10  C    0.000000   0.000000  -0.000000
    11  C    0.000000  -0.000000  -0.000000
    12  C   -0.000000  -0.000000   0.000000
    13  C    0.000000   0.000000   0.000000
    14  O    0.000000   0.000000  -0.000000
    15  C   -0.000000   0.000000   0.000000
    16  N    0.000769   0.004095   0.008835
    17  C    0.004135  -0.004655  -0.009894
    18  N   -0.000006   0.000312  -0.000268
    19  O   -0.030319  -0.034196  -0.030698
    20  C    0.376428   0.371962   0.374705
    21  H   -0.000000   0.000000  -0.000000
    22  H   -0.000000   0.000000   0.000000
    23  H    0.000000  -0.000000   0.000000
    24  H   -0.000000  -0.000000   0.000000
    25  H   -0.000000   0.000000  -0.000000
    26  H   -0.000000  -0.000000   0.000000
    27  H    0.000000   0.000000  -0.000000
    28  H    0.000000  -0.000000   0.000000
    29  H    0.000000  -0.000000   0.000000
    30  H    0.000000   0.000000  -0.000000
    31  H    0.548560  -0.033305  -0.033840
    32  H   -0.033305   0.571690  -0.036445
    33  H   -0.033840  -0.036445   0.548796
 Mulliken atomic charges:
              1
     1  C   -0.214080
     2  O   -0.461550
     3  C    0.680043
     4  N   -0.464018
     5  C    0.645120
     6  O   -0.535421
     7  C    0.375423
     8  C   -0.135850
     9  C   -0.168495
    10  C    0.079292
    11  C   -0.187375
    12  C   -0.179455
    13  C    0.405309
    14  O   -0.460097
    15  C   -0.541705
    16  N   -0.487410
    17  C    0.673299
    18  N   -0.489188
    19  O   -0.463123
    20  C   -0.218370
    21  H    0.167874
    22  H    0.166653
    23  H    0.172900
    24  H    0.145133
    25  H    0.171004
    26  H    0.142211
    27  H    0.148313
    28  H    0.170767
    29  H    0.181803
    30  H    0.174171
    31  H    0.167581
    32  H    0.160414
    33  H    0.178827
 Sum of Mulliken atomic charges =  -0.00000
 Mulliken charges with hydrogens summed into heavy atoms:
              1
     1  C    0.293348
     2  O   -0.461550
     3  C    0.680043
     4  N   -0.464018
     5  C    0.645120
     6  O   -0.535421
     7  C    0.375423
     8  C    0.009283
     9  C    0.002509
    10  C    0.079292
    11  C   -0.045163
    12  C   -0.031142
    13  C    0.405309
    14  O   -0.460097
    15  C   -0.014964
    16  N   -0.487410
    17  C    0.673299
    18  N   -0.489188
    19  O   -0.463123
    20  C    0.288452
 Sum of Mulliken charges with hydrogens summed into heavy atoms =  -0.00000
 Electronic spatial extent (au):  <R**2>=           7943.6621
 Charge=              0.0000 electrons
 Dipole moment (field-independent basis, Debye):
    X=             -1.8591    Y=             -1.5969    Z=             -0.4934  Tot=              2.5000
 Quadrupole moment (field-independent basis, Debye-Ang):
   XX=           -110.6828   YY=           -108.4491   ZZ=           -111.4451
   XY=            -10.3668   XZ=            -15.6643   YZ=             -0.9109
 Traceless Quadrupole moment (field-independent basis, Debye-Ang):
   XX=             -0.4905   YY=              1.7432   ZZ=             -1.2527
   XY=            -10.3668   XZ=            -15.6643   YZ=             -0.9109
 Octapole moment (field-independent basis, Debye-Ang**2):
  XXX=            -28.0335  YYY=             28.2355  ZZZ=              0.1839  XYY=            -62.6552
  XXY=            -63.4776  XXZ=            -48.5401  XZZ=            -25.6793  YZZ=             -6.3654
  YYZ=              0.8309  XYZ=              2.5066
 Hexadecapole moment (field-independent basis, Debye-Ang**3):
 XXXX=          -8225.2495 YYYY=          -1461.8332 ZZZZ=           -428.7294 XXXY=           -134.7982
 XXXZ=           -392.4810 YYYX=            -72.7580 YYYZ=             -4.3815 ZZZX=            -15.4549
 ZZZY=              2.4028 XXYY=          -1492.1982 XXZZ=          -1469.4751 YYZZ=           -331.0137
 XXYZ=           -127.1209 YYXZ=            -51.7597 ZZXY=             -4.6390
 N-N= 1.471383533099D+03 E-N=-5.199639941673D+03  KE= 9.594856295446D+02
 No NMR shielding tensors so no spin-rotation constants.
 Leave Link  601 at Tue Sep 28 15:36:30 2021, MaxMem= 1342177280 cpu:       1.3
 (Enter /sw/target/amd/app/gaussian/Gaussian09RevA.02_gcc-4.9.2/g09/l701.exe)
 Compute integral first derivatives.
 ... and contract with generalized density number  0.
 Leave Link  701 at Tue Sep 28 15:36:31 2021, MaxMem= 1342177280 cpu:       1.7
 (Enter /sw/target/amd/app/gaussian/Gaussian09RevA.02_gcc-4.9.2/g09/l702.exe)
 L702 exits ... SP integral derivatives will be done elsewhere.
 Leave Link  702 at Tue Sep 28 15:36:32 2021, MaxMem= 1342177280 cpu:       0.1
 (Enter /sw/target/amd/app/gaussian/Gaussian09RevA.02_gcc-4.9.2/g09/l703.exe)
 Compute integral first derivatives, UseDBF=F ICtDFT=           0.
 Integral derivatives from FoFDir, PRISM(SPDF).
 Calling FoFJK, ICntrl=      2127 FMM=F ISym2X=0 I1Cent= 0 IOpClX= 0 NMat=1 NMatS=1 NMatT=0.
 FoFCou: FMM=F IPFlag=           0 FMFlag=      100000 FMFlg1=         800
         NFxFlg=           0 DoJE=F BraDBF=F KetDBF=F FulRan=T
         Omega=  0.000000  0.000000  1.000000  0.000000  0.000000 ICntrl=    2127 IOpCl=  0
         NMat0=    1 NMatS0=    1 NMatT0=    0 NMatD0=    1 NMtDS0=    0 NMtDT0=    0
         I1Cent=           0 NGrid=           0.
 Symmetry not used in FoFCou.
 Leave Link  703 at Tue Sep 28 15:38:47 2021, MaxMem= 1342177280 cpu:     240.2
 (Enter /sw/target/amd/app/gaussian/Gaussian09RevA.02_gcc-4.9.2/g09/l716.exe)
 Dipole        =-7.31435946D-01-6.28261502D-01-1.94133998D-01
 ***** Axes restored to original set *****
 -------------------------------------------------------------------
 Center     Atomic                   Forces (Hartrees/Bohr)
 Number     Number              X              Y              Z
 -------------------------------------------------------------------
      1        6           0.008213545    0.012497425   -0.011085185
      2        8           0.005831989   -0.032124786    0.016574159
      3        6          -0.004905982    0.024686305   -0.013908685
      4        7          -0.015980569   -0.006205005    0.009335821
      5        6          -0.010366440    0.000963085    0.006058801
[...]
    63    C    5  S      Ryd( 3S)     0.00209
    64    C    5  S      Ryd( 4S)     0.00041
    65    C    5  px     Val( 2p)     0.77264
    66    C    5  px     Ryd( 3p)     0.00675
    67    C    5  py     Val( 2p)     0.82302
    68    C    5  py     Ryd( 3p)     0.01599
    69    C    5  pz     Val( 2p)     0.85682
    70    C    5  pz     Ryd( 3p)     0.00157
    71    C    5  dxy    Ryd( 3d)     0.00281
    72    C    5  dxz    Ryd( 3d)     0.00221
    73    C    5  dyz    Ryd( 3d)     0.00194
    74    C    5  dx2y2  Ryd( 3d)     0.00196
    75    C    5  dz2    Ryd( 3d)     0.00045

    76    O    6  S      Cor( 1S)     1.99968
    77    O    6  S      Val( 2S)     1.56850
    78    O    6  S      Ryd( 3S)     0.00125
    79    O    6  S      Ryd( 4S)     0.00009
    80    O    6  px     Val( 2p)     1.38655
    81    O    6  px     Ryd( 3p)     0.00092
    82    O    6  py     Val( 2p)     1.73866
    83    O    6  py     Ryd( 3p)     0.00201
    84    O    6  pz     Val( 2p)     1.79050
    85    O    6  pz     Ryd( 3p)     0.00238
    86    O    6  dxy    Ryd( 3d)     0.00140
    87    O    6  dxz    Ryd( 3d)     0.00035
    88    O    6  dyz    Ryd( 3d)     0.00182
    89    O    6  dx2y2  Ryd( 3d)     0.00134
    90    O    6  dz2    Ryd( 3d)     0.00077

    91    C    7  S      Cor( 1S)     1.99870
    92    C    7  S      Val( 2S)     0.83292
    93    C    7  S      Ryd( 3S)     0.00126
    94    C    7  S      Ryd( 4S)     0.00011
    95    C    7  px     Val( 2p)     0.77004
    96    C    7  px     Ryd( 3p)     0.00679
    97    C    7  py     Val( 2p)     1.03712
    98    C    7  py     Ryd( 3p)     0.00527
    99    C    7  pz     Val( 2p)     1.07449
   100    C    7  pz     Ryd( 3p)     0.00323
   101    C    7  dxy    Ryd( 3d)     0.00133
   102    C    7  dxz    Ryd( 3d)     0.00135
   103    C    7  dyz    Ryd( 3d)     0.00055
   104    C    7  dx2y2  Ryd( 3d)     0.00128
   105    C    7  dz2    Ryd( 3d)     0.00098

   106    C    8  S      Cor( 1S)     1.99899
   107    C    8  S      Val( 2S)     0.95982
   108    C    8  S      Ryd( 3S)     0.00075
   109    C    8  S      Ryd( 4S)     0.00005
   110    C    8  px     Val( 2p)     1.12159
   111    C    8  px     Ryd( 3p)     0.00426
   112    C    8  py     Val( 2p)     1.04312
   113    C    8  py     Ryd( 3p)     0.00218
   114    C    8  pz     Val( 2p)     1.11122
   115    C    8  pz     Ryd( 3p)     0.00322
   116    C    8  dxy    Ryd( 3d)     0.00052
   117    C    8  dxz    Ryd( 3d)     0.00081
   118    C    8  dyz    Ryd( 3d)     0.00051
   119    C    8  dx2y2  Ryd( 3d)     0.00060
   120    C    8  dz2    Ryd( 3d)     0.00051

   121    C    9  S      Cor( 1S)     1.99906
   122    C    9  S      Val( 2S)     0.94330
   123    C    9  S      Ryd( 3S)     0.00063
   124    C    9  S      Ryd( 4S)     0.00005
   125    C    9  px     Val( 2p)     1.06971
   126    C    9  px     Ryd( 3p)     0.00394
   127    C    9  py     Val( 2p)     1.08798
   128    C    9  py     Ryd( 3p)     0.00316
   129    C    9  pz     Val( 2p)     1.10608
   130    C    9  pz     Ryd( 3p)     0.00385
   131    C    9  dxy    Ryd( 3d)     0.00067
   132    C    9  dxz    Ryd( 3d)     0.00067
   133    C    9  dyz    Ryd( 3d)     0.00063
   134    C    9  dx2y2  Ryd( 3d)     0.00046
   135    C    9  dz2    Ryd( 3d)     0.00041

   136    C   10  S      Cor( 1S)     1.99889
   137    C   10  S      Val( 2S)     0.88413
   138    C   10  S      Ryd( 3S)     0.00039
   139    C   10  S      Ryd( 4S)     0.00004
   140    C   10  px     Val( 2p)     1.02835
   141    C   10  px     Ryd( 3p)     0.00434
   142    C   10  py     Val( 2p)     1.11753
   143    C   10  py     Ryd( 3p)     0.00282
   144    C   10  pz     Val( 2p)     1.11983
   145    C   10  pz     Ryd( 3p)     0.00395
   146    C   10  dxy    Ryd( 3d)     0.00072
   147    C   10  dxz    Ryd( 3d)     0.00066
   148    C   10  dyz    Ryd( 3d)     0.00046
   149    C   10  dx2y2  Ryd( 3d)     0.00065
   150    C   10  dz2    Ryd( 3d)     0.00062

   151    C   11  S      Cor( 1S)     1.99905
   152    C   11  S      Val( 2S)     0.94007
   153    C   11  S      Ryd( 3S)     0.00052
   154    C   11  S      Ryd( 4S)     0.00004
   155    C   11  px     Val( 2p)     1.11134
   156    C   11  px     Ryd( 3p)     0.00347
   157    C   11  py     Val( 2p)     1.06063
   158    C   11  py     Ryd( 3p)     0.00266
   159    C   11  pz     Val( 2p)     1.11354
   160    C   11  pz     Ryd( 3p)     0.00354
   161    C   11  dxy    Ryd( 3d)     0.00055
   162    C   11  dxz    Ryd( 3d)     0.00081
   163    C   11  dyz    Ryd( 3d)     0.00048
   164    C   11  dx2y2  Ryd( 3d)     0.00056
   165    C   11  dz2    Ryd( 3d)     0.00041

   166    C   12  S      Cor( 1S)     1.99900
   167    C   12  S      Val( 2S)     0.95998
   168    C   12  S      Ryd( 3S)     0.00082
   169    C   12  S      Ryd( 4S)     0.00005
   170    C   12  px     Val( 2p)     1.07488
   171    C   12  px     Ryd( 3p)     0.00458
   172    C   12  py     Val( 2p)     1.09548
   173    C   12  py     Ryd( 3p)     0.00241
   174    C   12  pz     Val( 2p)     1.10875
   175    C   12  pz     Ryd( 3p)     0.00354
   176    C   12  dxy    Ryd( 3d)     0.00072
   177    C   12  dxz    Ryd( 3d)     0.00067
   178    C   12  dyz    Ryd( 3d)     0.00063
   179    C   12  dx2y2  Ryd( 3d)     0.00042
   180    C   12  dz2    Ryd( 3d)     0.00049

   181    C   13  S      Cor( 1S)     1.99928
   182    C   13  S      Val( 2S)     0.84105
   183    C   13  S      Ryd( 3S)     0.00456
   184    C   13  S      Ryd( 4S)     0.00020
   185    C   13  px     Val( 2p)     0.98836
   186    C   13  px     Ryd( 3p)     0.00321
   187    C   13  py     Val( 2p)     0.89180
   188    C   13  py     Ryd( 3p)     0.00856
   189    C   13  pz     Val( 2p)     0.87026
   190    C   13  pz     Ryd( 3p)     0.01028
   191    C   13  dxy    Ryd( 3d)     0.00085
   192    C   13  dxz    Ryd( 3d)     0.00127
   193    C   13  dyz    Ryd( 3d)     0.00076
   194    C   13  dx2y2  Ryd( 3d)     0.00130
   195    C   13  dz2    Ryd( 3d)     0.00148

   196    O   14  S      Cor( 1S)     1.99981
   197    O   14  S      Val( 2S)     1.70390
   198    O   14  S      Ryd( 3S)     0.00016
   199    O   14  S      Ryd( 4S)     0.00001
   200    O   14  px     Val( 2p)     1.22032
   201    O   14  px     Ryd( 3p)     0.00163
   202    O   14  py     Val( 2p)     1.71303
   203    O   14  py     Ryd( 3p)     0.00205
   204    O   14  pz     Val( 2p)     1.59620
   205    O   14  pz     Ryd( 3p)     0.00145
   206    O   14  dxy    Ryd( 3d)     0.00152
   207    O   14  dxz    Ryd( 3d)     0.00212
   208    O   14  dyz    Ryd( 3d)     0.00369
   209    O   14  dx2y2  Ryd( 3d)     0.00197
   210    O   14  dz2    Ryd( 3d)     0.00349

   211    C   15  S      Cor( 1S)     1.99932
   212    C   15  S      Val( 2S)     1.12975
   213    C   15  S      Ryd( 3S)     0.00019
   214    C   15  S      Ryd( 4S)     0.00001
   215    C   15  px     Val( 2p)     1.17477
   216    C   15  px     Ryd( 3p)     0.00137
   217    C   15  py     Val( 2p)     1.24247
   218    C   15  py     Ryd( 3p)     0.00077
   219    C   15  pz     Val( 2p)     1.15590
   220    C   15  pz     Ryd( 3p)     0.00097
   221    C   15  dxy    Ryd( 3d)     0.00060
   222    C   15  dxz    Ryd( 3d)     0.00070
   223    C   15  dyz    Ryd( 3d)     0.00035
   224    C   15  dx2y2  Ryd( 3d)     0.00084
   225    C   15  dz2    Ryd( 3d)     0.00096

   226    N   16  S      Cor( 1S)     1.99926
   227    N   16  S      Val( 2S)     1.39237
   228    N   16  S      Ryd( 3S)     0.00084
   229    N   16  S      Ryd( 4S)     0.00005
   230    N   16  px     Val( 2p)     1.22130
   231    N   16  px     Ryd( 3p)     0.00233
   232    N   16  py     Val( 2p)     1.64846
   233    N   16  py     Ryd( 3p)     0.00318
   234    N   16  pz     Val( 2p)     1.32923
   235    N   16  pz     Ryd( 3p)     0.00096
   236    N   16  dxy    Ryd( 3d)     0.00386
   237    N   16  dxz    Ryd( 3d)     0.00019
   238    N   16  dyz    Ryd( 3d)     0.00394
   239    N   16  dx2y2  Ryd( 3d)     0.00322
   240    N   16  dz2    Ryd( 3d)     0.00239

   241    C   17  S      Cor( 1S)     1.99922
   242    C   17  S      Val( 2S)     0.74298
   243    C   17  S      Ryd( 3S)     0.00235
   244    C   17  S      Ryd( 4S)     0.00039
   245    C   17  px     Val( 2p)     0.75789
   246    C   17  px     Ryd( 3p)     0.01088
   247    C   17  py     Val( 2p)     0.84345
   248    C   17  py     Ryd( 3p)     0.01209
   249    C   17  pz     Val( 2p)     0.84972
   250    C   17  pz     Ryd( 3p)     0.00103
   251    C   17  dxy    Ryd( 3d)     0.00257
   252    C   17  dxz    Ryd( 3d)     0.00247
   253    C   17  dyz    Ryd( 3d)     0.00175
   254    C   17  dx2y2  Ryd( 3d)     0.00232
   255    C   17  dz2    Ryd( 3d)     0.00046

   256    N   18  S      Cor( 1S)     1.99926
   257    N   18  S      Val( 2S)     1.39132
   258    N   18  S      Ryd( 3S)     0.00086
   259    N   18  S      Ryd( 4S)     0.00006
   260    N   18  px     Val( 2p)     1.52686
   261    N   18  px     Ryd( 3p)     0.00295
   262    N   18  py     Val( 2p)     1.34900
   263    N   18  py     Ryd( 3p)     0.00254
   264    N   18  pz     Val( 2p)     1.32561
   265    N   18  pz     Ryd( 3p)     0.00089
   266    N   18  dxy    Ryd( 3d)     0.00324
   267    N   18  dxz    Ryd( 3d)     0.00298
   268    N   18  dyz    Ryd( 3d)     0.00115
   269    N   18  dx2y2  Ryd( 3d)     0.00388
   270    N   18  dz2    Ryd( 3d)     0.00231

   271    O   19  S      Cor( 1S)     1.99972
   272    O   19  S      Val( 2S)     1.59642
   273    O   19  S      Ryd( 3S)     0.00147
   274    O   19  S      Ryd( 4S)     0.00007
   275    O   19  px     Val( 2p)     1.63243
   276    O   19  px     Ryd( 3p)     0.00161
   277    O   19  py     Val( 2p)     1.47751
   278    O   19  py     Ryd( 3p)     0.00110
   279    O   19  pz     Val( 2p)     1.78364
   280    O   19  pz     Ryd( 3p)     0.00207
   281    O   19  dxy    Ryd( 3d)     0.00143
   282    O   19  dxz    Ryd( 3d)     0.00185
   283    O   19  dyz    Ryd( 3d)     0.00046
   284    O   19  dx2y2  Ryd( 3d)     0.00130
   285    O   19  dz2    Ryd( 3d)     0.00076

   286    C   20  S      Cor( 1S)     1.99941
   287    C   20  S      Val( 2S)     1.11108
   288    C   20  S      Ryd( 3S)     0.00144
   289    C   20  S      Ryd( 4S)     0.00003
   290    C   20  px     Val( 2p)     1.23578
   291    C   20  px     Ryd( 3p)     0.00286
   292    C   20  py     Val( 2p)     0.72541
   293    C   20  py     Ryd( 3p)     0.00275
   294    C   20  pz     Val( 2p)     1.23545
   295    C   20  pz     Ryd( 3p)     0.00027
   296    C   20  dxy    Ryd( 3d)     0.00097
   297    C   20  dxz    Ryd( 3d)     0.00066
   298    C   20  dyz    Ryd( 3d)     0.00152
   299    C   20  dx2y2  Ryd( 3d)     0.00198
   300    C   20  dz2    Ryd( 3d)     0.00113

   301    H   21  S      Val( 1S)     0.77502
   302    H   21  S      Ryd( 2S)     0.00061

   303    H   22  S      Val( 1S)     0.77776
   304    H   22  S      Ryd( 2S)     0.00135

   305    H   23  S      Val( 1S)     0.77752
   306    H   23  S      Ryd( 2S)     0.00135

   307    H   24  S      Val( 1S)     0.74710
   308    H   24  S      Ryd( 2S)     0.00089

   309    H   25  S      Val( 1S)     0.75729
   310    H   25  S      Ryd( 2S)     0.00079

   311    H   26  S      Val( 1S)     0.76807
   312    H   26  S      Ryd( 2S)     0.00094

   313    H   27  S      Val( 1S)     0.74961
   314    H   27  S      Ryd( 2S)     0.00108

   315    H   28  S      Val( 1S)     0.73705
   316    H   28  S      Ryd( 2S)     0.00122

   317    H   29  S      Val( 1S)     0.74004
   318    H   29  S      Ryd( 2S)     0.00112

   319    H   30  S      Val( 1S)     0.73630
   320    H   30  S      Ryd( 2S)     0.00118

   321    H   31  S      Val( 1S)     0.77533
   322    H   31  S      Ryd( 2S)     0.00061

   323    H   32  S      Val( 1S)     0.77713
   324    H   32  S      Ryd( 2S)     0.00134

   325    H   33  S      Val( 1S)     0.77718
   326    H   33  S      Ryd( 2S)     0.00135

 WARNING:  1 low occupancy (<1.9990e) core orbital  found on  C    7
           1 low occupancy (<1.9990e) core orbital  found on  C    8
           1 low occupancy (<1.9990e) core orbital  found on  C   10
           1 low occupancy (<1.9990e) core orbital  found on  C   12


 Summary of Natural Population Analysis:                  
                                                          
                                       Natural Population 
                Natural  -----------------------------------------------
    Atom  No    Charge         Core      Valence    Rydberg      Total
 -----------------------------------------------------------------------
      C    1   -0.32074      1.99941     4.30772    0.01362     6.32074
      O    2   -0.50000      1.99972     6.48809    0.01220     8.50000
      C    3    0.76853      1.99921     3.19585    0.03641     5.23147
      N    4   -0.59210      1.99925     5.57212    0.02073     7.59210
      C    5    0.76755      1.99916     3.19712    0.03617     5.23245
      O    6   -0.49620      1.99968     6.48422    0.01231     8.49620
      C    7    0.26457      1.99870     3.71457    0.02216     5.73543
      C    8   -0.24815      1.99899     4.23575    0.01341     6.24815
      C    9   -0.22057      1.99906     4.20706    0.01445     6.22057
      C   10   -0.16339      1.99889     4.14984    0.01466     6.16339
      C   11   -0.23766      1.99905     4.22559    0.01303     6.23766
      C   12   -0.25241      1.99900     4.23909    0.01432     6.25241
      C   13    0.37678      1.99928     3.59148    0.03246     5.62322
      O   14   -0.25136      1.99981     6.23346    0.01809     8.25136
      C   15   -0.70899      1.99932     4.70290    0.00677     6.70899
      N   16   -0.61157      1.99926     5.59136    0.02096     7.61157
      C   17    0.77042      1.99922     3.19404    0.03632     5.22958
      N   18   -0.61290      1.99926     5.59278    0.02086     7.61290
      O   19   -0.50184      1.99972     6.49001    0.01211     8.50184
      C   20   -0.32073      1.99941     4.30772    0.01360     6.32073
      H   21    0.22438      0.00000     0.77502    0.00061     0.77562
      H   22    0.22089      0.00000     0.77776    0.00135     0.77911
      H   23    0.22113      0.00000     0.77752    0.00135     0.77887
      H   24    0.25201      0.00000     0.74710    0.00089     0.74799
      H   25    0.24192      0.00000     0.75729    0.00079     0.75808
      H   26    0.23099      0.00000     0.76807    0.00094     0.76901
      H   27    0.24931      0.00000     0.74961    0.00108     0.75069
      H   28    0.26173      0.00000     0.73705    0.00122     0.73827
      H   29    0.25885      0.00000     0.74004    0.00112     0.74115
      H   30    0.26252      0.00000     0.73630    0.00118     0.73748
      H   31    0.22406      0.00000     0.77533    0.00061     0.77594
      H   32    0.22153      0.00000     0.77713    0.00134     0.77847
      H   33    0.22147      0.00000     0.77718    0.00135     0.77853
 =======================================================================
   * Total *    0.00000     39.98539   103.61616    0.39845   144.00000

                                 Natural Population      
 --------------------------------------------------------
   Core                      39.98539 ( 99.9635% of  40)
   Valence                  103.61616 ( 99.6309% of 104)
   Natural Minimal Basis    143.60155 ( 99.7233% of 144)
   Natural Rydberg Basis      0.39845 (  0.2767% of 144)
 --------------------------------------------------------

    Atom  No          Natural Electron Configuration
 ----------------------------------------------------------------------------
      C    1      [core]2S( 1.11)2p( 3.20)3p( 0.01)3d( 0.01)
      O    2      [core]2S( 1.60)2p( 4.89)3d( 0.01)
      C    3      [core]2S( 0.74)2p( 2.45)3p( 0.02)3d( 0.01)
      N    4      [core]2S( 1.39)2p( 4.18)3p( 0.01)3d( 0.01)
      C    5      [core]2S( 0.74)2p( 2.45)3p( 0.02)3d( 0.01)
      O    6      [core]2S( 1.57)2p( 4.92)3p( 0.01)3d( 0.01)
      C    7      [core]2S( 0.83)2p( 2.88)3p( 0.02)3d( 0.01)
      C    8      [core]2S( 0.96)2p( 3.28)3p( 0.01)
      C    9      [core]2S( 0.94)2p( 3.26)3p( 0.01)
      C   10      [core]2S( 0.88)2p( 3.27)3p( 0.01)
      C   11      [core]2S( 0.94)2p( 3.29)3p( 0.01)
      C   12      [core]2S( 0.96)2p( 3.28)3p( 0.01)
      C   13      [core]2S( 0.84)2p( 2.75)3p( 0.02)3d( 0.01)
      O   14      [core]2S( 1.70)2p( 4.53)3p( 0.01)3d( 0.01)
      C   15      [core]2S( 1.13)2p( 3.57)
      N   16      [core]2S( 1.39)2p( 4.20)3p( 0.01)3d( 0.01)
      C   17      [core]2S( 0.74)2p( 2.45)3p( 0.02)3d( 0.01)
      N   18      [core]2S( 1.39)2p( 4.20)3p( 0.01)3d( 0.01)
      O   19      [core]2S( 1.60)2p( 4.89)3d( 0.01)
      C   20      [core]2S( 1.11)2p( 3.20)3p( 0.01)3d( 0.01)
      H   21            1S( 0.78)
      H   22            1S( 0.78)
      H   23            1S( 0.78)
      H   24            1S( 0.75)
      H   25            1S( 0.76)
      H   26            1S( 0.77)
      H   27            1S( 0.75)
      H   28            1S( 0.74)
      H   29            1S( 0.74)
      H   30            1S( 0.74)
      H   31            1S( 0.78)
      H   32            1S( 0.78)
      H   33            1S( 0.78)


 NBO analysis skipped by request.
 Leave Link  607 at Wed Sep 29 01:16:09 2021, MaxMem= 1342177280 cpu:      22.1
 (Enter /sw/target/amd/app/gaussian/Gaussian09RevA.02_gcc-4.9.2/g09/l9999.exe)
 1\1\GINC-HERMITE\SP\RTD-B3LYP-FC\6-31G(d)\C13H13N3O4\JSCHLEINITZ\29-Se
 p-2021\0\\#p TD(NStates=10, Root=1) b3lyp/6-31G* volume pop=NPA densit
 y=current Geom=AllCheck Guess=Read\\COc1nc(Oc2ccc(cc2)C(=O)C)nc(n1)OC_
 conf_0\\0,1\C,0,5.6004388791,4.4818707542,-0.1427900445\O,0,4.43503987
 93,3.8433971523,0.4019948684\C,0,4.6048787556,2.672512934,1.0116910852
 \N,0,3.4705257414,2.1403692088,1.4989217195\C,0,3.6586857668,0.9767825
 121,2.1002856839\O,0,2.6116300201,0.3328942341,2.6572183978\C,0,1.3087
 088624,0.8049357383,2.5226182171\C,0,0.7074924973,0.9706128491,1.27301
 20758\C,0,-0.6296642204,1.3394433615,1.2163528319\C,0,-1.3777941544,1.
 5397085644,2.3887107881\C,0,-0.7516820417,1.3583200835,3.6300996277\C,
 0,0.5901779309,0.9897697828,3.700834818\C,0,-2.8163425269,1.9339628124
 ,2.2519271512\O,0,-3.3228328206,2.0693319451,1.1481393367\C,0,-3.63794
 97872,2.1634864311,3.5107454052\N,0,4.8159850614,0.3229965838,2.255645
 4311\C,0,5.8560354253,0.9664588893,1.7269156193\N,0,5.8238803737,2.146
 0074307,1.0890761098\O,0,7.0693834521,0.4250742515,1.8131719816\C,0,7.
 184975768,-0.8406206895,2.4822104957\H,0,5.2320331812,5.4084779826,-0.
 5840437488\H,0,6.0680684569,3.8515418793,-0.903362562\H,0,6.330352639,
 4.6923833193,0.6429871242\H,0,1.2837394721,0.8189060112,0.3678309402\H
 ,0,-1.1265186567,1.4779263674,0.261940906\H,0,-1.3048661897,1.50268592
 81,4.5527058565\H,0,1.0868622784,0.8401462163,4.6538432888\H,0,-3.6790
 80088,1.2571517292,4.1268196218\H,0,-4.6505542373,2.4467087509,3.21887
 30583\H,0,-3.2023753411,2.9587849493,4.1274472402\H,0,8.2463363915,-1.
 0865203576,2.4357695968\H,0,6.5900019986,-1.6038104424,1.9742767865\H,
 0,6.8524492622,-0.7624146894,3.5203433488\\Version=AM64L-G09RevA.02\St
 ate=1-A\HF=-968.3740338\RMSD=6.834e-09\Dipole=-0.4317554,0.13105,0.578
 4519\Quadrupole=7.713726,-5.5419842,-2.1717418,-2.8834401,-8.7484208,-
 0.829913\PG=C01 [X(C13H13N3O4)]\\@


 NOT WHAT WE DID SHALL BE THE TEST
 WHEN ACT AND WILL ARE DONE,
 BUT WHAT OUR LORD INFERS WE WOULD-
 HAD WE DIVINER BEEN.
           EMILY DICKINSON  POEMS NO. CLXXV
 Job cpu time:  0 days  5 hours 19 minutes 15.8 seconds.
 File lengths (MBytes):  RWF=    353 Int=      0 D2E=      0 Chk=     48 Scr=      1
 Normal termination of Gaussian 09 at Wed Sep 29 01:16:15 2021.
