 Entering Gaussian System, Link 0=g09
 Input=C13H14N4O4_0cc9_conf_0.com
 Output=C13H14N4O4_0cc9_conf_0.log
 Initial command:
 /sw/target/amd/app/gaussian/Gaussian09RevA.02_gcc-4.9.2/g09/l1.exe /home/jschleinitz/gaussian/Gau-3298806.inp -scrdir=/home/jschleinitz/gaussian/
 Entering Link 1 = /sw/target/amd/app/gaussian/Gaussian09RevA.02_gcc-4.9.2/g09/l1.exe PID=   3298815.
  
 Copyright (c) 1988,1990,1992,1993,1995,1998,2003,2009, Gaussian, Inc.
                  All Rights Reserved.
  
 This is part of the Gaussian(R) 09 program.  It is based on
 the Gaussian(R) 03 system (copyright 2003, Gaussian, Inc.),
 the Gaussian(R) 98 system (copyright 1998, Gaussian, Inc.),
 the Gaussian(R) 94 system (copyright 1995, Gaussian, Inc.),
 the Gaussian 92(TM) system (copyright 1992, Gaussian, Inc.),
 the Gaussian 90(TM) system (copyright 1990, Gaussian, Inc.),
 the Gaussian 88(TM) system (copyright 1988, Gaussian, Inc.),
 the Gaussian 86(TM) system (copyright 1986, Carnegie Mellon
 University), and the Gaussian 82(TM) system (copyright 1983,
 Carnegie Mellon University). Gaussian is a federally registered
 trademark of Gaussian, Inc.
  
 This software contains proprietary and confidential information,
 including trade secrets, belonging to Gaussian, Inc.
  
 This software is provided under written license and may be
 used, copied, transmitted, or stored only in accord with that
 written license.
  
 The following legend is applicable only to US Government
 contracts under FAR:
  
                    RESTRICTED RIGHTS LEGEND
  
 Use, reproduction and disclosure by the US Government is
 subject to restrictions as set forth in subparagraphs (a)
 and (c) of the Commercial Computer Software - Restricted
 Rights clause in FAR 52.227-19.
  
 Gaussian, Inc.
 340 Quinnipiac St., Bldg. 40, Wallingford CT 06492
  
  
 ---------------------------------------------------------------
 Warning -- This program may not be used in any manner that
 competes with the business of Gaussian, Inc. or will provide
 assistance to any competitor of Gaussian, Inc.  The licensee
 of this program is prohibited from giving any competitor of
 Gaussian, Inc. access to this program.  By using this program,
 the user acknowledges that Gaussian, Inc. is engaged in the
 business of creating and licensing software in the field of
 computational chemistry and represents and warrants to the
 licensee that it is not a competitor of Gaussian, Inc. and that
 it will not use this program in any manner prohibited above.
 ---------------------------------------------------------------
  

 Cite this work as:
 Gaussian 09, Revision A.02,
 M. J. Frisch, G. W. Trucks, H. B. Schlegel, G. E. Scuseria, 
 M. A. Robb, J. R. Cheeseman, G. Scalmani, V. Barone, B. Mennucci, 
 G. A. Petersson, H. Nakatsuji, M. Caricato, X. Li, H. P. Hratchian, 
 A. F. Izmaylov, J. Bloino, G. Zheng, J. L. Sonnenberg, M. Hada, 
 M. Ehara, K. Toyota, R. Fukuda, J. Hasegawa, M. Ishida, T. Nakajima, 
 Y. Honda, O. Kitao, H. Nakai, T. Vreven, J. A. Montgomery, Jr., 
 J. E. Peralta, F. Ogliaro, M. Bearpark, J. J. Heyd, E. Brothers, 
 K. N. Kudin, V. N. Staroverov, R. Kobayashi, J. Normand, 
 K. Raghavachari, A. Rendell, J. C. Burant, S. S. Iyengar, J. Tomasi, 
 M. Cossi, N. Rega, J. M. Millam, M. Klene, J. E. Knox, J. B. Cross, 
 V. Bakken, C. Adamo, J. Jaramillo, R. Gomperts, R. E. Stratmann, 
 O. Yazyev, A. J. Austin, R. Cammi, C. Pomelli, J. W. Ochterski, 
 R. L. Martin, K. Morokuma, V. G. Zakrzewski, G. A. Voth, 
 P. Salvador, J. J. Dannenberg, S. Dapprich, A. D. Daniels, 
 O. Farkas, J. B. Foresman, J. V. Ortiz, J. Cioslowski, 
 and D. J. Fox, Gaussian, Inc., Wallingford CT, 2009.
 
 ******************************************
 Gaussian 09:  AM64L-G09RevA.02 11-Jun-2009
                28-Sep-2021 
 ******************************************
 %nproc=5
 Will use up to    5 processors via shared memory.
 %mem=10gb
 %chk=C13H14N4O4_0cc9_conf_0.chk
 -----------------------------------
 #p opt b3lyp/6-31G* scf=(xqc,tight)
 -----------------------------------
 1/14=-1,18=20,19=15,26=3,38=1/1,3;
 2/9=110,12=2,17=6,18=5,40=1/2;
 3/5=1,6=6,7=1,11=2,16=1,25=1,30=1,71=1,74=-5/1,2,3;
 4//1;
 5/5=2,8=3,13=1,32=2,38=5/2,8;
 6/7=2,8=2,9=2,10=2,28=1/1;
 7//1,2,3,16;
 1/14=-1,18=20,19=15/3(2);
 2/9=110/2;
 99//99;
 2/9=110/2;
 3/5=1,6=6,7=1,11=2,16=1,25=1,30=1,71=1,74=-5/1,2,3;
 4/5=5,16=3/1;
 5/5=2,8=3,13=1,32=2,38=5/2,8;
 7//1,2,3,16;
 1/14=-1,18=20,19=15/3(-5);
 2/9=110/2;
 6/7=2,8=2,9=2,10=2,19=2,28=1/1;
 99/9=1/99;
 Leave Link    1 at Tue Sep 28 15:18:14 2021, MaxMem= 1342177280 cpu:       0.1
 (Enter /sw/target/amd/app/gaussian/Gaussian09RevA.02_gcc-4.9.2/g09/l101.exe)
 -----------------------------------------
 COc1nc(Oc2cccc(c2)NC(=O)C)nc(n1)OC_conf_0
 -----------------------------------------
 Symbolic Z-matrix:
 Charge =  0 Multiplicity = 1
 C                     2.66474  -8.69927  -1.86628 
 O                     1.48056  -8.32775  -1.17069 
 C                     1.10206  -7.0212   -1.3974 
 N                     1.81924  -6.26225  -2.21597 
 C                     1.33105  -5.03992  -2.38928 
 O                     2.076    -4.24029  -3.24467 
 C                     1.45541  -3.20228  -3.90252 
 C                     2.23924  -2.07122  -4.13017 
 C                     1.71149  -0.99234  -4.83545 
 C                     0.40038  -1.04197  -5.32027 
 C                    -0.38707  -2.1753   -5.11658 
 C                     0.15794  -3.26338  -4.42089 
 N                    -1.71765  -2.30562  -5.5672 
 C                    -2.46102  -1.38285  -6.2826 
 O                    -2.09161  -0.28426  -6.68048 
 C                    -3.85068  -1.88792  -6.57591 
 N                     0.24833  -4.54687  -1.79771 
 C                    -0.37296  -5.40199  -1.00063 
 N                    -0.00451  -6.65432  -0.76474 
 O                    -1.54627  -4.91967  -0.46179 
 C                    -2.01265  -5.69021   0.63749 
 H                     2.85653  -9.7566   -1.65929 
 H                     3.52738  -8.127    -1.50773 
 H                     2.54557  -8.59256  -2.95047 
 H                     3.26032  -2.02733  -3.76063 
 H                     2.31682  -0.10623  -5.01155 
 H                     0.02594  -0.1753   -5.85674 
 H                    -0.43556  -4.16166  -4.28153 
 H                    -2.18389  -3.17136  -5.32558 
 H                    -4.33007  -2.23446  -5.65605 
 H                    -3.79866  -2.70621  -7.29927 
 H                    -4.45391  -1.07801  -6.99598 
 H                    -2.92245  -5.2127    1.01466 
 H                    -1.27799  -5.69884   1.44992 
 H                    -2.27735  -6.70913   0.33504 
 
 NAtoms=     35 NQM=     35 NQMF=      0 NMic=      0 NMicF=      0 NTot=     35.
                    Isotopes and Nuclear Properties:
 (Nuclear quadrupole moments (NQMom) in fm**2, nuclear magnetic moments (NMagM)
  in nuclear magnetons)

  Atom         1           2           3           4           5           6           7           8           9          10
 IAtWgt=          12          16          12          14          12          16          12          12          12          12
 AtmWgt=  12.0000000  15.9949146  12.0000000  14.0030740  12.0000000  15.9949146  12.0000000  12.0000000  12.0000000  12.0000000
 NucSpn=           0           0           0           2           0           0           0           0           0           0
 AtZEff=   0.0000000   0.0000000   0.0000000   0.0000000   0.0000000   0.0000000   0.0000000   0.0000000   0.0000000   0.0000000
 NQMom=    0.0000000   0.0000000   0.0000000   2.0440000   0.0000000   0.0000000   0.0000000   0.0000000   0.0000000   0.0000000
 NMagM=    0.0000000   0.0000000   0.0000000   0.4037610   0.0000000   0.0000000   0.0000000   0.0000000   0.0000000   0.0000000

  Atom        11          12          13          14          15          16          17          18          19          20
 IAtWgt=          12          12          14          12          16          12          14          12          14          16
 AtmWgt=  12.0000000  12.0000000  14.0030740  12.0000000  15.9949146  12.0000000  14.0030740  12.0000000  14.0030740  15.9949146
 NucSpn=           0           0           2           0           0           0           2           0           2           0
 AtZEff=   0.0000000   0.0000000   0.0000000   0.0000000   0.0000000   0.0000000   0.0000000   0.0000000   0.0000000   0.0000000
 NQMom=    0.0000000   0.0000000   2.0440000   0.0000000   0.0000000   0.0000000   2.0440000   0.0000000   2.0440000   0.0000000
 NMagM=    0.0000000   0.0000000   0.4037610   0.0000000   0.0000000   0.0000000   0.4037610   0.0000000   0.4037610   0.0000000

  Atom        21          22          23          24          25          26          27          28          29          30
 IAtWgt=          12           1           1           1           1           1           1           1           1           1
 AtmWgt=  12.0000000   1.0078250   1.0078250   1.0078250   1.0078250   1.0078250   1.0078250   1.0078250   1.0078250   1.0078250
 NucSpn=           0           1           1           1           1           1           1           1           1           1
 AtZEff=   0.0000000   0.0000000   0.0000000   0.0000000   0.0000000   0.0000000   0.0000000   0.0000000   0.0000000   0.0000000
 NQMom=    0.0000000   0.0000000   0.0000000   0.0000000   0.0000000   0.0000000   0.0000000   0.0000000   0.0000000   0.0000000
 NMagM=    0.0000000   2.7928460   2.7928460   2.7928460   2.7928460   2.7928460   2.7928460   2.7928460   2.7928460   2.7928460

  Atom        31          32          33          34          35
 IAtWgt=           1           1           1           1           1
 AtmWgt=   1.0078250   1.0078250   1.0078250   1.0078250   1.0078250
 NucSpn=           1           1           1           1           1
 AtZEff=   0.0000000   0.0000000   0.0000000   0.0000000   0.0000000
 NQMom=    0.0000000   0.0000000   0.0000000   0.0000000   0.0000000
 NMagM=    2.7928460   2.7928460   2.7928460   2.7928460   2.7928460
 Leave Link  101 at Tue Sep 28 15:18:15 2021, MaxMem= 1342177280 cpu:       0.2
 (Enter /sw/target/amd/app/gaussian/Gaussian09RevA.02_gcc-4.9.2/g09/l103.exe)

 GradGradGradGradGradGradGradGradGradGradGradGradGradGradGradGradGradGrad
 Berny optimization.
 Initialization pass.
                           ----------------------------
                           !    Initial Parameters    !
                           ! (Angstroms and Degrees)  !
 --------------------------                            --------------------------
 ! Name  Definition              Value          Derivative Info.                !
 --------------------------------------------------------------------------------
 ! R1    R(1,2)                  1.4227         estimate D2E/DX2                !
 ! R2    R(1,22)                 1.0943         estimate D2E/DX2                !
 ! R3    R(1,23)                 1.0955         estimate D2E/DX2                !
 ! R4    R(1,24)                 1.0959         estimate D2E/DX2                !
 ! R5    R(2,3)                  1.379          estimate D2E/DX2                !
 ! R6    R(3,4)                  1.3268         estimate D2E/DX2                !
 ! R7    R(3,19)                 1.3264         estimate D2E/DX2                !
 ! R8    R(4,5)                  1.3276         estimate D2E/DX2                !
 ! R9    R(5,6)                  1.3878         estimate D2E/DX2                !
 ! R10   R(5,17)                 1.3287         estimate D2E/DX2                !
 ! R11   R(6,7)                  1.3767         estimate D2E/DX2                !
 ! R12   R(7,8)                  1.3948         estimate D2E/DX2                !
 ! R13   R(7,12)                 1.3985         estimate D2E/DX2                !
 ! R14   R(8,9)                  1.3928         estimate D2E/DX2                !
 ! R15   R(8,25)                 1.0868         estimate D2E/DX2                !
 ! R16   R(9,10)                 1.3988         estimate D2E/DX2                !
 ! R17   R(9,26)                 1.0875         estimate D2E/DX2                !
 ! R18   R(10,11)                1.395          estimate D2E/DX2                !
 ! R19   R(10,27)                1.0859         estimate D2E/DX2                !
 ! R20   R(11,12)                1.4018         estimate D2E/DX2                !
 ! R21   R(11,13)                1.4109         estimate D2E/DX2                !
 ! R22   R(12,28)                1.0856         estimate D2E/DX2                !
 ! R23   R(13,14)                1.3842         estimate D2E/DX2                !
 ! R24   R(13,29)                1.0126         estimate D2E/DX2                !
 ! R25   R(14,15)                1.2254         estimate D2E/DX2                !
 ! R26   R(14,16)                1.5074         estimate D2E/DX2                !
 ! R27   R(16,30)                1.0936         estimate D2E/DX2                !
 ! R28   R(16,31)                1.0934         estimate D2E/DX2                !
 ! R29   R(16,32)                1.0938         estimate D2E/DX2                !
 ! R30   R(17,18)                1.3239         estimate D2E/DX2                !
 ! R31   R(18,19)                1.3265         estimate D2E/DX2                !
 ! R32   R(18,20)                1.3783         estimate D2E/DX2                !
 ! R33   R(20,21)                1.4211         estimate D2E/DX2                !
 ! R34   R(21,33)                1.0945         estimate D2E/DX2                !
 ! R35   R(21,34)                1.0954         estimate D2E/DX2                !
 ! R36   R(21,35)                1.0953         estimate D2E/DX2                !
 ! A1    A(2,1,22)             107.8004         estimate D2E/DX2                !
 ! A2    A(2,1,23)             111.0369         estimate D2E/DX2                !
 ! A3    A(2,1,24)             111.5763         estimate D2E/DX2                !
 ! A4    A(22,1,23)            107.7462         estimate D2E/DX2                !
 ! A5    A(22,1,24)            107.4729         estimate D2E/DX2                !
 ! A6    A(23,1,24)            111.0101         estimate D2E/DX2                !
 ! A7    A(1,2,3)              113.2959         estimate D2E/DX2                !
 ! A8    A(2,3,4)              119.6705         estimate D2E/DX2                !
 ! A9    A(2,3,19)             114.3699         estimate D2E/DX2                !
 ! A10   A(4,3,19)             125.944          estimate D2E/DX2                !
 ! A11   A(3,4,5)              114.1069         estimate D2E/DX2                !
 ! A12   A(4,5,6)              114.43           estimate D2E/DX2                !
 ! A13   A(4,5,17)             125.6764         estimate D2E/DX2                !
 ! A14   A(6,5,17)             119.8693         estimate D2E/DX2                !
 ! A15   A(5,6,7)              119.1425         estimate D2E/DX2                !
 ! A16   A(6,7,8)              115.8536         estimate D2E/DX2                !
 ! A17   A(6,7,12)             124.2199         estimate D2E/DX2                !
 ! A18   A(8,7,12)             119.7547         estimate D2E/DX2                !
 ! A19   A(7,8,9)              119.8573         estimate D2E/DX2                !
 ! A20   A(7,8,25)             120.3473         estimate D2E/DX2                !
 ! A21   A(9,8,25)             119.7954         estimate D2E/DX2                !
 ! A22   A(8,9,10)             120.2117         estimate D2E/DX2                !
 ! A23   A(8,9,26)             120.1493         estimate D2E/DX2                !
 ! A24   A(10,9,26)            119.639          estimate D2E/DX2                !
 ! A25   A(9,10,11)            120.4861         estimate D2E/DX2                !
 ! A26   A(9,10,27)            117.7841         estimate D2E/DX2                !
 ! A27   A(11,10,27)           121.7296         estimate D2E/DX2                !
 ! A28   A(10,11,12)           118.922          estimate D2E/DX2                !
 ! A29   A(10,11,13)           124.1097         estimate D2E/DX2                !
 ! A30   A(12,11,13)           116.9682         estimate D2E/DX2                !
 ! A31   A(7,12,11)            120.7138         estimate D2E/DX2                !
 ! A32   A(7,12,28)            119.7198         estimate D2E/DX2                !
 ! A33   A(11,12,28)           119.5662         estimate D2E/DX2                !
 ! A34   A(11,13,14)           127.5892         estimate D2E/DX2                !
 ! A35   A(11,13,29)           115.9145         estimate D2E/DX2                !
 ! A36   A(14,13,29)           116.4901         estimate D2E/DX2                !
 ! A37   A(13,14,15)           127.1268         estimate D2E/DX2                !
 ! A38   A(13,14,16)           111.8574         estimate D2E/DX2                !
 ! A39   A(15,14,16)           121.0045         estimate D2E/DX2                !
 ! A40   A(14,16,30)           110.2807         estimate D2E/DX2                !
 ! A41   A(14,16,31)           109.6099         estimate D2E/DX2                !
 ! A42   A(14,16,32)           109.577          estimate D2E/DX2                !
 ! A43   A(30,16,31)           109.8863         estimate D2E/DX2                !
 ! A44   A(30,16,32)           108.4157         estimate D2E/DX2                !
 ! A45   A(31,16,32)           109.0455         estimate D2E/DX2                !
 ! A46   A(5,17,18)            114.2556         estimate D2E/DX2                !
 ! A47   A(17,18,19)           125.9096         estimate D2E/DX2                !
 ! A48   A(17,18,20)           114.1332         estimate D2E/DX2                !
 ! A49   A(19,18,20)           119.8216         estimate D2E/DX2                !
 ! A50   A(3,19,18)            114.0811         estimate D2E/DX2                !
 ! A51   A(18,20,21)           113.0814         estimate D2E/DX2                !
 ! A52   A(20,21,33)           107.6255         estimate D2E/DX2                !
 ! A53   A(20,21,34)           110.9701         estimate D2E/DX2                !
 ! A54   A(20,21,35)           111.7215         estimate D2E/DX2                !
 ! A55   A(33,21,34)           107.7792         estimate D2E/DX2                !
 ! A56   A(33,21,35)           107.4641         estimate D2E/DX2                !
 ! A57   A(34,21,35)           111.0725         estimate D2E/DX2                !
 ! D1    D(22,1,2,3)          -177.5392         estimate D2E/DX2                !
 ! D2    D(23,1,2,3)            64.6553         estimate D2E/DX2                !
 ! D3    D(24,1,2,3)           -59.7589         estimate D2E/DX2                !
 ! D4    D(1,2,3,4)              0.9828         estimate D2E/DX2                !
 ! D5    D(1,2,3,19)           179.634          estimate D2E/DX2                !
 ! D6    D(2,3,4,5)            177.8328         estimate D2E/DX2                !
 ! D7    D(19,3,4,5)            -0.6496         estimate D2E/DX2                !
 ! D8    D(2,3,19,18)         -179.1639         estimate D2E/DX2                !
 ! D9    D(4,3,19,18)           -0.6115         estimate D2E/DX2                !
 ! D10   D(3,4,5,6)           -179.9863         estimate D2E/DX2                !
 ! D11   D(3,4,5,17)             1.8213         estimate D2E/DX2                !
 ! D12   D(4,5,6,7)            155.0388         estimate D2E/DX2                !
 ! D13   D(17,5,6,7)           -26.6544         estimate D2E/DX2                !
 ! D14   D(4,5,17,18)           -1.5476         estimate D2E/DX2                !
 ! D15   D(6,5,17,18)         -179.6498         estimate D2E/DX2                !
 ! D16   D(5,6,7,8)            146.7217         estimate D2E/DX2                !
 ! D17   D(5,6,7,12)           -38.0698         estimate D2E/DX2                !
 ! D18   D(6,7,8,9)            177.4691         estimate D2E/DX2                !
 ! D19   D(6,7,8,25)            -2.4898         estimate D2E/DX2                !
 ! D20   D(12,7,8,9)             2.0323         estimate D2E/DX2                !
 ! D21   D(12,7,8,25)         -177.9266         estimate D2E/DX2                !
 ! D22   D(6,7,12,11)         -177.9253         estimate D2E/DX2                !
 ! D23   D(6,7,12,28)            2.2306         estimate D2E/DX2                !
 ! D24   D(8,7,12,11)           -2.8924         estimate D2E/DX2                !
 ! D25   D(8,7,12,28)          177.2634         estimate D2E/DX2                !
 ! D26   D(7,8,9,10)            -0.2503         estimate D2E/DX2                !
 ! D27   D(7,8,9,26)           179.708          estimate D2E/DX2                !
 ! D28   D(25,8,9,10)          179.7089         estimate D2E/DX2                !
 ! D29   D(25,8,9,26)           -0.3329         estimate D2E/DX2                !
 ! D30   D(8,9,10,11)           -0.7109         estimate D2E/DX2                !
 ! D31   D(8,9,10,27)          179.4429         estimate D2E/DX2                !
 ! D32   D(26,9,10,11)         179.3307         estimate D2E/DX2                !
 ! D33   D(26,9,10,27)          -0.5155         estimate D2E/DX2                !
 ! D34   D(9,10,11,12)          -0.1223         estimate D2E/DX2                !
 ! D35   D(9,10,11,13)         179.7662         estimate D2E/DX2                !
 ! D36   D(27,10,11,12)        179.7177         estimate D2E/DX2                !
 ! D37   D(27,10,11,13)         -0.3939         estimate D2E/DX2                !
 ! D38   D(10,11,12,7)           1.9259         estimate D2E/DX2                !
 ! D39   D(10,11,12,28)       -178.2297         estimate D2E/DX2                !
 ! D40   D(13,11,12,7)        -177.9704         estimate D2E/DX2                !
 ! D41   D(13,11,12,28)          1.8739         estimate D2E/DX2                !
 ! D42   D(10,11,13,14)          0.9134         estimate D2E/DX2                !
 ! D43   D(10,11,13,29)       -178.1389         estimate D2E/DX2                !
 ! D44   D(12,11,13,14)       -179.1961         estimate D2E/DX2                !
 ! D45   D(12,11,13,29)          1.7515         estimate D2E/DX2                !
 ! D46   D(11,13,14,15)          1.4168         estimate D2E/DX2                !
 ! D47   D(11,13,14,16)       -179.8075         estimate D2E/DX2                !
 ! D48   D(29,13,14,15)       -179.5356         estimate D2E/DX2                !
 ! D49   D(29,13,14,16)         -0.7598         estimate D2E/DX2                !
 ! D50   D(13,14,16,30)         51.6975         estimate D2E/DX2                !
 ! D51   D(13,14,16,31)        -69.4082         estimate D2E/DX2                !
 ! D52   D(13,14,16,32)        170.9636         estimate D2E/DX2                !
 ! D53   D(15,14,16,30)       -129.4413         estimate D2E/DX2                !
 ! D54   D(15,14,16,31)        109.453          estimate D2E/DX2                !
 ! D55   D(15,14,16,32)        -10.1752         estimate D2E/DX2                !
 ! D56   D(5,17,18,19)           0.0442         estimate D2E/DX2                !
 ! D57   D(5,17,18,20)        -175.6866         estimate D2E/DX2                !
 ! D58   D(17,18,19,3)           0.9411         estimate D2E/DX2                !
 ! D59   D(20,18,19,3)         176.45           estimate D2E/DX2                !
 ! D60   D(17,18,20,21)       -164.6718         estimate D2E/DX2                !
 ! D61   D(19,18,20,21)         19.3133         estimate D2E/DX2                !
 ! D62   D(18,20,21,33)        178.1221         estimate D2E/DX2                !
 ! D63   D(18,20,21,34)         60.4196         estimate D2E/DX2                !
 ! D64   D(18,20,21,35)        -64.1334         estimate D2E/DX2                !
 --------------------------------------------------------------------------------
 Trust Radius=3.00D-01 FncErr=1.00D-07 GrdErr=1.00D-06
 Number of steps in this run= 167 maximum allowed number of steps= 210.
 GradGradGradGradGradGradGradGradGradGradGradGradGradGradGradGradGradGrad

 Leave Link  103 at Tue Sep 28 15:18:15 2021, MaxMem= 1342177280 cpu:       0.0
 (Enter /sw/target/amd/app/gaussian/Gaussian09RevA.02_gcc-4.9.2/g09/l202.exe)
                          Input orientation:                          
 ---------------------------------------------------------------------
 Center     Atomic      Atomic             Coordinates (Angstroms)
 Number     Number       Type             X           Y           Z
 ---------------------------------------------------------------------
      1          6           0        2.664740   -8.699272   -1.866278
      2          8           0        1.480558   -8.327755   -1.170695
      3          6           0        1.102059   -7.021201   -1.397398
      4          7           0        1.819238   -6.262255   -2.215966
      5          6           0        1.331055   -5.039918   -2.389276
      6          8           0        2.075995   -4.240290   -3.244670
      7          6           0        1.455412   -3.202279   -3.902524
      8          6           0        2.239239   -2.071222   -4.130169
      9          6           0        1.711488   -0.992345   -4.835452
     10          6           0        0.400383   -1.041973   -5.320267
     11          6           0       -0.387068   -2.175300   -5.116576
     12          6           0        0.157939   -3.263379   -4.420891
     13          7           0       -1.717653   -2.305625   -5.567196
     14          6           0       -2.461019   -1.382851   -6.282597
     15          8           0       -2.091607   -0.284258   -6.680482
     16          6           0       -3.850677   -1.887916   -6.575906
     17          7           0        0.248331   -4.546866   -1.797712
     18          6           0       -0.372963   -5.401993   -1.000627
     19          7           0       -0.004508   -6.654321   -0.764744
     20          8           0       -1.546268   -4.919671   -0.461792
     21          6           0       -2.012652   -5.690208    0.637490
     22          1           0        2.856534   -9.756596   -1.659294
     23          1           0        3.527377   -8.126996   -1.507729
     24          1           0        2.545572   -8.592557   -2.950467
     25          1           0        3.260323   -2.027331   -3.760629
     26          1           0        2.316816   -0.106227   -5.011551
     27          1           0        0.025943   -0.175299   -5.856738
     28          1           0       -0.435560   -4.161658   -4.281528
     29          1           0       -2.183892   -3.171364   -5.325585
     30          1           0       -4.330073   -2.234457   -5.656053
     31          1           0       -3.798656   -2.706209   -7.299273
     32          1           0       -4.453913   -1.078010   -6.995976
     33          1           0       -2.922453   -5.212700    1.014661
     34          1           0       -1.277993   -5.698840    1.449919
     35          1           0       -2.277353   -6.709135    0.335045
 ---------------------------------------------------------------------
                    Distance matrix (angstroms):
                    1          2          3          4          5
     1  C    0.000000
     2  O    1.422726   0.000000
     3  C    2.340458   1.379035   0.000000
     4  N    2.603116   2.339570   1.326800   0.000000
     5  C    3.929773   3.509582   2.227497   1.327579   0.000000
     6  O    4.704159   4.622044   3.477706   2.283090   1.387819
     7  C    5.985458   5.808100   4.580904   3.512876   2.383758
     8  C    7.016930   6.962636   5.767453   4.626590   3.559307
     9  C    8.313929   8.203171   6.966974   5.886023   4.744613
    10  C    8.700091   8.453895   7.185570   6.237081   5.043850
    11  C    7.901910   7.543918   6.287491   5.475812   4.312325
    12  C    6.508381   6.161249   4.914682   4.076133   2.942745
    13  N    8.589581   8.113189   6.897438   6.276564   5.183643
    14  C    9.965306   9.481523   8.267509   7.659418   6.550719
    15  O   10.798698  10.383447   9.137663   8.423958   7.262601
    16  C   10.536880   9.955396   8.814600   8.384024   7.369758
    17  N    4.804812   4.025749   2.647912   2.363312   1.328661
    18  C    4.566075   3.467642   2.225972   2.650064   2.227807
    19  N    3.538373   2.273895   1.326402   2.363432   2.651251
    20  O    5.830142   4.612944   3.507909   4.025703   3.465349
    21  C    6.099288   4.735895   3.951422   4.811738   4.556816
    22  H    1.094331   2.042945   3.260239   3.687315   5.010690
    23  H    1.095536   2.084074   2.667793   2.626137   3.889859
    24  H    1.095927   2.090924   2.639112   2.548993   3.796213
    25  H    6.961185   7.040644   5.931417   4.732578   3.831236
    26  H    9.157196   9.112905   7.896494   6.779348   5.673567
    27  H    9.774719   9.515116   8.240759   7.315884   6.114828
    28  H    6.002936   5.541224   4.342749   3.709875   2.733658
    29  H    8.126119   7.568334   6.406979   5.937035   4.946540
    30  H   10.251031   9.539924   8.399829   8.116118   7.112722
    31  H   10.354213   9.850449   8.801607   8.369361   7.474503
    32  H   11.622077  11.032255   9.875952   9.438078   8.389533
    33  H    7.188374   5.819438   5.028459   5.832851   5.450594
    34  H    5.961955   4.624761   3.939607   4.832079   4.688361
    35  H    5.764612   4.359940   3.810403   4.846588   4.819628
                    6          7          8          9         10
     6  O    0.000000
     7  C    1.376721   0.000000
     8  C    2.348534   1.394811   0.000000
     9  C    3.634914   2.412413   1.392810   0.000000
    10  C    4.164734   2.791057   2.420140   1.398751   0.000000
    11  C    3.719528   2.433791   2.807369   2.425356   1.394991
    12  C    2.452914   1.398525   2.416106   2.782620   2.408797
    13  N    4.850652   3.693706   4.216276   3.744217   2.478682
    14  C    6.162666   4.930872   5.215288   4.433569   3.038075
    15  O    6.695065   5.367797   5.334188   4.285913   2.938424
    16  C    7.194181   6.085154   6.565235   5.896517   4.512623
    17  N    2.351177   2.774020   3.941178   4.899317   4.971497
    18  C    3.518904   4.074641   5.264187   6.204500   6.186043
    19  N    4.038079   4.888110   6.112715   7.181454   7.239833
    20  O    4.618091   4.878335   5.991720   6.720548   6.513890
    21  C    5.821552   6.231290   7.342085   8.117403   7.932446
    22  H    5.792435   7.067836   8.096373   9.392083   9.766272
    23  H    4.497772   5.854991   6.723756   8.079260   8.631980
    24  H    4.387401   5.581215   6.634256   7.874776   8.199336
    25  H    2.562427   2.158319   1.086784   2.150658   3.403330
    26  H    4.502259   3.399632   2.155008   1.087492   2.154911
    27  H    5.248786   3.876202   3.387365   2.133459   1.085878
    28  H    2.718302   2.154026   3.398144   3.867970   3.392670
    29  H    4.859984   3.907760   4.712050   4.490249   3.348553
    30  H    7.132730   6.122367   6.746171   6.222273   4.889988
    31  H    7.301009   6.276083   6.848547   6.274506   4.931336
    32  H    8.167742   7.000149   7.348306   6.533557   5.135513
    33  H    6.638672   6.883763   7.936071   8.573717   8.280550
    34  H    5.951116   6.507916   7.527810   8.402023   8.386822
    35  H    6.153145   6.647447   7.864348   8.679088   8.442129
                   11         12         13         14         15
    11  C    0.000000
    12  C    1.401759   0.000000
    13  N    1.410850   2.397740   0.000000
    14  C    2.507759   3.723075   1.384162   0.000000
    15  O    2.987858   4.363643   2.337771   1.225432   0.000000
    16  C    3.769459   4.754472   2.396199   1.507405   2.382643
    17  N    4.128306   2.921741   4.805961   6.120928   6.891050
    18  C    5.229989   4.068628   5.678842   6.957924   7.836180
    19  N    6.256710   4.989217   6.701461   8.016830   8.940339
    20  O    5.526511   4.617584   5.738271   6.872237   7.775381
    21  C    6.935875   6.015661   7.073935   8.163453   9.098530
    22  H    8.941465   7.554515   9.576631  10.943990  11.807694
    23  H    7.985570   6.595027   8.824850  10.205084  10.947095
    24  H    7.380623   6.021883   8.034169   9.388765  10.219798
    25  H    3.894091   3.404195   5.302959   6.285653   6.340899
    26  H    3.406330   3.870044   4.628502   5.106176   4.717120
    27  H    2.172193   3.408126   2.768076   2.797234   2.274740
    28  H    2.155289   1.085618   2.596452   3.978509   4.850949
    29  H    2.065043   2.512193   1.012551   2.047303   3.190555
    30  H    3.980179   4.767239   2.614900   2.147360   3.140615
    31  H    4.084723   4.924446   2.736993   2.138733   3.027006
    32  H    4.612529   5.716300   3.321983   2.138566   2.511985
    33  H    7.296988   6.544760   7.295441   8.254129   9.175787
    34  H    7.505194   6.516117   7.806864   8.934155   9.802199
    35  H    7.338187   6.357892   7.385161   8.496836   9.514787
                   16         17         18         19         20
    16  C    0.000000
    17  N    6.833960   0.000000
    18  C    7.451643   1.323856   0.000000
    19  N    8.442822   2.360576   1.326546   0.000000
    20  O    7.203071   2.268094   1.378268   2.340473   0.000000
    21  C    8.358758   3.514183   2.335610   2.632189   1.421148
    22  H   11.448838   5.827793   5.461324   4.313918   6.649400
    23  H   10.910922   4.863493   4.784917   3.898077   6.092847
    24  H    9.950278   4.793097   4.743355   3.877764   6.035458
    25  H    7.649284   4.390125   5.675097   6.406519   6.507786
    26  H    6.607541   5.858897   7.167117   8.142571   7.667658
    27  H    4.298656   5.969568   7.145577   8.240574   7.354342
    28  H    4.700755   2.604887   3.508086   4.332084   4.049523
    29  H    2.447185   4.500400   5.192344   6.138565   5.207650
    30  H    1.093636   6.418396   6.882224   7.884835   6.476132
    31  H    1.093421   7.073421   7.659998   8.525445   7.531521
    32  H    1.093755   7.820870   8.443649   9.472102   8.118394
    33  H    8.338614   4.290297   3.255321   3.709307   2.039525
    34  H    9.249633   3.768796   2.629139   2.727534   2.081758
    35  H    8.572091   3.950081   2.668209   2.525542   2.090840
                   21         22         23         24         25
    21  C    0.000000
    22  H    6.746829   0.000000
    23  H    6.421200   1.768785   0.000000
    24  H    6.486484   1.766016   1.806151   0.000000
    25  H    7.782312   8.019988   6.507902   6.653528   0.000000
    26  H    9.046370  10.230277   8.836004   8.736029   2.479043
    27  H    8.760427  10.836606   9.716141   9.254468   4.276085
    28  H    5.387061   7.001238   6.254817   5.503793   4.299563
    29  H    6.475505   9.067131   8.470708   7.576170   5.779046
    30  H    7.544623  11.144684  10.661619   9.747827   7.826215
    31  H    8.665233  11.216455  10.798040   9.685578   7.925406
    32  H    9.246725  12.539564  11.979568  11.037543   8.418914
    33  H    1.094536   7.822641   7.513712   7.552812   8.436628
    34  H    1.095372   6.574717   6.142898   6.508199   7.824711
    35  H    1.095331   6.294537   6.253082   6.132085   8.328246
                   26         27         28         29         30
    26  H    0.000000
    27  H    2.442788   0.000000
    28  H    4.955303   4.311070   0.000000
    29  H    5.454361   3.760571   2.264376   0.000000
    30  H    7.008986   4.822373   4.557483   2.364973   0.000000
    31  H    7.027985   4.807699   4.747160   2.592156   1.790286
    32  H    7.122154   4.709762   5.746675   3.510745   1.774289
    33  H    9.478462   9.015795   5.944657   6.701585   7.439741
    34  H    9.270954   9.251864   5.993506   7.288089   8.474195
    35  H    9.658720   9.291628   5.585211   6.675873   7.754331
                   31         32         33         34         35
    31  H    0.000000
    32  H    1.781118   0.000000
    33  H    8.727641   9.143923   0.000000
    34  H    9.584255  10.137637   1.769189   0.000000
    35  H    8.753318   9.496886   1.765602   1.806201   0.000000
 Stoichiometry    C13H14N4O4
 Framework group  C1[X(C13H14N4O4)]
 Deg. of freedom    99
 Full point group                 C1      NOp   1
 Largest Abelian subgroup         C1      NOp   1
 Largest concise Abelian subgroup C1      NOp   1
                         Standard orientation:                         
 ---------------------------------------------------------------------
 Center     Atomic      Atomic             Coordinates (Angstroms)
 Number     Number       Type             X           Y           Z
 ---------------------------------------------------------------------
      1          6           0        4.945081   -1.515580    1.701281
      2          8           0        4.756083   -0.221885    1.140226
      3          6           0        3.555139   -0.085516    0.476241
      4          7           0        2.709079   -1.106635    0.432710
      5          6           0        1.569834   -0.840511   -0.194796
      6          8           0        0.679632   -1.904070   -0.244004
      7          6           0       -0.666098   -1.646336   -0.377971
      8          6           0       -1.395351   -2.584637   -1.108230
      9          6           0       -2.772629   -2.433992   -1.250818
     10          6           0       -3.426822   -1.348060   -0.659814
     11          6           0       -2.711873   -0.413698    0.089731
     12          6           0       -1.328758   -0.582596    0.242682
     13          7           0       -3.292072    0.710572    0.714138
     14          6           0       -4.626383    1.078666    0.719300
     15          8           0       -5.560799    0.480107    0.199418
     16          6           0       -4.854570    2.350953    1.494858
     17          7           0        1.258185    0.310866   -0.780071
     18          6           0        2.189135    1.245785   -0.671200
     19          7           0        3.353461    1.115647   -0.048999
     20          8           0        1.825640    2.466903   -1.196904
     21          6           0        2.928868    3.342397   -1.386804
     22          1           0        5.897566   -1.510666    2.240084
     23          1           0        5.008612   -2.278602    0.917724
     24          1           0        4.159003   -1.759856    2.424791
     25          1           0       -0.894658   -3.433503   -1.566305
     26          1           0       -3.345160   -3.160141   -1.823143
     27          1           0       -4.499825   -1.264095   -0.803845
     28          1           0       -0.766710    0.122124    0.847692
     29          1           0       -2.652362    1.324280    1.203415
     30          1           0       -4.174214    3.133690    1.147756
     31          1           0       -4.694728    2.164870    2.560406
     32          1           0       -5.882008    2.693713    1.342591
     33          1           0        2.546675    4.264640   -1.835587
     34          1           0        3.657696    2.909806   -2.080717
     35          1           0        3.401655    3.610905   -0.435948
 ---------------------------------------------------------------------
 Rotational constants (GHZ):      0.4936883      0.1502251      0.1294847
 Leave Link  202 at Tue Sep 28 15:18:15 2021, MaxMem= 1342177280 cpu:       0.1
 (Enter /sw/target/amd/app/gaussian/Gaussian09RevA.02_gcc-4.9.2/g09/l301.exe)
 Standard basis: 6-31G(d) (6D, 7F)
 Ernie: Thresh=  0.10000D-02 Tol=  0.10000D-05 Strict=F.
 There are   343 symmetry adapted basis functions of A   symmetry.
 Integral buffers will be    131072 words long.
 Raffenetti 2 integral format.
 Two-electron integral symmetry is turned on.
   343 basis functions,   644 primitive gaussians,   343 cartesian basis functions
    76 alpha electrons       76 beta electrons
       nuclear repulsion energy      1610.1645385402 Hartrees.
 IExCor=  402 DFT=T Ex+Corr=B3LYP ExCW=0 ScaHFX=  0.200000
 ScaDFX=  0.800000  0.720000  1.000000  0.810000 ScalE2=  1.000000  1.000000
 IRadAn=      0 IRanWt=     -1 IRanGd=            0 ICorTp=0
 NAtoms=   35 NActive=   35 NUniq=   35 SFac= 7.50D-01 NAtFMM=   80 NAOKFM=F Big=F
 Leave Link  301 at Tue Sep 28 15:18:15 2021, MaxMem= 1342177280 cpu:       0.1
 (Enter /sw/target/amd/app/gaussian/Gaussian09RevA.02_gcc-4.9.2/g09/l302.exe)
 NPDir=0 NMtPBC=     1 NCelOv=     1 NCel=       1 NClECP=     1 NCelD=      1
         NCelK=      1 NCelE2=     1 NClLst=     1 CellRange=     0.0.
 One-electron integrals computed using PRISM.
 NBasis=   343 RedAO= T  NBF=   343
 NBsUse=   343 1.00D-06 NBFU=   343
 Precomputing XC quadrature grid using
 IXCGrd= 2 IRadAn=           0 IRanWt=          -1 IRanGd=           0 AccXCQ= 1.00D-10.
 NRdTot=    2237 NPtTot=      285216 NUsed=      301343 NTot=      301375
 NSgBfM=   340   340   340   340   340 NAtAll=    35    35.
 Leave Link  302 at Tue Sep 28 15:18:17 2021, MaxMem= 1342177280 cpu:       3.4
 (Enter /sw/target/amd/app/gaussian/Gaussian09RevA.02_gcc-4.9.2/g09/l303.exe)
 DipDrv:  MaxL=1.
 Leave Link  303 at Tue Sep 28 15:18:18 2021, MaxMem= 1342177280 cpu:       0.3
 (Enter /sw/target/amd/app/gaussian/Gaussian09RevA.02_gcc-4.9.2/g09/l401.exe)
 Harris functional with IExCor=  402 diagonalized for initial guess.
 ExpMin= 1.61D-01 ExpMax= 5.48D+03 ExpMxC= 8.25D+02 IAcc=1 IRadAn=         1 AccDes= 0.00D+00
 HarFok:  IExCor=  402 AccDes= 0.00D+00 IRadAn=         1 IDoV= 1
 ScaDFX=  1.000000  1.000000  1.000000  1.000000
 FoFCou: FMM=F IPFlag=           0 FMFlag=      100000 FMFlg1=           0
         NFxFlg=           0 DoJE=T BraDBF=F KetDBF=T FulRan=T
         Omega=  0.000000  0.000000  1.000000  0.000000  0.000000 ICntrl=     500 IOpCl=  0
         NMat0=    1 NMatS0=    1 NMatT0=    0 NMatD0=    1 NMtDS0=    0 NMtDT0=    0
         I1Cent=           4 NGrid=           0.
 Petite list used in FoFCou.
 Harris En= -1023.83101246177    
 Initial guess orbital symmetries:
       Occupied  (A) (A) (A) (A) (A) (A) (A) (A) (A) (A) (A) (A)
                 (A) (A) (A) (A) (A) (A) (A) (A) (A) (A) (A) (A)
                 (A) (A) (A) (A) (A) (A) (A) (A) (A) (A) (A) (A)
                 (A) (A) (A) (A) (A) (A) (A) (A) (A) (A) (A) (A)
                 (A) (A) (A) (A) (A) (A) (A) (A) (A) (A) (A) (A)
                 (A) (A) (A) (A) (A) (A) (A) (A) (A) (A) (A) (A)
                 (A) (A) (A) (A)
       Virtual   (A) (A) (A) (A) (A) (A) (A) (A) (A) (A) (A) (A)
                 (A) (A) (A) (A) (A) (A) (A) (A) (A) (A) (A) (A)
                 (A) (A) (A) (A) (A) (A) (A) (A) (A) (A) (A) (A)
                 (A) (A) (A) (A) (A) (A) (A) (A) (A) (A) (A) (A)
                 (A) (A) (A) (A) (A) (A) (A) (A) (A) (A) (A) (A)
                 (A) (A) (A) (A) (A) (A) (A) (A) (A) (A) (A) (A)
                 (A) (A) (A) (A) (A) (A) (A) (A) (A) (A) (A) (A)
                 (A) (A) (A) (A) (A) (A) (A) (A) (A) (A) (A) (A)
                 (A) (A) (A) (A) (A) (A) (A) (A) (A) (A) (A) (A)
                 (A) (A) (A) (A) (A) (A) (A) (A) (A) (A) (A) (A)
                 (A) (A) (A) (A) (A) (A) (A) (A) (A) (A) (A) (A)
                 (A) (A) (A) (A) (A) (A) (A) (A) (A) (A) (A) (A)
                 (A) (A) (A) (A) (A) (A) (A) (A) (A) (A) (A) (A)
                 (A) (A) (A) (A) (A) (A) (A) (A) (A) (A) (A) (A)
                 (A) (A) (A) (A) (A) (A) (A) (A) (A) (A) (A) (A)
                 (A) (A) (A) (A) (A) (A) (A) (A) (A) (A) (A) (A)
                 (A) (A) (A) (A) (A) (A) (A) (A) (A) (A) (A) (A)
                 (A) (A) (A) (A) (A) (A) (A) (A) (A) (A) (A) (A)
                 (A) (A) (A) (A) (A) (A) (A) (A) (A) (A) (A) (A)
                 (A) (A) (A) (A) (A) (A) (A) (A) (A) (A) (A) (A)
                 (A) (A) (A) (A) (A) (A) (A) (A) (A) (A) (A) (A)
                 (A) (A) (A) (A) (A) (A) (A) (A) (A) (A) (A) (A)
                 (A) (A) (A)
 The electronic state of the initial guess is 1-A.
 Leave Link  401 at Tue Sep 28 15:18:30 2021, MaxMem= 1342177280 cpu:      14.5
 (Enter /sw/target/amd/app/gaussian/Gaussian09RevA.02_gcc-4.9.2/g09/l502.exe)
 Closed shell SCF:
 Requested convergence on RMS density matrix=1.00D-08 within  64 cycles.
 Requested convergence on MAX density matrix=1.00D-06.
 Requested convergence on             energy=1.00D-06.
 No special actions if energy rises.
 Using DIIS extrapolation, IDIIS=  1040.
 Integral symmetry usage will be decided dynamically.
       301015 words used for storage of precomputed grid.
 IEnd=      664141 IEndB=      664141 NGot=  1342177280 MDV=  1341635356
 LenX=  1341635356 LenY=  1341517266
 Fock matrices will be formed incrementally for  20 cycles.
 Integral accuracy reduced to 1.0D-05 until final iterations.

 Cycle   1  Pass 0  IDiag  1:
 FoFCou: FMM=F IPFlag=           0 FMFlag=      100000 FMFlg1=           0
         NFxFlg=           0 DoJE=F BraDBF=F KetDBF=F FulRan=T
         Omega=  0.000000  0.000000  1.000000  0.000000  0.000000 ICntrl=       0 IOpCl=  0
         NMat0=    1 NMatS0=    1 NMatT0=    0 NMatD0=    1 NMtDS0=    0 NMtDT0=    0
         I1Cent=           0 NGrid=           0.
 Symmetry not used in FoFCou.
 E= -1023.21708308285    
 DIIS: error= 2.94D-02 at cycle   1 NSaved=   1.
 NSaved= 1 IEnMin= 1 EnMin= -1023.21708308285     IErMin= 1 ErrMin= 2.94D-02
 ErrMax= 2.94D-02 EMaxC= 1.00D-01 BMatC= 5.68D-01 BMatP= 5.68D-01
 IDIUse=3 WtCom= 7.06D-01 WtEn= 2.94D-01
 Coeff-Com:  0.100D+01
 Coeff-En:   0.100D+01
 Coeff:      0.100D+01
 Gap=     0.220 Goal=   None    Shift=    0.000
 GapD=    0.220 DampG=1.000 DampE=0.500 DampFc=0.5000 IDamp=-1.
 Damping current iteration by 5.00D-01
 RMSDP=4.96D-03 MaxDP=1.94D-01              OVMax= 2.35D-01

 Cycle   2  Pass 0  IDiag  1:
 RMSU=  1.74D-03    CP:  9.84D-01
 E= -1023.39708030726     Delta-E=       -0.179997224414 Rises=F Damp=T
 DIIS: error= 1.54D-02 at cycle   2 NSaved=   2.
 NSaved= 2 IEnMin= 2 EnMin= -1023.39708030726     IErMin= 2 ErrMin= 1.54D-02
 ErrMax= 1.54D-02 EMaxC= 1.00D-01 BMatC= 6.20D-02 BMatP= 5.68D-01
 IDIUse=3 WtCom= 8.46D-01 WtEn= 1.54D-01
 Coeff-Com:  0.167D+00 0.833D+00
 Coeff-En:   0.266D+00 0.734D+00
 Coeff:      0.182D+00 0.818D+00
 Gap=     0.246 Goal=   None    Shift=    0.000
 RMSDP=1.48D-03 MaxDP=9.94D-02 DE=-1.80D-01 OVMax= 1.87D-01

 Cycle   3  Pass 0  IDiag  1:
 RMSU=  9.29D-04    CP:  9.77D-01  7.28D-01
 E= -1023.67524278969     Delta-E=       -0.278162482427 Rises=F Damp=F
 DIIS: error= 1.94D-02 at cycle   3 NSaved=   3.
 NSaved= 3 IEnMin= 3 EnMin= -1023.67524278969     IErMin= 2 ErrMin= 1.54D-02
 ErrMax= 1.94D-02 EMaxC= 1.00D-01 BMatC= 6.13D-02 BMatP= 6.20D-02
 IDIUse=3 WtCom= 8.06D-01 WtEn= 1.94D-01
 Coeff-Com:  0.551D-01 0.492D+00 0.452D+00
 Coeff-En:   0.000D+00 0.000D+00 0.100D+01
 Coeff:      0.444D-01 0.397D+00 0.559D+00
 Gap=     0.187 Goal=   None    Shift=    0.000
 RMSDP=1.11D-03 MaxDP=6.98D-02 DE=-2.78D-01 OVMax= 1.02D-01

 Cycle   4  Pass 0  IDiag  1:
 RMSU=  4.23D-04    CP:  9.82D-01  8.82D-01  3.55D-01
 E= -1023.70684795287     Delta-E=       -0.031605163184 Rises=F Damp=F
 DIIS: error= 1.38D-02 at cycle   4 NSaved=   4.
 NSaved= 4 IEnMin= 4 EnMin= -1023.70684795287     IErMin= 4 ErrMin= 1.38D-02
 ErrMax= 1.38D-02 EMaxC= 1.00D-01 BMatC= 2.71D-02 BMatP= 6.13D-02
 IDIUse=3 WtCom= 8.62D-01 WtEn= 1.38D-01
 Coeff-Com:  0.157D-01 0.108D+00 0.388D+00 0.488D+00
 Coeff-En:   0.000D+00 0.000D+00 0.334D+00 0.666D+00
 Coeff:      0.135D-01 0.931D-01 0.380D+00 0.513D+00
 Gap=     0.179 Goal=   None    Shift=    0.000
 RMSDP=5.14D-04 MaxDP=3.32D-02 DE=-3.16D-02 OVMax= 3.93D-02

 Cycle   5  Pass 0  IDiag  1:
 RMSU=  1.21D-04    CP:  9.81D-01  7.91D-01  6.00D-01  5.27D-01
 E= -1023.72831701547     Delta-E=       -0.021469062598 Rises=F Damp=F
 DIIS: error= 1.55D-03 at cycle   5 NSaved=   5.
 NSaved= 5 IEnMin= 5 EnMin= -1023.72831701547     IErMin= 5 ErrMin= 1.55D-03
 ErrMax= 1.55D-03 EMaxC= 1.00D-01 BMatC= 1.04D-03 BMatP= 2.71D-02
 IDIUse=3 WtCom= 9.84D-01 WtEn= 1.55D-02
 Coeff-Com:  0.388D-02 0.811D-02 0.159D+00 0.285D+00 0.544D+00
 Coeff-En:   0.000D+00 0.000D+00 0.000D+00 0.000D+00 0.100D+01
 Coeff:      0.382D-02 0.799D-02 0.156D+00 0.281D+00 0.551D+00
 Gap=     0.181 Goal=   None    Shift=    0.000
 RMSDP=1.08D-04 MaxDP=5.14D-03 DE=-2.15D-02 OVMax= 6.64D-03

 Cycle   6  Pass 0  IDiag  1:
 RMSU=  3.86D-05    CP:  9.80D-01  8.04D-01  5.91D-01  5.84D-01  5.29D-01
 E= -1023.72912296797     Delta-E=       -0.000805952495 Rises=F Damp=F
 DIIS: error= 4.47D-04 at cycle   6 NSaved=   6.
 NSaved= 6 IEnMin= 6 EnMin= -1023.72912296797     IErMin= 6 ErrMin= 4.47D-04
 ErrMax= 4.47D-04 EMaxC= 1.00D-01 BMatC= 8.96D-05 BMatP= 1.04D-03
 IDIUse=3 WtCom= 9.96D-01 WtEn= 4.47D-03
 Coeff-Com:  0.109D-02-0.294D-02 0.575D-01 0.116D+00 0.310D+00 0.518D+00
 Coeff-En:   0.000D+00 0.000D+00 0.000D+00 0.000D+00 0.496D-02 0.995D+00
 Coeff:      0.109D-02-0.293D-02 0.573D-01 0.115D+00 0.309D+00 0.520D+00
 Gap=     0.181 Goal=   None    Shift=    0.000
 RMSDP=3.53D-05 MaxDP=1.71D-03 DE=-8.06D-04 OVMax= 3.16D-03

 Cycle   7  Pass 0  IDiag  1:
 RMSU=  1.56D-05    CP:  9.80D-01  8.04D-01  5.91D-01  5.84D-01  6.05D-01
                    CP:  5.55D-01
 E= -1023.72918914306     Delta-E=       -0.000066175098 Rises=F Damp=F
 DIIS: error= 1.85D-04 at cycle   7 NSaved=   7.
 NSaved= 7 IEnMin= 7 EnMin= -1023.72918914306     IErMin= 7 ErrMin= 1.85D-04
 ErrMax= 1.85D-04 EMaxC= 1.00D-01 BMatC= 1.40D-05 BMatP= 8.96D-05
 IDIUse=3 WtCom= 9.98D-01 WtEn= 1.85D-03
 Coeff-Com:  0.213D-03-0.252D-02 0.160D-01 0.351D-01 0.127D+00 0.331D+00
 Coeff-Com:  0.493D+00
 Coeff-En:   0.000D+00 0.000D+00 0.000D+00 0.000D+00 0.000D+00 0.141D+00
 Coeff-En:   0.859D+00
 Coeff:      0.212D-03-0.252D-02 0.160D-01 0.351D-01 0.127D+00 0.331D+00
 Coeff:      0.494D+00
 Gap=     0.181 Goal=   None    Shift=    0.000
 RMSDP=1.30D-05 MaxDP=5.70D-04 DE=-6.62D-05 OVMax= 1.27D-03

 Cycle   8  Pass 0  IDiag  1:
 RMSU=  3.80D-06    CP:  9.80D-01  8.03D-01  5.92D-01  5.86D-01  5.95D-01
                    CP:  6.44D-01  5.33D-01
 E= -1023.72920230913     Delta-E=       -0.000013166062 Rises=F Damp=F
 DIIS: error= 2.32D-05 at cycle   8 NSaved=   8.
 NSaved= 8 IEnMin= 8 EnMin= -1023.72920230913     IErMin= 8 ErrMin= 2.32D-05
 ErrMax= 2.32D-05 EMaxC= 1.00D-01 BMatC= 7.15D-07 BMatP= 1.40D-05
 IDIUse=1 WtCom= 1.00D+00 WtEn= 0.00D+00
 Coeff-Com:  0.408D-04-0.978D-03 0.306D-02 0.700D-02 0.378D-01 0.124D+00
 Coeff-Com:  0.255D+00 0.575D+00
 Coeff:      0.408D-04-0.978D-03 0.306D-02 0.700D-02 0.378D-01 0.124D+00
 Coeff:      0.255D+00 0.575D+00
 Gap=     0.181 Goal=   None    Shift=    0.000
 RMSDP=3.12D-06 MaxDP=1.20D-04 DE=-1.32D-05 OVMax= 3.18D-04

 Initial convergence to 1.0D-05 achieved.  Increase integral accuracy.
 Cycle   9  Pass 1  IDiag  1:
 E= -1023.72927441561     Delta-E=       -0.000072106482 Rises=F Damp=F
 DIIS: error= 3.94D-05 at cycle   1 NSaved=   1.
 NSaved= 1 IEnMin= 1 EnMin= -1023.72927441561     IErMin= 1 ErrMin= 3.94D-05
 ErrMax= 3.94D-05 EMaxC= 1.00D-01 BMatC= 3.32D-07 BMatP= 3.32D-07
 IDIUse=1 WtCom= 1.00D+00 WtEn= 0.00D+00
 Coeff-Com:  0.100D+01
 Coeff:      0.100D+01
 Gap=     0.181 Goal=   None    Shift=    0.000
 RMSDP=3.12D-06 MaxDP=1.20D-04 DE=-7.21D-05 OVMax= 1.72D-04

 Cycle  10  Pass 1  IDiag  1:
 RMSU=  9.95D-06    CP:  1.00D+00
 E= -1023.72927455924     Delta-E=       -0.000000143632 Rises=F Damp=F
 DIIS: error= 1.61D-05 at cycle   2 NSaved=   2.
 NSaved= 2 IEnMin= 2 EnMin= -1023.72927455924     IErMin= 2 ErrMin= 1.61D-05
 ErrMax= 1.61D-05 EMaxC= 1.00D-01 BMatC= 2.26D-07 BMatP= 3.32D-07
 IDIUse=1 WtCom= 1.00D+00 WtEn= 0.00D+00
 Coeff-Com:  0.432D+00 0.568D+00
 Coeff:      0.432D+00 0.568D+00
 Gap=     0.181 Goal=   None    Shift=    0.000
 RMSDP=2.19D-06 MaxDP=1.06D-04 DE=-1.44D-07 OVMax= 1.95D-04

 Cycle  11  Pass 1  IDiag  1:
 RMSU=  1.54D-06    CP:  1.00D+00  9.90D-01
 E= -1023.72927466443     Delta-E=       -0.000000105186 Rises=F Damp=F
 DIIS: error= 1.07D-05 at cycle   3 NSaved=   3.
 NSaved= 3 IEnMin= 3 EnMin= -1023.72927466443     IErMin= 3 ErrMin= 1.07D-05
 ErrMax= 1.07D-05 EMaxC= 1.00D-01 BMatC= 1.09D-07 BMatP= 2.26D-07
 IDIUse=1 WtCom= 1.00D+00 WtEn= 0.00D+00
 Coeff-Com:  0.399D-02 0.408D+00 0.588D+00
 Coeff:      0.399D-02 0.408D+00 0.588D+00
 Gap=     0.181 Goal=   None    Shift=    0.000
 RMSDP=1.07D-06 MaxDP=4.96D-05 DE=-1.05D-07 OVMax= 9.20D-05

 Cycle  12  Pass 1  IDiag  1:
 RMSU=  2.85D-07    CP:  1.00D+00  1.01D+00  5.59D-01
 E= -1023.72927476429     Delta-E=       -0.000000099866 Rises=F Damp=F
 DIIS: error= 2.67D-06 at cycle   4 NSaved=   4.
 NSaved= 4 IEnMin= 4 EnMin= -1023.72927476429     IErMin= 4 ErrMin= 2.67D-06
 ErrMax= 2.67D-06 EMaxC= 1.00D-01 BMatC= 4.97D-09 BMatP= 1.09D-07
 IDIUse=1 WtCom= 1.00D+00 WtEn= 0.00D+00
 Coeff-Com: -0.979D-02 0.228D+00 0.355D+00 0.427D+00
 Coeff:     -0.979D-02 0.228D+00 0.355D+00 0.427D+00
 Gap=     0.181 Goal=   None    Shift=    0.000
 RMSDP=2.32D-07 MaxDP=9.58D-06 DE=-9.99D-08 OVMax= 1.69D-05

 Cycle  13  Pass 1  IDiag  1:
 RMSU=  8.01D-08    CP:  1.00D+00  1.01D+00  5.95D-01  5.36D-01
 E= -1023.72927476887     Delta-E=       -0.000000004581 Rises=F Damp=F
 DIIS: error= 6.72D-07 at cycle   5 NSaved=   5.
 NSaved= 5 IEnMin= 5 EnMin= -1023.72927476887     IErMin= 5 ErrMin= 6.72D-07
 ErrMax= 6.72D-07 EMaxC= 1.00D-01 BMatC= 1.64D-10 BMatP= 4.97D-09
 IDIUse=1 WtCom= 1.00D+00 WtEn= 0.00D+00
 Coeff-Com: -0.542D-02 0.925D-01 0.148D+00 0.221D+00 0.544D+00
 Coeff:     -0.542D-02 0.925D-01 0.148D+00 0.221D+00 0.544D+00
 Gap=     0.181 Goal=   None    Shift=    0.000
 RMSDP=4.71D-08 MaxDP=2.74D-06 DE=-4.58D-09 OVMax= 3.94D-06

 Cycle  14  Pass 1  IDiag  1:
 RMSU=  2.84D-08    CP:  1.00D+00  1.01D+00  5.92D-01  5.65D-01  8.21D-01
 E= -1023.72927476902     Delta-E=       -0.000000000143 Rises=F Damp=F
 DIIS: error= 2.03D-07 at cycle   6 NSaved=   6.
 NSaved= 6 IEnMin= 6 EnMin= -1023.72927476902     IErMin= 6 ErrMin= 2.03D-07
 ErrMax= 2.03D-07 EMaxC= 1.00D-01 BMatC= 1.81D-11 BMatP= 1.64D-10
 IDIUse=1 WtCom= 1.00D+00 WtEn= 0.00D+00
 Coeff-Com: -0.164D-02 0.225D-01 0.370D-01 0.670D-01 0.292D+00 0.583D+00
 Coeff:     -0.164D-02 0.225D-01 0.370D-01 0.670D-01 0.292D+00 0.583D+00
 Gap=     0.181 Goal=   None    Shift=    0.000
 RMSDP=1.59D-08 MaxDP=6.13D-07 DE=-1.43D-10 OVMax= 1.96D-06

 Cycle  15  Pass 1  IDiag  1:
 RMSU=  7.31D-09    CP:  1.00D+00  1.01D+00  5.93D-01  5.66D-01  8.73D-01
                    CP:  7.43D-01
 E= -1023.72927476902     Delta-E=       -0.000000000006 Rises=F Damp=F
 DIIS: error= 7.47D-08 at cycle   7 NSaved=   7.
 NSaved= 7 IEnMin= 7 EnMin= -1023.72927476902     IErMin= 7 ErrMin= 7.47D-08
 ErrMax= 7.47D-08 EMaxC= 1.00D-01 BMatC= 2.19D-12 BMatP= 1.81D-11
 IDIUse=1 WtCom= 1.00D+00 WtEn= 0.00D+00
 Coeff-Com: -0.198D-03 0.203D-03 0.865D-03 0.872D-02 0.886D-01 0.318D+00
 Coeff-Com:  0.584D+00
 Coeff:     -0.198D-03 0.203D-03 0.865D-03 0.872D-02 0.886D-01 0.318D+00
 Coeff:      0.584D+00
 Gap=     0.181 Goal=   None    Shift=    0.000
 RMSDP=5.37D-09 MaxDP=2.34D-07 DE=-5.91D-12 OVMax= 5.34D-07

 SCF Done:  E(RB3LYP) =  -1023.72927477     A.U. after   15 cycles
             Convg  =    0.5366D-08             -V/T =  2.0092
 KE= 1.014351046958D+03 PE=-5.606485306219D+03 EE= 1.958240445951D+03
 Leave Link  502 at Tue Sep 28 15:36:32 2021, MaxMem= 1342177280 cpu:     894.4
 (Enter /sw/target/amd/app/gaussian/Gaussian09RevA.02_gcc-4.9.2/g09/l508.exe)
 QCSCF skips out because SCF is already converged.
 Leave Link  508 at Tue Sep 28 15:36:39 2021, MaxMem= 1342177280 cpu:       0.0
 (Enter /sw/target/amd/app/gaussian/Gaussian09RevA.02_gcc-4.9.2/g09/l601.exe)
 Copying SCF densities to generalized density rwf, IOpCl= 0 IROHF=0.

 **********************************************************************

            Population analysis using the SCF density.

 **********************************************************************

 Orbital symmetries:
       Occupied  (A) (A) (A) (A) (A) (A) (A) (A) (A) (A) (A) (A)
                 (A) (A) (A) (A) (A) (A) (A) (A) (A) (A) (A) (A)
                 (A) (A) (A) (A) (A) (A) (A) (A) (A) (A) (A) (A)
                 (A) (A) (A) (A) (A) (A) (A) (A) (A) (A) (A) (A)
                 (A) (A) (A) (A) (A) (A) (A) (A) (A) (A) (A) (A)
                 (A) (A) (A) (A) (A) (A) (A) (A) (A) (A) (A) (A)
                 (A) (A) (A) (A)
       Virtual   (A) (A) (A) (A) (A) (A) (A) (A) (A) (A) (A) (A)
                 (A) (A) (A) (A) (A) (A) (A) (A) (A) (A) (A) (A)
                 (A) (A) (A) (A) (A) (A) (A) (A) (A) (A) (A) (A)
                 (A) (A) (A) (A) (A) (A) (A) (A) (A) (A) (A) (A)
                 (A) (A) (A) (A) (A) (A) (A) (A) (A) (A) (A) (A)
                 (A) (A) (A) (A) (A) (A) (A) (A) (A) (A) (A) (A)
                 (A) (A) (A) (A) (A) (A) (A) (A) (A) (A) (A) (A)
                 (A) (A) (A) (A) (A) (A) (A) (A) (A) (A) (A) (A)
                 (A) (A) (A) (A) (A) (A) (A) (A) (A) (A) (A) (A)
                 (A) (A) (A) (A) (A) (A) (A) (A) (A) (A) (A) (A)
                 (A) (A) (A) (A) (A) (A) (A) (A) (A) (A) (A) (A)
                 (A) (A) (A) (A) (A) (A) (A) (A) (A) (A) (A) (A)
                 (A) (A) (A) (A) (A) (A) (A) (A) (A) (A) (A) (A)
                 (A) (A) (A) (A) (A) (A) (A) (A) (A) (A) (A) (A)
                 (A) (A) (A) (A) (A) (A) (A) (A) (A) (A) (A) (A)
                 (A) (A) (A) (A) (A) (A) (A) (A) (A) (A) (A) (A)
                 (A) (A) (A) (A) (A) (A) (A) (A) (A) (A) (A) (A)
                 (A) (A) (A) (A) (A) (A) (A) (A) (A) (A) (A) (A)
                 (A) (A) (A) (A) (A) (A) (A) (A) (A) (A) (A) (A)
                 (A) (A) (A) (A) (A) (A) (A) (A) (A) (A) (A) (A)
                 (A) (A) (A) (A) (A) (A) (A) (A) (A) (A) (A) (A)
                 (A) (A) (A) (A) (A) (A) (A) (A) (A) (A) (A) (A)
                 (A) (A) (A)
 The electronic state is 1-A.
 Alpha  occ. eigenvalues --  -19.21363 -19.20530 -19.20237 -19.12166 -14.38111
 Alpha  occ. eigenvalues --  -14.35202 -14.34945 -14.34917 -10.34355 -10.33849
 Alpha  occ. eigenvalues --  -10.33644 -10.29719 -10.25732 -10.24341 -10.24265
 Alpha  occ. eigenvalues --  -10.24091 -10.19690 -10.19431 -10.19211 -10.18609
 Alpha  occ. eigenvalues --  -10.18115  -1.11610  -1.09851  -1.09070  -1.03701
 Alpha  occ. eigenvalues --   -1.01564  -0.94588  -0.91760  -0.91510  -0.84954
 Alpha  occ. eigenvalues --   -0.77099  -0.75402  -0.74113  -0.73212  -0.72496
 Alpha  occ. eigenvalues --   -0.68260  -0.64696  -0.63199  -0.62141  -0.59783
 Alpha  occ. eigenvalues --   -0.58525  -0.55278  -0.54124  -0.51477  -0.51218
 Alpha  occ. eigenvalues --   -0.50913  -0.49293  -0.48060  -0.47146  -0.46963
 Alpha  occ. eigenvalues --   -0.46015  -0.44889  -0.44604  -0.44017  -0.43250
 Alpha  occ. eigenvalues --   -0.42033  -0.40901  -0.40572  -0.40113  -0.39622
 Alpha  occ. eigenvalues --   -0.39419  -0.37730  -0.36740  -0.36522  -0.36217
 Alpha  occ. eigenvalues --   -0.35920  -0.35360  -0.32508  -0.30218  -0.29217
 Alpha  occ. eigenvalues --   -0.28999  -0.28869  -0.28624  -0.25242  -0.23762
 Alpha  occ. eigenvalues --   -0.22004
 Alpha virt. eigenvalues --   -0.03931  -0.02962  -0.00983   0.00498   0.04332
 Alpha virt. eigenvalues --    0.06347   0.09670   0.10551   0.11373   0.12117
 Alpha virt. eigenvalues --    0.12240   0.12617   0.13109   0.14316   0.14960
 Alpha virt. eigenvalues --    0.15146   0.15671   0.15839   0.16984   0.17093
 Alpha virt. eigenvalues --    0.17260   0.17276   0.18192   0.19998   0.21293
 Alpha virt. eigenvalues --    0.22933   0.24126   0.25029   0.25427   0.27964
 Alpha virt. eigenvalues --    0.28952   0.29234   0.30136   0.31026   0.32871
 Alpha virt. eigenvalues --    0.34812   0.36171   0.39695   0.40853   0.42113
 Alpha virt. eigenvalues --    0.46836   0.48229   0.48577   0.49412   0.51176
 Alpha virt. eigenvalues --    0.51916   0.52416   0.52765   0.53208   0.53888
 Alpha virt. eigenvalues --    0.54013   0.54388   0.55046   0.56013   0.56177
 Alpha virt. eigenvalues --    0.57517   0.58010   0.58365   0.58736   0.59195
 Alpha virt. eigenvalues --    0.60183   0.60849   0.61301   0.61515   0.62436
 Alpha virt. eigenvalues --    0.63458   0.63894   0.64433   0.65007   0.66520
 Alpha virt. eigenvalues --    0.67502   0.68155   0.68629   0.68923   0.70867
 Alpha virt. eigenvalues --    0.73684   0.74404   0.76777   0.79006   0.80113
 Alpha virt. eigenvalues --    0.80729   0.81214   0.82539   0.82922   0.83057
 Alpha virt. eigenvalues --    0.83894   0.84139   0.84912   0.85573   0.86483
 Alpha virt. eigenvalues --    0.86962   0.87526   0.88006   0.88824   0.89652
 Alpha virt. eigenvalues --    0.90151   0.91076   0.93240   0.93754   0.94097
 Alpha virt. eigenvalues --    0.94886   0.95336   0.96051   0.96398   0.97598
 Alpha virt. eigenvalues --    0.97836   0.99419   1.01965   1.02794   1.03422
 Alpha virt. eigenvalues --    1.04945   1.05916   1.06293   1.07290   1.07865
 Alpha virt. eigenvalues --    1.10128   1.12793   1.13696   1.15072   1.17641
 Alpha virt. eigenvalues --    1.19165   1.22151   1.24302   1.26264   1.26987
 Alpha virt. eigenvalues --    1.28410   1.28867   1.30120   1.31647   1.35563
 Alpha virt. eigenvalues --    1.36753   1.37387   1.37585   1.38591   1.41047
 Alpha virt. eigenvalues --    1.42875   1.43581   1.44486   1.45329   1.45938
 Alpha virt. eigenvalues --    1.46929   1.48683   1.48726   1.49746   1.50084
 Alpha virt. eigenvalues --    1.50348   1.52256   1.53239   1.54255   1.55615
 Alpha virt. eigenvalues --    1.59523   1.63257   1.66062   1.67898   1.68840
 Alpha virt. eigenvalues --    1.70701   1.73903   1.77461   1.78641   1.78913
 Alpha virt. eigenvalues --    1.79238   1.80461   1.81788   1.82186   1.83299
 Alpha virt. eigenvalues --    1.84039   1.84390   1.86696   1.89145   1.89503
 Alpha virt. eigenvalues --    1.91197   1.92535   1.94451   1.95442   1.96282
 Alpha virt. eigenvalues --    1.97728   1.98227   1.98515   1.98684   2.00986
 Alpha virt. eigenvalues --    2.03598   2.05121   2.06281   2.06479   2.07476
 Alpha virt. eigenvalues --    2.10454   2.11278   2.13079   2.14578   2.15288
 Alpha virt. eigenvalues --    2.17725   2.18381   2.19436   2.19699   2.20310
 Alpha virt. eigenvalues --    2.23890   2.25812   2.26830   2.28600   2.29707
 Alpha virt. eigenvalues --    2.30036   2.32717   2.34668   2.35413   2.36955
 Alpha virt. eigenvalues --    2.37329   2.38659   2.40680   2.42658   2.43875
 Alpha virt. eigenvalues --    2.44990   2.46408   2.49005   2.49142   2.50988
 Alpha virt. eigenvalues --    2.54135   2.55083   2.56803   2.58606   2.61690
 Alpha virt. eigenvalues --    2.62879   2.63960   2.67052   2.67497   2.68560
 Alpha virt. eigenvalues --    2.69643   2.72120   2.73120   2.76503   2.77721
 Alpha virt. eigenvalues --    2.78904   2.81740   2.82345   2.85904   2.87171
 Alpha virt. eigenvalues --    2.92853   2.94741   2.98285   3.00676   3.05883
 Alpha virt. eigenvalues --    3.19189   3.22713   3.28085   3.33814   3.42861
 Alpha virt. eigenvalues --    3.47181   4.03374   4.03986   4.04530   4.09088
 Alpha virt. eigenvalues --    4.09872   4.10069   4.11118   4.13647   4.15818
 Alpha virt. eigenvalues --    4.21733   4.22242   4.26180   4.28394   4.30268
 Alpha virt. eigenvalues --    4.35985   4.42194   4.49517   4.54884   4.65562
 Alpha virt. eigenvalues --    4.71211   4.84144
          Condensed to atoms (all electrons):
              1          2          3          4          5          6
     1  C    4.898983   0.225976  -0.031013  -0.008479   0.000601  -0.000021
     2  O    0.225976   8.180119   0.310176  -0.081263   0.001315  -0.000009
     3  C   -0.031013   0.310176   4.313397   0.383339  -0.040570   0.001241
     4  N   -0.008479  -0.081263   0.383339   7.002131   0.447473  -0.079923
     5  C    0.000601   0.001315  -0.040570   0.447473   4.348362   0.284790
     6  O   -0.000021  -0.000009   0.001241  -0.079923   0.284790   8.287577
     7  C    0.000000  -0.000000   0.000071   0.001245  -0.016463   0.214794
     8  C   -0.000000  -0.000000   0.000002  -0.000255  -0.000161  -0.051093
     9  C    0.000000   0.000000  -0.000000   0.000002  -0.000046   0.003274
    10  C    0.000000   0.000000   0.000000   0.000000   0.000056   0.000258
    11  C    0.000000   0.000000  -0.000001  -0.000008   0.000081   0.003461
    12  C   -0.000000   0.000000   0.000068   0.000063  -0.003950  -0.043656
    13  N   -0.000000  -0.000000   0.000000  -0.000000  -0.000013  -0.000027
    14  C    0.000000  -0.000000  -0.000000  -0.000000   0.000000   0.000000
    15  O   -0.000000   0.000000   0.000000   0.000000   0.000000  -0.000000
    16  C    0.000000  -0.000000   0.000000  -0.000000  -0.000000  -0.000000
    17  N    0.000080  -0.000195  -0.030349  -0.077021   0.402451  -0.077338
    18  C   -0.000069   0.001067  -0.042736  -0.031807  -0.044123   0.002097
    19  N    0.004543  -0.079824   0.462671  -0.074451  -0.031426  -0.000176
    20  O    0.000001  -0.000011   0.001891  -0.000201   0.001232  -0.000010
    21  C    0.000000  -0.000012   0.000515   0.000080  -0.000073   0.000001
    22  H    0.374407  -0.030207   0.004100   0.000981  -0.000005  -0.000000
    23  H    0.375324  -0.031756  -0.007235   0.005793   0.000014   0.000003
    24  H    0.373406  -0.030689  -0.008496   0.008015   0.000026  -0.000001
    25  H    0.000000  -0.000000   0.000000  -0.000014   0.000099  -0.001534
    26  H   -0.000000  -0.000000   0.000000  -0.000000  -0.000001  -0.000057
    27  H    0.000000   0.000000  -0.000000   0.000000   0.000000   0.000001
    28  H   -0.000000   0.000000   0.000063  -0.000316   0.004656  -0.007018
    29  H    0.000000  -0.000000   0.000000  -0.000000  -0.000004   0.000001
    30  H   -0.000000  -0.000000  -0.000000   0.000000   0.000000   0.000000
    31  H    0.000000   0.000000  -0.000000  -0.000000   0.000000   0.000000
    32  H    0.000000  -0.000000  -0.000000   0.000000   0.000000   0.000000
    33  H    0.000000  -0.000000  -0.000004   0.000001   0.000002  -0.000000
    34  H    0.000000  -0.000001   0.000087  -0.000015   0.000029   0.000000
    35  H   -0.000000  -0.000001  -0.000102  -0.000002   0.000061   0.000000
              7          8          9         10         11         12
     1  C    0.000000  -0.000000   0.000000   0.000000   0.000000  -0.000000
     2  O   -0.000000  -0.000000   0.000000   0.000000   0.000000   0.000000
     3  C    0.000071   0.000002  -0.000000   0.000000  -0.000001   0.000068
     4  N    0.001245  -0.000255   0.000002   0.000000  -0.000008   0.000063
     5  C   -0.016463  -0.000161  -0.000046   0.000056   0.000081  -0.003950
     6  O    0.214794  -0.051093   0.003274   0.000258   0.003461  -0.043656
     7  C    4.494069   0.546776  -0.007502  -0.041718   0.012963   0.493218
     8  C    0.546776   4.999438   0.518114  -0.040397  -0.034343  -0.081408
     9  C   -0.007502   0.518114   4.896709   0.496904  -0.009411  -0.041328
    10  C   -0.041718  -0.040397   0.496904   5.022661   0.562471  -0.071684
    11  C    0.012963  -0.034343  -0.009411   0.562471   4.523336   0.459369
    12  C    0.493218  -0.081408  -0.041328  -0.071684   0.459369   5.210038
    13  N    0.004052   0.000575   0.004652  -0.068961   0.226530  -0.044689
    14  C   -0.000079   0.000008   0.000414  -0.002233  -0.024941   0.005020
    15  O   -0.000006  -0.000002   0.000756  -0.006915  -0.003672   0.000267
    16  C   -0.000001   0.000000   0.000006   0.000601   0.006255  -0.000508
    17  N   -0.002061  -0.000015  -0.000018   0.000034  -0.000811  -0.002776
    18  C    0.000518  -0.000019  -0.000000   0.000001   0.000002  -0.000049
    19  N    0.000046  -0.000000  -0.000000   0.000000  -0.000000  -0.000021
    20  O    0.000001   0.000000   0.000000  -0.000000   0.000000   0.000016
    21  C   -0.000000  -0.000000   0.000000   0.000000  -0.000000  -0.000001
    22  H    0.000000  -0.000000   0.000000   0.000000   0.000000  -0.000000
    23  H   -0.000000   0.000000  -0.000000   0.000000   0.000000  -0.000000
    24  H    0.000001  -0.000000  -0.000000   0.000000  -0.000000   0.000000
    25  H   -0.038252   0.349002  -0.042115   0.004952   0.000229   0.006930
    26  H    0.003654  -0.038946   0.360693  -0.036964   0.003218   0.000713
    27  H    0.000295   0.004564  -0.041294   0.341099  -0.027442   0.005990
    28  H   -0.032140   0.005864   0.000187   0.006088  -0.043158   0.332492
    29  H    0.000006  -0.000014  -0.000044   0.005186  -0.024730  -0.006114
    30  H   -0.000000  -0.000000  -0.000000  -0.000028   0.000017  -0.000006
    31  H   -0.000000  -0.000000  -0.000000  -0.000013  -0.000153   0.000010
    32  H    0.000000  -0.000000  -0.000000  -0.000004  -0.000098   0.000004
    33  H   -0.000000   0.000000   0.000000  -0.000000   0.000000   0.000000
    34  H    0.000000   0.000000  -0.000000   0.000000  -0.000000   0.000000
    35  H    0.000000   0.000000   0.000000  -0.000000   0.000000   0.000000
             13         14         15         16         17         18
     1  C   -0.000000   0.000000  -0.000000   0.000000   0.000080  -0.000069
     2  O   -0.000000  -0.000000   0.000000  -0.000000  -0.000195   0.001067
     3  C    0.000000  -0.000000   0.000000   0.000000  -0.030349  -0.042736
     4  N   -0.000000  -0.000000   0.000000  -0.000000  -0.077021  -0.031807
     5  C   -0.000013   0.000000   0.000000  -0.000000   0.402451  -0.044123
     6  O   -0.000027   0.000000  -0.000000  -0.000000  -0.077338   0.002097
     7  C    0.004052  -0.000079  -0.000006  -0.000001  -0.002061   0.000518
     8  C    0.000575   0.000008  -0.000002   0.000000  -0.000015  -0.000019
     9  C    0.004652   0.000414   0.000756   0.000006  -0.000018  -0.000000
    10  C   -0.068961  -0.002233  -0.006915   0.000601   0.000034   0.000001
    11  C    0.226530  -0.024941  -0.003672   0.006255  -0.000811   0.000002
    12  C   -0.044689   0.005020   0.000267  -0.000508  -0.002776  -0.000049
    13  N    7.296024   0.226427  -0.082396  -0.134035  -0.000009  -0.000001
    14  C    0.226427   4.338096   0.597789   0.346039  -0.000000  -0.000000
    15  O   -0.082396   0.597789   8.026232  -0.079274   0.000000  -0.000000
    16  C   -0.134035   0.346039  -0.079274   5.346619   0.000000   0.000000
    17  N   -0.000009  -0.000000   0.000000   0.000000   6.951661   0.453323
    18  C   -0.000001  -0.000000  -0.000000   0.000000   0.453323   4.336541
    19  N   -0.000000   0.000000  -0.000000  -0.000000  -0.076490   0.386391
    20  O   -0.000000   0.000000   0.000000  -0.000000  -0.081766   0.308339
    21  C    0.000000  -0.000000  -0.000000  -0.000000   0.004395  -0.030581
    22  H   -0.000000   0.000000   0.000000   0.000000   0.000001   0.000002
    23  H   -0.000000  -0.000000  -0.000000   0.000000  -0.000009   0.000046
    24  H    0.000000   0.000000   0.000000   0.000000  -0.000012   0.000048
    25  H    0.000004   0.000000   0.000000   0.000000   0.000009  -0.000000
    26  H   -0.000107  -0.000001  -0.000004  -0.000000  -0.000000  -0.000000
    27  H   -0.012025   0.002781   0.023602   0.000505   0.000000  -0.000000
    28  H   -0.009650   0.000149   0.000003  -0.000011   0.004603   0.000188
    29  H    0.297671  -0.022607   0.002856   0.002024  -0.000034  -0.000001
    30  H    0.004747  -0.027657   0.001885   0.348809   0.000000   0.000000
    31  H    0.001987  -0.024195   0.000725   0.355370   0.000000   0.000000
    32  H    0.004815  -0.020265   0.004814   0.359893  -0.000000  -0.000000
    33  H   -0.000000  -0.000000   0.000000   0.000000  -0.000008   0.004113
    34  H   -0.000000   0.000000   0.000000  -0.000000   0.000102  -0.005396
    35  H    0.000000   0.000000   0.000000   0.000000  -0.000221  -0.009687
             19         20         21         22         23         24
     1  C    0.004543   0.000001   0.000000   0.374407   0.375324   0.373406
     2  O   -0.079824  -0.000011  -0.000012  -0.030207  -0.031756  -0.030689
     3  C    0.462671   0.001891   0.000515   0.004100  -0.007235  -0.008496
     4  N   -0.074451  -0.000201   0.000080   0.000981   0.005793   0.008015
     5  C   -0.031426   0.001232  -0.000073  -0.000005   0.000014   0.000026
     6  O   -0.000176  -0.000010   0.000001  -0.000000   0.000003  -0.000001
     7  C    0.000046   0.000001  -0.000000   0.000000  -0.000000   0.000001
     8  C   -0.000000   0.000000  -0.000000  -0.000000   0.000000  -0.000000
     9  C   -0.000000   0.000000   0.000000   0.000000  -0.000000  -0.000000
    10  C    0.000000  -0.000000   0.000000   0.000000   0.000000   0.000000
    11  C   -0.000000   0.000000  -0.000000   0.000000   0.000000  -0.000000
    12  C   -0.000021   0.000016  -0.000001  -0.000000  -0.000000   0.000000
    13  N   -0.000000  -0.000000   0.000000  -0.000000  -0.000000   0.000000
    14  C    0.000000   0.000000  -0.000000   0.000000  -0.000000   0.000000
    15  O   -0.000000   0.000000  -0.000000   0.000000  -0.000000   0.000000
    16  C   -0.000000  -0.000000  -0.000000   0.000000   0.000000   0.000000
    17  N   -0.076490  -0.081766   0.004395   0.000001  -0.000009  -0.000012
    18  C    0.386391   0.308339  -0.030581   0.000002   0.000046   0.000048
    19  N    6.977627  -0.081504  -0.008567  -0.000009  -0.000127  -0.000110
    20  O   -0.081504   8.183579   0.226615  -0.000000   0.000000   0.000000
    21  C   -0.008567   0.226615   4.901532  -0.000000  -0.000000  -0.000000
    22  H   -0.000009  -0.000000  -0.000000   0.552656  -0.034246  -0.033816
    23  H   -0.000127   0.000000  -0.000000  -0.034246   0.557580  -0.035158
    24  H   -0.000110   0.000000  -0.000000  -0.033816  -0.035158   0.555341
    25  H    0.000000   0.000000  -0.000000  -0.000000   0.000000   0.000000
    26  H   -0.000000  -0.000000   0.000000  -0.000000   0.000000  -0.000000
    27  H    0.000000  -0.000000   0.000000   0.000000   0.000000  -0.000000
    28  H   -0.000014  -0.000018   0.000000  -0.000000   0.000000  -0.000000
    29  H   -0.000000   0.000000  -0.000000  -0.000000  -0.000000   0.000000
    30  H   -0.000000  -0.000000   0.000000   0.000000  -0.000000   0.000000
    31  H    0.000000   0.000000  -0.000000   0.000000   0.000000  -0.000000
    32  H    0.000000   0.000000   0.000000   0.000000  -0.000000  -0.000000
    33  H    0.000802  -0.030482   0.375761  -0.000000  -0.000000  -0.000000
    34  H    0.004143  -0.033295   0.374068  -0.000000   0.000000   0.000000
    35  H    0.009705  -0.030738   0.373316   0.000000  -0.000000   0.000000
             25         26         27         28         29         30
     1  C    0.000000  -0.000000   0.000000  -0.000000   0.000000  -0.000000
     2  O   -0.000000  -0.000000   0.000000   0.000000  -0.000000  -0.000000
     3  C    0.000000   0.000000  -0.000000   0.000063   0.000000  -0.000000
     4  N   -0.000014  -0.000000   0.000000  -0.000316  -0.000000   0.000000
     5  C    0.000099  -0.000001   0.000000   0.004656  -0.000004   0.000000
     6  O   -0.001534  -0.000057   0.000001  -0.007018   0.000001   0.000000
     7  C   -0.038252   0.003654   0.000295  -0.032140   0.000006  -0.000000
     8  C    0.349002  -0.038946   0.004564   0.005864  -0.000014  -0.000000
     9  C   -0.042115   0.360693  -0.041294   0.000187  -0.000044  -0.000000
    10  C    0.004952  -0.036964   0.341099   0.006088   0.005186  -0.000028
    11  C    0.000229   0.003218  -0.027442  -0.043158  -0.024730   0.000017
    12  C    0.006930   0.000713   0.005990   0.332492  -0.006114  -0.000006
    13  N    0.000004  -0.000107  -0.012025  -0.009650   0.297671   0.004747
    14  C    0.000000  -0.000001   0.002781   0.000149  -0.022607  -0.027657
    15  O    0.000000  -0.000004   0.023602   0.000003   0.002856   0.001885
    16  C    0.000000  -0.000000   0.000505  -0.000011   0.002024   0.348809
    17  N    0.000009  -0.000000   0.000000   0.004603  -0.000034   0.000000
    18  C   -0.000000  -0.000000  -0.000000   0.000188  -0.000001   0.000000
    19  N    0.000000  -0.000000   0.000000  -0.000014  -0.000000  -0.000000
    20  O    0.000000  -0.000000  -0.000000  -0.000018   0.000000  -0.000000
    21  C   -0.000000   0.000000   0.000000   0.000000  -0.000000   0.000000
    22  H   -0.000000  -0.000000   0.000000  -0.000000  -0.000000   0.000000
    23  H    0.000000   0.000000   0.000000   0.000000  -0.000000  -0.000000
    24  H    0.000000  -0.000000  -0.000000  -0.000000   0.000000   0.000000
    25  H    0.587833  -0.005870  -0.000138  -0.000158  -0.000000  -0.000000
    26  H   -0.005870   0.578004  -0.005359   0.000013   0.000003   0.000000
    27  H   -0.000138  -0.005359   0.526068  -0.000134  -0.000155  -0.000018
    28  H   -0.000158   0.000013  -0.000134   0.601822   0.008093  -0.000009
    29  H   -0.000000   0.000003  -0.000155   0.008093   0.400424   0.001482
    30  H   -0.000000   0.000000  -0.000018  -0.000009   0.001482   0.555007
    31  H   -0.000000   0.000000  -0.000013  -0.000003   0.000653  -0.026431
    32  H   -0.000000   0.000000   0.000002   0.000000  -0.000149  -0.021832
    33  H    0.000000   0.000000  -0.000000  -0.000000   0.000000  -0.000000
    34  H    0.000000  -0.000000  -0.000000   0.000000   0.000000  -0.000000
    35  H    0.000000   0.000000  -0.000000  -0.000000   0.000000  -0.000000
             31         32         33         34         35
     1  C    0.000000   0.000000   0.000000   0.000000  -0.000000
     2  O    0.000000  -0.000000  -0.000000  -0.000001  -0.000001
     3  C   -0.000000  -0.000000  -0.000004   0.000087  -0.000102
     4  N   -0.000000   0.000000   0.000001  -0.000015  -0.000002
     5  C    0.000000   0.000000   0.000002   0.000029   0.000061
     6  O    0.000000   0.000000  -0.000000   0.000000   0.000000
     7  C   -0.000000   0.000000  -0.000000   0.000000   0.000000
     8  C   -0.000000  -0.000000   0.000000   0.000000   0.000000
     9  C   -0.000000  -0.000000   0.000000  -0.000000   0.000000
    10  C   -0.000013  -0.000004  -0.000000   0.000000  -0.000000
    11  C   -0.000153  -0.000098   0.000000  -0.000000   0.000000
    12  C    0.000010   0.000004   0.000000   0.000000   0.000000
    13  N    0.001987   0.004815  -0.000000  -0.000000   0.000000
    14  C   -0.024195  -0.020265  -0.000000   0.000000   0.000000
    15  O    0.000725   0.004814   0.000000   0.000000   0.000000
    16  C    0.355370   0.359893   0.000000  -0.000000   0.000000
    17  N    0.000000  -0.000000  -0.000008   0.000102  -0.000221
    18  C    0.000000  -0.000000   0.004113  -0.005396  -0.009687
    19  N    0.000000   0.000000   0.000802   0.004143   0.009705
    20  O    0.000000   0.000000  -0.030482  -0.033295  -0.030738
    21  C   -0.000000   0.000000   0.375761   0.374068   0.373316
    22  H    0.000000   0.000000  -0.000000  -0.000000   0.000000
    23  H    0.000000  -0.000000  -0.000000   0.000000  -0.000000
    24  H   -0.000000  -0.000000  -0.000000   0.000000   0.000000
    25  H   -0.000000  -0.000000   0.000000   0.000000   0.000000
    26  H    0.000000   0.000000   0.000000  -0.000000   0.000000
    27  H   -0.000013   0.000002  -0.000000  -0.000000  -0.000000
    28  H   -0.000003   0.000000  -0.000000   0.000000  -0.000000
    29  H    0.000653  -0.000149   0.000000   0.000000   0.000000
    30  H   -0.026431  -0.021832  -0.000000  -0.000000  -0.000000
    31  H    0.535690  -0.019419  -0.000000  -0.000000  -0.000000
    32  H   -0.019419   0.500379  -0.000000   0.000000   0.000000
    33  H   -0.000000  -0.000000   0.551704  -0.033419  -0.034179
    34  H   -0.000000   0.000000  -0.033419   0.565511  -0.035849
    35  H   -0.000000   0.000000  -0.034179  -0.035849   0.551474
 Mulliken atomic charges:
              1
     1  C   -0.213739
     2  O   -0.464686
     3  C    0.682885
     4  N   -0.495370
     5  C    0.645587
     6  O   -0.536635
     7  C    0.366512
     8  C   -0.177689
     9  C   -0.139950
    10  C   -0.171393
    11  C    0.370836
    12  C   -0.218010
    13  N   -0.715573
    14  C    0.605255
    15  O   -0.486659
    16  C   -0.552292
    17  N   -0.467528
    18  C    0.671790
    19  N   -0.493210
    20  O   -0.463650
    21  C   -0.217049
    22  H    0.166136
    23  H    0.169773
    24  H    0.171445
    25  H    0.139023
    26  H    0.141012
    27  H    0.181669
    28  H    0.128405
    29  H    0.335455
    30  H    0.164036
    31  H    0.175792
    32  H    0.191858
[...]
    95    C    7  px     Val( 2p)     0.78385
    96    C    7  px     Ryd( 3p)     0.00765
    97    C    7  py     Val( 2p)     1.03847
    98    C    7  py     Ryd( 3p)     0.00565
    99    C    7  pz     Val( 2p)     0.99191
   100    C    7  pz     Ryd( 3p)     0.00390
   101    C    7  dxy    Ryd( 3d)     0.00138
   102    C    7  dxz    Ryd( 3d)     0.00179
   103    C    7  dyz    Ryd( 3d)     0.00052
   104    C    7  dx2y2  Ryd( 3d)     0.00145
   105    C    7  dz2    Ryd( 3d)     0.00086

   106    C    8  S      Cor( 1S)     1.99900
   107    C    8  S      Val( 2S)     0.98592
   108    C    8  S      Ryd( 3S)     0.00070
   109    C    8  S      Ryd( 4S)     0.00006
   110    C    8  px     Val( 2p)     1.10192
   111    C    8  px     Ryd( 3p)     0.00454
   112    C    8  py     Val( 2p)     1.07959
   113    C    8  py     Ryd( 3p)     0.00353
   114    C    8  pz     Val( 2p)     0.96527
   115    C    8  pz     Ryd( 3p)     0.00287
   116    C    8  dxy    Ryd( 3d)     0.00082
   117    C    8  dxz    Ryd( 3d)     0.00058
   118    C    8  dyz    Ryd( 3d)     0.00054
   119    C    8  dx2y2  Ryd( 3d)     0.00055
   120    C    8  dz2    Ryd( 3d)     0.00061

   121    C    9  S      Cor( 1S)     1.99916
   122    C    9  S      Val( 2S)     0.96986
   123    C    9  S      Ryd( 3S)     0.00059
   124    C    9  S      Ryd( 4S)     0.00004
   125    C    9  px     Val( 2p)     1.07066
   126    C    9  px     Ryd( 3p)     0.00468
   127    C    9  py     Val( 2p)     1.10249
   128    C    9  py     Ryd( 3p)     0.00399
   129    C    9  pz     Val( 2p)     1.07584
   130    C    9  pz     Ryd( 3p)     0.00344
   131    C    9  dxy    Ryd( 3d)     0.00062
   132    C    9  dxz    Ryd( 3d)     0.00063
   133    C    9  dyz    Ryd( 3d)     0.00063
   134    C    9  dx2y2  Ryd( 3d)     0.00062
   135    C    9  dz2    Ryd( 3d)     0.00043

   136    C   10  S      Cor( 1S)     1.99906
   137    C   10  S      Val( 2S)     0.96701
   138    C   10  S      Ryd( 3S)     0.00073
   139    C   10  S      Ryd( 4S)     0.00004
   140    C   10  px     Val( 2p)     1.21681
   141    C   10  px     Ryd( 3p)     0.00405
   142    C   10  py     Val( 2p)     1.02678
   143    C   10  py     Ryd( 3p)     0.00408
   144    C   10  pz     Val( 2p)     1.02209
   145    C   10  pz     Ryd( 3p)     0.00360
   146    C   10  dxy    Ryd( 3d)     0.00057
   147    C   10  dxz    Ryd( 3d)     0.00052
   148    C   10  dyz    Ryd( 3d)     0.00045
   149    C   10  dx2y2  Ryd( 3d)     0.00072
   150    C   10  dz2    Ryd( 3d)     0.00052

   151    C   11  S      Cor( 1S)     1.99898
   152    C   11  S      Val( 2S)     0.85286
   153    C   11  S      Ryd( 3S)     0.00116
   154    C   11  S      Ryd( 4S)     0.00010
   155    C   11  px     Val( 2p)     1.02170
   156    C   11  px     Ryd( 3p)     0.00711
   157    C   11  py     Val( 2p)     0.92616
   158    C   11  py     Ryd( 3p)     0.00369
   159    C   11  pz     Val( 2p)     0.97169
   160    C   11  pz     Ryd( 3p)     0.00320
   161    C   11  dxy    Ryd( 3d)     0.00114
   162    C   11  dxz    Ryd( 3d)     0.00102
   163    C   11  dyz    Ryd( 3d)     0.00064
   164    C   11  dx2y2  Ryd( 3d)     0.00086
   165    C   11  dz2    Ryd( 3d)     0.00094

   166    C   12  S      Cor( 1S)     1.99896
   167    C   12  S      Val( 2S)     0.96364
   168    C   12  S      Ryd( 3S)     0.00091
   169    C   12  S      Ryd( 4S)     0.00006
   170    C   12  px     Val( 2p)     1.05687
   171    C   12  px     Ryd( 3p)     0.00387
   172    C   12  py     Val( 2p)     1.13302
   173    C   12  py     Ryd( 3p)     0.00445
   174    C   12  pz     Val( 2p)     1.10090
   175    C   12  pz     Ryd( 3p)     0.00352
   176    C   12  dxy    Ryd( 3d)     0.00050
   177    C   12  dxz    Ryd( 3d)     0.00058
   178    C   12  dyz    Ryd( 3d)     0.00065
   179    C   12  dx2y2  Ryd( 3d)     0.00061
   180    C   12  dz2    Ryd( 3d)     0.00048

   181    N   13  S      Cor( 1S)     1.99933
   182    N   13  S      Val( 2S)     1.27080
   183    N   13  S      Ryd( 3S)     0.00073
   184    N   13  S      Ryd( 4S)     0.00002
   185    N   13  px     Val( 2p)     1.35631
   186    N   13  px     Ryd( 3p)     0.00182
   187    N   13  py     Val( 2p)     1.41251
   188    N   13  py     Ryd( 3p)     0.00173
   189    N   13  pz     Val( 2p)     1.47695
   190    N   13  pz     Ryd( 3p)     0.00192
   191    N   13  dxy    Ryd( 3d)     0.00067
   192    N   13  dxz    Ryd( 3d)     0.00063
   193    N   13  dyz    Ryd( 3d)     0.00067
   194    N   13  dx2y2  Ryd( 3d)     0.00057
   195    N   13  dz2    Ryd( 3d)     0.00033

   196    C   14  S      Cor( 1S)     1.99942
   197    C   14  S      Val( 2S)     0.78879
   198    C   14  S      Ryd( 3S)     0.00426
   199    C   14  S      Ryd( 4S)     0.00035
   200    C   14  px     Val( 2p)     0.77825
   201    C   14  px     Ryd( 3p)     0.01029
   202    C   14  py     Val( 2p)     0.88449
   203    C   14  py     Ryd( 3p)     0.00861
   204    C   14  pz     Val( 2p)     0.82396
   205    C   14  pz     Ryd( 3p)     0.00693
   206    C   14  dxy    Ryd( 3d)     0.00143
   207    C   14  dxz    Ryd( 3d)     0.00149
   208    C   14  dyz    Ryd( 3d)     0.00107
   209    C   14  dx2y2  Ryd( 3d)     0.00260
   210    C   14  dz2    Ryd( 3d)     0.00127

   211    O   15  S      Cor( 1S)     1.99979
   212    O   15  S      Val( 2S)     1.70086
   213    O   15  S      Ryd( 3S)     0.00056
   214    O   15  S      Ryd( 4S)     0.00007
   215    O   15  px     Val( 2p)     1.71804
   216    O   15  px     Ryd( 3p)     0.00130
   217    O   15  py     Val( 2p)     1.63321
   218    O   15  py     Ryd( 3p)     0.00115
   219    O   15  pz     Val( 2p)     1.48323
   220    O   15  pz     Ryd( 3p)     0.00070
   221    O   15  dxy    Ryd( 3d)     0.00324
   222    O   15  dxz    Ryd( 3d)     0.00315
   223    O   15  dyz    Ryd( 3d)     0.00225
   224    O   15  dx2y2  Ryd( 3d)     0.00328
   225    O   15  dz2    Ryd( 3d)     0.00276

   226    C   16  S      Cor( 1S)     1.99937
   227    C   16  S      Val( 2S)     1.13615
   228    C   16  S      Ryd( 3S)     0.00034
   229    C   16  S      Ryd( 4S)     0.00001
   230    C   16  px     Val( 2p)     1.25624
   231    C   16  px     Ryd( 3p)     0.00210
   232    C   16  py     Val( 2p)     1.15150
   233    C   16  py     Ryd( 3p)     0.00094
   234    C   16  pz     Val( 2p)     1.22047
   235    C   16  pz     Ryd( 3p)     0.00080
   236    C   16  dxy    Ryd( 3d)     0.00054
   237    C   16  dxz    Ryd( 3d)     0.00097
   238    C   16  dyz    Ryd( 3d)     0.00089
   239    C   16  dx2y2  Ryd( 3d)     0.00053
   240    C   16  dz2    Ryd( 3d)     0.00016

   241    N   17  S      Cor( 1S)     1.99925
   242    N   17  S      Val( 2S)     1.37937
   243    N   17  S      Ryd( 3S)     0.00082
   244    N   17  S      Ryd( 4S)     0.00007
   245    N   17  px     Val( 2p)     1.60533
   246    N   17  px     Ryd( 3p)     0.00273
   247    N   17  py     Val( 2p)     1.26649
   248    N   17  py     Ryd( 3p)     0.00260
   249    N   17  pz     Val( 2p)     1.39573
   250    N   17  pz     Ryd( 3p)     0.00238
   251    N   17  dxy    Ryd( 3d)     0.00325
   252    N   17  dxz    Ryd( 3d)     0.00316
   253    N   17  dyz    Ryd( 3d)     0.00119
   254    N   17  dx2y2  Ryd( 3d)     0.00269
   255    N   17  dz2    Ryd( 3d)     0.00224

   256    C   18  S      Cor( 1S)     1.99922
   257    C   18  S      Val( 2S)     0.74014
   258    C   18  S      Ryd( 3S)     0.00252
   259    C   18  S      Ryd( 4S)     0.00037
   260    C   18  px     Val( 2p)     0.86380
   261    C   18  px     Ryd( 3p)     0.01741
   262    C   18  py     Val( 2p)     0.75015
   263    C   18  py     Ryd( 3p)     0.00514
   264    C   18  pz     Val( 2p)     0.84681
   265    C   18  pz     Ryd( 3p)     0.00215
   266    C   18  dxy    Ryd( 3d)     0.00206
   267    C   18  dxz    Ryd( 3d)     0.00187
   268    C   18  dyz    Ryd( 3d)     0.00218
   269    C   18  dx2y2  Ryd( 3d)     0.00256
   270    C   18  dz2    Ryd( 3d)     0.00103

   271    N   19  S      Cor( 1S)     1.99926
   272    N   19  S      Val( 2S)     1.38520
   273    N   19  S      Ryd( 3S)     0.00085
   274    N   19  S      Ryd( 4S)     0.00006
   275    N   19  px     Val( 2p)     1.45204
   276    N   19  px     Ryd( 3p)     0.00279
   277    N   19  py     Val( 2p)     1.44088
   278    N   19  py     Ryd( 3p)     0.00274
   279    N   19  pz     Val( 2p)     1.36858
   280    N   19  pz     Ryd( 3p)     0.00271
   281    N   19  dxy    Ryd( 3d)     0.00301
   282    N   19  dxz    Ryd( 3d)     0.00249
   283    N   19  dyz    Ryd( 3d)     0.00203
   284    N   19  dx2y2  Ryd( 3d)     0.00373
   285    N   19  dz2    Ryd( 3d)     0.00180

   286    O   20  S      Cor( 1S)     1.99972
   287    O   20  S      Val( 2S)     1.59548
   288    O   20  S      Ryd( 3S)     0.00143
   289    O   20  S      Ryd( 4S)     0.00008
   290    O   20  px     Val( 2p)     1.70127
   291    O   20  px     Ryd( 3p)     0.00159
   292    O   20  py     Val( 2p)     1.43501
   293    O   20  py     Ryd( 3p)     0.00112
   294    O   20  pz     Val( 2p)     1.77861
   295    O   20  pz     Ryd( 3p)     0.00203
   296    O   20  dxy    Ryd( 3d)     0.00127
   297    O   20  dxz    Ryd( 3d)     0.00146
   298    O   20  dyz    Ryd( 3d)     0.00057
   299    O   20  dx2y2  Ryd( 3d)     0.00125
   300    O   20  dz2    Ryd( 3d)     0.00100

   301    C   21  S      Cor( 1S)     1.99941
   302    C   21  S      Val( 2S)     1.10704
   303    C   21  S      Ryd( 3S)     0.00144
   304    C   21  S      Ryd( 4S)     0.00003
   305    C   21  px     Val( 2p)     0.98339
   306    C   21  px     Ryd( 3p)     0.00302
   307    C   21  py     Val( 2p)     0.97854
   308    C   21  py     Ryd( 3p)     0.00213
   309    C   21  pz     Val( 2p)     1.23471
   310    C   21  pz     Ryd( 3p)     0.00058
   311    C   21  dxy    Ryd( 3d)     0.00189
   312    C   21  dxz    Ryd( 3d)     0.00147
   313    C   21  dyz    Ryd( 3d)     0.00095
   314    C   21  dx2y2  Ryd( 3d)     0.00105
   315    C   21  dz2    Ryd( 3d)     0.00097

   316    H   22  S      Val( 1S)     0.78621
   317    H   22  S      Ryd( 2S)     0.00068

   318    H   23  S      Val( 1S)     0.78659
   319    H   23  S      Ryd( 2S)     0.00199

   320    H   24  S      Val( 1S)     0.78742
   321    H   24  S      Ryd( 2S)     0.00199

   322    H   25  S      Val( 1S)     0.73473
   323    H   25  S      Ryd( 2S)     0.00088

   324    H   26  S      Val( 1S)     0.74718
   325    H   26  S      Ryd( 2S)     0.00068

   326    H   27  S      Val( 1S)     0.72216
   327    H   27  S      Ryd( 2S)     0.00164

   328    H   28  S      Val( 1S)     0.73378
   329    H   28  S      Ryd( 2S)     0.00110

   330    H   29  S      Val( 1S)     0.55841
   331    H   29  S      Ryd( 2S)     0.00157

   332    H   30  S      Val( 1S)     0.76510
   333    H   30  S      Ryd( 2S)     0.00072

   334    H   31  S      Val( 1S)     0.72541
   335    H   31  S      Ryd( 2S)     0.00078

   336    H   32  S      Val( 1S)     0.72579
   337    H   32  S      Ryd( 2S)     0.00069

   338    H   33  S      Val( 1S)     0.78782
   339    H   33  S      Ryd( 2S)     0.00070

   340    H   34  S      Val( 1S)     0.77991
   341    H   34  S      Ryd( 2S)     0.00152

   342    H   35  S      Val( 1S)     0.78188
   343    H   35  S      Ryd( 2S)     0.00154

 WARNING:  1 low occupancy (<1.9990e) core orbital  found on  C    7
           1 low occupancy (<1.9990e) core orbital  found on  C    8
           1 low occupancy (<1.9990e) core orbital  found on  C   11
           1 low occupancy (<1.9990e) core orbital  found on  C   12


 Summary of Natural Population Analysis:                  
                                                          
                                       Natural Population 
                Natural  -----------------------------------------------
    Atom  No    Charge         Core      Valence    Rydberg      Total
 -----------------------------------------------------------------------
      C    1   -0.31435      1.99942     4.30147    0.01346     6.31435
      O    2   -0.51991      1.99972     6.50811    0.01208     8.51991
      C    3    0.70649      1.99922     3.25711    0.03718     5.29351
      N    4   -0.61266      1.99928     5.59294    0.02044     7.61266
      C    5    0.62658      1.99916     3.33773    0.03653     5.37342
      O    6   -0.51057      1.99968     6.49881    0.01208     8.51057
      C    7    0.32497      1.99874     3.65194    0.02435     5.67503
      C    8   -0.14652      1.99900     4.13270    0.01482     6.14652
      C    9   -0.23367      1.99916     4.21885    0.01567     6.23367
      C   10   -0.24702      1.99906     4.23269    0.01526     6.24702
      C   11    0.20875      1.99898     3.77241    0.01986     5.79125
      C   12   -0.26901      1.99896     4.25443    0.01562     6.26901
      N   13   -0.52498      1.99933     5.51656    0.00909     7.52498
      C   14    0.68677      1.99942     3.27549    0.03832     5.31323
      O   15   -0.55358      1.99979     6.53534    0.01845     8.55358
      C   16   -0.77102      1.99937     4.76435    0.00729     6.77102
      N   17   -0.66731      1.99925     5.64692    0.02114     7.66731
      C   18    0.76259      1.99922     3.20091    0.03728     5.23741
      N   19   -0.66818      1.99926     5.64670    0.02222     7.66818
      O   20   -0.52189      1.99972     6.51038    0.01180     8.52189
      C   21   -0.31661      1.99941     4.30368    0.01352     6.31661
      H   22    0.21312      0.00000     0.78621    0.00068     0.78688
      H   23    0.21142      0.00000     0.78659    0.00199     0.78858
      H   24    0.21058      0.00000     0.78742    0.00199     0.78942
      H   25    0.26439      0.00000     0.73473    0.00088     0.73561
      H   26    0.25214      0.00000     0.74718    0.00068     0.74786
      H   27    0.27620      0.00000     0.72216    0.00164     0.72380
      H   28    0.26512      0.00000     0.73378    0.00110     0.73488
      H   29    0.44002      0.00000     0.55841    0.00157     0.55998
      H   30    0.23417      0.00000     0.76510    0.00072     0.76583
      H   31    0.27380      0.00000     0.72541    0.00078     0.72620
      H   32    0.27351      0.00000     0.72579    0.00069     0.72649
      H   33    0.21148      0.00000     0.78782    0.00070     0.78852
      H   34    0.21856      0.00000     0.77991    0.00152     0.78144
      H   35    0.21658      0.00000     0.78188    0.00154     0.78342
 =======================================================================
   * Total *    0.00000     41.98514   109.58192    0.43294   152.00000

                                 Natural Population      
 --------------------------------------------------------
   Core                      41.98514 ( 99.9646% of  42)
   Valence                  109.58192 ( 99.6199% of 110)
   Natural Minimal Basis    151.56706 ( 99.7152% of 152)
   Natural Rydberg Basis      0.43294 (  0.2848% of 152)
 --------------------------------------------------------

    Atom  No          Natural Electron Configuration
 ----------------------------------------------------------------------------
      C    1      [core]2S( 1.11)2p( 3.20)3p( 0.01)3d( 0.01)
      O    2      [core]2S( 1.59)2p( 4.91)3p( 0.01)3d( 0.01)
      C    3      [core]2S( 0.73)2p( 2.53)3p( 0.03)3d( 0.01)
      N    4      [core]2S( 1.39)2p( 4.21)3p( 0.01)3d( 0.01)
      C    5      [core]2S( 0.72)2p( 2.62)3p( 0.03)3d( 0.01)
      O    6      [core]2S( 1.56)2p( 4.93)3p( 0.01)3d( 0.01)
      C    7      [core]2S( 0.84)2p( 2.81)3p( 0.02)3d( 0.01)
      C    8      [core]2S( 0.99)2p( 3.15)3p( 0.01)
      C    9      [core]2S( 0.97)2p( 3.25)3p( 0.01)
      C   10      [core]2S( 0.97)2p( 3.27)3p( 0.01)
      C   11      [core]2S( 0.85)2p( 2.92)3p( 0.01)
      C   12      [core]2S( 0.96)2p( 3.29)3p( 0.01)
      N   13      [core]2S( 1.27)2p( 4.25)3p( 0.01)
      C   14      [core]2S( 0.79)2p( 2.49)3p( 0.03)3d( 0.01)
      O   15      [core]2S( 1.70)2p( 4.83)3d( 0.01)
      C   16      [core]2S( 1.14)2p( 3.63)
      N   17      [core]2S( 1.38)2p( 4.27)3p( 0.01)3d( 0.01)
      C   18      [core]2S( 0.74)2p( 2.46)3p( 0.02)3d( 0.01)
      N   19      [core]2S( 1.39)2p( 4.26)3p( 0.01)3d( 0.01)
      O   20      [core]2S( 1.60)2p( 4.91)3d( 0.01)
      C   21      [core]2S( 1.11)2p( 3.20)3p( 0.01)3d( 0.01)
      H   22            1S( 0.79)
      H   23            1S( 0.79)
      H   24            1S( 0.79)
      H   25            1S( 0.73)
      H   26            1S( 0.75)
      H   27            1S( 0.72)
      H   28            1S( 0.73)
      H   29            1S( 0.56)
      H   30            1S( 0.77)
      H   31            1S( 0.73)
      H   32            1S( 0.73)
      H   33            1S( 0.79)
      H   34            1S( 0.78)
      H   35            1S( 0.78)


 NBO analysis skipped by request.
 Leave Link  607 at Wed Sep 29 04:54:42 2021, MaxMem= 1342177280 cpu:      24.7
 (Enter /sw/target/amd/app/gaussian/Gaussian09RevA.02_gcc-4.9.2/g09/l9999.exe)
 1\1\GINC-HERMITE\SP\RTD-B3LYP-FC\6-31G(d)\C13H14N4O4\JSCHLEINITZ\29-Se
 p-2021\0\\#p TD(NStates=10, Root=1) b3lyp/6-31G* volume pop=NPA densit
 y=current Geom=AllCheck Guess=Read\\COc1nc(Oc2cccc(c2)NC(=O)C)nc(n1)OC
 _conf_0\\0,1\C,0,3.0495376586,-8.601047087,-1.4331241582\O,0,1.8529891
 105,-8.1550003764,-0.7762315311\C,0,1.2887557453,-7.0338889346,-1.2226
 702391\N,0,1.8450606343,-6.3860293298,-2.2435498902\C,0,1.1813683699,-
 5.2749703929,-2.5920721266\O,0,1.7612213985,-4.621652138,-3.6150594606
 \C,0,1.2437592504,-3.4333161966,-4.1384729147\C,0,2.1349635897,-2.3703
 262775,-4.2505414056\C,0,1.6937115557,-1.1979975181,-4.8631676328\C,0,
 0.3952608383,-1.0747190226,-5.3550756978\C,0,-0.4862358475,-2.16080822
 98,-5.2336352193\C,0,-0.0528586456,-3.3506713757,-4.6303212634\N,0,-1.
 8199728696,-2.1314990508,-5.6930807692\C,0,-2.4927321532,-1.1173955613
 ,-6.342297544\O,0,-1.992534658,-0.0434151189,-6.6421545352\C,0,-3.9491
 821774,-1.4320753471,-6.6584637407\N,0,0.0752051819,-4.8019296743,-2.0
 371918534\C,0,-0.3725931997,-5.5576081502,-1.0206549198\N,0,0.17758023
 04,-6.6770373771,-0.5601357611\O,0,-1.4858413849,-5.0949615009,-0.4522
 081199\C,0,-2.0225175842,-5.8403841572,0.6513182272\H,0,3.332867132,-9
 .5150475011,-0.9100631788\H,0,3.8394925553,-7.8501085349,-1.3525909693
 \H,0,2.8595595501,-8.8051180891,-2.4899486167\H,0,3.1448364103,-2.4752
 840156,-3.8691169297\H,0,2.3753515438,-0.3576896526,-4.9600028735\H,0,
 0.0553812076,-0.1642951639,-5.8266984737\H,0,-0.7247495828,-4.19550204
 87,-4.526002177\H,0,-2.3536218187,-2.9668640429,-5.4971159357\H,0,-4.2
 429449356,-2.4654569919,-6.4486019362\H,0,-4.1290977286,-1.2183481414,
 -7.7157453446\H,0,-4.5884035492,-0.7602974488,-6.076017531\H,0,-2.9120
 678702,-5.288492914,0.957094944\H,0,-1.3016411538,-5.8932650554,1.4710
 977718\H,0,-2.2852156229,-6.8557728957,0.3435771152\\Version=AM64L-G09
 RevA.02\State=1-A\HF=-1023.7430471\RMSD=4.540e-09\Dipole=-1.4988673,1.
 87037,-2.3823665\Quadrupole=13.0831384,-9.8630595,-3.220079,1.7658325,
 5.668828,3.4401935\PG=C01 [X(C13H14N4O4)]\\@


 WE HAVE SEEN THAT MAN ON THE AVERAGE DOES NOT LIVE ABOVE
 TWO-AND-TWENTY YEARS.  DURING THESE TWO AND TWENTY
 YEARS HE IS LIABLE TO TWO AND TWENTY THOUSAND EVILS,
 MANY OF WHICH ARE INCURABLE.  YET EVEN IN THIS DREADFUL STATE
 MEN STILL STRUT AND POSE ON THE STAGE OF LIFE.
 THEY MAKE LOVE AT THE RISK OF DESTRUCTION,
 INTRIGUE, CARRY ON WAR, AND FORM PROJECTS, JUST AS IF THEY
 WERE TO LIVE IN LUXURY AND HAPPINESS FOR A THOUSAND
 AGES.

                                              -- VOLTAIRE
 Job cpu time:  0 days  6 hours  3 minutes 45.8 seconds.
 File lengths (MBytes):  RWF=    392 Int=      0 D2E=      0 Chk=     53 Scr=      1
 Normal termination of Gaussian 09 at Wed Sep 29 04:54:46 2021.
