 Entering Gaussian System, Link 0=g09
 Input=C13H12O_ab52_conf_0.com
 Output=C13H12O_ab52_conf_0.log
 Initial command:
 /sw/target/amd/app/gaussian/Gaussian09RevA.02_gcc-4.9.2/g09/l1.exe /home/jschleinitz/gaussian/Gau-3298127.inp -scrdir=/home/jschleinitz/gaussian/
 Entering Link 1 = /sw/target/amd/app/gaussian/Gaussian09RevA.02_gcc-4.9.2/g09/l1.exe PID=   3298129.
  
 Copyright (c) 1988,1990,1992,1993,1995,1998,2003,2009, Gaussian, Inc.
                  All Rights Reserved.
  
 This is part of the Gaussian(R) 09 program.  It is based on
 the Gaussian(R) 03 system (copyright 2003, Gaussian, Inc.),
 the Gaussian(R) 98 system (copyright 1998, Gaussian, Inc.),
 the Gaussian(R) 94 system (copyright 1995, Gaussian, Inc.),
 the Gaussian 92(TM) system (copyright 1992, Gaussian, Inc.),
 the Gaussian 90(TM) system (copyright 1990, Gaussian, Inc.),
 the Gaussian 88(TM) system (copyright 1988, Gaussian, Inc.),
 the Gaussian 86(TM) system (copyright 1986, Carnegie Mellon
 University), and the Gaussian 82(TM) system (copyright 1983,
 Carnegie Mellon University). Gaussian is a federally registered
 trademark of Gaussian, Inc.
  
 This software contains proprietary and confidential information,
 including trade secrets, belonging to Gaussian, Inc.
  
 This software is provided under written license and may be
 used, copied, transmitted, or stored only in accord with that
 written license.
  
 The following legend is applicable only to US Government
 contracts under FAR:
  
                    RESTRICTED RIGHTS LEGEND
  
 Use, reproduction and disclosure by the US Government is
 subject to restrictions as set forth in subparagraphs (a)
 and (c) of the Commercial Computer Software - Restricted
 Rights clause in FAR 52.227-19.
  
 Gaussian, Inc.
 340 Quinnipiac St., Bldg. 40, Wallingford CT 06492
  
  
 ---------------------------------------------------------------
 Warning -- This program may not be used in any manner that
 competes with the business of Gaussian, Inc. or will provide
 assistance to any competitor of Gaussian, Inc.  The licensee
 of this program is prohibited from giving any competitor of
 Gaussian, Inc. access to this program.  By using this program,
 the user acknowledges that Gaussian, Inc. is engaged in the
 business of creating and licensing software in the field of
 computational chemistry and represents and warrants to the
 licensee that it is not a competitor of Gaussian, Inc. and that
 it will not use this program in any manner prohibited above.
 ---------------------------------------------------------------
  

 Cite this work as:
 Gaussian 09, Revision A.02,
 M. J. Frisch, G. W. Trucks, H. B. Schlegel, G. E. Scuseria, 
 M. A. Robb, J. R. Cheeseman, G. Scalmani, V. Barone, B. Mennucci, 
 G. A. Petersson, H. Nakatsuji, M. Caricato, X. Li, H. P. Hratchian, 
 A. F. Izmaylov, J. Bloino, G. Zheng, J. L. Sonnenberg, M. Hada, 
 M. Ehara, K. Toyota, R. Fukuda, J. Hasegawa, M. Ishida, T. Nakajima, 
 Y. Honda, O. Kitao, H. Nakai, T. Vreven, J. A. Montgomery, Jr., 
 J. E. Peralta, F. Ogliaro, M. Bearpark, J. J. Heyd, E. Brothers, 
 K. N. Kudin, V. N. Staroverov, R. Kobayashi, J. Normand, 
 K. Raghavachari, A. Rendell, J. C. Burant, S. S. Iyengar, J. Tomasi, 
 M. Cossi, N. Rega, J. M. Millam, M. Klene, J. E. Knox, J. B. Cross, 
 V. Bakken, C. Adamo, J. Jaramillo, R. Gomperts, R. E. Stratmann, 
 O. Yazyev, A. J. Austin, R. Cammi, C. Pomelli, J. W. Ochterski, 
 R. L. Martin, K. Morokuma, V. G. Zakrzewski, G. A. Voth, 
 P. Salvador, J. J. Dannenberg, S. Dapprich, A. D. Daniels, 
 O. Farkas, J. B. Foresman, J. V. Ortiz, J. Cioslowski, 
 and D. J. Fox, Gaussian, Inc., Wallingford CT, 2009.
 
 ******************************************
 Gaussian 09:  AM64L-G09RevA.02 11-Jun-2009
                28-Sep-2021 
 ******************************************
 %nproc=4
 Will use up to    4 processors via shared memory.
 %mem=8gb
 %chk=C13H12O_ab52_conf_0.chk
 -----------------------------------
 #p opt b3lyp/6-31G* scf=(xqc,tight)
 -----------------------------------
 1/14=-1,18=20,19=15,26=3,38=1/1,3;
 2/9=110,12=2,17=6,18=5,40=1/2;
 3/5=1,6=6,7=1,11=2,16=1,25=1,30=1,71=1,74=-5/1,2,3;
 4//1;
 5/5=2,8=3,13=1,32=2,38=5/2,8;
 6/7=2,8=2,9=2,10=2,28=1/1;
 7//1,2,3,16;
 1/14=-1,18=20,19=15/3(2);
 2/9=110/2;
 99//99;
 2/9=110/2;
 3/5=1,6=6,7=1,11=2,16=1,25=1,30=1,71=1,74=-5/1,2,3;
 4/5=5,16=3/1;
 5/5=2,8=3,13=1,32=2,38=5/2,8;
 7//1,2,3,16;
 1/14=-1,18=20,19=15/3(-5);
 2/9=110/2;
 6/7=2,8=2,9=2,10=2,19=2,28=1/1;
 99/9=1/99;
 Leave Link    1 at Tue Sep 28 15:18:10 2021, MaxMem= 1073741824 cpu:       0.1
 (Enter /sw/target/amd/app/gaussian/Gaussian09RevA.02_gcc-4.9.2/g09/l101.exe)
 ---------------------------
 COc1ccc(cc1)c1ccccc1_conf_0
 ---------------------------
 Symbolic Z-matrix:
 Charge =  0 Multiplicity = 1
 C                     0.9025    0.15427   0.16709 
 O                     2.2999    0.37587   0.02449 
 C                     3.00501   0.62313   1.16873 
 C                     2.48666   0.69045   2.45683 
 C                     3.32702   0.97145   3.54508 
 C                     4.71063   1.17665   3.38354 
 C                     5.21069   1.08927   2.07371 
 C                     4.37187   0.82506   0.98363 
 C                     5.59373   1.47556   4.53961 
 C                     5.33272   0.95864   5.82344 
 C                     6.15636   1.25094   6.91554 
 C                     7.27648   2.05822   6.74958 
 C                     7.56681   2.57703   5.49228 
 C                     6.73229   2.29434   4.40576 
 H                     0.48408   0.00344  -0.8328 
 H                     0.40413   1.02479   0.60667 
 H                     0.70682  -0.75098   0.75144 
 H                     1.43126   0.53795   2.65814 
 H                     2.87146   1.0423    4.53045 
 H                     6.27267   1.21647   1.87519 
 H                     4.79243   0.77412  -0.0177 
 H                     4.48068   0.3041    5.99211 
 H                     5.92227   0.84203   7.895 
 H                     7.92007   2.2821    7.59543 
 H                     8.44075   3.20817   5.35339 
 H                     6.98143   2.74049   3.44559 
 
 NAtoms=     26 NQM=     26 NQMF=      0 NMic=      0 NMicF=      0 NTot=     26.
                    Isotopes and Nuclear Properties:
 (Nuclear quadrupole moments (NQMom) in fm**2, nuclear magnetic moments (NMagM)
  in nuclear magnetons)

  Atom         1           2           3           4           5           6           7           8           9          10
 IAtWgt=          12          16          12          12          12          12          12          12          12          12
 AtmWgt=  12.0000000  15.9949146  12.0000000  12.0000000  12.0000000  12.0000000  12.0000000  12.0000000  12.0000000  12.0000000
 NucSpn=           0           0           0           0           0           0           0           0           0           0
 AtZEff=   0.0000000   0.0000000   0.0000000   0.0000000   0.0000000   0.0000000   0.0000000   0.0000000   0.0000000   0.0000000
 NQMom=    0.0000000   0.0000000   0.0000000   0.0000000   0.0000000   0.0000000   0.0000000   0.0000000   0.0000000   0.0000000
 NMagM=    0.0000000   0.0000000   0.0000000   0.0000000   0.0000000   0.0000000   0.0000000   0.0000000   0.0000000   0.0000000

  Atom        11          12          13          14          15          16          17          18          19          20
 IAtWgt=          12          12          12          12           1           1           1           1           1           1
 AtmWgt=  12.0000000  12.0000000  12.0000000  12.0000000   1.0078250   1.0078250   1.0078250   1.0078250   1.0078250   1.0078250
 NucSpn=           0           0           0           0           1           1           1           1           1           1
 AtZEff=   0.0000000   0.0000000   0.0000000   0.0000000   0.0000000   0.0000000   0.0000000   0.0000000   0.0000000   0.0000000
 NQMom=    0.0000000   0.0000000   0.0000000   0.0000000   0.0000000   0.0000000   0.0000000   0.0000000   0.0000000   0.0000000
 NMagM=    0.0000000   0.0000000   0.0000000   0.0000000   2.7928460   2.7928460   2.7928460   2.7928460   2.7928460   2.7928460

  Atom        21          22          23          24          25          26
 IAtWgt=           1           1           1           1           1           1
 AtmWgt=   1.0078250   1.0078250   1.0078250   1.0078250   1.0078250   1.0078250
 NucSpn=           1           1           1           1           1           1
 AtZEff=   0.0000000   0.0000000   0.0000000   0.0000000   0.0000000   0.0000000
 NQMom=    0.0000000   0.0000000   0.0000000   0.0000000   0.0000000   0.0000000
 NMagM=    2.7928460   2.7928460   2.7928460   2.7928460   2.7928460   2.7928460
 Leave Link  101 at Tue Sep 28 15:18:10 2021, MaxMem= 1073741824 cpu:       0.2
 (Enter /sw/target/amd/app/gaussian/Gaussian09RevA.02_gcc-4.9.2/g09/l103.exe)

 GradGradGradGradGradGradGradGradGradGradGradGradGradGradGradGradGradGrad
 Berny optimization.
 Initialization pass.
                           ----------------------------
                           !    Initial Parameters    !
                           ! (Angstroms and Degrees)  !
 --------------------------                            --------------------------
 ! Name  Definition              Value          Derivative Info.                !
 --------------------------------------------------------------------------------
 ! R1    R(1,2)                  1.422          estimate D2E/DX2                !
 ! R2    R(1,15)                 1.0943         estimate D2E/DX2                !
 ! R3    R(1,16)                 1.0952         estimate D2E/DX2                !
 ! R4    R(1,17)                 1.0951         estimate D2E/DX2                !
 ! R5    R(2,3)                  1.3666         estimate D2E/DX2                !
 ! R6    R(3,4)                  1.3901         estimate D2E/DX2                !
 ! R7    R(3,8)                  1.394          estimate D2E/DX2                !
 ! R8    R(4,5)                  1.4034         estimate D2E/DX2                !
 ! R9    R(4,18)                 1.0852         estimate D2E/DX2                !
 ! R10   R(5,6)                  1.408          estimate D2E/DX2                !
 ! R11   R(5,19)                 1.0879         estimate D2E/DX2                !
 ! R12   R(6,7)                  1.4048         estimate D2E/DX2                !
 ! R13   R(6,9)                  1.4852         estimate D2E/DX2                !
 ! R14   R(7,8)                  1.4006         estimate D2E/DX2                !
 ! R15   R(7,20)                 1.0878         estimate D2E/DX2                !
 ! R16   R(8,21)                 1.0873         estimate D2E/DX2                !
 ! R17   R(9,10)                 1.4084         estimate D2E/DX2                !
 ! R18   R(9,14)                 1.4088         estimate D2E/DX2                !
 ! R19   R(10,11)                1.3988         estimate D2E/DX2                !
 ! R20   R(10,22)                1.0876         estimate D2E/DX2                !
 ! R21   R(11,12)                1.3907         estimate D2E/DX2                !
 ! R22   R(11,23)                1.0869         estimate D2E/DX2                !
 ! R23   R(12,13)                1.3908         estimate D2E/DX2                !
 ! R24   R(12,24)                1.0862         estimate D2E/DX2                !
 ! R25   R(13,14)                1.3989         estimate D2E/DX2                !
 ! R26   R(13,25)                1.0869         estimate D2E/DX2                !
 ! R27   R(14,26)                1.0877         estimate D2E/DX2                !
 ! A1    A(2,1,15)             107.7925         estimate D2E/DX2                !
 ! A2    A(2,1,16)             111.3192         estimate D2E/DX2                !
 ! A3    A(2,1,17)             110.9721         estimate D2E/DX2                !
 ! A4    A(15,1,16)            107.5957         estimate D2E/DX2                !
 ! A5    A(15,1,17)            107.7763         estimate D2E/DX2                !
 ! A6    A(16,1,17)            111.1973         estimate D2E/DX2                !
 ! A7    A(1,2,3)              116.8242         estimate D2E/DX2                !
 ! A8    A(2,3,4)              126.3141         estimate D2E/DX2                !
 ! A9    A(2,3,8)              114.8936         estimate D2E/DX2                !
 ! A10   A(4,3,8)              118.7921         estimate D2E/DX2                !
 ! A11   A(3,4,5)              120.3285         estimate D2E/DX2                !
 ! A12   A(3,4,18)             121.8526         estimate D2E/DX2                !
 ! A13   A(5,4,18)             117.8172         estimate D2E/DX2                !
 ! A14   A(4,5,6)              121.9134         estimate D2E/DX2                !
 ! A15   A(4,5,19)             117.6887         estimate D2E/DX2                !
 ! A16   A(6,5,19)             120.3917         estimate D2E/DX2                !
 ! A17   A(5,6,7)              116.5967         estimate D2E/DX2                !
 ! A18   A(5,6,9)              121.6225         estimate D2E/DX2                !
 ! A19   A(7,6,9)              121.7803         estimate D2E/DX2                !
 ! A20   A(6,7,8)              121.6168         estimate D2E/DX2                !
 ! A21   A(6,7,20)             120.6906         estimate D2E/DX2                !
 ! A22   A(8,7,20)             117.69           estimate D2E/DX2                !
 ! A23   A(3,8,7)              120.7443         estimate D2E/DX2                !
 ! A24   A(3,8,21)             119.6544         estimate D2E/DX2                !
 ! A25   A(7,8,21)             119.6011         estimate D2E/DX2                !
 ! A26   A(6,9,10)             121.7023         estimate D2E/DX2                !
 ! A27   A(6,9,14)             121.5725         estimate D2E/DX2                !
 ! A28   A(10,9,14)            116.7249         estimate D2E/DX2                !
 ! A29   A(9,10,11)            121.7282         estimate D2E/DX2                !
 ! A30   A(9,10,22)            120.4937         estimate D2E/DX2                !
 ! A31   A(11,10,22)           117.7746         estimate D2E/DX2                !
 ! A32   A(10,11,12)           120.16           estimate D2E/DX2                !
 ! A33   A(10,11,23)           119.8777         estimate D2E/DX2                !
 ! A34   A(12,11,23)           119.9617         estimate D2E/DX2                !
 ! A35   A(11,12,13)           119.5109         estimate D2E/DX2                !
 ! A36   A(11,12,24)           120.2627         estimate D2E/DX2                !
 ! A37   A(13,12,24)           120.2264         estimate D2E/DX2                !
 ! A38   A(12,13,14)           120.1482         estimate D2E/DX2                !
 ! A39   A(12,13,25)           119.9988         estimate D2E/DX2                !
 ! A40   A(14,13,25)           119.8521         estimate D2E/DX2                !
 ! A41   A(9,14,13)            121.7218         estimate D2E/DX2                !
 ! A42   A(9,14,26)            120.4907         estimate D2E/DX2                !
 ! A43   A(13,14,26)           117.7821         estimate D2E/DX2                !
 ! D1    D(15,1,2,3)           178.2957         estimate D2E/DX2                !
 ! D2    D(16,1,2,3)            60.5174         estimate D2E/DX2                !
 ! D3    D(17,1,2,3)           -63.9037         estimate D2E/DX2                !
 ! D4    D(1,2,3,4)             -0.6004         estimate D2E/DX2                !
 ! D5    D(1,2,3,8)            179.5671         estimate D2E/DX2                !
 ! D6    D(2,3,4,5)           -179.1397         estimate D2E/DX2                !
 ! D7    D(2,3,4,18)             0.3854         estimate D2E/DX2                !
 ! D8    D(8,3,4,5)              0.687          estimate D2E/DX2                !
 ! D9    D(8,3,4,18)          -179.788          estimate D2E/DX2                !
 ! D10   D(2,3,8,7)            179.9357         estimate D2E/DX2                !
 ! D11   D(2,3,8,21)            -0.2422         estimate D2E/DX2                !
 ! D12   D(4,3,8,7)              0.0897         estimate D2E/DX2                !
 ! D13   D(4,3,8,21)           179.9118         estimate D2E/DX2                !
 ! D14   D(3,4,5,6)             -0.8219         estimate D2E/DX2                !
 ! D15   D(3,4,5,19)           178.2724         estimate D2E/DX2                !
 ! D16   D(18,4,5,6)           179.6342         estimate D2E/DX2                !
 ! D17   D(18,4,5,19)           -1.2715         estimate D2E/DX2                !
 ! D18   D(4,5,6,7)              0.1516         estimate D2E/DX2                !
 ! D19   D(4,5,6,9)            179.9123         estimate D2E/DX2                !
 ! D20   D(19,5,6,7)          -178.9187         estimate D2E/DX2                !
 ! D21   D(19,5,6,9)             0.8419         estimate D2E/DX2                !
 ! D22   D(5,6,7,8)              0.6368         estimate D2E/DX2                !
 ! D23   D(5,6,7,20)          -178.7596         estimate D2E/DX2                !
 ! D24   D(9,6,7,8)           -179.1235         estimate D2E/DX2                !
 ! D25   D(9,6,7,20)             1.4801         estimate D2E/DX2                !
 ! D26   D(5,6,9,10)            31.8006         estimate D2E/DX2                !
 ! D27   D(5,6,9,14)          -148.0018         estimate D2E/DX2                !
 ! D28   D(7,6,9,10)          -148.4511         estimate D2E/DX2                !
 ! D29   D(7,6,9,14)            31.7465         estimate D2E/DX2                !
 ! D30   D(6,7,8,3)             -0.7736         estimate D2E/DX2                !
 ! D31   D(6,7,8,21)           179.4043         estimate D2E/DX2                !
 ! D32   D(20,7,8,3)           178.6403         estimate D2E/DX2                !
 ! D33   D(20,7,8,21)           -1.1819         estimate D2E/DX2                !
 ! D34   D(6,9,10,11)         -179.3329         estimate D2E/DX2                !
 ! D35   D(6,9,10,22)            1.3603         estimate D2E/DX2                !
 ! D36   D(14,9,10,11)           0.4786         estimate D2E/DX2                !
 ! D37   D(14,9,10,22)        -178.8282         estimate D2E/DX2                !
 ! D38   D(6,9,14,13)         -179.947          estimate D2E/DX2                !
 ! D39   D(6,9,14,26)            0.9153         estimate D2E/DX2                !
 ! D40   D(10,9,14,13)           0.2413         estimate D2E/DX2                !
 ! D41   D(10,9,14,26)        -178.8965         estimate D2E/DX2                !
 ! D42   D(9,10,11,12)          -0.766          estimate D2E/DX2                !
 ! D43   D(9,10,11,23)         179.5156         estimate D2E/DX2                !
 ! D44   D(22,10,11,12)        178.5589         estimate D2E/DX2                !
 ! D45   D(22,10,11,23)         -1.1595         estimate D2E/DX2                !
 ! D46   D(10,11,12,13)          0.3145         estimate D2E/DX2                !
 ! D47   D(10,11,12,24)       -179.6843         estimate D2E/DX2                !
 ! D48   D(23,11,12,13)       -179.9673         estimate D2E/DX2                !
 ! D49   D(23,11,12,24)          0.0339         estimate D2E/DX2                !
 ! D50   D(11,12,13,14)          0.3923         estimate D2E/DX2                !
 ! D51   D(11,12,13,25)       -179.9449         estimate D2E/DX2                !
 ! D52   D(24,12,13,14)       -179.6088         estimate D2E/DX2                !
 ! D53   D(24,12,13,25)          0.054          estimate D2E/DX2                !
 ! D54   D(12,13,14,9)          -0.6806         estimate D2E/DX2                !
 ! D55   D(12,13,14,26)        178.4796         estimate D2E/DX2                !
 ! D56   D(25,13,14,9)         179.6561         estimate D2E/DX2                !
 ! D57   D(25,13,14,26)         -1.1837         estimate D2E/DX2                !
 --------------------------------------------------------------------------------
 Trust Radius=3.00D-01 FncErr=1.00D-07 GrdErr=1.00D-06
 Number of steps in this run= 137 maximum allowed number of steps= 156.
 GradGradGradGradGradGradGradGradGradGradGradGradGradGradGradGradGradGrad

 Leave Link  103 at Tue Sep 28 15:18:10 2021, MaxMem= 1073741824 cpu:       0.0
 (Enter /sw/target/amd/app/gaussian/Gaussian09RevA.02_gcc-4.9.2/g09/l202.exe)
                          Input orientation:                          
 ---------------------------------------------------------------------
 Center     Atomic      Atomic             Coordinates (Angstroms)
 Number     Number       Type             X           Y           Z
 ---------------------------------------------------------------------
      1          6           0        0.902496    0.154272    0.167090
      2          8           0        2.299901    0.375875    0.024488
      3          6           0        3.005014    0.623126    1.168732
      4          6           0        2.486663    0.690452    2.456829
      5          6           0        3.327017    0.971446    3.545081
      6          6           0        4.710630    1.176652    3.383539
      7          6           0        5.210688    1.089275    2.073710
      8          6           0        4.371868    0.825055    0.983634
      9          6           0        5.593728    1.475560    4.539613
     10          6           0        5.332720    0.958635    5.823444
     11          6           0        6.156360    1.250937    6.915544
     12          6           0        7.276477    2.058224    6.749576
     13          6           0        7.566813    2.577034    5.492282
     14          6           0        6.732287    2.294341    4.405762
     15          1           0        0.484084    0.003442   -0.832800
     16          1           0        0.404126    1.024785    0.606666
     17          1           0        0.706824   -0.750983    0.751445
     18          1           0        1.431262    0.537955    2.658144
     19          1           0        2.871461    1.042300    4.530453
     20          1           0        6.272668    1.216473    1.875187
     21          1           0        4.792433    0.774117   -0.017702
     22          1           0        4.480680    0.304102    5.992108
     23          1           0        5.922267    0.842034    7.895003
     24          1           0        7.920065    2.282098    7.595427
     25          1           0        8.440750    3.208169    5.353392
     26          1           0        6.981431    2.740489    3.445592
 ---------------------------------------------------------------------
                    Distance matrix (angstroms):
                    1          2          3          4          5
     1  C    0.000000
     2  O    1.422035   0.000000
     3  C    2.375646   1.366606   0.000000
     4  C    2.835486   2.459700   1.390114   0.000000
     5  C    4.237558   3.715407   2.423231   1.403369   0.000000
     6  C    5.088486   4.211423   2.849717   2.457888   1.408045
     7  C    4.803119   3.630556   2.429254   2.779596   2.393121
     8  C    3.626739   2.326967   1.394032   2.396335   2.770226
     9  C    6.547703   5.696047   4.334849   3.822072   2.526104
    10  C    7.229677   6.570045   5.215087   4.416567   3.035449
    11  C    8.622494   7.945103   6.584146   5.801807   4.409458
    12  C    9.358514   8.533664   7.172916   6.575773   5.200780
    13  C    8.867951   7.904570   6.581857   6.211368   4.934103
    14  C    7.518823   6.520899   5.211898   4.939243   3.753223
    15  H    1.094348   2.042264   3.277992   3.912028   5.308968
    16  H    1.095168   2.086619   2.691072   2.805680   4.144926
    17  H    1.095101   2.082347   2.709979   2.855503   4.199592
    18  H    2.575298   2.777939   2.168479   1.085198   2.137396
    19  H    4.868712   4.590700   3.390385   2.138173   1.087893
    20  H    5.734510   4.462574   3.395393   3.866373   3.394914
    21  H    3.943344   2.524498   2.150648   3.383324   3.857435
    22  H    6.837887   6.354010   5.054140   4.077201   2.786437
    23  H    9.240766   8.676626   7.334917   6.434290   5.066941
    24  H   10.438109   9.619722   8.259076   7.645940   6.262524
    25  H    9.646206   8.609828   7.330829   7.083793   5.867127
    26  H    7.374994   6.261955   5.047693   5.038179   4.061299
                    6          7          8          9         10
     6  C    0.000000
     7  C    1.404757   0.000000
     8  C    2.449066   1.400606   0.000000
     9  C    1.485165   2.525195   3.815898   0.000000
    10  C    2.527383   3.753993   4.936075   1.408389   0.000000
    11  C    3.817160   4.935968   6.209134   2.451950   1.398751
    12  C    4.323303   5.202890   6.572940   2.838147   2.417645
    13  C    3.816497   4.410372   5.796982   2.452323   2.778498
    14  C    2.526117   3.034124   4.409233   1.408771   2.398483
    15  H    6.084211   5.653992   4.369136   7.558995   8.290190
    16  H    5.126408   5.025875   3.990611   6.527115   7.177059
    17  H    5.164703   5.041798   3.996293   6.571875   7.074382
    18  H    3.418829   3.863882   3.396112   4.663170   5.041575
    19  H    2.171636   3.392606   3.857245   2.756544   2.781478
    20  H    2.171790   1.087838   2.135676   2.761748   4.066782
    21  H    3.425955   2.155984   1.087264   4.680087   5.868982
    22  H    2.760227   4.062419   5.036670   2.172771   1.087581
    23  H    4.683305   5.869831   7.083152   3.430443   2.156969
    24  H    5.409482   6.265214   7.643853   3.924328   3.403797
    25  H    4.682006   5.067477   6.428827   3.430700   3.865385
    26  H    2.757893   2.782822   4.066933   2.173165   3.398151
                   11         12         13         14         15
    11  C    0.000000
    12  C    1.390654   0.000000
    13  C    2.402828   1.390772   0.000000
    14  C    2.778379   2.417718   1.398883   0.000000
    15  H    9.683377  10.385141   9.838449   8.469403   0.000000
    16  H    8.540566   9.275373   8.808109   7.489360   1.766805
    17  H    8.467659   9.328963   8.978345   7.676863   1.768786
    18  H    6.400028   7.295038   7.059403   5.851489   3.656438
    19  H    4.064818   5.035948   5.032579   4.060681   5.961819
    20  H    5.041817   5.047361   4.075452   2.788702   6.504794
    21  H    7.082200   7.322258   6.427100   5.063709   4.451988
    22  H    2.134744   3.386322   3.865263   3.398129   7.914705
    23  H    1.086895   2.150582   3.389369   3.865247  10.317539
    24  H    2.153182   1.086181   2.152904   3.403665  11.468265
    25  H    3.389618   2.151101   1.086917   2.156834  10.575811
    26  H    3.865239   3.386569   2.135024   1.087679   8.246914
                   16         17         18         19         20
    16  H    0.000000
    17  H    1.807192   0.000000
    18  H    2.345330   2.412814   0.000000
    19  H    4.635100   4.709822   2.415384   0.000000
    20  H    6.007135   6.009350   4.951022   4.318446   0.000000
    21  H    4.439584   4.428286   4.302720   4.944468   2.443318
    22  H    6.792692   6.543680   4.524263   2.295857   4.581777
    23  H    9.143475   8.987156   6.905526   4.546176   6.041620
    24  H   10.339872  10.395697   8.338068   6.034863   6.047365
    25  H    9.585713   9.831908   7.970403   6.032014   4.556901
    26  H    7.366415   7.669387   6.022924   4.577403   2.300249
                   21         22         23         24         25
    21  H    0.000000
    22  H    6.036218   0.000000
    23  H    7.993250   2.447152   0.000000
    24  H    8.367546   4.279307   2.480873   0.000000
    25  H    6.934226   4.952142   4.289654   2.481016   0.000000
    26  H    4.544529   4.321398   4.952092   4.279286   2.447047
                   26
    26  H    0.000000
 Stoichiometry    C13H12O
 Framework group  C1[X(C13H12O)]
 Deg. of freedom    72
 Full point group                 C1      NOp   1
 Largest Abelian subgroup         C1      NOp   1
 Largest concise Abelian subgroup C1      NOp   1
                         Standard orientation:                         
 ---------------------------------------------------------------------
 Center     Atomic      Atomic             Coordinates (Angstroms)
 Number     Number       Type             X           Y           Z
 ---------------------------------------------------------------------
      1          6           0       -4.875642   -0.663727    0.187845
      2          8           0       -4.042462    0.453588   -0.094294
      3          6           0       -2.692933    0.241340   -0.057777
      4          6           0       -2.055933   -0.957871    0.239781
      5          6           0       -0.654559   -1.030238    0.258713
      6          6           0        0.152434    0.085641   -0.034828
      7          6           0       -0.516442    1.281158   -0.345774
      8          6           0       -1.914790    1.360563   -0.349595
      9          6           0        1.635066    0.002270   -0.011005
     10          6           0        2.315226   -1.183411   -0.350273
     11          6           0        3.711050   -1.266613   -0.314793
     12          6           0        4.468114   -0.157601    0.046961
     13          6           0        3.826774    1.030967    0.378977
     14          6           0        2.430068    1.105692    0.356508
     15          1           0       -5.915196   -0.324040    0.148615
     16          1           0       -4.692292   -1.052883    1.194987
     17          1           0       -4.750916   -1.446410   -0.567863
     18          1           0       -2.612782   -1.860202    0.470803
     19          1           0       -0.201109   -1.982621    0.524908
     20          1           0        0.041562    2.178950   -0.602665
     21          1           0       -2.398429    2.305282   -0.585694
     22          1           0        1.762605   -2.066898   -0.661550
     23          1           0        4.204644   -2.199310   -0.575142
     24          1           0        5.552319   -0.218872    0.070120
     25          1           0        4.410740    1.902896    0.662017
     26          1           0        1.967947    2.046376    0.647377
 ---------------------------------------------------------------------
 Rotational constants (GHZ):      2.6284061      0.3028155      0.2761584
 Leave Link  202 at Tue Sep 28 15:18:10 2021, MaxMem= 1073741824 cpu:       0.0
 (Enter /sw/target/amd/app/gaussian/Gaussian09RevA.02_gcc-4.9.2/g09/l301.exe)
 Standard basis: 6-31G(d) (6D, 7F)
 Ernie: Thresh=  0.10000D-02 Tol=  0.10000D-05 Strict=F.
 There are   234 symmetry adapted basis functions of A   symmetry.
 Integral buffers will be    131072 words long.
 Raffenetti 2 integral format.
 Two-electron integral symmetry is turned on.
   234 basis functions,   440 primitive gaussians,   234 cartesian basis functions
    49 alpha electrons       49 beta electrons
       nuclear repulsion energy       783.2468810007 Hartrees.
 IExCor=  402 DFT=T Ex+Corr=B3LYP ExCW=0 ScaHFX=  0.200000
 ScaDFX=  0.800000  0.720000  1.000000  0.810000 ScalE2=  1.000000  1.000000
 IRadAn=      0 IRanWt=     -1 IRanGd=            0 ICorTp=0
 NAtoms=   26 NActive=   26 NUniq=   26 SFac= 7.50D-01 NAtFMM=   80 NAOKFM=F Big=F
 Leave Link  301 at Tue Sep 28 15:18:10 2021, MaxMem= 1073741824 cpu:       0.1
 (Enter /sw/target/amd/app/gaussian/Gaussian09RevA.02_gcc-4.9.2/g09/l302.exe)
 NPDir=0 NMtPBC=     1 NCelOv=     1 NCel=       1 NClECP=     1 NCelD=      1
         NCelK=      1 NCelE2=     1 NClLst=     1 CellRange=     0.0.
 One-electron integrals computed using PRISM.
 NBasis=   234 RedAO= T  NBF=   234
 NBsUse=   234 1.00D-06 NBFU=   234
 Precomputing XC quadrature grid using
 IXCGrd= 2 IRadAn=           0 IRanWt=          -1 IRanGd=           0 AccXCQ= 1.00D-10.
 NRdTot=    1649 NPtTot=      210076 NUsed=      221970 NTot=      222002
 NSgBfM=   233   233   233   233   233 NAtAll=    26    26.
 Leave Link  302 at Tue Sep 28 15:18:12 2021, MaxMem= 1073741824 cpu:       1.8
 (Enter /sw/target/amd/app/gaussian/Gaussian09RevA.02_gcc-4.9.2/g09/l303.exe)
 DipDrv:  MaxL=1.
 Leave Link  303 at Tue Sep 28 15:18:12 2021, MaxMem= 1073741824 cpu:       0.1
 (Enter /sw/target/amd/app/gaussian/Gaussian09RevA.02_gcc-4.9.2/g09/l401.exe)
 Harris functional with IExCor=  402 diagonalized for initial guess.
 ExpMin= 1.61D-01 ExpMax= 5.48D+03 ExpMxC= 8.25D+02 IAcc=1 IRadAn=         1 AccDes= 0.00D+00
 HarFok:  IExCor=  402 AccDes= 0.00D+00 IRadAn=         1 IDoV= 1
 ScaDFX=  1.000000  1.000000  1.000000  1.000000
 FoFCou: FMM=F IPFlag=           0 FMFlag=      100000 FMFlg1=           0
         NFxFlg=           0 DoJE=T BraDBF=F KetDBF=T FulRan=T
         Omega=  0.000000  0.000000  1.000000  0.000000  0.000000 ICntrl=     500 IOpCl=  0
         NMat0=    1 NMatS0=    1 NMatT0=    0 NMatD0=    1 NMtDS0=    0 NMtDT0=    0
         I1Cent=           4 NGrid=           0.
 Petite list used in FoFCou.
 Harris En= -577.895971157707    
 Initial guess orbital symmetries:
       Occupied  (A) (A) (A) (A) (A) (A) (A) (A) (A) (A) (A) (A)
                 (A) (A) (A) (A) (A) (A) (A) (A) (A) (A) (A) (A)
                 (A) (A) (A) (A) (A) (A) (A) (A) (A) (A) (A) (A)
                 (A) (A) (A) (A) (A) (A) (A) (A) (A) (A) (A) (A)
                 (A)
       Virtual   (A) (A) (A) (A) (A) (A) (A) (A) (A) (A) (A) (A)
                 (A) (A) (A) (A) (A) (A) (A) (A) (A) (A) (A) (A)
                 (A) (A) (A) (A) (A) (A) (A) (A) (A) (A) (A) (A)
                 (A) (A) (A) (A) (A) (A) (A) (A) (A) (A) (A) (A)
                 (A) (A) (A) (A) (A) (A) (A) (A) (A) (A) (A) (A)
                 (A) (A) (A) (A) (A) (A) (A) (A) (A) (A) (A) (A)
                 (A) (A) (A) (A) (A) (A) (A) (A) (A) (A) (A) (A)
                 (A) (A) (A) (A) (A) (A) (A) (A) (A) (A) (A) (A)
                 (A) (A) (A) (A) (A) (A) (A) (A) (A) (A) (A) (A)
                 (A) (A) (A) (A) (A) (A) (A) (A) (A) (A) (A) (A)
                 (A) (A) (A) (A) (A) (A) (A) (A) (A) (A) (A) (A)
                 (A) (A) (A) (A) (A) (A) (A) (A) (A) (A) (A) (A)
                 (A) (A) (A) (A) (A) (A) (A) (A) (A) (A) (A) (A)
                 (A) (A) (A) (A) (A) (A) (A) (A) (A) (A) (A) (A)
                 (A) (A) (A) (A) (A) (A) (A) (A) (A) (A) (A) (A)
                 (A) (A) (A) (A) (A)
 The electronic state of the initial guess is 1-A.
 Leave Link  401 at Tue Sep 28 15:18:17 2021, MaxMem= 1073741824 cpu:       8.4
 (Enter /sw/target/amd/app/gaussian/Gaussian09RevA.02_gcc-4.9.2/g09/l502.exe)
 Closed shell SCF:
 Requested convergence on RMS density matrix=1.00D-08 within  64 cycles.
 Requested convergence on MAX density matrix=1.00D-06.
 Requested convergence on             energy=1.00D-06.
 No special actions if energy rises.
 Using DIIS extrapolation, IDIIS=  1040.
 Integral symmetry usage will be decided dynamically.
       221723 words used for storage of precomputed grid.
 Keep R1 ints in memory in canonical form, NReq=384884797.
 IEnd=      394703 IEndB=      394703 NGot=  1073741824 MDV=   695405048
 LenX=   695405048 LenY=   695349851
 Symmetry not used in FoFDir.
 MinBra= 0 MaxBra= 2 Meth= 1.
 IRaf=       0 NMat=   1 IRICut=       1 DoRegI=T DoRafI=F ISym2E= 0 JSym2E=0.
 Integral accuracy reduced to 1.0D-05 until final iterations.

 Cycle   1  Pass 0  IDiag  1:
 E= -577.514474946163    
 DIIS: error= 3.56D-02 at cycle   1 NSaved=   1.
 NSaved= 1 IEnMin= 1 EnMin= -577.514474946163     IErMin= 1 ErrMin= 3.56D-02
 ErrMax= 3.56D-02 EMaxC= 1.00D-01 BMatC= 2.81D-01 BMatP= 2.81D-01
 IDIUse=3 WtCom= 6.44D-01 WtEn= 3.56D-01
 Coeff-Com:  0.100D+01
 Coeff-En:   0.100D+01
 Coeff:      0.100D+01
 Gap=     0.203 Goal=   None    Shift=    0.000
 GapD=    0.203 DampG=1.000 DampE=0.500 DampFc=0.5000 IDamp=-1.
 Damping current iteration by 5.00D-01
 RMSDP=5.23D-03 MaxDP=1.25D-01              OVMax= 1.65D-01

 Cycle   2  Pass 0  IDiag  1:
 E= -577.666620676154     Delta-E=       -0.152145729991 Rises=F Damp=T
 DIIS: error= 6.67D-03 at cycle   2 NSaved=   2.
 NSaved= 2 IEnMin= 2 EnMin= -577.666620676154     IErMin= 2 ErrMin= 6.67D-03
 ErrMax= 6.67D-03 EMaxC= 1.00D-01 BMatC= 1.39D-02 BMatP= 2.81D-01
 IDIUse=3 WtCom= 9.33D-01 WtEn= 6.67D-02
 Coeff-Com: -0.132D-01 0.101D+01
 Coeff-En:   0.000D+00 0.100D+01
 Coeff:     -0.123D-01 0.101D+01
 Gap=     0.195 Goal=   None    Shift=    0.000
 RMSDP=1.21D-03 MaxDP=3.13D-02 DE=-1.52D-01 OVMax= 1.24D-01

 Cycle   3  Pass 0  IDiag  1:
 E= -577.821792039883     Delta-E=       -0.155171363729 Rises=F Damp=F
 DIIS: error= 4.21D-03 at cycle   3 NSaved=   3.
 NSaved= 3 IEnMin= 3 EnMin= -577.821792039883     IErMin= 3 ErrMin= 4.21D-03
 ErrMax= 4.21D-03 EMaxC= 1.00D-01 BMatC= 5.28D-03 BMatP= 1.39D-02
 IDIUse=3 WtCom= 9.58D-01 WtEn= 4.21D-02
 Coeff-Com: -0.409D-01 0.368D+00 0.673D+00
 Coeff-En:   0.000D+00 0.000D+00 0.100D+01
 Coeff:     -0.392D-01 0.352D+00 0.687D+00
 Gap=     0.191 Goal=   None    Shift=    0.000
 RMSDP=5.52D-04 MaxDP=2.60D-02 DE=-1.55D-01 OVMax= 5.08D-02

 Cycle   4  Pass 0  IDiag  1:
 E= -577.824282907368     Delta-E=       -0.002490867485 Rises=F Damp=F
 DIIS: error= 4.00D-03 at cycle   4 NSaved=   4.
 NSaved= 4 IEnMin= 4 EnMin= -577.824282907368     IErMin= 4 ErrMin= 4.00D-03
 ErrMax= 4.00D-03 EMaxC= 1.00D-01 BMatC= 2.73D-03 BMatP= 5.28D-03
 IDIUse=3 WtCom= 9.60D-01 WtEn= 4.00D-02
 Coeff-Com: -0.222D-01 0.109D+00 0.434D+00 0.479D+00
 Coeff-En:   0.000D+00 0.000D+00 0.368D+00 0.632D+00
 Coeff:     -0.213D-01 0.104D+00 0.432D+00 0.485D+00
 Gap=     0.186 Goal=   None    Shift=    0.000
 RMSDP=2.84D-04 MaxDP=1.13D-02 DE=-2.49D-03 OVMax= 2.48D-02

 Cycle   5  Pass 0  IDiag  1:
 E= -577.827137209261     Delta-E=       -0.002854301893 Rises=F Damp=F
 DIIS: error= 7.59D-04 at cycle   5 NSaved=   5.
 NSaved= 5 IEnMin= 5 EnMin= -577.827137209261     IErMin= 5 ErrMin= 7.59D-04
 ErrMax= 7.59D-04 EMaxC= 1.00D-01 BMatC= 1.14D-04 BMatP= 2.73D-03
 IDIUse=3 WtCom= 9.92D-01 WtEn= 7.59D-03
 Coeff-Com: -0.635D-02 0.198D-01 0.148D+00 0.239D+00 0.599D+00
 Coeff-En:   0.000D+00 0.000D+00 0.000D+00 0.000D+00 0.100D+01
 Coeff:     -0.630D-02 0.196D-01 0.147D+00 0.237D+00 0.602D+00
 Gap=     0.186 Goal=   None    Shift=    0.000
 RMSDP=6.73D-05 MaxDP=1.96D-03 DE=-2.85D-03 OVMax= 5.38D-03

 Cycle   6  Pass 0  IDiag  1:
 E= -577.827224986561     Delta-E=       -0.000087777300 Rises=F Damp=F
 DIIS: error= 2.91D-04 at cycle   6 NSaved=   6.
 NSaved= 6 IEnMin= 6 EnMin= -577.827224986561     IErMin= 6 ErrMin= 2.91D-04
 ErrMax= 2.91D-04 EMaxC= 1.00D-01 BMatC= 2.66D-05 BMatP= 1.14D-04
 IDIUse=3 WtCom= 9.97D-01 WtEn= 2.91D-03
 Coeff-Com: -0.245D-02 0.500D-02 0.616D-01 0.116D+00 0.395D+00 0.425D+00
 Coeff-En:   0.000D+00 0.000D+00 0.000D+00 0.000D+00 0.195D+00 0.805D+00
 Coeff:     -0.244D-02 0.498D-02 0.615D-01 0.116D+00 0.395D+00 0.426D+00
 Gap=     0.186 Goal=   None    Shift=    0.000
 RMSDP=2.90D-05 MaxDP=8.48D-04 DE=-8.78D-05 OVMax= 1.85D-03

 Cycle   7  Pass 0  IDiag  1:
 E= -577.827253429197     Delta-E=       -0.000028442636 Rises=F Damp=F
 DIIS: error= 7.26D-05 at cycle   7 NSaved=   7.
 NSaved= 7 IEnMin= 7 EnMin= -577.827253429197     IErMin= 7 ErrMin= 7.26D-05
 ErrMax= 7.26D-05 EMaxC= 1.00D-01 BMatC= 1.14D-06 BMatP= 2.66D-05
 IDIUse=1 WtCom= 1.00D+00 WtEn= 0.00D+00
 Coeff-Com: -0.975D-03 0.141D-02 0.265D-01 0.521D-01 0.193D+00 0.246D+00
 Coeff-Com:  0.482D+00
 Coeff:     -0.975D-03 0.141D-02 0.265D-01 0.521D-01 0.193D+00 0.246D+00
 Coeff:      0.482D+00
 Gap=     0.186 Goal=   None    Shift=    0.000
 RMSDP=5.99D-06 MaxDP=1.58D-04 DE=-2.84D-05 OVMax= 4.87D-04

 Initial convergence to 1.0D-05 achieved.  Increase integral accuracy.
 Cycle   8  Pass 1  IDiag  1:
 E= -577.827258125816     Delta-E=       -0.000004696619 Rises=F Damp=F
 DIIS: error= 1.88D-05 at cycle   1 NSaved=   1.
 NSaved= 1 IEnMin= 1 EnMin= -577.827258125816     IErMin= 1 ErrMin= 1.88D-05
 ErrMax= 1.88D-05 EMaxC= 1.00D-01 BMatC= 1.36D-07 BMatP= 1.36D-07
 IDIUse=1 WtCom= 1.00D+00 WtEn= 0.00D+00
 Coeff-Com:  0.100D+01
 Coeff:      0.100D+01
 Gap=     0.186 Goal=   None    Shift=    0.000
 RMSDP=5.99D-06 MaxDP=1.58D-04 DE=-4.70D-06 OVMax= 3.02D-04

 Cycle   9  Pass 1  IDiag  1:
 E= -577.827257943743     Delta-E=        0.000000182073 Rises=F Damp=F
 DIIS: error= 3.89D-05 at cycle   2 NSaved=   2.
 NSaved= 2 IEnMin= 1 EnMin= -577.827258125816     IErMin= 1 ErrMin= 1.88D-05
 ErrMax= 3.89D-05 EMaxC= 1.00D-01 BMatC= 3.03D-07 BMatP= 1.36D-07
 IDIUse=1 WtCom= 1.00D+00 WtEn= 0.00D+00
 Coeff-Com:  0.609D+00 0.391D+00
 Coeff:      0.609D+00 0.391D+00
 Gap=     0.186 Goal=   None    Shift=    0.000
 RMSDP=3.01D-06 MaxDP=9.19D-05 DE= 1.82D-07 OVMax= 2.42D-04

 Cycle  10  Pass 1  IDiag  1:
 E= -577.827258261090     Delta-E=       -0.000000317347 Rises=F Damp=F
 DIIS: error= 8.24D-06 at cycle   3 NSaved=   3.
 NSaved= 3 IEnMin= 3 EnMin= -577.827258261090     IErMin= 3 ErrMin= 8.24D-06
 ErrMax= 8.24D-06 EMaxC= 1.00D-01 BMatC= 1.47D-08 BMatP= 1.36D-07
 IDIUse=1 WtCom= 1.00D+00 WtEn= 0.00D+00
 Coeff-Com:  0.174D+00 0.202D+00 0.624D+00
 Coeff:      0.174D+00 0.202D+00 0.624D+00
 Gap=     0.186 Goal=   None    Shift=    0.000
 RMSDP=8.68D-07 MaxDP=2.37D-05 DE=-3.17D-07 OVMax= 5.91D-05

 Cycle  11  Pass 1  IDiag  1:
 E= -577.827258273161     Delta-E=       -0.000000012071 Rises=F Damp=F
 DIIS: error= 3.39D-06 at cycle   4 NSaved=   4.
 NSaved= 4 IEnMin= 4 EnMin= -577.827258273161     IErMin= 4 ErrMin= 3.39D-06
 ErrMax= 3.39D-06 EMaxC= 1.00D-01 BMatC= 4.92D-09 BMatP= 1.47D-08
 IDIUse=1 WtCom= 1.00D+00 WtEn= 0.00D+00
 Coeff-Com: -0.478D-02 0.605D-01 0.423D+00 0.522D+00
 Coeff:     -0.478D-02 0.605D-01 0.423D+00 0.522D+00
 Gap=     0.186 Goal=   None    Shift=    0.000
 RMSDP=3.38D-07 MaxDP=8.82D-06 DE=-1.21D-08 OVMax= 2.57D-05

 Cycle  12  Pass 1  IDiag  1:
 E= -577.827258278144     Delta-E=       -0.000000004983 Rises=F Damp=F
 DIIS: error= 5.60D-07 at cycle   5 NSaved=   5.
 NSaved= 5 IEnMin= 5 EnMin= -577.827258278144     IErMin= 5 ErrMin= 5.60D-07
 ErrMax= 5.60D-07 EMaxC= 1.00D-01 BMatC= 9.18D-11 BMatP= 4.92D-09
 IDIUse=1 WtCom= 1.00D+00 WtEn= 0.00D+00
 Coeff-Com: -0.861D-02 0.226D-01 0.186D+00 0.255D+00 0.545D+00
 Coeff:     -0.861D-02 0.226D-01 0.186D+00 0.255D+00 0.545D+00
 Gap=     0.186 Goal=   None    Shift=    0.000
 RMSDP=6.26D-08 MaxDP=1.94D-06 DE=-4.98D-09 OVMax= 4.98D-06

 Cycle  13  Pass 1  IDiag  1:
 E= -577.827258278220     Delta-E=       -0.000000000076 Rises=F Damp=F
 DIIS: error= 2.36D-07 at cycle   6 NSaved=   6.
 NSaved= 6 IEnMin= 6 EnMin= -577.827258278220     IErMin= 6 ErrMin= 2.36D-07
 ErrMax= 2.36D-07 EMaxC= 1.00D-01 BMatC= 1.64D-11 BMatP= 9.18D-11
 IDIUse=1 WtCom= 1.00D+00 WtEn= 0.00D+00
 Coeff-Com: -0.462D-02 0.768D-02 0.699D-01 0.101D+00 0.331D+00 0.495D+00
 Coeff:     -0.462D-02 0.768D-02 0.699D-01 0.101D+00 0.331D+00 0.495D+00
 Gap=     0.186 Goal=   None    Shift=    0.000
 RMSDP=2.10D-08 MaxDP=8.74D-07 DE=-7.62D-11 OVMax= 1.98D-06

 Cycle  14  Pass 1  IDiag  1:
 E= -577.827258278243     Delta-E=       -0.000000000023 Rises=F Damp=F
 DIIS: error= 2.91D-08 at cycle   7 NSaved=   7.
 NSaved= 7 IEnMin= 7 EnMin= -577.827258278243     IErMin= 7 ErrMin= 2.91D-08
 ErrMax= 2.91D-08 EMaxC= 1.00D-01 BMatC= 3.67D-13 BMatP= 1.64D-11
 IDIUse=1 WtCom= 1.00D+00 WtEn= 0.00D+00
 Coeff-Com: -0.111D-02 0.136D-02 0.133D-01 0.197D-01 0.836D-01 0.186D+00
 Coeff-Com:  0.697D+00
 Coeff:     -0.111D-02 0.136D-02 0.133D-01 0.197D-01 0.836D-01 0.186D+00
 Coeff:      0.697D+00
 Gap=     0.186 Goal=   None    Shift=    0.000
 RMSDP=3.57D-09 MaxDP=9.34D-08 DE=-2.27D-11 OVMax= 2.04D-07

 SCF Done:  E(RB3LYP) =  -577.827258278     A.U. after   14 cycles
             Convg  =    0.3574D-08             -V/T =  2.0098
 KE= 5.722363055146D+02 PE=-2.907093027584D+03 EE= 9.737825827904D+02
 Leave Link  502 at Tue Sep 28 17:14:03 2021, MaxMem= 1073741824 cpu:     270.2
 (Enter /sw/target/amd/app/gaussian/Gaussian09RevA.02_gcc-4.9.2/g09/l508.exe)
 QCSCF skips out because SCF is already converged.
 Leave Link  508 at Tue Sep 28 17:14:09 2021, MaxMem= 1073741824 cpu:       0.0
 (Enter /sw/target/amd/app/gaussian/Gaussian09RevA.02_gcc-4.9.2/g09/l601.exe)
 Copying SCF densities to generalized density rwf, IOpCl= 0 IROHF=0.

 **********************************************************************

            Population analysis using the SCF density.

 **********************************************************************

 Orbital symmetries:
       Occupied  (A) (A) (A) (A) (A) (A) (A) (A) (A) (A) (A) (A)
                 (A) (A) (A) (A) (A) (A) (A) (A) (A) (A) (A) (A)
                 (A) (A) (A) (A) (A) (A) (A) (A) (A) (A) (A) (A)
                 (A) (A) (A) (A) (A) (A) (A) (A) (A) (A) (A) (A)
                 (A)
       Virtual   (A) (A) (A) (A) (A) (A) (A) (A) (A) (A) (A) (A)
                 (A) (A) (A) (A) (A) (A) (A) (A) (A) (A) (A) (A)
                 (A) (A) (A) (A) (A) (A) (A) (A) (A) (A) (A) (A)
                 (A) (A) (A) (A) (A) (A) (A) (A) (A) (A) (A) (A)
                 (A) (A) (A) (A) (A) (A) (A) (A) (A) (A) (A) (A)
                 (A) (A) (A) (A) (A) (A) (A) (A) (A) (A) (A) (A)
                 (A) (A) (A) (A) (A) (A) (A) (A) (A) (A) (A) (A)
                 (A) (A) (A) (A) (A) (A) (A) (A) (A) (A) (A) (A)
                 (A) (A) (A) (A) (A) (A) (A) (A) (A) (A) (A) (A)
                 (A) (A) (A) (A) (A) (A) (A) (A) (A) (A) (A) (A)
                 (A) (A) (A) (A) (A) (A) (A) (A) (A) (A) (A) (A)
                 (A) (A) (A) (A) (A) (A) (A) (A) (A) (A) (A) (A)
                 (A) (A) (A) (A) (A) (A) (A) (A) (A) (A) (A) (A)
                 (A) (A) (A) (A) (A) (A) (A) (A) (A) (A) (A) (A)
                 (A) (A) (A) (A) (A) (A) (A) (A) (A) (A) (A) (A)
                 (A) (A) (A) (A) (A)
 The electronic state is 1-A.
 Alpha  occ. eigenvalues --  -19.17836 -10.24488 -10.24100 -10.19667 -10.19240
 Alpha  occ. eigenvalues --  -10.19106 -10.18886 -10.18775 -10.18571 -10.18562
 Alpha  occ. eigenvalues --  -10.18509 -10.18500 -10.18350 -10.18276  -1.06315
 Alpha  occ. eigenvalues --   -0.85990  -0.83908  -0.77351  -0.74686  -0.73702
 Alpha  occ. eigenvalues --   -0.72763  -0.68944  -0.61790  -0.60990  -0.58864
 Alpha  occ. eigenvalues --   -0.57112  -0.53480  -0.51248  -0.48094  -0.47344
 Alpha  occ. eigenvalues --   -0.47070  -0.44317  -0.43913  -0.43742  -0.42037
 Alpha  occ. eigenvalues --   -0.41337  -0.40596  -0.38051  -0.37805  -0.36272
 Alpha  occ. eigenvalues --   -0.35714  -0.33836  -0.33652  -0.32426  -0.31846
 Alpha  occ. eigenvalues --   -0.25742  -0.24704  -0.24403  -0.20505
 Alpha virt. eigenvalues --   -0.01922  -0.00328   0.00559   0.04405   0.09297
 Alpha virt. eigenvalues --    0.09940   0.10865   0.12950   0.13682   0.14753
 Alpha virt. eigenvalues --    0.15185   0.15770   0.16406   0.16856   0.17971
 Alpha virt. eigenvalues --    0.18499   0.19129   0.20254   0.23241   0.24676
 Alpha virt. eigenvalues --    0.25865   0.28958   0.29563   0.31041   0.32263
 Alpha virt. eigenvalues --    0.34620   0.37294   0.38054   0.38655   0.45920
 Alpha virt. eigenvalues --    0.49568   0.50857   0.52161   0.53064   0.53293
 Alpha virt. eigenvalues --    0.54942   0.55067   0.55706   0.56750   0.57350
 Alpha virt. eigenvalues --    0.57727   0.58319   0.59840   0.59902   0.60362
 Alpha virt. eigenvalues --    0.60965   0.61115   0.61900   0.62021   0.62363
 Alpha virt. eigenvalues --    0.64305   0.64783   0.66252   0.66759   0.69138
 Alpha virt. eigenvalues --    0.69716   0.73547   0.74674   0.78028   0.78980
 Alpha virt. eigenvalues --    0.81592   0.83333   0.83373   0.83976   0.84496
 Alpha virt. eigenvalues --    0.84988   0.85849   0.86459   0.88129   0.88867
 Alpha virt. eigenvalues --    0.91773   0.92036   0.93460   0.93668   0.95729
 Alpha virt. eigenvalues --    0.96380   0.98094   0.99007   1.01564   1.03015
 Alpha virt. eigenvalues --    1.03773   1.04904   1.06065   1.09465   1.12679
 Alpha virt. eigenvalues --    1.14175   1.16519   1.16727   1.18947   1.20398
 Alpha virt. eigenvalues --    1.21278   1.24753   1.27735   1.29285   1.31083
 Alpha virt. eigenvalues --    1.37402   1.40020   1.42006   1.42962   1.43965
 Alpha virt. eigenvalues --    1.45943   1.47091   1.48189   1.48558   1.50199
 Alpha virt. eigenvalues --    1.50524   1.51839   1.52303   1.52976   1.63299
 Alpha virt. eigenvalues --    1.68468   1.74045   1.77492   1.78569   1.81933
 Alpha virt. eigenvalues --    1.83451   1.83608   1.84057   1.88842   1.90429
 Alpha virt. eigenvalues --    1.92038   1.94814   1.96337   1.97942   1.99129
 Alpha virt. eigenvalues --    2.00509   2.04980   2.05669   2.06607   2.08961
 Alpha virt. eigenvalues --    2.10559   2.11993   2.12720   2.12818   2.15519
 Alpha virt. eigenvalues --    2.15813   2.17296   2.21480   2.24780   2.25395
 Alpha virt. eigenvalues --    2.27120   2.30387   2.30882   2.31435   2.34696
 Alpha virt. eigenvalues --    2.35907   2.36745   2.42991   2.50110   2.53896
 Alpha virt. eigenvalues --    2.55721   2.58361   2.60701   2.61050   2.63752
 Alpha virt. eigenvalues --    2.67361   2.67989   2.70049   2.72825   2.74269
 Alpha virt. eigenvalues --    2.76518   2.76716   2.79196   2.84612   2.93171
 Alpha virt. eigenvalues --    2.97671   3.00119   3.10718   3.23735   3.37264
 Alpha virt. eigenvalues --    3.47177   4.05525   4.08891   4.10475   4.11588
 Alpha virt. eigenvalues --    4.12025   4.14204   4.21836   4.29865   4.33398
 Alpha virt. eigenvalues --    4.33878   4.37907   4.48780   4.67930   4.80073
          Condensed to atoms (all electrons):
              1          2          3          4          5          6
     1  C    4.896359   0.248400  -0.043589  -0.006461   0.000330  -0.000006
     2  O    0.248400   8.200218   0.281330  -0.063086   0.003675   0.000133
     3  C   -0.043589   0.281330   4.500584   0.467281  -0.003195  -0.030849
     4  C   -0.006461  -0.063086   0.467281   5.125215   0.468904  -0.018172
     5  C    0.000330   0.003675  -0.003195   0.468904   5.025771   0.521240
     6  C   -0.000006   0.000133  -0.030849  -0.018172   0.521240   4.769352
     7  C   -0.000135   0.003198  -0.018678  -0.042701  -0.059477   0.511868
     8  C    0.004376  -0.055577   0.543327  -0.066551  -0.040325  -0.019762
     9  C   -0.000000  -0.000000   0.000476   0.006095  -0.045716   0.346219
    10  C    0.000000  -0.000000  -0.000001   0.000382  -0.014445  -0.047489
    11  C   -0.000000   0.000000   0.000000  -0.000003   0.000352   0.005680
    12  C    0.000000  -0.000000   0.000000  -0.000000   0.000002   0.000622
    13  C   -0.000000   0.000000   0.000000   0.000001  -0.000161   0.005702
    14  C   -0.000000   0.000000   0.000003  -0.000163   0.006221  -0.047483
    15  H    0.384015  -0.031076   0.003186   0.000150   0.000001  -0.000000
    16  H    0.363528  -0.035467  -0.005244   0.005322  -0.000145  -0.000004
    17  H    0.365050  -0.036323  -0.004505   0.004804  -0.000129  -0.000001
    18  H    0.005794  -0.007245  -0.046275   0.351716  -0.035802   0.003183
    19  H   -0.000008  -0.000047   0.003176  -0.040711   0.347600  -0.036933
    20  H    0.000003  -0.000061   0.004342   0.000196   0.006549  -0.039967
    21  H   -0.000186  -0.000300  -0.036251   0.007604   0.000220   0.003706
    22  H    0.000000  -0.000000  -0.000006   0.000019   0.005337  -0.010393
    23  H    0.000000  -0.000000  -0.000000  -0.000000  -0.000001  -0.000168
    24  H   -0.000000  -0.000000  -0.000000   0.000000  -0.000000   0.000006
    25  H    0.000000  -0.000000  -0.000000  -0.000000   0.000001  -0.000169
    26  H    0.000000  -0.000000  -0.000006  -0.000004  -0.000064  -0.010553
              7          8          9         10         11         12
     1  C   -0.000135   0.004376  -0.000000   0.000000  -0.000000   0.000000
     2  O    0.003198  -0.055577  -0.000000  -0.000000   0.000000  -0.000000
     3  C   -0.018678   0.543327   0.000476  -0.000001   0.000000   0.000000
     4  C   -0.042701  -0.066551   0.006095   0.000382  -0.000003  -0.000000
     5  C   -0.059477  -0.040325  -0.045716  -0.014445   0.000352   0.000002
     6  C    0.511868  -0.019762   0.346219  -0.047489   0.005680   0.000622
     7  C    5.014375   0.504313  -0.047207   0.006425  -0.000165  -0.000000
     8  C    0.504313   4.998900   0.005493  -0.000156   0.000001  -0.000000
     9  C   -0.047207   0.005493   4.756340   0.517359  -0.014174  -0.032859
    10  C    0.006425  -0.000156   0.517359   5.021714   0.514466  -0.036595
    11  C   -0.000165   0.000001  -0.014174   0.514466   4.871235   0.551739
    12  C   -0.000000  -0.000000  -0.032859  -0.036595   0.551739   4.849001
    13  C    0.000350  -0.000003  -0.014137  -0.043657  -0.028103   0.551731
    14  C   -0.014190   0.000369   0.517303  -0.063171  -0.043597  -0.036589
    15  H    0.000004  -0.000109  -0.000000   0.000000   0.000000  -0.000000
    16  H   -0.000002   0.000069   0.000000   0.000000   0.000000  -0.000000
    17  H    0.000002   0.000049   0.000000  -0.000000  -0.000000  -0.000000
    18  H    0.000769   0.004587  -0.000169  -0.000002  -0.000000  -0.000000
    19  H    0.006276   0.000487  -0.010242   0.005714   0.000005  -0.000004
    20  H    0.349815  -0.041994  -0.010399  -0.000070  -0.000004  -0.000005
    21  H   -0.039077   0.344446  -0.000136   0.000001  -0.000000  -0.000000
    22  H   -0.000066  -0.000005  -0.040759   0.349165  -0.045534   0.004963
    23  H    0.000001  -0.000000   0.003331  -0.038744   0.357096  -0.043613
    24  H   -0.000000   0.000000   0.000661   0.004902  -0.043845   0.357794
    25  H   -0.000000  -0.000000   0.003327   0.000805   0.004747  -0.043593
    26  H    0.005388   0.000027  -0.040511   0.006250   0.000379   0.004942
             13         14         15         16         17         18
     1  C   -0.000000  -0.000000   0.384015   0.363528   0.365050   0.005794
     2  O    0.000000   0.000000  -0.031076  -0.035467  -0.036323  -0.007245
     3  C    0.000000   0.000003   0.003186  -0.005244  -0.004505  -0.046275
     4  C    0.000001  -0.000163   0.000150   0.005322   0.004804   0.351716
     5  C   -0.000161   0.006221   0.000001  -0.000145  -0.000129  -0.035802
     6  C    0.005702  -0.047483  -0.000000  -0.000004  -0.000001   0.003183
     7  C    0.000350  -0.014190   0.000004  -0.000002   0.000002   0.000769
     8  C   -0.000003   0.000369  -0.000109   0.000069   0.000049   0.004587
     9  C   -0.014137   0.517303  -0.000000   0.000000   0.000000  -0.000169
    10  C   -0.043657  -0.063171   0.000000   0.000000  -0.000000  -0.000002
    11  C   -0.028103  -0.043597   0.000000   0.000000  -0.000000  -0.000000
    12  C    0.551731  -0.036589  -0.000000  -0.000000  -0.000000  -0.000000
    13  C    4.870479   0.514744  -0.000000  -0.000000   0.000000  -0.000000
    14  C    0.514744   5.021400   0.000000   0.000000  -0.000000   0.000001
    15  H   -0.000000   0.000000   0.543136  -0.033697  -0.034089  -0.000123
    16  H   -0.000000   0.000000  -0.033697   0.596528  -0.046254   0.001868
    17  H    0.000000  -0.000000  -0.034089  -0.046254   0.596329   0.001671
    18  H   -0.000000   0.000001  -0.000123   0.001868   0.001671   0.594539
    19  H   -0.000004  -0.000077  -0.000000   0.000003   0.000000  -0.005834
    20  H    0.000015   0.005439  -0.000000  -0.000000  -0.000000   0.000016
    21  H   -0.000000  -0.000002  -0.000027   0.000030   0.000028  -0.000173
    22  H    0.000374   0.006281  -0.000000   0.000000  -0.000000   0.000005
    23  H    0.004756   0.000799   0.000000  -0.000000   0.000000   0.000000
    24  H   -0.043830   0.004907  -0.000000   0.000000   0.000000  -0.000000
    25  H    0.357189  -0.038714   0.000000   0.000000  -0.000000   0.000000
    26  H   -0.045399   0.349593  -0.000000  -0.000000   0.000000   0.000000
             19         20         21         22         23         24
     1  C   -0.000008   0.000003  -0.000186   0.000000   0.000000  -0.000000
     2  O   -0.000047  -0.000061  -0.000300  -0.000000  -0.000000  -0.000000
     3  C    0.003176   0.004342  -0.036251  -0.000006  -0.000000  -0.000000
     4  C   -0.040711   0.000196   0.007604   0.000019  -0.000000   0.000000
     5  C    0.347600   0.006549   0.000220   0.005337  -0.000001  -0.000000
     6  C   -0.036933  -0.039967   0.003706  -0.010393  -0.000168   0.000006
     7  C    0.006276   0.349815  -0.039077  -0.000066   0.000001  -0.000000
     8  C    0.000487  -0.041994   0.344446  -0.000005  -0.000000   0.000000
     9  C   -0.010242  -0.010399  -0.000136  -0.040759   0.003331   0.000661
    10  C    0.005714  -0.000070   0.000001   0.349165  -0.038744   0.004902
    11  C    0.000005  -0.000004  -0.000000  -0.045534   0.357096  -0.043845
    12  C   -0.000004  -0.000005  -0.000000   0.004963  -0.043613   0.357794
    13  C   -0.000004   0.000015  -0.000000   0.000374   0.004756  -0.043830
    14  C   -0.000077   0.005439  -0.000002   0.006281   0.000799   0.004907
    15  H   -0.000000  -0.000000  -0.000027  -0.000000   0.000000  -0.000000
    16  H    0.000003  -0.000000   0.000030   0.000000  -0.000000   0.000000
    17  H    0.000000  -0.000000   0.000028  -0.000000   0.000000   0.000000
    18  H   -0.005834   0.000016  -0.000173   0.000005   0.000000  -0.000000
    19  H    0.594895  -0.000181   0.000015   0.003153   0.000004  -0.000000
    20  H   -0.000181   0.596602  -0.006425   0.000000   0.000000  -0.000000
    21  H    0.000015  -0.006425   0.588456   0.000000   0.000000  -0.000000
    22  H    0.003153   0.000000   0.000000   0.606495  -0.005869  -0.000192
    23  H    0.000004   0.000000   0.000000  -0.005869   0.600102  -0.005703
    24  H   -0.000000  -0.000000  -0.000000  -0.000192  -0.005703   0.604803
    25  H    0.000000   0.000005   0.000000   0.000017  -0.000200  -0.005693
    26  H    0.000000   0.003099   0.000005  -0.000168   0.000017  -0.000191
             25         26
     1  C    0.000000   0.000000
     2  O   -0.000000  -0.000000
     3  C   -0.000000  -0.000006
     4  C   -0.000000  -0.000004
     5  C    0.000001  -0.000064
     6  C   -0.000169  -0.010553
     7  C   -0.000000   0.005388
     8  C   -0.000000   0.000027
     9  C    0.003327  -0.040511
    10  C    0.000805   0.006250
    11  C    0.004747   0.000379
    12  C   -0.043593   0.004942
    13  C    0.357189  -0.045399
    14  C   -0.038714   0.349593
    15  H    0.000000  -0.000000
    16  H    0.000000  -0.000000
    17  H   -0.000000   0.000000
    18  H    0.000000   0.000000
    19  H    0.000000   0.000000
    20  H    0.000005   0.003099
    21  H    0.000000   0.000005
    22  H    0.000017  -0.000168
    23  H   -0.000200   0.000017
    24  H   -0.005693  -0.000191
    25  H    0.599470  -0.005831
    26  H   -0.005831   0.604344
 Mulliken atomic charges:
              1
     1  C   -0.217471
     2  O   -0.507771
     3  C    0.384891
     4  C   -0.199835
     5  C   -0.186743
     6  C    0.094239
     7  C   -0.181087
     8  C   -0.181962
     9  C    0.099708
    10  C   -0.182852
    11  C   -0.130275
    12  C   -0.127537
    13  C   -0.130048
    14  C   -0.183075
    15  H    0.168627
    16  H    0.153466
    17  H    0.153367
    18  H    0.131474
    19  H    0.132712
    20  H    0.133026
    21  H    0.138065
    22  H    0.127184
    23  H    0.128190
    24  H    0.126383
    25  H    0.128640
    26  H    0.128684
 Sum of Mulliken atomic charges =  -0.00000
 Mulliken charges with hydrogens summed into heavy atoms:
              1
     1  C    0.257989
     2  O   -0.507771
     3  C    0.384891
     4  C   -0.068361
     5  C   -0.054031
     6  C    0.094239
     7  C   -0.048061
     8  C   -0.043897
     9  C    0.099708
    10  C   -0.055668
    11  C   -0.002085
    12  C   -0.001154
    13  C   -0.001408
    14  C   -0.054391
 Sum of Mulliken charges with hydrogens summed into heavy atoms =  -0.00000
 Electronic spatial extent (au):  <R**2>=           3835.9111
 Charge=             -0.0000 electrons
 Dipole moment (field-independent basis, Debye):
    X=             -0.8833    Y=             -1.1482    Z=              0.3063  Tot=              1.4807
 Quadrupole moment (field-independent basis, Debye-Ang):
   XX=            -68.1116   YY=            -74.0239   ZZ=            -85.3210
   XY=              5.8336   XZ=             -1.2961   YZ=              0.2453
 Traceless Quadrupole moment (field-independent basis, Debye-Ang):
   XX=              7.7072   YY=              1.7949   ZZ=             -9.5022
   XY=              5.8336   XZ=             -1.2961   YZ=              0.2453
 Octapole moment (field-independent basis, Debye-Ang**2):
  XXX=            -45.5217  YYY=              2.4041  ZZZ=              0.3323  XYY=             -2.0843
  XXY=            -27.2065  XXZ=              8.7308  XZZ=            -13.5336  YZZ=              0.0711
  YYZ=             -1.2731  XYZ=              7.9856
 Hexadecapole moment (field-independent basis, Debye-Ang**3):
 XXXX=          -3857.5796 YYYY=           -556.8973 ZZZZ=           -138.2527 XXXY=            115.4429
 XXXZ=            -24.3758 YYYX=             -8.1308 YYYZ=              0.2541 ZZZX=             -1.9586
 ZZZY=             -0.3321 XXYY=           -790.8170 XXZZ=           -795.2895 YYZZ=           -123.5055
 XXYZ=             17.4677 YYXZ=              1.5400 ZZXY=              2.3841
 N-N= 7.832468810007D+02 E-N=-2.907093032098D+03  KE= 5.722363055146D+02
 No NMR shielding tensors so no spin-rotation constants.
 Leave Link  601 at Tue Sep 28 17:14:12 2021, MaxMem= 1073741824 cpu:       1.3
 (Enter /sw/target/amd/app/gaussian/Gaussian09RevA.02_gcc-4.9.2/g09/l701.exe)
 Compute integral first derivatives.
 ... and contract with generalized density number  0.
 Leave Link  701 at Tue Sep 28 17:14:14 2021, MaxMem= 1073741824 cpu:       1.3
 (Enter /sw/target/amd/app/gaussian/Gaussian09RevA.02_gcc-4.9.2/g09/l702.exe)
 L702 exits ... SP integral derivatives will be done elsewhere.
 Leave Link  702 at Tue Sep 28 17:14:15 2021, MaxMem= 1073741824 cpu:       0.1
 (Enter /sw/target/amd/app/gaussian/Gaussian09RevA.02_gcc-4.9.2/g09/l703.exe)
 Compute integral first derivatives, UseDBF=F ICtDFT=           0.
 Integral derivatives from FoFDir, PRISM(SPDF).
 Calling FoFJK, ICntrl=      2127 FMM=F ISym2X=0 I1Cent= 0 IOpClX= 0 NMat=1 NMatS=1 NMatT=0.
 FoFCou: FMM=F IPFlag=           0 FMFlag=      100000 FMFlg1=         800
         NFxFlg=           0 DoJE=F BraDBF=F KetDBF=F FulRan=T
         Omega=  0.000000  0.000000  1.000000  0.000000  0.000000 ICntrl=    2127 IOpCl=  0
         NMat0=    1 NMatS0=    1 NMatT0=    0 NMatD0=    1 NMtDS0=    0 NMtDT0=    0
         I1Cent=           0 NGrid=           0.
 Symmetry not used in FoFCou.
 Leave Link  703 at Tue Sep 28 17:15:26 2021, MaxMem= 1073741824 cpu:      82.6
 (Enter /sw/target/amd/app/gaussian/Gaussian09RevA.02_gcc-4.9.2/g09/l716.exe)
 Dipole        =-3.47509949D-01-4.51754119D-01 1.20495683D-01
 ***** Axes restored to original set *****
 -------------------------------------------------------------------
 Center     Atomic                   Forces (Hartrees/Bohr)
 Number     Number              X              Y              Z
 -------------------------------------------------------------------
      1        6          -0.000385040   -0.000721887   -0.005561456
      2        8          -0.007085163   -0.000615728    0.001687118
      3        6           0.003798379   -0.000303896   -0.008219081
      4        6          -0.003356748    0.000956373    0.013124572
      5        6           0.000587259   -0.001464089   -0.004963104
      6        6          -0.005140798   -0.000586976    0.002615055
      7        6          -0.004750552   -0.000986894   -0.011044949
      8        6           0.016241998    0.003659604    0.007340316
      9        6           0.003147988    0.001119350    0.003913393
     10        6          -0.001064991   -0.000696767    0.004454680
     11        6          -0.004174215   -0.001483931   -0.004070567
     12        6           0.003054687    0.001112258    0.003780064
     13        6          -0.003028596   -0.001042691   -0.005232842
     14        6           0.004085495    0.001800529   -0.000230765
     15        1           0.004676643    0.000491202   -0.000836157
     16        1          -0.000760601   -0.000418371    0.003554838
     17        1          -0.001516242    0.000711250    0.003661146
     18        1           0.000124434    0.000230853   -0.001774287
     19        1           0.001802508    0.000537546   -0.000664905
     20        1          -0.000789736   -0.000189443    0.002137285
     21        1          -0.002314511   -0.000826830    0.000404009
     22        1           0.000027462    0.000133705   -0.002805362
     23        1          -0.000515916   -0.000746947   -0.000509659
     24        1           0.000362304    0.000088633    0.000506144
     25        1          -0.000484396    0.000336027   -0.000773620
     26        1          -0.002541651   -0.001092882   -0.000491865
 -------------------------------------------------------------------
 Cartesian Forces:  Max     0.016241998 RMS     0.003830957
 Leave Link  716 at Tue Sep 28 17:15:27 2021, MaxMem= 1073741824 cpu:       0.1
 (Enter /sw/target/amd/app/gaussian/Gaussian09RevA.02_gcc-4.9.2/g09/l103.exe)

 GradGradGradGradGradGradGradGradGradGradGradGradGradGradGradGradGradGrad
 Berny optimization.
 Internal  Forces:  Max     0.010322218 RMS     0.002298084
 Search for a local minimum.
 Step number   1 out of a maximum of  137
 All quantities printed in internal units (Hartrees-Bohrs-Radians)
 RMS Force = .22981D-02 SwitMx=.10000D-02 MixMth= 1
 Mixed Optimization -- RFO/linear search
 Second derivative matrix not updated -- first step.
     Eigenvalues ---    0.00962   0.01400   0.01655   0.01670   0.01995
     Eigenvalues ---    0.02007   0.02019   0.02034   0.02045   0.02053
     Eigenvalues ---    0.02078   0.02100   0.02121   0.02134   0.02134
     Eigenvalues ---    0.02150   0.02160   0.02161   0.02185   0.02192
     Eigenvalues ---    0.02212   0.09986   0.10541   0.15998   0.15998
     Eigenvalues ---    0.15999   0.15999   0.16000   0.16000   0.16000
     Eigenvalues ---    0.16000   0.16000   0.16000   0.16000   0.16000
     Eigenvalues ---    0.21999   0.22000   0.22000   0.22960   0.23458
     Eigenvalues ---    0.24000   0.25000   0.25000   0.25000   0.25000
     Eigenvalues ---    0.33985   0.34222   0.34230   0.34315   0.35057
     Eigenvalues ---    0.35064   0.35082   0.35094   0.35131   0.35171
     Eigenvalues ---    0.35174   0.35258   0.35374   0.41018   0.41271
     Eigenvalues ---    0.41433   0.41829   0.42155   0.44649   0.44719
     Eigenvalues ---    0.45317   0.45817   0.45966   0.46118   0.46837
     Eigenvalues ---    0.46988   0.516341000.000001000.000001000.00000
     Eigenvalues --- 1000.000001000.000001000.000001000.000001000.00000
     Eigenvalues --- 1000.000001000.000001000.000001000.000001000.00000
     Eigenvalues --- 1000.000001000.000001000.000001000.000001000.00000
     Eigenvalues --- 1000.000001000.000001000.000001000.000001000.00000
     Eigenvalues --- 1000.000001000.000001000.000001000.000001000.00000
     Eigenvalues --- 1000.000001000.000001000.000001000.000001000.00000
     Eigenvalues --- 1000.000001000.000001000.000001000.000001000.00000
     Eigenvalues --- 1000.000001000.000001000.000001000.000001000.00000
     Eigenvalues --- 1000.000001000.000001000.000001000.000001000.00000
     Eigenvalues --- 1000.000001000.000001000.000001000.000001000.00000
     Eigenvalues --- 1000.000001000.00000
 RFO step:  Lambda=-2.51591866D-03 EMin= 9.62188129D-03
 Linear search not attempted -- first point.
 Iteration  1 RMS(Cart)=  0.03908421 RMS(Int)=  0.00063881
 Iteration  2 RMS(Cart)=  0.00077014 RMS(Int)=  0.00006926
 Iteration  3 RMS(Cart)=  0.00000052 RMS(Int)=  0.00006926
 Variable       Old X    -DE/DX   Delta X   Delta X   Delta X     New X
                                 (Linear)    (Quad)   (Total)
    R1        2.68726  -0.00191   0.00000  -0.00450  -0.00450   2.68276
    R2        2.06802  -0.00109   0.00000  -0.00316  -0.00316   2.06486
    R3        2.06957   0.00144   0.00000   0.00418   0.00418   2.07374
    R4        2.06944   0.00164   0.00000   0.00475   0.00475   2.07419
    R5        2.58251   0.00062   0.00000   0.00119   0.00119   2.58370
    R6        2.62693   0.00695   0.00000   0.01544   0.01542   2.64235
    R7        2.63434   0.00674   0.00000   0.01516   0.01514   2.64948
    R8        2.65198  -0.00633   0.00000  -0.01392  -0.01393   2.63805
    R9        2.05073  -0.00048   0.00000  -0.00135  -0.00135   2.04937
   R10        2.66082  -0.00459   0.00000  -0.01112  -0.01111   2.64971
   R11        2.05582  -0.00132   0.00000  -0.00374  -0.00374   2.05207
   R12        2.65461   0.00201   0.00000   0.00360   0.00363   2.65823
   R13        2.80655  -0.00191   0.00000  -0.00556  -0.00556   2.80099
   R14        2.64676  -0.01032   0.00000  -0.02261  -0.02260   2.62416
   R15        2.05572  -0.00118   0.00000  -0.00335  -0.00335   2.05237
   R16        2.05463  -0.00123   0.00000  -0.00347  -0.00347   2.05116
   R17        2.66147  -0.00231   0.00000  -0.00577  -0.00576   2.65571
   R18        2.66219  -0.00254   0.00000  -0.00632  -0.00630   2.65589
   R19        2.64326  -0.00403   0.00000  -0.00873  -0.00873   2.63453
   R20        2.05523  -0.00054   0.00000  -0.00152  -0.00152   2.05371
   R21        2.62795   0.00463   0.00000   0.01033   0.01032   2.63827
   R22        2.05393  -0.00007   0.00000  -0.00019  -0.00019   2.05374
   R23        2.62818   0.00454   0.00000   0.01013   0.01012   2.63830
   R24        2.05259   0.00063   0.00000   0.00177   0.00177   2.05435
   R25        2.64351  -0.00408   0.00000  -0.00888  -0.00888   2.63462
   R26        2.05398  -0.00010   0.00000  -0.00027  -0.00027   2.05371
   R27        2.05542  -0.00060   0.00000  -0.00169  -0.00169   2.05373
    A1        1.88133  -0.00629   0.00000  -0.03608  -0.03600   1.84533
    A2        1.94289   0.00109   0.00000   0.00527   0.00531   1.94820
    A3        1.93683   0.00207   0.00000   0.01147   0.01154   1.94836
    A4        1.87790   0.00347   0.00000   0.02373   0.02379   1.90169
    A5        1.88105   0.00316   0.00000   0.02229   0.02239   1.90344
    A6        1.94076  -0.00349   0.00000  -0.02604  -0.02601   1.91475
    A7        2.03897   0.00434   0.00000   0.01720   0.01720   2.05617
    A8        2.20460  -0.00544   0.00000  -0.02329  -0.02327   2.18133
    A9        2.00527   0.00480   0.00000   0.01727   0.01729   2.02256
   A10        2.07331   0.00064   0.00000   0.00603   0.00598   2.07930
   A11        2.10013  -0.00263   0.00000  -0.00947  -0.00951   2.09062
   A12        2.12673  -0.00040   0.00000  -0.00583  -0.00581   2.12092
   A13        2.05630   0.00304   0.00000   0.01532   0.01534   2.07164
   A14        2.12779   0.00057   0.00000   0.00137   0.00134   2.12913
   A15        2.05405   0.00121   0.00000   0.00843   0.00839   2.06244
   A16        2.10123  -0.00178   0.00000  -0.01000  -0.01003   2.09120
   A17        2.03500   0.00324   0.00000   0.01005   0.01008   2.04508
   A18        2.12271  -0.00157   0.00000  -0.00483  -0.00485   2.11787
   A19        2.12547  -0.00167   0.00000  -0.00521  -0.00523   2.12024
   A20        2.12261   0.00009   0.00000  -0.00115  -0.00121   2.12141
   A21        2.10645  -0.00203   0.00000  -0.01171  -0.01179   2.09466
   A22        2.05408   0.00194   0.00000   0.01267   0.01258   2.06666
   A23        2.10739  -0.00190   0.00000  -0.00652  -0.00655   2.10084
   A24        2.08836  -0.00122   0.00000  -0.01009  -0.01008   2.07828
   A25        2.08743   0.00312   0.00000   0.01660   0.01661   2.10404
   A26        2.12411  -0.00240   0.00000  -0.00860  -0.00862   2.11549
   A27        2.12184  -0.00239   0.00000  -0.00852  -0.00854   2.11330
   A28        2.03723   0.00479   0.00000   0.01713   0.01717   2.05440
   A29        2.12456  -0.00176   0.00000  -0.00868  -0.00871   2.11585
   A30        2.10301  -0.00191   0.00000  -0.01291  -0.01297   2.09004
   A31        2.05555   0.00366   0.00000   0.02139   0.02131   2.07687
   A32        2.09719   0.00007   0.00000   0.00203   0.00202   2.09921
   A33        2.09226  -0.00101   0.00000  -0.00702  -0.00702   2.08524
   A34        2.09373   0.00094   0.00000   0.00497   0.00497   2.09869
   A35        2.08586  -0.00151   0.00000  -0.00391  -0.00393   2.08193
   A36        2.09898   0.00072   0.00000   0.00172   0.00173   2.10071
   A37        2.09835   0.00080   0.00000   0.00219   0.00220   2.10055
   A38        2.09698   0.00017   0.00000   0.00237   0.00235   2.09933
   A39        2.09437   0.00083   0.00000   0.00444   0.00445   2.09882
   A40        2.09181  -0.00100   0.00000  -0.00683  -0.00682   2.08499
   A41        2.12445  -0.00176   0.00000  -0.00878  -0.00880   2.11564
   A42        2.10296  -0.00191   0.00000  -0.01287  -0.01291   2.09005
   A43        2.05569   0.00367   0.00000   0.02146   0.02141   2.07709
    D1        3.11185   0.00019   0.00000   0.01491   0.01495   3.12680
    D2        1.05623  -0.00081   0.00000   0.00510   0.00512   1.06135
    D3       -1.11533   0.00139   0.00000   0.02664   0.02658  -1.08875
    D4       -0.01048   0.00027   0.00000   0.01133   0.01132   0.00084
    D5        3.13404   0.00019   0.00000   0.00793   0.00793  -3.14121
    D6       -3.12658  -0.00034   0.00000  -0.01397  -0.01393  -3.14051
    D7        0.00673  -0.00028   0.00000  -0.01163  -0.01165  -0.00493
    D8        0.01199  -0.00025   0.00000  -0.01043  -0.01042   0.00156
    D9       -3.13789  -0.00018   0.00000  -0.00809  -0.00815   3.13714
   D10        3.14047  -0.00005   0.00000  -0.00203  -0.00201   3.13846
   D11       -0.00423  -0.00015   0.00000  -0.00667  -0.00667  -0.01090
   D12        0.00157  -0.00011   0.00000  -0.00510  -0.00513  -0.00357
   D13        3.14005  -0.00022   0.00000  -0.00974  -0.00980   3.13025
   D14       -0.01435   0.00036   0.00000   0.01532   0.01531   0.00097
   D15        3.11144   0.00002   0.00000   0.00022   0.00007   3.11151
   D16        3.13521   0.00032   0.00000   0.01317   0.01320  -3.13478
   D17       -0.02219  -0.00003   0.00000  -0.00193  -0.00205  -0.02424
   D18        0.00265  -0.00006   0.00000  -0.00400  -0.00411  -0.00146
   D19        3.14006  -0.00002   0.00000  -0.00150  -0.00161   3.13845
   D20       -3.12272   0.00027   0.00000   0.01134   0.01121  -3.11151
   D21        0.01469   0.00031   0.00000   0.01384   0.01371   0.02840
   D22        0.01111  -0.00025   0.00000  -0.01161  -0.01169  -0.00058
   D23       -3.11994   0.00026   0.00000   0.01115   0.01097  -3.10898
   D24       -3.12629  -0.00029   0.00000  -0.01411  -0.01419  -3.14049
   D25        0.02583   0.00022   0.00000   0.00865   0.00847   0.03430
   D26        0.55503   0.00047   0.00000   0.03864   0.03863   0.59365
   D27       -2.58312   0.00040   0.00000   0.03538   0.03541  -2.54771
   D28       -2.59096   0.00053   0.00000   0.04130   0.04127  -2.54969
   D29        0.55408   0.00046   0.00000   0.03805   0.03806   0.59214
   D30       -0.01350   0.00040   0.00000   0.01663   0.01661   0.00311
   D31        3.13120   0.00051   0.00000   0.02132   0.02139  -3.13060
   D32        3.11786  -0.00012   0.00000  -0.00561  -0.00584   3.11202
   D33       -0.02063  -0.00001   0.00000  -0.00092  -0.00106  -0.02168
   D34       -3.12995  -0.00018   0.00000  -0.00838  -0.00839  -3.13834
   D35        0.02374   0.00027   0.00000   0.01146   0.01127   0.03502
   D36        0.00835  -0.00013   0.00000  -0.00532  -0.00532   0.00303
   D37       -3.12114   0.00032   0.00000   0.01452   0.01434  -3.10680
   D38       -3.14067  -0.00004   0.00000  -0.00143  -0.00145   3.14107
   D39        0.01597   0.00031   0.00000   0.01438   0.01423   0.03021
   D40        0.00421  -0.00010   0.00000  -0.00449  -0.00451  -0.00030
   D41       -3.12233   0.00025   0.00000   0.01133   0.01117  -3.11116
   D42       -0.01337   0.00025   0.00000   0.00997   0.00998  -0.00339
   D43        3.13314   0.00038   0.00000   0.01553   0.01554  -3.13451
   D44        3.11644  -0.00022   0.00000  -0.00957  -0.00976   3.10668
   D45       -0.02024  -0.00009   0.00000  -0.00401  -0.00420  -0.02444
   D46        0.00549  -0.00010   0.00000  -0.00450  -0.00456   0.00093
   D47       -3.13608  -0.00008   0.00000  -0.00376  -0.00381  -3.13989
   D48       -3.14102  -0.00024   0.00000  -0.01010  -0.01020   3.13197
   D49        0.00059  -0.00022   0.00000  -0.00936  -0.00944  -0.00885
   D50        0.00685  -0.00012   0.00000  -0.00504  -0.00508   0.00177
   D51       -3.14063  -0.00021   0.00000  -0.00832  -0.00838   3.13417
   D52       -3.13477  -0.00013   0.00000  -0.00578  -0.00583  -3.14060
   D53        0.00094  -0.00022   0.00000  -0.00907  -0.00914  -0.00819
   D54       -0.01188   0.00023   0.00000   0.00977   0.00979  -0.00209
   D55        3.11506  -0.00015   0.00000  -0.00591  -0.00606   3.10900
   D56        3.13559   0.00032   0.00000   0.01301   0.01303  -3.13456
   D57       -0.02066  -0.00007   0.00000  -0.00267  -0.00282  -0.02348
         Item               Value     Threshold  Converged?
 Maximum Force            0.010322     0.000450     NO 
 RMS     Force            0.002298     0.000300     NO 
 Maximum Displacement     0.128475     0.001800     NO 
 RMS     Displacement     0.039269     0.001200     NO 
 Predicted change in Energy=-1.284957D-03
 GradGradGradGradGradGradGradGradGradGradGradGradGradGradGradGradGradGrad

 Leave Link  103 at Tue Sep 28 17:15:36 2021, MaxMem= 1073741824 cpu:       4.9
 (Enter /sw/target/amd/app/gaussian/Gaussian09RevA.02_gcc-4.9.2/g09/l202.exe)
                          Input orientation:                          
 ---------------------------------------------------------------------
 Center     Atomic      Atomic             Coordinates (Angstroms)
 Number     Number       Type             X           Y           Z
 ---------------------------------------------------------------------
      1          6           0        0.901888    0.161520    0.185690
      2          8           0        2.301846    0.351797    0.046631
      3          6           0        3.024793    0.617428    1.176287
      4          6           0        2.491047    0.716021    2.464913
      5          6           0        3.331677    0.993719    3.544281
      6          6           0        4.711713    1.181389    3.381936
      7          6           0        5.225115    1.076692    2.076488
      8          6           0        4.402874    0.798688    0.992527
      9          6           0        5.590525    1.479554    4.537688
     10          6           0        5.334398    0.933742    5.807128
     11          6           0        6.158490    1.216969    6.895368
     12          6           0        7.265981    2.052869    6.740866
     13          6           0        7.537525    2.601833    5.486248
     14          6           0        6.709399    2.318996    4.400913
     15          1           0        0.525808   -0.019586   -0.824115
     16          1           0        0.411087    1.053972    0.594202
     17          1           0        0.672233   -0.707958    0.814993
     18          1           0        1.430431    0.586863    2.650688
     19          1           0        2.885491    1.092695    4.529331
     20          1           0        6.291730    1.183548    1.901984
     21          1           0        4.817784    0.711418   -0.006665
     22          1           0        4.497035    0.254470    5.943134
     23          1           0        5.937669    0.774047    7.862932
     24          1           0        7.910430    2.273392    7.588142
     25          1           0        8.391459    3.260050    5.349769
     26          1           0        6.922287    2.781738    3.440884
 ---------------------------------------------------------------------
                    Distance matrix (angstroms):
                    1          2          3          4          5
     1  C    0.000000
     2  O    1.419656   0.000000
     3  C    2.386600   1.367236   0.000000
     4  C    2.833329   2.452864   1.398271   0.000000
[...]
 Octapole moment (field-independent basis, Debye-Ang**2):
  XXX=           -138.2350  YYY=              3.2655  ZZZ=              0.2685  XYY=            -12.6541
  XXY=            -27.5581  XXZ=              9.4376  XZZ=            -17.8546  YZZ=              0.3457
  YYZ=             -1.5770  XYZ=              8.6604
 Hexadecapole moment (field-independent basis, Debye-Ang**3):
 XXXX=          -3856.6627 YYYY=           -553.8216 ZZZZ=           -156.4822 XXXY=            122.0185
 XXXZ=            -34.3513 YYYX=             -3.8072 YYYZ=             -3.8517 ZZZX=             -2.9876
 ZZZY=             -2.1593 XXYY=           -793.5405 XXZZ=           -792.1438 YYZZ=           -122.4204
 XXYZ=             13.7086 YYXZ=              1.0524 ZZXY=              2.9525
 N-N= 7.845779077385D+02 E-N=-2.909513217452D+03  KE= 5.724247596341D+02
 No NMR shielding tensors so no spin-rotation constants.
 Leave Link  601 at Tue Sep 28 22:08:59 2021, MaxMem= 1073741824 cpu:       1.2
 (Enter /sw/target/amd/app/gaussian/Gaussian09RevA.02_gcc-4.9.2/g09/l604.exe)
 Evaluate density.
 Using the total density.
 Monte-Carlo method of calculating molar volume:
 based on  0.001 e/bohr**3 density envelope.
 Number of points per bohr**3 =   20 CutOff= 1.00D-04
 Using the CI density.
 There are       401 points.  Will hold       401 in memory.
 LenV=  1073591396 MDV=  1073741824.
 Box volume = 8062.214 fraction occupied=0.190
 Integrated density= 1.3762270532111023D+02 error= 3.9622705321110232D+01
 Molar volume = 1528.001 bohr**3/mol (136.357 cm**3/mol)
 Recommended a0 for SCRF calculation =  4.66 angstrom (  8.81 bohr)
 Leave Link  604 at Tue Sep 28 22:09:00 2021, MaxMem= 1073741824 cpu:       0.3
 (Enter /sw/target/amd/app/gaussian/Gaussian09RevA.02_gcc-4.9.2/g09/l607.exe)
 ******************************Gaussian NBO Version 3.1******************************
             N A T U R A L   A T O M I C   O R B I T A L   A N D
          N A T U R A L   B O N D   O R B I T A L   A N A L Y S I S
 ******************************Gaussian NBO Version 3.1******************************
       /RESON  / : Allow strongly delocalized NBO set

 Analyzing the CI density

 Job title: COc1ccc(cc1)c1ccccc1_conf_0                                     

 Storage needed:    166556 in NPA (1073738184 available)


 NATURAL POPULATIONS:  Natural atomic orbital occupancies 
                                                          
   NAO  Atom  No  lang   Type(AO)    Occupancy
 --------------------------------------------
     1    C    1  S      Cor( 1S)     1.99942
     2    C    1  S      Val( 2S)     1.10460
     3    C    1  S      Ryd( 3S)     0.00148
     4    C    1  S      Ryd( 4S)     0.00003
     5    C    1  px     Val( 2p)     1.05427
     6    C    1  px     Ryd( 3p)     0.00248
     7    C    1  py     Val( 2p)     0.94722
     8    C    1  py     Ryd( 3p)     0.00318
     9    C    1  pz     Val( 2p)     1.20595
    10    C    1  pz     Ryd( 3p)     0.00062
    11    C    1  dxy    Ryd( 3d)     0.00161
    12    C    1  dxz    Ryd( 3d)     0.00064
    13    C    1  dyz    Ryd( 3d)     0.00151
    14    C    1  dx2y2  Ryd( 3d)     0.00142
    15    C    1  dz2    Ryd( 3d)     0.00129

    16    O    2  S      Cor( 1S)     1.99975
    17    O    2  S      Val( 2S)     1.59587
    18    O    2  S      Ryd( 3S)     0.00079
    19    O    2  S      Ryd( 4S)     0.00006
    20    O    2  px     Val( 2p)     1.42903
    21    O    2  px     Ryd( 3p)     0.00110
    22    O    2  py     Val( 2p)     1.67891
    23    O    2  py     Ryd( 3p)     0.00216
    24    O    2  pz     Val( 2p)     1.73476
    25    O    2  pz     Ryd( 3p)     0.00235
    26    O    2  dxy    Ryd( 3d)     0.00128
    27    O    2  dxz    Ryd( 3d)     0.00077
    28    O    2  dyz    Ryd( 3d)     0.00129
    29    O    2  dx2y2  Ryd( 3d)     0.00129
    30    O    2  dz2    Ryd( 3d)     0.00086

    31    C    3  S      Cor( 1S)     1.99878
    32    C    3  S      Val( 2S)     0.83862
    33    C    3  S      Ryd( 3S)     0.00139
    34    C    3  S      Ryd( 4S)     0.00013
    35    C    3  px     Val( 2p)     0.75220
    36    C    3  px     Ryd( 3p)     0.00673
    37    C    3  py     Val( 2p)     1.07405
    38    C    3  py     Ryd( 3p)     0.00566
    39    C    3  pz     Val( 2p)     0.99363
    40    C    3  pz     Ryd( 3p)     0.00248
    41    C    3  dxy    Ryd( 3d)     0.00146
    42    C    3  dxz    Ryd( 3d)     0.00181
    43    C    3  dyz    Ryd( 3d)     0.00068
    44    C    3  dx2y2  Ryd( 3d)     0.00172
    45    C    3  dz2    Ryd( 3d)     0.00062

    46    C    4  S      Cor( 1S)     1.99904
    47    C    4  S      Val( 2S)     0.96647
    48    C    4  S      Ryd( 3S)     0.00064
    49    C    4  S      Ryd( 4S)     0.00005
    50    C    4  px     Val( 2p)     1.12207
    51    C    4  px     Ryd( 3p)     0.00402
    52    C    4  py     Val( 2p)     1.14124
    53    C    4  py     Ryd( 3p)     0.00377
    54    C    4  pz     Val( 2p)     1.02398
    55    C    4  pz     Ryd( 3p)     0.00109
    56    C    4  dxy    Ryd( 3d)     0.00089
    57    C    4  dxz    Ryd( 3d)     0.00069
    58    C    4  dyz    Ryd( 3d)     0.00051
    59    C    4  dx2y2  Ryd( 3d)     0.00050
    60    C    4  dz2    Ryd( 3d)     0.00044

    61    C    5  S      Cor( 1S)     1.99907
    62    C    5  S      Val( 2S)     0.95083
    63    C    5  S      Ryd( 3S)     0.00082
    64    C    5  S      Ryd( 4S)     0.00006
    65    C    5  px     Val( 2p)     1.06987
    66    C    5  px     Ryd( 3p)     0.00393
    67    C    5  py     Val( 2p)     1.17019
    68    C    5  py     Ryd( 3p)     0.00528
    69    C    5  pz     Val( 2p)     1.04190
    70    C    5  pz     Ryd( 3p)     0.00385
    71    C    5  dxy    Ryd( 3d)     0.00074
    72    C    5  dxz    Ryd( 3d)     0.00054
    73    C    5  dyz    Ryd( 3d)     0.00047
    74    C    5  dx2y2  Ryd( 3d)     0.00066
    75    C    5  dz2    Ryd( 3d)     0.00039

    76    C    6  S      Cor( 1S)     1.99902
    77    C    6  S      Val( 2S)     0.88333
    78    C    6  S      Ryd( 3S)     0.00061
    79    C    6  S      Ryd( 4S)     0.00006
    80    C    6  px     Val( 2p)     1.08556
    81    C    6  px     Ryd( 3p)     0.00512
    82    C    6  py     Val( 2p)     1.06068
    83    C    6  py     Ryd( 3p)     0.00529
    84    C    6  pz     Val( 2p)     0.92033
    85    C    6  pz     Ryd( 3p)     0.00237
    86    C    6  dxy    Ryd( 3d)     0.00085
    87    C    6  dxz    Ryd( 3d)     0.00106
    88    C    6  dyz    Ryd( 3d)     0.00048
    89    C    6  dx2y2  Ryd( 3d)     0.00064
    90    C    6  dz2    Ryd( 3d)     0.00038

    91    C    7  S      Cor( 1S)     1.99906
    92    C    7  S      Val( 2S)     0.95923
    93    C    7  S      Ryd( 3S)     0.00069
    94    C    7  S      Ryd( 4S)     0.00006
    95    C    7  px     Val( 2p)     1.09636
    96    C    7  px     Ryd( 3p)     0.00374
    97    C    7  py     Val( 2p)     1.14439
    98    C    7  py     Ryd( 3p)     0.00474
    99    C    7  pz     Val( 2p)     0.98467
   100    C    7  pz     Ryd( 3p)     0.00137
   101    C    7  dxy    Ryd( 3d)     0.00083
   102    C    7  dxz    Ryd( 3d)     0.00067
   103    C    7  dyz    Ryd( 3d)     0.00048
   104    C    7  dx2y2  Ryd( 3d)     0.00063
   105    C    7  dz2    Ryd( 3d)     0.00039

   106    C    8  S      Cor( 1S)     1.99905
   107    C    8  S      Val( 2S)     0.96690
   108    C    8  S      Ryd( 3S)     0.00088
   109    C    8  S      Ryd( 4S)     0.00005
   110    C    8  px     Val( 2p)     1.09909
   111    C    8  px     Ryd( 3p)     0.00541
   112    C    8  py     Val( 2p)     1.14842
   113    C    8  py     Ryd( 3p)     0.00443
   114    C    8  pz     Val( 2p)     1.02944
   115    C    8  pz     Ryd( 3p)     0.00233
   116    C    8  dxy    Ryd( 3d)     0.00088
   117    C    8  dxz    Ryd( 3d)     0.00061
   118    C    8  dyz    Ryd( 3d)     0.00049
   119    C    8  dx2y2  Ryd( 3d)     0.00049
   120    C    8  dz2    Ryd( 3d)     0.00043

   121    C    9  S      Cor( 1S)     1.99901
   122    C    9  S      Val( 2S)     0.86174
   123    C    9  S      Ryd( 3S)     0.00056
   124    C    9  S      Ryd( 4S)     0.00006
   125    C    9  px     Val( 2p)     1.04601
   126    C    9  px     Ryd( 3p)     0.00458
   127    C    9  py     Val( 2p)     1.10532
   128    C    9  py     Ryd( 3p)     0.00571
   129    C    9  pz     Val( 2p)     1.11626
   130    C    9  pz     Ryd( 3p)     0.00328
   131    C    9  dxy    Ryd( 3d)     0.00063
   132    C    9  dxz    Ryd( 3d)     0.00057
   133    C    9  dyz    Ryd( 3d)     0.00049
   134    C    9  dx2y2  Ryd( 3d)     0.00068
   135    C    9  dz2    Ryd( 3d)     0.00041

   136    C   10  S      Cor( 1S)     1.99905
   137    C   10  S      Val( 2S)     0.94439
   138    C   10  S      Ryd( 3S)     0.00060
   139    C   10  S      Ryd( 4S)     0.00005
   140    C   10  px     Val( 2p)     1.10416
   141    C   10  px     Ryd( 3p)     0.00378
   142    C   10  py     Val( 2p)     1.12750
   143    C   10  py     Ryd( 3p)     0.00446
   144    C   10  pz     Val( 2p)     1.05908
   145    C   10  pz     Ryd( 3p)     0.00336
   146    C   10  dxy    Ryd( 3d)     0.00082
   147    C   10  dxz    Ryd( 3d)     0.00065
   148    C   10  dyz    Ryd( 3d)     0.00052
   149    C   10  dx2y2  Ryd( 3d)     0.00056
   150    C   10  dz2    Ryd( 3d)     0.00037

   151    C   11  S      Cor( 1S)     1.99911
   152    C   11  S      Val( 2S)     0.95838
   153    C   11  S      Ryd( 3S)     0.00061
   154    C   11  S      Ryd( 4S)     0.00003
   155    C   11  px     Val( 2p)     1.09001
   156    C   11  px     Ryd( 3p)     0.00478
   157    C   11  py     Val( 2p)     1.14758
   158    C   11  py     Ryd( 3p)     0.00466
   159    C   11  pz     Val( 2p)     1.01922
   160    C   11  pz     Ryd( 3p)     0.00156
   161    C   11  dxy    Ryd( 3d)     0.00081
   162    C   11  dxz    Ryd( 3d)     0.00073
   163    C   11  dyz    Ryd( 3d)     0.00049
   164    C   11  dx2y2  Ryd( 3d)     0.00064
   165    C   11  dz2    Ryd( 3d)     0.00043

   166    C   12  S      Cor( 1S)     1.99909
   167    C   12  S      Val( 2S)     0.95450
   168    C   12  S      Ryd( 3S)     0.00052
   169    C   12  S      Ryd( 4S)     0.00003
   170    C   12  px     Val( 2p)     1.18687
   171    C   12  px     Ryd( 3p)     0.00457
   172    C   12  py     Val( 2p)     1.05831
   173    C   12  py     Ryd( 3p)     0.00491
   174    C   12  pz     Val( 2p)     1.07210
   175    C   12  pz     Ryd( 3p)     0.00467
   176    C   12  dxy    Ryd( 3d)     0.00059
   177    C   12  dxz    Ryd( 3d)     0.00036
   178    C   12  dyz    Ryd( 3d)     0.00044
   179    C   12  dx2y2  Ryd( 3d)     0.00084
   180    C   12  dz2    Ryd( 3d)     0.00048

   181    C   13  S      Cor( 1S)     1.99911
   182    C   13  S      Val( 2S)     0.95634
   183    C   13  S      Ryd( 3S)     0.00063
   184    C   13  S      Ryd( 4S)     0.00003
   185    C   13  px     Val( 2p)     1.09692
   186    C   13  px     Ryd( 3p)     0.00487
   187    C   13  py     Val( 2p)     1.14024
   188    C   13  py     Ryd( 3p)     0.00468
   189    C   13  pz     Val( 2p)     1.04608
   190    C   13  pz     Ryd( 3p)     0.00229
   191    C   13  dxy    Ryd( 3d)     0.00079
   192    C   13  dxz    Ryd( 3d)     0.00064
   193    C   13  dyz    Ryd( 3d)     0.00053
   194    C   13  dx2y2  Ryd( 3d)     0.00061
   195    C   13  dz2    Ryd( 3d)     0.00041

   196    C   14  S      Cor( 1S)     1.99905
   197    C   14  S      Val( 2S)     0.94799
   198    C   14  S      Ryd( 3S)     0.00058
   199    C   14  S      Ryd( 4S)     0.00005
   200    C   14  px     Val( 2p)     1.09452
   201    C   14  px     Ryd( 3p)     0.00364
   202    C   14  py     Val( 2p)     1.13097
   203    C   14  py     Ryd( 3p)     0.00426
   204    C   14  pz     Val( 2p)     1.02658
   205    C   14  pz     Ryd( 3p)     0.00217
   206    C   14  dxy    Ryd( 3d)     0.00084
   207    C   14  dxz    Ryd( 3d)     0.00077
   208    C   14  dyz    Ryd( 3d)     0.00048
   209    C   14  dx2y2  Ryd( 3d)     0.00058
   210    C   14  dz2    Ryd( 3d)     0.00040

   211    H   15  S      Val( 1S)     0.76301
   212    H   15  S      Ryd( 2S)     0.00054

   213    H   16  S      Val( 1S)     0.78354
   214    H   16  S      Ryd( 2S)     0.00218

   215    H   17  S      Val( 1S)     0.78361
   216    H   17  S      Ryd( 2S)     0.00241

   217    H   18  S      Val( 1S)     0.75801
   218    H   18  S      Ryd( 2S)     0.00093

   219    H   19  S      Val( 1S)     0.75308
   220    H   19  S      Ryd( 2S)     0.00148

   221    H   20  S      Val( 1S)     0.74998
   222    H   20  S      Ryd( 2S)     0.00115

   223    H   21  S      Val( 1S)     0.74758
   224    H   21  S      Ryd( 2S)     0.00120

   225    H   22  S      Val( 1S)     0.77816
   226    H   22  S      Ryd( 2S)     0.00163

   227    H   23  S      Val( 1S)     0.77162
   228    H   23  S      Ryd( 2S)     0.00095

   229    H   24  S      Val( 1S)     0.77519
   230    H   24  S      Ryd( 2S)     0.00104

   231    H   25  S      Val( 1S)     0.77189
   232    H   25  S      Ryd( 2S)     0.00092

   233    H   26  S      Val( 1S)     0.77764
   234    H   26  S      Ryd( 2S)     0.00128

 WARNING:  1 low occupancy (<1.9990e) core orbital  found on  C    3


 Summary of Natural Population Analysis:                  
                                                          
                                       Natural Population 
                Natural  -----------------------------------------------
    Atom  No    Charge         Core      Valence    Rydberg      Total
 -----------------------------------------------------------------------
      C    1   -0.32574      1.99942     4.31205    0.01427     6.32574
      O    2   -0.45027      1.99975     6.43856    0.01195     8.45027
      C    3    0.32004      1.99878     3.65850    0.02268     5.67996
      C    4   -0.26541      1.99904     4.25376    0.01261     6.26541
      C    5   -0.24860      1.99907     4.23280    0.01673     6.24860
      C    6    0.03419      1.99902     3.94990    0.01688     5.96581
      C    7   -0.19733      1.99906     4.18465    0.01362     6.19733
      C    8   -0.25889      1.99905     4.24384    0.01600     6.25889
      C    9   -0.14530      1.99901     4.12932    0.01697     6.14530
      C   10   -0.24935      1.99905     4.23513    0.01516     6.24935
      C   11   -0.22902      1.99911     4.21519    0.01473     6.22902
      C   12   -0.28828      1.99909     4.27177    0.01741     6.28828
      C   13   -0.25417      1.99911     4.23957    0.01548     6.25417
      C   14   -0.21288      1.99905     4.20006    0.01376     6.21288
      H   15    0.23645      0.00000     0.76301    0.00054     0.76355
      H   16    0.21428      0.00000     0.78354    0.00218     0.78572
      H   17    0.21398      0.00000     0.78361    0.00241     0.78602
      H   18    0.24106      0.00000     0.75801    0.00093     0.75894
      H   19    0.24544      0.00000     0.75308    0.00148     0.75456
      H   20    0.24887      0.00000     0.74998    0.00115     0.75113
      H   21    0.25122      0.00000     0.74758    0.00120     0.74878
      H   22    0.22021      0.00000     0.77816    0.00163     0.77979
      H   23    0.22743      0.00000     0.77162    0.00095     0.77257
      H   24    0.22377      0.00000     0.77519    0.00104     0.77623
      H   25    0.22720      0.00000     0.77189    0.00092     0.77280
      H   26    0.22108      0.00000     0.77764    0.00128     0.77892
 =======================================================================
   * Total *   -0.00000     27.98762    69.77841    0.23397    98.00000

                                 Natural Population      
 --------------------------------------------------------
   Core                      27.98762 ( 99.9558% of  28)
   Valence                   69.77841 ( 99.6834% of  70)
   Natural Minimal Basis     97.76603 ( 99.7613% of  98)
   Natural Rydberg Basis      0.23397 (  0.2387% of  98)
 --------------------------------------------------------

    Atom  No          Natural Electron Configuration
 ----------------------------------------------------------------------------
      C    1      [core]2S( 1.10)2p( 3.21)3p( 0.01)3d( 0.01)
      O    2      [core]2S( 1.60)2p( 4.84)3p( 0.01)3d( 0.01)
      C    3      [core]2S( 0.84)2p( 2.82)3p( 0.01)3d( 0.01)
      C    4      [core]2S( 0.97)2p( 3.29)3p( 0.01)
      C    5      [core]2S( 0.95)2p( 3.28)3p( 0.01)
      C    6      [core]2S( 0.88)2p( 3.07)3p( 0.01)
      C    7      [core]2S( 0.96)2p( 3.23)3p( 0.01)
      C    8      [core]2S( 0.97)2p( 3.28)3p( 0.01)
      C    9      [core]2S( 0.86)2p( 3.27)3p( 0.01)
      C   10      [core]2S( 0.94)2p( 3.29)3p( 0.01)
      C   11      [core]2S( 0.96)2p( 3.26)3p( 0.01)
      C   12      [core]2S( 0.95)2p( 3.32)3p( 0.01)
      C   13      [core]2S( 0.96)2p( 3.28)3p( 0.01)
      C   14      [core]2S( 0.95)2p( 3.25)3p( 0.01)
      H   15            1S( 0.76)
      H   16            1S( 0.78)
      H   17            1S( 0.78)
      H   18            1S( 0.76)
      H   19            1S( 0.75)
      H   20            1S( 0.75)
      H   21            1S( 0.75)
      H   22            1S( 0.78)
      H   23            1S( 0.77)
      H   24            1S( 0.78)
      H   25            1S( 0.77)
      H   26            1S( 0.78)


 NBO analysis skipped by request.
 Leave Link  607 at Tue Sep 28 22:09:19 2021, MaxMem= 1073741824 cpu:      14.8
 (Enter /sw/target/amd/app/gaussian/Gaussian09RevA.02_gcc-4.9.2/g09/l9999.exe)
 1\1\GINC-HERMITE\SP\RTD-B3LYP-FC\6-31G(d)\C13H12O1\JSCHLEINITZ\28-Sep-
 2021\0\\#p TD(NStates=10, Root=1) b3lyp/6-31G* volume pop=NPA density=
 current Geom=AllCheck Guess=Read\\COc1ccc(cc1)c1ccccc1_conf_0\\0,1\C,0
 ,0.9038898871,0.1688568444,0.1787427446\O,0,2.3062555596,0.3390725138,
 0.0534982554\C,0,3.0270385047,0.6107783246,1.1808418922\C,0,2.48523041
 69,0.7420692933,2.4642494386\C,0,3.3252662245,1.0227578115,3.543716434
 3\C,0,4.7087071941,1.1789279309,3.3847145506\C,0,5.2296915536,1.041795
 0618,2.0835148343\C,0,4.4095507936,0.7632436846,0.9997247946\C,0,5.590
 6542027,1.4789903659,4.5401503073\C,0,5.3568992763,0.9014044753,5.8002
 259022\C,0,6.1827719954,1.1867231989,6.8864845409\C,0,7.2671960583,2.0
 53335737,6.7380049603\C,0,7.5149959352,2.6328510455,5.492314091\C,0,6.
 6856259623,2.3506027387,4.4078911567\H,0,0.5363635031,-0.040051899,-0.
 8276950815\H,0,0.4185324152,1.0773031288,0.5597942005\H,0,0.6557267959
 ,-0.6744347241,0.8370457655\H,0,1.4194005152,0.6409108004,2.6347996317
 \H,0,2.8836878147,1.1482810646,4.5285373566\H,0,6.3008452358,1.1302287
 33,1.9249563663\H,0,4.8174554649,0.6481608454,0.0002235092\H,0,4.53456
 5192,0.2014871604,5.9210049385\H,0,5.9846404011,0.7216241773,7.8488430
 375\H,0,7.9126418103,2.2742419452,7.5838652255\H,0,8.3512374279,3.3157
 410309,5.3656162245\H,0,6.8718418209,2.8309641919,3.4511732738\\Versio
 n=AM64L-G09RevA.02\State=1-A\HF=-577.8288028\RMSD=6.633e-09\Dipole=-1.
 8326403,-0.4796352,-1.5870552\Quadrupole=6.5550911,-5.2053248,-1.34976
 63,3.5089057,2.5819324,-0.0992394\PG=C01 [X(C13H12O1)]\\@


 LET US LEARN TO DREAM, GENTLEMEN, THEN PERHAPS WE SHALL
 DISCOVER THE TRUTH;  BUT LET US BEWARE OF PUBLISHING
 OUR DREAMS ABROAD BEFORE THEY HAVE BEEN SCRUTINIZED
 BY OUR VIGILANT INTELLECT ... LET US ALWAYS ALLOW
 THE FRUIT TO HANG UNTIL IT IS RIPE.  UNRIPE FRUIT
 BRINGS EVEN THE GROWER BUT LITTLE PROFIT; IT DAMAGES
 THE HEALTH OF THOSE WHO CONSUME IT; IT ENDANGERS
 PARTICULARLY THE YOUTH WHO CANNOT YET DISTINGUISH
 BETWEEN RIPE AND UNRIPE FRUIT.

                                  -- KEKULE, 1890
 Job cpu time:  0 days  2 hours 43 minutes 24.0 seconds.
 File lengths (MBytes):  RWF=    179 Int=      0 D2E=      0 Chk=     25 Scr=      1
 Normal termination of Gaussian 09 at Tue Sep 28 22:09:25 2021.
