 Entering Gaussian System, Link 0=g09
 Input=C13H18O3_94d6_conf_0.com
 Output=C13H18O3_94d6_conf_0.log
 Initial command:
 /sw/target/amd/app/gaussian/Gaussian09RevA.02_gcc-4.9.2/g09/l1.exe /home/jschleinitz/gaussian/Gau-2980787.inp -scrdir=/home/jschleinitz/gaussian/
 Entering Link 1 = /sw/target/amd/app/gaussian/Gaussian09RevA.02_gcc-4.9.2/g09/l1.exe PID=   2980789.
  
 Copyright (c) 1988,1990,1992,1993,1995,1998,2003,2009, Gaussian, Inc.
                  All Rights Reserved.
  
 This is part of the Gaussian(R) 09 program.  It is based on
 the Gaussian(R) 03 system (copyright 2003, Gaussian, Inc.),
 the Gaussian(R) 98 system (copyright 1998, Gaussian, Inc.),
 the Gaussian(R) 94 system (copyright 1995, Gaussian, Inc.),
 the Gaussian 92(TM) system (copyright 1992, Gaussian, Inc.),
 the Gaussian 90(TM) system (copyright 1990, Gaussian, Inc.),
 the Gaussian 88(TM) system (copyright 1988, Gaussian, Inc.),
 the Gaussian 86(TM) system (copyright 1986, Carnegie Mellon
 University), and the Gaussian 82(TM) system (copyright 1983,
 Carnegie Mellon University). Gaussian is a federally registered
 trademark of Gaussian, Inc.
  
 This software contains proprietary and confidential information,
 including trade secrets, belonging to Gaussian, Inc.
  
 This software is provided under written license and may be
 used, copied, transmitted, or stored only in accord with that
 written license.
  
 The following legend is applicable only to US Government
 contracts under FAR:
  
                    RESTRICTED RIGHTS LEGEND
  
 Use, reproduction and disclosure by the US Government is
 subject to restrictions as set forth in subparagraphs (a)
 and (c) of the Commercial Computer Software - Restricted
 Rights clause in FAR 52.227-19.
  
 Gaussian, Inc.
 340 Quinnipiac St., Bldg. 40, Wallingford CT 06492
  
  
 ---------------------------------------------------------------
 Warning -- This program may not be used in any manner that
 competes with the business of Gaussian, Inc. or will provide
 assistance to any competitor of Gaussian, Inc.  The licensee
 of this program is prohibited from giving any competitor of
 Gaussian, Inc. access to this program.  By using this program,
 the user acknowledges that Gaussian, Inc. is engaged in the
 business of creating and licensing software in the field of
 computational chemistry and represents and warrants to the
 licensee that it is not a competitor of Gaussian, Inc. and that
 it will not use this program in any manner prohibited above.
 ---------------------------------------------------------------
  

 Cite this work as:
 Gaussian 09, Revision A.02,
 M. J. Frisch, G. W. Trucks, H. B. Schlegel, G. E. Scuseria, 
 M. A. Robb, J. R. Cheeseman, G. Scalmani, V. Barone, B. Mennucci, 
 G. A. Petersson, H. Nakatsuji, M. Caricato, X. Li, H. P. Hratchian, 
 A. F. Izmaylov, J. Bloino, G. Zheng, J. L. Sonnenberg, M. Hada, 
 M. Ehara, K. Toyota, R. Fukuda, J. Hasegawa, M. Ishida, T. Nakajima, 
 Y. Honda, O. Kitao, H. Nakai, T. Vreven, J. A. Montgomery, Jr., 
 J. E. Peralta, F. Ogliaro, M. Bearpark, J. J. Heyd, E. Brothers, 
 K. N. Kudin, V. N. Staroverov, R. Kobayashi, J. Normand, 
 K. Raghavachari, A. Rendell, J. C. Burant, S. S. Iyengar, J. Tomasi, 
 M. Cossi, N. Rega, J. M. Millam, M. Klene, J. E. Knox, J. B. Cross, 
 V. Bakken, C. Adamo, J. Jaramillo, R. Gomperts, R. E. Stratmann, 
 O. Yazyev, A. J. Austin, R. Cammi, C. Pomelli, J. W. Ochterski, 
 R. L. Martin, K. Morokuma, V. G. Zakrzewski, G. A. Voth, 
 P. Salvador, J. J. Dannenberg, S. Dapprich, A. D. Daniels, 
 O. Farkas, J. B. Foresman, J. V. Ortiz, J. Cioslowski, 
 and D. J. Fox, Gaussian, Inc., Wallingford CT, 2009.
 
 ******************************************
 Gaussian 09:  AM64L-G09RevA.02 11-Jun-2009
                30-Sep-2021 
 ******************************************
 %nproc=5
 Will use up to    5 processors via shared memory.
 %mem=10gb
 %chk=C13H18O3_94d6_conf_0.chk
 -----------------------------------
 #p opt b3lyp/6-31G* scf=(xqc,tight)
 -----------------------------------
 1/14=-1,18=20,19=15,26=3,38=1/1,3;
 2/9=110,12=2,17=6,18=5,40=1/2;
 3/5=1,6=6,7=1,11=2,16=1,25=1,30=1,71=1,74=-5/1,2,3;
 4//1;
 5/5=2,8=3,13=1,32=2,38=5/2,8;
 6/7=2,8=2,9=2,10=2,28=1/1;
 7//1,2,3,16;
 1/14=-1,18=20,19=15/3(2);
 2/9=110/2;
 99//99;
 2/9=110/2;
 3/5=1,6=6,7=1,11=2,16=1,25=1,30=1,71=1,74=-5/1,2,3;
 4/5=5,16=3/1;
 5/5=2,8=3,13=1,32=2,38=5/2,8;
 7//1,2,3,16;
 1/14=-1,18=20,19=15/3(-5);
 2/9=110/2;
 6/7=2,8=2,9=2,10=2,19=2,28=1/1;
 99/9=1/99;
 Leave Link    1 at Thu Sep 30 11:05:59 2021, MaxMem= 1342177280 cpu:       0.1
 (Enter /sw/target/amd/app/gaussian/Gaussian09RevA.02_gcc-4.9.2/g09/l101.exe)
 ------------------------------
 CCCCc1ccc(cc1)OC(=O)COC_conf_0
 ------------------------------
 Symbolic Z-matrix:
 Charge =  0 Multiplicity = 1
 C                     1.04666  -0.9824   -0.26068 
 C                     2.53175  -0.6859   -0.13583 
 C                     2.93911   0.51469  -0.98887 
 C                     4.43632   0.79461  -0.8565 
 C                     4.8626    1.98059  -1.68222 
 C                     4.83291   3.26618  -1.12908 
 C                     5.24443   4.36749  -1.87496 
 C                     5.70708   4.18805  -3.17555 
 C                     5.69575   2.92398  -3.76047 
 C                     5.27234   1.81968  -3.01443 
 O                     6.16086   5.24951  -3.98352 
 C                     6.75369   6.39433  -3.43914 
 O                     7.01003   6.59793  -2.25774 
 C                     7.14323   7.35662  -4.55249 
 O                     6.27826   7.30329  -5.67914 
 C                     6.66921   8.22285  -6.68734 
 H                     0.77717  -1.83448   0.3709 
 H                     0.78196  -1.22791  -1.2941 
 H                     0.44659  -0.12261   0.05381 
 H                     3.10233  -1.57036  -0.44206 
 H                     2.77239  -0.49251   0.91597 
 H                     2.36397   1.39758  -0.68064 
 H                     2.68648   0.32453  -2.03969 
 H                     5.01618  -0.08583  -1.15908 
 H                     4.69347   0.97653   0.19534 
 H                     4.49664   3.4186   -0.10469 
 H                     5.19237   5.35379  -1.42095 
 H                     6.01427   2.78921  -4.79019 
 H                     5.27156   0.83309  -3.4718 
 H                     8.1665    7.10811  -4.85586 
 H                     7.12201   8.36949  -4.133 
 H                     6.03373   8.06191  -7.56188 
 H                     7.71145   8.05863  -6.97727 
 H                     6.53158   9.25004  -6.33693 
 
 NAtoms=     34 NQM=     34 NQMF=      0 NMic=      0 NMicF=      0 NTot=     34.
                    Isotopes and Nuclear Properties:
 (Nuclear quadrupole moments (NQMom) in fm**2, nuclear magnetic moments (NMagM)
  in nuclear magnetons)

  Atom         1           2           3           4           5           6           7           8           9          10
 IAtWgt=          12          12          12          12          12          12          12          12          12          12
 AtmWgt=  12.0000000  12.0000000  12.0000000  12.0000000  12.0000000  12.0000000  12.0000000  12.0000000  12.0000000  12.0000000
 NucSpn=           0           0           0           0           0           0           0           0           0           0
 AtZEff=   0.0000000   0.0000000   0.0000000   0.0000000   0.0000000   0.0000000   0.0000000   0.0000000   0.0000000   0.0000000
 NQMom=    0.0000000   0.0000000   0.0000000   0.0000000   0.0000000   0.0000000   0.0000000   0.0000000   0.0000000   0.0000000
 NMagM=    0.0000000   0.0000000   0.0000000   0.0000000   0.0000000   0.0000000   0.0000000   0.0000000   0.0000000   0.0000000

  Atom        11          12          13          14          15          16          17          18          19          20
 IAtWgt=          16          12          16          12          16          12           1           1           1           1
 AtmWgt=  15.9949146  12.0000000  15.9949146  12.0000000  15.9949146  12.0000000   1.0078250   1.0078250   1.0078250   1.0078250
 NucSpn=           0           0           0           0           0           0           1           1           1           1
 AtZEff=   0.0000000   0.0000000   0.0000000   0.0000000   0.0000000   0.0000000   0.0000000   0.0000000   0.0000000   0.0000000
 NQMom=    0.0000000   0.0000000   0.0000000   0.0000000   0.0000000   0.0000000   0.0000000   0.0000000   0.0000000   0.0000000
 NMagM=    0.0000000   0.0000000   0.0000000   0.0000000   0.0000000   0.0000000   2.7928460   2.7928460   2.7928460   2.7928460

  Atom        21          22          23          24          25          26          27          28          29          30
 IAtWgt=           1           1           1           1           1           1           1           1           1           1
 AtmWgt=   1.0078250   1.0078250   1.0078250   1.0078250   1.0078250   1.0078250   1.0078250   1.0078250   1.0078250   1.0078250
 NucSpn=           1           1           1           1           1           1           1           1           1           1
 AtZEff=   0.0000000   0.0000000   0.0000000   0.0000000   0.0000000   0.0000000   0.0000000   0.0000000   0.0000000   0.0000000
 NQMom=    0.0000000   0.0000000   0.0000000   0.0000000   0.0000000   0.0000000   0.0000000   0.0000000   0.0000000   0.0000000
 NMagM=    2.7928460   2.7928460   2.7928460   2.7928460   2.7928460   2.7928460   2.7928460   2.7928460   2.7928460   2.7928460

  Atom        31          32          33          34
 IAtWgt=           1           1           1           1
 AtmWgt=   1.0078250   1.0078250   1.0078250   1.0078250
 NucSpn=           1           1           1           1
 AtZEff=   0.0000000   0.0000000   0.0000000   0.0000000
 NQMom=    0.0000000   0.0000000   0.0000000   0.0000000
 NMagM=    2.7928460   2.7928460   2.7928460   2.7928460
 Leave Link  101 at Thu Sep 30 11:06:00 2021, MaxMem= 1342177280 cpu:       0.2
 (Enter /sw/target/amd/app/gaussian/Gaussian09RevA.02_gcc-4.9.2/g09/l103.exe)

 GradGradGradGradGradGradGradGradGradGradGradGradGradGradGradGradGradGrad
 Berny optimization.
 Initialization pass.
                           ----------------------------
                           !    Initial Parameters    !
                           ! (Angstroms and Degrees)  !
 --------------------------                            --------------------------
 ! Name  Definition              Value          Derivative Info.                !
 --------------------------------------------------------------------------------
 ! R1    R(1,2)                  1.5195         estimate D2E/DX2                !
 ! R2    R(1,17)                 1.0943         estimate D2E/DX2                !
 ! R3    R(1,18)                 1.0947         estimate D2E/DX2                !
 ! R4    R(1,19)                 1.0946         estimate D2E/DX2                !
 ! R5    R(2,3)                  1.5281         estimate D2E/DX2                !
 ! R6    R(2,20)                 1.0962         estimate D2E/DX2                !
 ! R7    R(2,21)                 1.0962         estimate D2E/DX2                !
 ! R8    R(3,4)                  1.5289         estimate D2E/DX2                !
 ! R9    R(3,22)                 1.0979         estimate D2E/DX2                !
 ! R10   R(3,23)                 1.0974         estimate D2E/DX2                !
 ! R11   R(4,5)                  1.5067         estimate D2E/DX2                !
 ! R12   R(4,24)                 1.0968         estimate D2E/DX2                !
 ! R13   R(4,25)                 1.098          estimate D2E/DX2                !
 ! R14   R(5,6)                  1.3998         estimate D2E/DX2                !
 ! R15   R(5,10)                 1.4031         estimate D2E/DX2                !
 ! R16   R(6,7)                  1.3923         estimate D2E/DX2                !
 ! R17   R(6,26)                 1.0889         estimate D2E/DX2                !
 ! R18   R(7,8)                  1.392          estimate D2E/DX2                !
 ! R19   R(7,27)                 1.087          estimate D2E/DX2                !
 ! R20   R(8,9)                  1.3929         estimate D2E/DX2                !
 ! R21   R(8,11)                 1.409          estimate D2E/DX2                !
 ! R22   R(9,10)                 1.3983         estimate D2E/DX2                !
 ! R23   R(9,28)                 1.0862         estimate D2E/DX2                !
 ! R24   R(10,29)                1.0875         estimate D2E/DX2                !
 ! R25   R(11,12)                1.3994         estimate D2E/DX2                !
 ! R26   R(12,13)                1.2259         estimate D2E/DX2                !
 ! R27   R(12,14)                1.5223         estimate D2E/DX2                !
 ! R28   R(14,15)                1.4214         estimate D2E/DX2                !
 ! R29   R(14,30)                1.0958         estimate D2E/DX2                !
 ! R30   R(14,31)                1.0965         estimate D2E/DX2                !
 ! R31   R(15,16)                1.4195         estimate D2E/DX2                !
 ! R32   R(16,32)                1.093          estimate D2E/DX2                !
 ! R33   R(16,33)                1.0942         estimate D2E/DX2                !
 ! R34   R(16,34)                1.094          estimate D2E/DX2                !
 ! A1    A(2,1,17)             110.1929         estimate D2E/DX2                !
 ! A2    A(2,1,18)             110.9565         estimate D2E/DX2                !
 ! A3    A(2,1,19)             111.0323         estimate D2E/DX2                !
 ! A4    A(17,1,18)            108.0996         estimate D2E/DX2                !
 ! A5    A(17,1,19)            108.1056         estimate D2E/DX2                !
 ! A6    A(18,1,19)            108.351          estimate D2E/DX2                !
 ! A7    A(1,2,3)              111.591          estimate D2E/DX2                !
 ! A8    A(1,2,20)             109.1676         estimate D2E/DX2                !
 ! A9    A(1,2,21)             109.1364         estimate D2E/DX2                !
 ! A10   A(3,2,20)             109.8296         estimate D2E/DX2                !
 ! A11   A(3,2,21)             109.7859         estimate D2E/DX2                !
 ! A12   A(20,2,21)            107.2251         estimate D2E/DX2                !
 ! A13   A(2,3,4)              110.8902         estimate D2E/DX2                !
 ! A14   A(2,3,22)             109.601          estimate D2E/DX2                !
 ! A15   A(2,3,23)             109.6971         estimate D2E/DX2                !
 ! A16   A(4,3,22)             109.9664         estimate D2E/DX2                !
 ! A17   A(4,3,23)             109.8814         estimate D2E/DX2                !
 ! A18   A(22,3,23)            106.714          estimate D2E/DX2                !
 ! A19   A(3,4,5)              111.9461         estimate D2E/DX2                !
 ! A20   A(3,4,24)             110.2963         estimate D2E/DX2                !
 ! A21   A(3,4,25)             110.0365         estimate D2E/DX2                !
 ! A22   A(5,4,24)             109.3355         estimate D2E/DX2                !
 ! A23   A(5,4,25)             109.1673         estimate D2E/DX2                !
 ! A24   A(24,4,25)            105.8703         estimate D2E/DX2                !
 ! A25   A(4,5,6)              120.0229         estimate D2E/DX2                !
 ! A26   A(4,5,10)             120.8451         estimate D2E/DX2                !
 ! A27   A(6,5,10)             119.1243         estimate D2E/DX2                !
 ! A28   A(5,6,7)              120.5626         estimate D2E/DX2                !
 ! A29   A(5,6,26)             120.4531         estimate D2E/DX2                !
 ! A30   A(7,6,26)             118.9815         estimate D2E/DX2                !
 ! A31   A(6,7,8)              119.7872         estimate D2E/DX2                !
 ! A32   A(6,7,27)             118.6722         estimate D2E/DX2                !
 ! A33   A(8,7,27)             121.5404         estimate D2E/DX2                !
 ! A34   A(7,8,9)              120.4391         estimate D2E/DX2                !
 ! A35   A(7,8,11)             123.0703         estimate D2E/DX2                !
 ! A36   A(9,8,11)             116.4539         estimate D2E/DX2                !
 ! A37   A(8,9,10)             119.6771         estimate D2E/DX2                !
 ! A38   A(8,9,28)             120.5497         estimate D2E/DX2                !
 ! A39   A(10,9,28)            119.7731         estimate D2E/DX2                !
 ! A40   A(5,10,9)             120.2942         estimate D2E/DX2                !
 ! A41   A(5,10,29)            120.2112         estimate D2E/DX2                !
 ! A42   A(9,10,29)            119.4922         estimate D2E/DX2                !
 ! A43   A(8,11,12)            121.9805         estimate D2E/DX2                !
 ! A44   A(11,12,13)           126.8204         estimate D2E/DX2                !
 ! A45   A(11,12,14)           109.9395         estimate D2E/DX2                !
 ! A46   A(13,12,14)           123.1159         estimate D2E/DX2                !
 ! A47   A(12,14,15)           113.5957         estimate D2E/DX2                !
 ! A48   A(12,14,30)           107.3415         estimate D2E/DX2                !
 ! A49   A(12,14,31)           107.4075         estimate D2E/DX2                !
 ! A50   A(15,14,30)           109.8953         estimate D2E/DX2                !
 ! A51   A(15,14,31)           109.033          estimate D2E/DX2                !
 ! A52   A(30,14,31)           109.4791         estimate D2E/DX2                !
 ! A53   A(14,15,16)           111.7818         estimate D2E/DX2                !
 ! A54   A(15,16,32)           108.2276         estimate D2E/DX2                !
 ! A55   A(15,16,33)           110.6895         estimate D2E/DX2                !
 ! A56   A(15,16,34)           110.2495         estimate D2E/DX2                !
 ! A57   A(32,16,33)           108.6447         estimate D2E/DX2                !
 ! A58   A(32,16,34)           108.7482         estimate D2E/DX2                !
 ! A59   A(33,16,34)           110.2192         estimate D2E/DX2                !
 ! D1    D(17,1,2,3)          -179.0804         estimate D2E/DX2                !
 ! D2    D(17,1,2,20)           59.3324         estimate D2E/DX2                !
 ! D3    D(17,1,2,21)          -57.5691         estimate D2E/DX2                !
 ! D4    D(18,1,2,3)            61.2287         estimate D2E/DX2                !
 ! D5    D(18,1,2,20)          -60.3586         estimate D2E/DX2                !
 ! D6    D(18,1,2,21)         -177.2601         estimate D2E/DX2                !
 ! D7    D(19,1,2,3)           -59.3331         estimate D2E/DX2                !
 ! D8    D(19,1,2,20)          179.0796         estimate D2E/DX2                !
 ! D9    D(19,1,2,21)           62.1781         estimate D2E/DX2                !
 ! D10   D(1,2,3,4)           -179.7356         estimate D2E/DX2                !
 ! D11   D(1,2,3,22)            58.6709         estimate D2E/DX2                !
 ! D12   D(1,2,3,23)           -58.1845         estimate D2E/DX2                !
 ! D13   D(20,2,3,4)           -58.5324         estimate D2E/DX2                !
 ! D14   D(20,2,3,22)          179.8741         estimate D2E/DX2                !
 ! D15   D(20,2,3,23)           63.0186         estimate D2E/DX2                !
 ! D16   D(21,2,3,4)            59.1304         estimate D2E/DX2                !
 ! D17   D(21,2,3,22)          -62.4631         estimate D2E/DX2                !
 ! D18   D(21,2,3,23)         -179.3186         estimate D2E/DX2                !
 ! D19   D(2,3,4,5)           -179.6429         estimate D2E/DX2                !
 ! D20   D(2,3,4,24)            58.3776         estimate D2E/DX2                !
 ! D21   D(2,3,4,25)           -58.0602         estimate D2E/DX2                !
 ! D22   D(22,3,4,5)           -58.264          estimate D2E/DX2                !
 ! D23   D(22,3,4,24)          179.7565         estimate D2E/DX2                !
 ! D24   D(22,3,4,25)           63.3187         estimate D2E/DX2                !
 ! D25   D(23,3,4,5)            58.9143         estimate D2E/DX2                !
 ! D26   D(23,3,4,24)          -63.0653         estimate D2E/DX2                !
 ! D27   D(23,3,4,25)         -179.503          estimate D2E/DX2                !
 ! D28   D(3,4,5,6)             89.6141         estimate D2E/DX2                !
 ! D29   D(3,4,5,10)           -89.3638         estimate D2E/DX2                !
 ! D30   D(24,4,5,6)          -147.8577         estimate D2E/DX2                !
 ! D31   D(24,4,5,10)           33.1644         estimate D2E/DX2                !
 ! D32   D(25,4,5,6)           -32.4672         estimate D2E/DX2                !
 ! D33   D(25,4,5,10)          148.5549         estimate D2E/DX2                !
 ! D34   D(4,5,6,7)            178.9766         estimate D2E/DX2                !
 ! D35   D(4,5,6,26)            -0.4117         estimate D2E/DX2                !
 ! D36   D(10,5,6,7)            -2.028          estimate D2E/DX2                !
 ! D37   D(10,5,6,26)          178.5838         estimate D2E/DX2                !
 ! D38   D(4,5,10,9)          -178.4826         estimate D2E/DX2                !
 ! D39   D(4,5,10,29)            0.9565         estimate D2E/DX2                !
 ! D40   D(6,5,10,9)             2.5304         estimate D2E/DX2                !
 ! D41   D(6,5,10,29)         -178.0305         estimate D2E/DX2                !
 ! D42   D(5,6,7,8)             -0.8971         estimate D2E/DX2                !
 ! D43   D(5,6,7,27)           178.9521         estimate D2E/DX2                !
 ! D44   D(26,6,7,8)           178.5            estimate D2E/DX2                !
 ! D45   D(26,6,7,27)           -1.6508         estimate D2E/DX2                !
 ! D46   D(6,7,8,9)              3.3664         estimate D2E/DX2                !
 ! D47   D(6,7,8,11)          -178.9169         estimate D2E/DX2                !
 ! D48   D(27,7,8,9)          -176.4783         estimate D2E/DX2                !
 ! D49   D(27,7,8,11)            1.2384         estimate D2E/DX2                !
 ! D50   D(7,8,9,10)            -2.8579         estimate D2E/DX2                !
 ! D51   D(7,8,9,28)           177.2284         estimate D2E/DX2                !
 ! D52   D(11,8,9,10)          179.2793         estimate D2E/DX2                !
 ! D53   D(11,8,9,28)           -0.6344         estimate D2E/DX2                !
 ! D54   D(7,8,11,12)           29.7545         estimate D2E/DX2                !
 ! D55   D(9,8,11,12)         -152.4443         estimate D2E/DX2                !
 ! D56   D(8,9,10,5)            -0.1142         estimate D2E/DX2                !
 ! D57   D(8,9,10,29)         -179.5573         estimate D2E/DX2                !
 ! D58   D(28,9,10,5)          179.8002         estimate D2E/DX2                !
 ! D59   D(28,9,10,29)           0.3571         estimate D2E/DX2                !
 ! D60   D(8,11,12,13)           3.7628         estimate D2E/DX2                !
 ! D61   D(8,11,12,14)         179.7848         estimate D2E/DX2                !
 ! D62   D(11,12,14,15)         31.6512         estimate D2E/DX2                !
 ! D63   D(11,12,14,30)        -90.0458         estimate D2E/DX2                !
 ! D64   D(11,12,14,31)        152.308          estimate D2E/DX2                !
 ! D65   D(13,12,14,15)       -152.1505         estimate D2E/DX2                !
 ! D66   D(13,12,14,30)         86.1525         estimate D2E/DX2                !
 ! D67   D(13,12,14,31)        -31.4937         estimate D2E/DX2                !
 ! D68   D(12,14,15,16)        179.4774         estimate D2E/DX2                !
 ! D69   D(30,14,15,16)        -60.2587         estimate D2E/DX2                !
 ! D70   D(31,14,15,16)         59.7401         estimate D2E/DX2                !
 ! D71   D(14,15,16,32)        174.2139         estimate D2E/DX2                !
 ! D72   D(14,15,16,33)         55.2564         estimate D2E/DX2                !
 ! D73   D(14,15,16,34)        -66.9587         estimate D2E/DX2                !
 --------------------------------------------------------------------------------
 Trust Radius=3.00D-01 FncErr=1.00D-07 GrdErr=1.00D-06
 Number of steps in this run= 176 maximum allowed number of steps= 204.
 GradGradGradGradGradGradGradGradGradGradGradGradGradGradGradGradGradGrad

 Leave Link  103 at Thu Sep 30 11:06:01 2021, MaxMem= 1342177280 cpu:       0.0
 (Enter /sw/target/amd/app/gaussian/Gaussian09RevA.02_gcc-4.9.2/g09/l202.exe)
                          Input orientation:                          
 ---------------------------------------------------------------------
 Center     Atomic      Atomic             Coordinates (Angstroms)
 Number     Number       Type             X           Y           Z
 ---------------------------------------------------------------------
      1          6           0        1.046661   -0.982399   -0.260685
      2          6           0        2.531746   -0.685901   -0.135832
      3          6           0        2.939107    0.514687   -0.988867
      4          6           0        4.436320    0.794611   -0.856500
      5          6           0        4.862599    1.980589   -1.682220
      6          6           0        4.832913    3.266178   -1.129083
      7          6           0        5.244433    4.367493   -1.874959
      8          6           0        5.707083    4.188054   -3.175555
      9          6           0        5.695751    2.923978   -3.760474
     10          6           0        5.272338    1.819679   -3.014434
     11          8           0        6.160861    5.249514   -3.983517
     12          6           0        6.753694    6.394335   -3.439143
     13          8           0        7.010026    6.597928   -2.257744
     14          6           0        7.143233    7.356618   -4.552494
     15          8           0        6.278259    7.303291   -5.679143
     16          6           0        6.669208    8.222853   -6.687339
     17          1           0        0.777174   -1.834485    0.370902
     18          1           0        0.781961   -1.227911   -1.294098
     19          1           0        0.446594   -0.122611    0.053812
     20          1           0        3.102333   -1.570362   -0.442057
     21          1           0        2.772389   -0.492512    0.915966
     22          1           0        2.363970    1.397585   -0.680644
     23          1           0        2.686480    0.324533   -2.039688
     24          1           0        5.016185   -0.085826   -1.159082
     25          1           0        4.693470    0.976529    0.195342
     26          1           0        4.496639    3.418597   -0.104689
     27          1           0        5.192370    5.353790   -1.420952
     28          1           0        6.014265    2.789212   -4.790187
     29          1           0        5.271559    0.833087   -3.471801
     30          1           0        8.166501    7.108109   -4.855860
     31          1           0        7.122006    8.369492   -4.133002
     32          1           0        6.033729    8.061910   -7.561883
     33          1           0        7.711452    8.058628   -6.977267
     34          1           0        6.531583    9.250038   -6.336928
 ---------------------------------------------------------------------
                    Distance matrix (angstroms):
                    1          2          3          4          5
     1  C    0.000000
     2  C    1.519532   0.000000
     3  C    2.520489   1.528078   0.000000
     4  C    3.873312   2.517674   1.528897   0.000000
     5  C    5.036014   3.864500   2.515835   1.506675   0.000000
     6  C    5.756755   4.679834   3.343182   2.517981   1.399850
     7  C    6.989171   5.993332   4.576440   3.802077   2.424924
     8  C    7.546495   6.563392   5.092830   4.302128   2.795730
     9  C    7.008733   6.014997   4.591903   3.814897   2.429664
    10  C    5.769845   4.698417   3.354086   2.531080   1.403058
    11  O    8.879823   7.950114   6.462679   5.709504   4.203252
    12  C    9.853376   8.880678   7.424634   6.587653   5.113137
    13  O    9.849432   8.809748   7.428879   6.501225   5.124694
    14  C   11.186019  10.269120   8.785564   8.002979   6.507031
    15  O   11.197409  10.420741   8.901335   8.307439   6.805193
    16  C   12.555938  11.807063  10.286013   9.703775   8.202495
    17  H    1.094338   2.157441   3.470092   4.669905   5.954897
    18  H    1.094662   2.167280   2.789819   4.199575   5.205450
    19  H    1.094634   2.168207   2.775959   4.193790   5.190217
    20  H    2.145783   1.096181   2.161729   2.746704   4.152805
    21  H    2.145375   1.096170   2.161165   2.750815   4.151599
    22  H    2.752452   2.160066   1.097858   2.165442   2.754304
    23  H    2.749897   2.160923   1.097362   2.163989   2.757861
    24  H    4.167503   2.753101   2.168834   1.096799   2.137132
    25  H    4.164682   2.747071   2.166435   1.097994   2.135879
    26  H    5.594234   4.550679   3.411799   2.730230   2.165732
    27  H    7.660315   6.723714   5.355447   4.655785   3.399338
    28  H    7.708342   6.772545   5.392597   4.684255   3.411696
    29  H    5.608656   4.576307   3.421502   2.745707   2.164858
    30  H   11.715975  10.713343   9.260264   8.352807   6.875989
    31  H   11.805190  10.910912   9.438230   8.679124   7.206201
    32  H   12.648236  11.997263  10.475772  10.016362   8.539582
    33  H   13.087096  12.251586  10.749291  10.047697   8.549622
    34  H   13.103735  12.376396  10.854216  10.291718   8.791855
                    6          7          8          9         10
     6  C    0.000000
     7  C    1.392327   0.000000
     8  C    2.408749   1.392047   0.000000
     9  C    2.790306   2.417146   1.392892   0.000000
    10  C    2.416609   2.791154   2.413330   1.398332   0.000000
    11  O    3.720868   2.462483   1.409048   2.382057   3.673196
    12  C    4.337181   2.971974   2.456125   3.642235   4.827243
    13  O    4.136937   2.870310   2.889209   4.181318   5.140409
    14  C    5.812832   4.439538   3.741428   4.729778   6.043473
    15  O    6.252228   4.915234   4.037190   4.816533   6.179204
    16  C    7.670386   6.328727   5.434880   6.131251   7.512797
    17  H    6.686983   7.966482   8.552914   7.993976   6.709688
    18  H    6.052626   7.180501   7.558398   6.889595   5.693052
    19  H    5.667709   6.848390   7.528837   7.168272   6.039406
    20  H    5.182570   6.473015   6.885934   6.159285   4.776862
    21  H    4.749288   6.125350   6.874639   6.487491   5.200385
    22  H    3.128645   4.306252   5.018735   4.787065   3.752777
    23  H    3.753619   4.787044   5.033987   4.332889   3.142014
    24  H    3.357144   4.516263   4.775935   4.035836   2.671871
    25  H    2.648780   4.011027   4.764897   4.521681   3.368775
    26  H    1.088897   2.143235   3.389315   3.879083   3.409525
    27  H    2.138346   1.087021   2.168525   3.410388   3.877567
    28  H    3.876438   3.403259   2.158276   1.086242   2.154937
    29  H    3.405975   3.878488   3.396063   2.152927   1.087451
    30  H    6.305720   4.993519   4.171197   4.981107   6.303533
    31  H    6.348802   4.963873   4.516983   5.641507   6.897284
    32  H    8.113071   6.827358   5.861172   6.400257   7.760442
    33  H    8.090415   6.763446   5.783757   6.385565   7.783175
    34  H    8.112565   6.738336   6.024763   6.881553   8.236195
                   11         12         13         14         15
    11  O    0.000000
    12  C    1.399432   0.000000
    13  O    2.348956   1.225911   0.000000
    14  C    2.393465   1.522261   2.420585   0.000000
    15  O    2.665883   2.463705   3.569172   1.421395   0.000000
    16  C    4.050903   3.728458   4.730523   2.352154   1.419470
    17  H    9.905963  10.860420  10.810356  12.216502  12.262298
    18  H    8.838698   9.917734  10.047943  11.170365  11.055285
    19  H    8.821145   9.718581   9.674066  11.045446  11.046226
    20  H    8.270867   9.260202   9.235136  10.626172  10.782175
    21  H    8.273907   9.068981   8.848973  10.517469  10.796348
    22  H    6.337406   7.200451   7.149590   8.564032   8.670872
    23  H    6.332869   7.439301   7.622078   8.696382   8.651565
    24  H    6.144394   7.085909   7.060809   8.451600   8.753447
    25  H    6.154226   6.841536   6.556232   8.321587   8.777758
    26  H    4.600783   5.006785   4.589216   6.503494   7.024213
    27  H    2.741457   2.755641   2.356262   4.198063   4.807483
    28  H    2.593317   3.920330   4.680932   4.710866   4.608345
    29  H    4.534042   5.755456   6.142442   6.872228   6.910090
    30  H    2.870182   2.124284   2.889278   1.095839   2.069142
    31  H    3.268089   2.125639   2.582165   1.096512   2.058942
    32  H    4.553069   4.505124   5.588407   3.284031   2.044507
    33  H    4.388392   4.025605   4.989944   2.587511   2.075981
    34  H    4.656197   4.074498   4.889002   2.672707   2.070429
                   16         17         18         19         20
    16  C    0.000000
    17  H   13.626624   0.000000
    18  H   12.371890   1.772055   0.000000
    19  H   12.402049   1.772101   1.775111   0.000000
    20  H   12.150440   2.477303   2.495470   3.065097   0.000000
    21  H   12.204631   2.465537   3.063820   2.507879   1.764894
    22  H   10.059808   3.750993   3.126069   2.554751   3.067705
    23  H    9.992309   3.757360   2.567719   3.098349   2.513163
    24  H   10.115744   4.834033   4.387623   4.727962   2.526024
    25  H   10.187445   4.823899   4.730527   4.389088   3.069959
    26  H    8.433992   6.454106   6.066594   5.382206   5.191109
    27  H    6.176358   8.624153   7.923799   7.395153   7.298656
    28  H    5.792460   8.685767   7.465717   7.933599   6.811128
    29  H    8.179350   6.487049   5.398759   6.051743   4.434124
    30  H    2.615121  12.723647  11.692169  11.661267  10.974666
    31  H    2.598300  12.832116  11.847603  11.584746  11.339380
    32  H    1.092961  13.729497  12.376065  12.498051  12.331491
    33  H    1.094212  14.140491  12.905660  13.005648  12.516804
    34  H    1.094000  14.176560  12.972113  12.873041  12.790243
                   21         22         23         24         25
    21  H    0.000000
    22  H    2.507675   0.000000
    23  H    3.067708   1.761378   0.000000
    24  H    3.083153   3.076305   2.524161   0.000000
    25  H    2.523476   2.524125   3.073836   1.751344   0.000000
    26  H    4.394490   2.994076   4.073589   3.696302   2.468290
    27  H    6.745127   4.919295   5.652942   5.448765   4.692731
    28  H    7.337551   5.670064   4.971322   4.737820   5.466792
    29  H    5.220686   4.069802   2.998701   2.501657   3.715198
    30  H   10.962657   9.149419   9.163970   8.680056   8.670228
    31  H   11.088118   9.119494   9.422166   9.207122   8.904395
    32  H   12.477516  10.258256  10.077982  10.412342  10.591197
    33  H   12.641972  10.611904  10.461656  10.365706  10.521913
    34  H   12.714294  10.536772  10.626181  10.782620  10.700475
                   26         27         28         29         30
    26  H    0.000000
    27  H    2.441632   0.000000
    28  H    4.965200   4.313272   0.000000
    29  H    4.315415   4.964777   2.473091   0.000000
    30  H    7.046560   4.870490   4.825899   7.047852   0.000000
    31  H    6.901538   4.491455   5.726998   7.788372   1.790134
    32  H    8.918114   6.764084   5.956847   8.340598   3.575054
    33  H    8.893663   6.673421   5.952353   8.393439   2.368739
    34  H    8.774253   6.414129   6.663505   8.980072   3.074798
                   31         32         33         34
    31  H    0.000000
    32  H    3.610564   0.000000
    33  H    2.921288   1.776665   0.000000
    34  H    2.445659   1.777644   1.794877   0.000000
 Stoichiometry    C13H18O3
 Framework group  C1[X(C13H18O3)]
 Deg. of freedom    96
 Full point group                 C1      NOp   1
 Largest Abelian subgroup         C1      NOp   1
 Largest concise Abelian subgroup C1      NOp   1
                         Standard orientation:                         
 ---------------------------------------------------------------------
 Center     Atomic      Atomic             Coordinates (Angstroms)
 Number     Number       Type             X           Y           Z
 ---------------------------------------------------------------------
      1          6           0       -6.525289   -0.841857   -1.168955
      2          6           0       -5.718359   -0.083235   -0.128602
      3          6           0       -4.216909   -0.296063   -0.316689
      4          6           0       -3.421140    0.468432    0.741529
      5          6           0       -1.935614    0.281904    0.572736
      6          6           0       -1.207605    1.158298   -0.240600
      7          6           0        0.168875    1.009180   -0.387708
      8          6           0        0.830998   -0.008158    0.293770
      9          6           0        0.116895   -0.920851    1.066553
     10          6           0       -1.267061   -0.776984    1.205481
     11          8           0        2.223435   -0.208147    0.212893
     12          6           0        3.112411    0.849432   -0.009948
     13          8           0        2.831691    2.039771   -0.094493
     14          6           0        4.542164    0.327829   -0.041863
     15          8           0        4.653877   -0.995402   -0.548757
     16          6           0        6.002289   -1.438248   -0.572554
     17          1           0       -7.594658   -0.660638   -1.023397
     18          1           0       -6.349343   -1.919503   -1.091452
     19          1           0       -6.260707   -0.521416   -2.181643
     20          1           0       -6.018523   -0.415282    0.872027
     21          1           0       -5.953559    0.985003   -0.200275
     22          1           0       -3.920829    0.035530   -1.320519
     23          1           0       -3.984775   -1.366918   -0.256798
     24          1           0       -3.715908    0.144305    1.747025
     25          1           0       -3.658203    1.539275    0.689701
     26          1           0       -1.708492    1.973618   -0.760274
     27          1           0        0.701124    1.696422   -1.040413
     28          1           0        0.626354   -1.741897    1.562795
     29          1           0       -1.820567   -1.487043    1.815395
     30          1           0        4.927571    0.368286    0.983168
     31          1           0        5.124230    1.004902   -0.678345
     32          1           0        6.011620   -2.489601   -0.871105
     33          1           0        6.454960   -1.352401    0.419927
     34          1           0        6.577759   -0.860503   -1.301857
 ---------------------------------------------------------------------
 Rotational constants (GHZ):      1.6515935      0.1558556      0.1506794
 Leave Link  202 at Thu Sep 30 11:06:01 2021, MaxMem= 1342177280 cpu:       0.1
 (Enter /sw/target/amd/app/gaussian/Gaussian09RevA.02_gcc-4.9.2/g09/l301.exe)
 Standard basis: 6-31G(d) (6D, 7F)
 Ernie: Thresh=  0.10000D-02 Tol=  0.10000D-05 Strict=F.
 There are   276 symmetry adapted basis functions of A   symmetry.
 Integral buffers will be    131072 words long.
 Raffenetti 2 integral format.
 Two-electron integral symmetry is turned on.
   276 basis functions,   520 primitive gaussians,   276 cartesian basis functions
    60 alpha electrons       60 beta electrons
       nuclear repulsion energy      1030.8321776289 Hartrees.
 IExCor=  402 DFT=T Ex+Corr=B3LYP ExCW=0 ScaHFX=  0.200000
 ScaDFX=  0.800000  0.720000  1.000000  0.810000 ScalE2=  1.000000  1.000000
 IRadAn=      0 IRanWt=     -1 IRanGd=            0 ICorTp=0
 NAtoms=   34 NActive=   34 NUniq=   34 SFac= 7.50D-01 NAtFMM=   80 NAOKFM=F Big=F
 Leave Link  301 at Thu Sep 30 11:06:01 2021, MaxMem= 1342177280 cpu:       0.1
 (Enter /sw/target/amd/app/gaussian/Gaussian09RevA.02_gcc-4.9.2/g09/l302.exe)
 NPDir=0 NMtPBC=     1 NCelOv=     1 NCel=       1 NClECP=     1 NCelD=      1
         NCelK=      1 NCelE2=     1 NClLst=     1 CellRange=     0.0.
 One-electron integrals computed using PRISM.
 NBasis=   276 RedAO= T  NBF=   276
 NBsUse=   276 1.00D-06 NBFU=   276
 Precomputing XC quadrature grid using
 IXCGrd= 2 IRadAn=           0 IRanWt=          -1 IRanGd=           0 AccXCQ= 1.00D-10.
 NRdTot=    2183 NPtTot=      278680 NUsed=      294416 NTot=      294448
 NSgBfM=   269   269   269   269   269 NAtAll=    34    34.
 Leave Link  302 at Thu Sep 30 11:06:05 2021, MaxMem= 1342177280 cpu:       2.9
 (Enter /sw/target/amd/app/gaussian/Gaussian09RevA.02_gcc-4.9.2/g09/l303.exe)
 DipDrv:  MaxL=1.
 Leave Link  303 at Thu Sep 30 11:06:06 2021, MaxMem= 1342177280 cpu:       0.2
 (Enter /sw/target/amd/app/gaussian/Gaussian09RevA.02_gcc-4.9.2/g09/l401.exe)
 Harris functional with IExCor=  402 diagonalized for initial guess.
 ExpMin= 1.61D-01 ExpMax= 5.48D+03 ExpMxC= 8.25D+02 IAcc=1 IRadAn=         1 AccDes= 0.00D+00
 HarFok:  IExCor=  402 AccDes= 0.00D+00 IRadAn=         1 IDoV= 1
 ScaDFX=  1.000000  1.000000  1.000000  1.000000
 FoFCou: FMM=F IPFlag=           0 FMFlag=      100000 FMFlg1=           0
         NFxFlg=           0 DoJE=T BraDBF=F KetDBF=T FulRan=T
         Omega=  0.000000  0.000000  1.000000  0.000000  0.000000 ICntrl=     500 IOpCl=  0
         NMat0=    1 NMatS0=    1 NMatT0=    0 NMatD0=    1 NMtDS0=    0 NMtDT0=    0
         I1Cent=           4 NGrid=           0.
 Petite list used in FoFCou.
 Harris En= -732.003686269142    
 Initial guess orbital symmetries:
       Occupied  (A) (A) (A) (A) (A) (A) (A) (A) (A) (A) (A) (A)
                 (A) (A) (A) (A) (A) (A) (A) (A) (A) (A) (A) (A)
                 (A) (A) (A) (A) (A) (A) (A) (A) (A) (A) (A) (A)
                 (A) (A) (A) (A) (A) (A) (A) (A) (A) (A) (A) (A)
                 (A) (A) (A) (A) (A) (A) (A) (A) (A) (A) (A) (A)
       Virtual   (A) (A) (A) (A) (A) (A) (A) (A) (A) (A) (A) (A)
                 (A) (A) (A) (A) (A) (A) (A) (A) (A) (A) (A) (A)
                 (A) (A) (A) (A) (A) (A) (A) (A) (A) (A) (A) (A)
                 (A) (A) (A) (A) (A) (A) (A) (A) (A) (A) (A) (A)
                 (A) (A) (A) (A) (A) (A) (A) (A) (A) (A) (A) (A)
                 (A) (A) (A) (A) (A) (A) (A) (A) (A) (A) (A) (A)
                 (A) (A) (A) (A) (A) (A) (A) (A) (A) (A) (A) (A)
                 (A) (A) (A) (A) (A) (A) (A) (A) (A) (A) (A) (A)
                 (A) (A) (A) (A) (A) (A) (A) (A) (A) (A) (A) (A)
                 (A) (A) (A) (A) (A) (A) (A) (A) (A) (A) (A) (A)
                 (A) (A) (A) (A) (A) (A) (A) (A) (A) (A) (A) (A)
                 (A) (A) (A) (A) (A) (A) (A) (A) (A) (A) (A) (A)
                 (A) (A) (A) (A) (A) (A) (A) (A) (A) (A) (A) (A)
                 (A) (A) (A) (A) (A) (A) (A) (A) (A) (A) (A) (A)
                 (A) (A) (A) (A) (A) (A) (A) (A) (A) (A) (A) (A)
                 (A) (A) (A) (A) (A) (A) (A) (A) (A) (A) (A) (A)
                 (A) (A) (A) (A) (A) (A) (A) (A) (A) (A) (A) (A)
                 (A) (A) (A) (A) (A) (A) (A) (A) (A) (A) (A) (A)
 The electronic state of the initial guess is 1-A.
 Leave Link  401 at Thu Sep 30 11:06:20 2021, MaxMem= 1342177280 cpu:      11.8
 (Enter /sw/target/amd/app/gaussian/Gaussian09RevA.02_gcc-4.9.2/g09/l502.exe)
 Closed shell SCF:
 Requested convergence on RMS density matrix=1.00D-08 within  64 cycles.
 Requested convergence on MAX density matrix=1.00D-06.
 Requested convergence on             energy=1.00D-06.
 No special actions if energy rises.
 Using DIIS extrapolation, IDIIS=  1040.
 Integral symmetry usage will be decided dynamically.
       294097 words used for storage of precomputed grid.
 Keep R1 ints in memory in canonical form, NReq=741791412.
 IEnd=      531919 IEndB=      531919 NGot=  1342177280 MDV=   611093359
 LenX=   611093359 LenY=   611016742
 Symmetry not used in FoFDir.
 MinBra= 0 MaxBra= 2 Meth= 1.
 IRaf=       0 NMat=   1 IRICut=       1 DoRegI=T DoRafI=F ISym2E= 0 JSym2E=0.
 Integral accuracy reduced to 1.0D-05 until final iterations.

 Cycle   1  Pass 0  IDiag  1:
 E= -731.414534986196    
 DIIS: error= 3.24D-02 at cycle   1 NSaved=   1.
 NSaved= 1 IEnMin= 1 EnMin= -731.414534986196     IErMin= 1 ErrMin= 3.24D-02
 ErrMax= 3.24D-02 EMaxC= 1.00D-01 BMatC= 4.65D-01 BMatP= 4.65D-01
 IDIUse=3 WtCom= 6.76D-01 WtEn= 3.24D-01
 Coeff-Com:  0.100D+01
 Coeff-En:   0.100D+01
 Coeff:      0.100D+01
 Gap=     0.261 Goal=   None    Shift=    0.000
 GapD=    0.261 DampG=1.000 DampE=0.500 DampFc=0.5000 IDamp=-1.
 Damping current iteration by 5.00D-01
 RMSDP=5.66D-03 MaxDP=2.23D-01              OVMax= 2.42D-01

 Cycle   2  Pass 0  IDiag  1:
 E= -731.571518966577     Delta-E=       -0.156983980381 Rises=F Damp=T
 DIIS: error= 1.07D-02 at cycle   2 NSaved=   2.
 NSaved= 2 IEnMin= 2 EnMin= -731.571518966577     IErMin= 2 ErrMin= 1.07D-02
 ErrMax= 1.07D-02 EMaxC= 1.00D-01 BMatC= 6.34D-02 BMatP= 4.65D-01
 IDIUse=3 WtCom= 8.93D-01 WtEn= 1.07D-01
 Coeff-Com:  0.187D+00 0.813D+00
 Coeff-En:   0.279D+00 0.721D+00
 Coeff:      0.197D+00 0.803D+00
 Gap=     0.207 Goal=   None    Shift=    0.000
 RMSDP=1.70D-03 MaxDP=8.56D-02 DE=-1.57D-01 OVMax= 1.89D-01

 Cycle   3  Pass 0  IDiag  1:
 E= -731.810432669858     Delta-E=       -0.238913703281 Rises=F Damp=F
 DIIS: error= 1.45D-02 at cycle   3 NSaved=   3.
 NSaved= 3 IEnMin= 3 EnMin= -731.810432669858     IErMin= 2 ErrMin= 1.07D-02
 ErrMax= 1.45D-02 EMaxC= 1.00D-01 BMatC= 8.69D-02 BMatP= 6.34D-02
 IDIUse=2 WtCom= 0.00D+00 WtEn= 1.00D+00
 Coeff-En:   0.000D+00 0.000D+00 0.100D+01
 Coeff:      0.000D+00 0.000D+00 0.100D+01
 Gap=     0.222 Goal=   None    Shift=    0.000
 RMSDP=3.08D-03 MaxDP=1.97D-01 DE=-2.39D-01 OVMax= 2.84D-01

 Cycle   4  Pass 0  IDiag  1:
 E= -731.403459243837     Delta-E=        0.406973426022 Rises=F Damp=F
 DIIS: error= 3.70D-02 at cycle   4 NSaved=   4.
 NSaved= 4 IEnMin= 3 EnMin= -731.810432669858     IErMin= 2 ErrMin= 1.07D-02
 ErrMax= 3.70D-02 EMaxC= 1.00D-01 BMatC= 5.98D-01 BMatP= 6.34D-02
 IDIUse=2 WtCom= 0.00D+00 WtEn= 1.00D+00
 Coeff-En:   0.000D+00 0.000D+00 0.811D+00 0.189D+00
 Coeff:      0.000D+00 0.000D+00 0.811D+00 0.189D+00
 Gap=     0.239 Goal=   None    Shift=    0.000
 RMSDP=1.66D-03 MaxDP=1.00D-01 DE= 4.07D-01 OVMax= 1.08D-01

 Cycle   5  Pass 0  IDiag  1:
 E= -731.846144892301     Delta-E=       -0.442685648464 Rises=F Damp=F
 DIIS: error= 1.04D-02 at cycle   5 NSaved=   5.
 NSaved= 5 IEnMin= 5 EnMin= -731.846144892301     IErMin= 5 ErrMin= 1.04D-02
 ErrMax= 1.04D-02 EMaxC= 1.00D-01 BMatC= 4.66D-02 BMatP= 6.34D-02
 IDIUse=3 WtCom= 8.96D-01 WtEn= 1.04D-01
 Coeff-Com: -0.225D-02 0.480D-01 0.339D+00-0.795D-01 0.695D+00
 Coeff-En:   0.000D+00 0.000D+00 0.380D+00 0.000D+00 0.620D+00
 Coeff:     -0.201D-02 0.430D-01 0.343D+00-0.713D-01 0.687D+00
 Gap=     0.205 Goal=   None    Shift=    0.000
 RMSDP=6.49D-04 MaxDP=3.85D-02 DE=-4.43D-01 OVMax= 4.55D-02

 Cycle   6  Pass 0  IDiag  1:
 E= -731.883880722200     Delta-E=       -0.037735829899 Rises=F Damp=F
 DIIS: error= 9.36D-04 at cycle   6 NSaved=   6.
 NSaved= 6 IEnMin= 6 EnMin= -731.883880722200     IErMin= 6 ErrMin= 9.36D-04
 ErrMax= 9.36D-04 EMaxC= 1.00D-01 BMatC= 3.96D-04 BMatP= 4.66D-02
 IDIUse=3 WtCom= 9.91D-01 WtEn= 9.36D-03
 Coeff-Com: -0.435D-02 0.203D-01 0.174D+00-0.606D-01 0.432D+00 0.439D+00
 Coeff-En:   0.000D+00 0.000D+00 0.000D+00 0.000D+00 0.000D+00 0.100D+01
 Coeff:     -0.430D-02 0.201D-01 0.172D+00-0.600D-01 0.428D+00 0.444D+00
 Gap=     0.206 Goal=   None    Shift=    0.000
 RMSDP=7.90D-05 MaxDP=3.21D-03 DE=-3.77D-02 OVMax= 8.13D-03

 Cycle   7  Pass 0  IDiag  1:
 E= -731.884214989936     Delta-E=       -0.000334267736 Rises=F Damp=F
 DIIS: error= 2.93D-04 at cycle   7 NSaved=   7.
 NSaved= 7 IEnMin= 7 EnMin= -731.884214989936     IErMin= 7 ErrMin= 2.93D-04
 ErrMax= 2.93D-04 EMaxC= 1.00D-01 BMatC= 2.96D-05 BMatP= 3.96D-04
 IDIUse=3 WtCom= 9.97D-01 WtEn= 2.93D-03
 Coeff-Com: -0.925D-03 0.349D-02 0.476D-01-0.191D-01 0.118D+00 0.207D+00
 Coeff-Com:  0.643D+00
 Coeff-En:   0.000D+00 0.000D+00 0.000D+00 0.000D+00 0.000D+00 0.144D-01
 Coeff-En:   0.986D+00
 Coeff:     -0.923D-03 0.348D-02 0.475D-01-0.190D-01 0.118D+00 0.207D+00
 Coeff:      0.644D+00
 Gap=     0.206 Goal=   None    Shift=    0.000
 RMSDP=2.31D-05 MaxDP=7.09D-04 DE=-3.34D-04 OVMax= 2.19D-03

 Cycle   8  Pass 0  IDiag  1:
 E= -731.884241179624     Delta-E=       -0.000026189688 Rises=F Damp=F
 DIIS: error= 1.11D-04 at cycle   8 NSaved=   8.
 NSaved= 8 IEnMin= 8 EnMin= -731.884241179624     IErMin= 8 ErrMin= 1.11D-04
 ErrMax= 1.11D-04 EMaxC= 1.00D-01 BMatC= 4.10D-06 BMatP= 2.96D-05
 IDIUse=3 WtCom= 9.99D-01 WtEn= 1.11D-03
 Coeff-Com:  0.265D-03-0.120D-02 0.939D-02-0.333D-02 0.175D-01 0.725D-01
 Coeff-Com:  0.391D+00 0.514D+00
 Coeff-En:   0.000D+00 0.000D+00 0.000D+00 0.000D+00 0.000D+00 0.000D+00
 Coeff-En:   0.000D+00 0.100D+01
 Coeff:      0.265D-03-0.120D-02 0.938D-02-0.333D-02 0.175D-01 0.724D-01
 Coeff:      0.390D+00 0.515D+00
 Gap=     0.206 Goal=   None    Shift=    0.000
 RMSDP=6.92D-06 MaxDP=3.01D-04 DE=-2.62D-05 OVMax= 4.82D-04

 Initial convergence to 1.0D-05 achieved.  Increase integral accuracy.
 Cycle   9  Pass 1  IDiag  1:
 E= -731.884324475428     Delta-E=       -0.000083295804 Rises=F Damp=F
 DIIS: error= 1.80D-05 at cycle   1 NSaved=   1.
 NSaved= 1 IEnMin= 1 EnMin= -731.884324475428     IErMin= 1 ErrMin= 1.80D-05
 ErrMax= 1.80D-05 EMaxC= 1.00D-01 BMatC= 1.97D-07 BMatP= 1.97D-07
 IDIUse=1 WtCom= 1.00D+00 WtEn= 0.00D+00
 Coeff-Com:  0.100D+01
 Coeff:      0.100D+01
 Gap=     0.206 Goal=   None    Shift=    0.000
 RMSDP=6.92D-06 MaxDP=3.01D-04 DE=-8.33D-05 OVMax= 2.92D-04

 Cycle  10  Pass 1  IDiag  1:
 E= -731.884324319738     Delta-E=        0.000000155690 Rises=F Damp=F
 DIIS: error= 3.43D-05 at cycle   2 NSaved=   2.
 NSaved= 2 IEnMin= 1 EnMin= -731.884324475428     IErMin= 1 ErrMin= 1.80D-05
 ErrMax= 3.43D-05 EMaxC= 1.00D-01 BMatC= 4.01D-07 BMatP= 1.97D-07
 IDIUse=1 WtCom= 1.00D+00 WtEn= 0.00D+00
 Coeff-Com:  0.600D+00 0.400D+00
 Coeff:      0.600D+00 0.400D+00
 Gap=     0.206 Goal=   None    Shift=    0.000
 RMSDP=2.60D-06 MaxDP=9.16D-05 DE= 1.56D-07 OVMax= 2.48D-04

 Cycle  11  Pass 1  IDiag  1:
 E= -731.884324679148     Delta-E=       -0.000000359410 Rises=F Damp=F
 DIIS: error= 8.36D-06 at cycle   3 NSaved=   3.
 NSaved= 3 IEnMin= 3 EnMin= -731.884324679148     IErMin= 3 ErrMin= 8.36D-06
 ErrMax= 8.36D-06 EMaxC= 1.00D-01 BMatC= 2.35D-08 BMatP= 1.97D-07
 IDIUse=1 WtCom= 1.00D+00 WtEn= 0.00D+00
 Coeff-Com:  0.135D+00 0.204D+00 0.661D+00
 Coeff:      0.135D+00 0.204D+00 0.661D+00
 Gap=     0.206 Goal=   None    Shift=    0.000
 RMSDP=8.13D-07 MaxDP=3.65D-05 DE=-3.59D-07 OVMax= 6.20D-05

 Cycle  12  Pass 1  IDiag  1:
 E= -731.884324692052     Delta-E=       -0.000000012904 Rises=F Damp=F
 DIIS: error= 4.92D-06 at cycle   4 NSaved=   4.
 NSaved= 4 IEnMin= 4 EnMin= -731.884324692052     IErMin= 4 ErrMin= 4.92D-06
 ErrMax= 4.92D-06 EMaxC= 1.00D-01 BMatC= 1.27D-08 BMatP= 2.35D-08
 IDIUse=1 WtCom= 1.00D+00 WtEn= 0.00D+00
 Coeff-Com: -0.652D-02 0.797D-01 0.486D+00 0.441D+00
 Coeff:     -0.652D-02 0.797D-01 0.486D+00 0.441D+00
 Gap=     0.206 Goal=   None    Shift=    0.000
 RMSDP=3.33D-07 MaxDP=2.17D-05 DE=-1.29D-08 OVMax= 1.99D-05

 Cycle  13  Pass 1  IDiag  1:
 E= -731.884324701613     Delta-E=       -0.000000009561 Rises=F Damp=F
 DIIS: error= 8.44D-07 at cycle   5 NSaved=   5.
 NSaved= 5 IEnMin= 5 EnMin= -731.884324701613     IErMin= 5 ErrMin= 8.44D-07
 ErrMax= 8.44D-07 EMaxC= 1.00D-01 BMatC= 4.32D-10 BMatP= 1.27D-08
 IDIUse=1 WtCom= 1.00D+00 WtEn= 0.00D+00
 Coeff-Com: -0.109D-01 0.365D-01 0.256D+00 0.260D+00 0.459D+00
 Coeff:     -0.109D-01 0.365D-01 0.256D+00 0.260D+00 0.459D+00
 Gap=     0.206 Goal=   None    Shift=    0.000
 RMSDP=8.25D-08 MaxDP=3.39D-06 DE=-9.56D-09 OVMax= 6.75D-06

 Cycle  14  Pass 1  IDiag  1:
 E= -731.884324701962     Delta-E=       -0.000000000349 Rises=F Damp=F
 DIIS: error= 2.99D-07 at cycle   6 NSaved=   6.
 NSaved= 6 IEnMin= 6 EnMin= -731.884324701962     IErMin= 6 ErrMin= 2.99D-07
 ErrMax= 2.99D-07 EMaxC= 1.00D-01 BMatC= 2.56D-11 BMatP= 4.32D-10
 IDIUse=1 WtCom= 1.00D+00 WtEn= 0.00D+00
 Coeff-Com: -0.550D-02 0.130D-01 0.976D-01 0.104D+00 0.251D+00 0.539D+00
 Coeff:     -0.550D-02 0.130D-01 0.976D-01 0.104D+00 0.251D+00 0.539D+00
 Gap=     0.206 Goal=   None    Shift=    0.000
 RMSDP=2.25D-08 MaxDP=8.66D-07 DE=-3.49D-10 OVMax= 1.96D-06

 Cycle  15  Pass 1  IDiag  1:
 E= -731.884324701967     Delta-E=       -0.000000000004 Rises=F Damp=F
 DIIS: error= 9.03D-08 at cycle   7 NSaved=   7.
 NSaved= 7 IEnMin= 7 EnMin= -731.884324701967     IErMin= 7 ErrMin= 9.03D-08
 ErrMax= 9.03D-08 EMaxC= 1.00D-01 BMatC= 3.21D-12 BMatP= 2.56D-11
 IDIUse=1 WtCom= 1.00D+00 WtEn= 0.00D+00
 Coeff-Com: -0.176D-02 0.353D-02 0.270D-01 0.309D-01 0.885D-01 0.306D+00
 Coeff-Com:  0.546D+00
 Coeff:     -0.176D-02 0.353D-02 0.270D-01 0.309D-01 0.885D-01 0.306D+00
 Coeff:      0.546D+00
 Gap=     0.206 Goal=   None    Shift=    0.000
 RMSDP=6.34D-09 MaxDP=2.99D-07 DE=-4.09D-12 OVMax= 5.81D-07

 SCF Done:  E(RB3LYP) =  -731.884324702     A.U. after   15 cycles
             Convg  =    0.6335D-08             -V/T =  2.0096
 KE= 7.249422056480D+02 PE=-3.764721809034D+03 EE= 1.277063101055D+03
 Leave Link  502 at Thu Sep 30 11:14:43 2021, MaxMem= 1342177280 cpu:     300.5
 (Enter /sw/target/amd/app/gaussian/Gaussian09RevA.02_gcc-4.9.2/g09/l508.exe)
 QCSCF skips out because SCF is already converged.
 Leave Link  508 at Thu Sep 30 11:14:46 2021, MaxMem= 1342177280 cpu:       0.0
 (Enter /sw/target/amd/app/gaussian/Gaussian09RevA.02_gcc-4.9.2/g09/l601.exe)
 Copying SCF densities to generalized density rwf, IOpCl= 0 IROHF=0.

 **********************************************************************

            Population analysis using the SCF density.

 **********************************************************************

 Orbital symmetries:
       Occupied  (A) (A) (A) (A) (A) (A) (A) (A) (A) (A) (A) (A)
                 (A) (A) (A) (A) (A) (A) (A) (A) (A) (A) (A) (A)
                 (A) (A) (A) (A) (A) (A) (A) (A) (A) (A) (A) (A)
                 (A) (A) (A) (A) (A) (A) (A) (A) (A) (A) (A) (A)
                 (A) (A) (A) (A) (A) (A) (A) (A) (A) (A) (A) (A)
       Virtual   (A) (A) (A) (A) (A) (A) (A) (A) (A) (A) (A) (A)
                 (A) (A) (A) (A) (A) (A) (A) (A) (A) (A) (A) (A)
                 (A) (A) (A) (A) (A) (A) (A) (A) (A) (A) (A) (A)
                 (A) (A) (A) (A) (A) (A) (A) (A) (A) (A) (A) (A)
                 (A) (A) (A) (A) (A) (A) (A) (A) (A) (A) (A) (A)
                 (A) (A) (A) (A) (A) (A) (A) (A) (A) (A) (A) (A)
                 (A) (A) (A) (A) (A) (A) (A) (A) (A) (A) (A) (A)
                 (A) (A) (A) (A) (A) (A) (A) (A) (A) (A) (A) (A)
                 (A) (A) (A) (A) (A) (A) (A) (A) (A) (A) (A) (A)
                 (A) (A) (A) (A) (A) (A) (A) (A) (A) (A) (A) (A)
                 (A) (A) (A) (A) (A) (A) (A) (A) (A) (A) (A) (A)
                 (A) (A) (A) (A) (A) (A) (A) (A) (A) (A) (A) (A)
                 (A) (A) (A) (A) (A) (A) (A) (A) (A) (A) (A) (A)
                 (A) (A) (A) (A) (A) (A) (A) (A) (A) (A) (A) (A)
                 (A) (A) (A) (A) (A) (A) (A) (A) (A) (A) (A) (A)
                 (A) (A) (A) (A) (A) (A) (A) (A) (A) (A) (A) (A)
                 (A) (A) (A) (A) (A) (A) (A) (A) (A) (A) (A) (A)
                 (A) (A) (A) (A) (A) (A) (A) (A) (A) (A) (A) (A)
 The electronic state is 1-A.
 Alpha  occ. eigenvalues --  -19.20324 -19.15777 -19.15183 -10.33333 -10.25473
 Alpha  occ. eigenvalues --  -10.24851 -10.23489 -10.19033 -10.18994 -10.18869
 Alpha  occ. eigenvalues --  -10.18639 -10.18582 -10.18185 -10.17838 -10.17691
 Alpha  occ. eigenvalues --  -10.16991  -1.09578  -1.03828  -1.02377  -0.85575
 Alpha  occ. eigenvalues --   -0.80353  -0.77200  -0.74963  -0.74564  -0.70741
 Alpha  occ. eigenvalues --   -0.67011  -0.64538  -0.61628  -0.60135  -0.57858
 Alpha  occ. eigenvalues --   -0.56238  -0.51212  -0.50076  -0.49429  -0.48117
 Alpha  occ. eigenvalues --   -0.47410  -0.46463  -0.45628  -0.44521  -0.43370
 Alpha  occ. eigenvalues --   -0.42891  -0.42354  -0.41864  -0.41021  -0.40051
 Alpha  occ. eigenvalues --   -0.39246  -0.37996  -0.36540  -0.35846  -0.35143
 Alpha  occ. eigenvalues --   -0.34036  -0.33587  -0.33106  -0.32573  -0.32302
 Alpha  occ. eigenvalues --   -0.30928  -0.28147  -0.26486  -0.24803  -0.22611
 Alpha virt. eigenvalues --   -0.02006   0.00021   0.01847   0.07590   0.08876
 Alpha virt. eigenvalues --    0.10151   0.11983   0.12345   0.12985   0.13879
 Alpha virt. eigenvalues --    0.14008   0.15014   0.15217   0.15901   0.16508
 Alpha virt. eigenvalues --    0.16741   0.17649   0.17723   0.18540   0.18649
 Alpha virt. eigenvalues --    0.19074   0.19653   0.19743   0.21319   0.22553
 Alpha virt. eigenvalues --    0.23059   0.23832   0.25442   0.27059   0.28536
 Alpha virt. eigenvalues --    0.29313   0.32917   0.33911   0.35142   0.35691
 Alpha virt. eigenvalues --    0.37806   0.48290   0.50333   0.50496   0.50815
 Alpha virt. eigenvalues --    0.51632   0.51917   0.53195   0.53505   0.53975
 Alpha virt. eigenvalues --    0.55271   0.55693   0.56404   0.56592   0.57412
 Alpha virt. eigenvalues --    0.58690   0.59392   0.59842   0.61404   0.62051
 Alpha virt. eigenvalues --    0.63107   0.63266   0.64899   0.65380   0.66223
 Alpha virt. eigenvalues --    0.67767   0.68360   0.69330   0.71422   0.72470
 Alpha virt. eigenvalues --    0.75810   0.76372   0.78498   0.79617   0.81339
 Alpha virt. eigenvalues --    0.81867   0.82462   0.82921   0.84170   0.84392
 Alpha virt. eigenvalues --    0.85453   0.86585   0.86969   0.87090   0.87255
 Alpha virt. eigenvalues --    0.88406   0.89025   0.90730   0.91212   0.92111
 Alpha virt. eigenvalues --    0.92518   0.94034   0.94279   0.94748   0.95348
 Alpha virt. eigenvalues --    0.96502   0.97394   0.98396   0.98883   0.99858
 Alpha virt. eigenvalues --    1.02657   1.04563   1.06023   1.07531   1.09754
 Alpha virt. eigenvalues --    1.12194   1.14309   1.16058   1.17610   1.18472
 Alpha virt. eigenvalues --    1.19755   1.23152   1.25890   1.27601   1.31489
 Alpha virt. eigenvalues --    1.35559   1.36953   1.37895   1.40667   1.41410
 Alpha virt. eigenvalues --    1.44131   1.45798   1.46379   1.47398   1.48371
 Alpha virt. eigenvalues --    1.48598   1.49985   1.51390   1.53093   1.53830
 Alpha virt. eigenvalues --    1.56333   1.61382   1.64514   1.65694   1.72284
 Alpha virt. eigenvalues --    1.72483   1.74014   1.75524   1.79343   1.81279
 Alpha virt. eigenvalues --    1.82856   1.84555   1.85567   1.86412   1.89406
 Alpha virt. eigenvalues --    1.90136   1.91576   1.92154   1.94761   1.95446
 Alpha virt. eigenvalues --    1.95692   1.97233   1.97806   1.98312   1.99474
 Alpha virt. eigenvalues --    2.00583   2.01782   2.05286   2.05993   2.07088
 Alpha virt. eigenvalues --    2.08095   2.08877   2.12641   2.14733   2.14785
 Alpha virt. eigenvalues --    2.17140   2.17927   2.18246   2.22986   2.24382
 Alpha virt. eigenvalues --    2.26366   2.29323   2.30499   2.31683   2.32888
 Alpha virt. eigenvalues --    2.33495   2.37531   2.37961   2.40612   2.40802
 Alpha virt. eigenvalues --    2.42354   2.44090   2.48166   2.50459   2.54060
 Alpha virt. eigenvalues --    2.56997   2.60710   2.62566   2.64200   2.65003
 Alpha virt. eigenvalues --    2.67939   2.68831   2.71048   2.75197   2.78132
 Alpha virt. eigenvalues --    2.80231   2.80895   2.82051   2.90801   2.93732
 Alpha virt. eigenvalues --    2.96605   3.02169   3.07676   3.25857   3.43086
 Alpha virt. eigenvalues --    3.90486   4.03017   4.10503   4.12144   4.13617
 Alpha virt. eigenvalues --    4.15066   4.19703   4.24536   4.26475   4.33562
 Alpha virt. eigenvalues --    4.34533   4.39393   4.46813   4.51904   4.56141
 Alpha virt. eigenvalues --    4.77263
          Condensed to atoms (all electrons):
              1          2          3          4          5          6
     1  C    5.065668   0.372791  -0.045541   0.004057  -0.000154  -0.000002
     2  C    0.372791   4.968374   0.370407  -0.040350   0.004554   0.000071
     3  C   -0.045541   0.370407   5.014504   0.364996  -0.044032  -0.003928
     4  C    0.004057  -0.040350   0.364996   5.149597   0.356775  -0.056438
     5  C   -0.000154   0.004554  -0.044032   0.356775   4.644599   0.544574
     6  C   -0.000002   0.000071  -0.003928  -0.056438   0.544574   4.984317
     7  C   -0.000000   0.000003  -0.000104   0.006942  -0.022826   0.480422
     8  C    0.000000  -0.000000   0.000025   0.000391  -0.032400  -0.012681
     9  C   -0.000000   0.000002  -0.000085   0.006547  -0.023137  -0.044811
    10  C   -0.000002   0.000059  -0.003564  -0.057176   0.545901  -0.032798
    11  O   -0.000000  -0.000000   0.000000   0.000000   0.000118   0.003483
    12  C   -0.000000  -0.000000   0.000000  -0.000000   0.000016   0.000362
    13  O   -0.000000   0.000000  -0.000000   0.000000  -0.000002   0.000133
    14  C   -0.000000   0.000000   0.000000   0.000000   0.000000   0.000002
    15  O   -0.000000   0.000000   0.000000   0.000000   0.000000  -0.000000
    16  C    0.000000   0.000000  -0.000000  -0.000000  -0.000000   0.000000
    17  H    0.371024  -0.029509   0.004596  -0.000165   0.000002   0.000000
    18  H    0.378826  -0.035367  -0.004882   0.000041   0.000003   0.000000
    19  H    0.378941  -0.035568  -0.005069   0.000055   0.000003  -0.000002
    20  H   -0.039621   0.378478  -0.040342  -0.003548   0.000109  -0.000002
    21  H   -0.039749   0.378644  -0.040118  -0.003615   0.000099   0.000004
    22  H   -0.003151  -0.038524   0.373917  -0.040000  -0.001649   0.003701
    23  H   -0.002994  -0.038749   0.373781  -0.040198  -0.001645  -0.000072
    24  H    0.000048  -0.004529  -0.037200   0.360036  -0.030821   0.004037
    25  H    0.000052  -0.004552  -0.037411   0.361239  -0.031261  -0.005558
    26  H    0.000001  -0.000065   0.000425  -0.009045  -0.043843   0.355683
    27  H    0.000000  -0.000000   0.000000  -0.000165   0.003728  -0.037252
    28  H    0.000000  -0.000000  -0.000000  -0.000164   0.003894   0.000377
    29  H    0.000001  -0.000062   0.000431  -0.008947  -0.043631   0.006016
    30  H   -0.000000   0.000000  -0.000000  -0.000000  -0.000000   0.000000
    31  H    0.000000  -0.000000   0.000000   0.000000   0.000000  -0.000000
    32  H    0.000000  -0.000000  -0.000000  -0.000000  -0.000000  -0.000000
    33  H    0.000000  -0.000000  -0.000000   0.000000   0.000000  -0.000000
    34  H    0.000000  -0.000000   0.000000   0.000000   0.000000  -0.000000
              7          8          9         10         11         12
     1  C   -0.000000   0.000000  -0.000000  -0.000002  -0.000000  -0.000000
     2  C    0.000003  -0.000000   0.000002   0.000059  -0.000000  -0.000000
     3  C   -0.000104   0.000025  -0.000085  -0.003564   0.000000   0.000000
     4  C    0.006942   0.000391   0.006547  -0.057176   0.000000  -0.000000
     5  C   -0.022826  -0.032400  -0.023137   0.545901   0.000118   0.000016
     6  C    0.480422  -0.012681  -0.044811  -0.032798   0.003483   0.000362
     7  C    5.021238   0.509250  -0.064170  -0.045384  -0.048754  -0.002523
     8  C    0.509250   4.535382   0.541647  -0.018120   0.205749  -0.012674
     9  C   -0.064170   0.541647   5.001227   0.496346  -0.048752   0.001420
    10  C   -0.045384  -0.018120   0.496346   4.969073   0.003102  -0.000036
    11  O   -0.048754   0.205749  -0.048752   0.003102   8.309740   0.241424
    12  C   -0.002523  -0.012674   0.001420  -0.000036   0.241424   4.386092
    13  O   -0.002396  -0.002291   0.000259   0.000002  -0.061899   0.524288
    14  C    0.000423   0.003725  -0.000467   0.000004  -0.086014   0.345094
    15  O   -0.000024   0.000167  -0.000002  -0.000000   0.004408  -0.026259
    16  C    0.000001   0.000001  -0.000000   0.000000   0.000050   0.004077
    17  H    0.000000  -0.000000   0.000000   0.000000   0.000000   0.000000
    18  H   -0.000000   0.000000  -0.000000  -0.000001   0.000000  -0.000000
    19  H   -0.000000   0.000000  -0.000000   0.000000   0.000000   0.000000
    20  H   -0.000000   0.000000  -0.000000   0.000004   0.000000   0.000000
    21  H   -0.000000   0.000000  -0.000000  -0.000002   0.000000  -0.000000
    22  H   -0.000132  -0.000006  -0.000007  -0.000080  -0.000000   0.000000
    23  H   -0.000007  -0.000005  -0.000127   0.003626  -0.000000  -0.000000
    24  H   -0.000231   0.000013   0.000137  -0.005437  -0.000000  -0.000000
    25  H    0.000174   0.000017  -0.000219   0.003986  -0.000000  -0.000000
    26  H   -0.041249   0.003405   0.000465   0.005752  -0.000048  -0.000011
    27  H    0.350049  -0.034279   0.004968   0.000565  -0.006942   0.001585
    28  H    0.006473  -0.036905   0.345720  -0.038901  -0.001008  -0.000035
    29  H    0.000187   0.003911  -0.043238   0.356466  -0.000053   0.000000
    30  H    0.000003  -0.000221   0.000020  -0.000000  -0.000623  -0.022891
    31  H   -0.000018   0.000041   0.000002  -0.000000   0.003155  -0.037422
    32  H   -0.000000  -0.000001   0.000000   0.000000   0.000005  -0.000093
    33  H    0.000000  -0.000000  -0.000000  -0.000000  -0.000018   0.000133
    34  H   -0.000000   0.000001   0.000000  -0.000000   0.000006  -0.000421
             13         14         15         16         17         18
     1  C   -0.000000  -0.000000  -0.000000   0.000000   0.371024   0.378826
     2  C    0.000000   0.000000   0.000000   0.000000  -0.029509  -0.035367
     3  C   -0.000000   0.000000   0.000000  -0.000000   0.004596  -0.004882
     4  C    0.000000   0.000000   0.000000  -0.000000  -0.000165   0.000041
     5  C   -0.000002   0.000000   0.000000  -0.000000   0.000002   0.000003
     6  C    0.000133   0.000002  -0.000000   0.000000   0.000000   0.000000
     7  C   -0.002396   0.000423  -0.000024   0.000001   0.000000  -0.000000
     8  C   -0.002291   0.003725   0.000167   0.000001  -0.000000   0.000000
     9  C    0.000259  -0.000467  -0.000002  -0.000000   0.000000  -0.000000
    10  C    0.000002   0.000004  -0.000000   0.000000   0.000000  -0.000001
    11  O   -0.061899  -0.086014   0.004408   0.000050   0.000000   0.000000
    12  C    0.524288   0.345094  -0.026259   0.004077   0.000000  -0.000000
    13  O    8.041657  -0.062229   0.000912  -0.000053   0.000000   0.000000
    14  C   -0.062229   5.032741   0.214419  -0.037216   0.000000  -0.000000
    15  O    0.000912   0.214419   8.197940   0.251979   0.000000  -0.000000
    16  C   -0.000053  -0.037216   0.251979   4.876641   0.000000  -0.000000
    17  H    0.000000   0.000000   0.000000   0.000000   0.581015  -0.030693
    18  H    0.000000  -0.000000  -0.000000  -0.000000  -0.030693   0.577145
    19  H    0.000000   0.000000  -0.000000  -0.000000  -0.030706  -0.031956
    20  H   -0.000000   0.000000   0.000000   0.000000  -0.002816  -0.004912
    21  H    0.000000  -0.000000   0.000000   0.000000  -0.003131   0.005492
    22  H   -0.000000  -0.000000   0.000000   0.000000  -0.000025  -0.000404
    23  H   -0.000000  -0.000000   0.000000   0.000000  -0.000021   0.004913
    24  H   -0.000000  -0.000000   0.000000   0.000000   0.000001   0.000004
    25  H    0.000000  -0.000000  -0.000000   0.000000   0.000001   0.000006
    26  H   -0.000006  -0.000000  -0.000000   0.000000  -0.000000   0.000000
    27  H    0.010029  -0.000003  -0.000003   0.000000  -0.000000  -0.000000
    28  H    0.000008   0.000000   0.000007  -0.000000  -0.000000  -0.000000
    29  H   -0.000000  -0.000000  -0.000000  -0.000000  -0.000000   0.000000
    30  H    0.001604   0.333515  -0.036683  -0.007332   0.000000  -0.000000
    31  H    0.002647   0.355841  -0.041704  -0.005490   0.000000   0.000000
    32  H    0.000001   0.005394  -0.030570   0.386059   0.000000  -0.000000
    33  H    0.000003  -0.011180  -0.037001   0.360826   0.000000   0.000000
    34  H   -0.000001  -0.007087  -0.041010   0.364995   0.000000   0.000000
             19         20         21         22         23         24
     1  C    0.378941  -0.039621  -0.039749  -0.003151  -0.002994   0.000048
     2  C   -0.035568   0.378478   0.378644  -0.038524  -0.038749  -0.004529
     3  C   -0.005069  -0.040342  -0.040118   0.373917   0.373781  -0.037200
     4  C    0.000055  -0.003548  -0.003615  -0.040000  -0.040198   0.360036
     5  C    0.000003   0.000109   0.000099  -0.001649  -0.001645  -0.030821
     6  C   -0.000002  -0.000002   0.000004   0.003701  -0.000072   0.004037
     7  C   -0.000000  -0.000000  -0.000000  -0.000132  -0.000007  -0.000231
     8  C    0.000000   0.000000   0.000000  -0.000006  -0.000005   0.000013
     9  C   -0.000000  -0.000000  -0.000000  -0.000007  -0.000127   0.000137
    10  C    0.000000   0.000004  -0.000002  -0.000080   0.003626  -0.005437
    11  O    0.000000   0.000000   0.000000  -0.000000  -0.000000  -0.000000
    12  C    0.000000   0.000000  -0.000000   0.000000  -0.000000  -0.000000
    13  O    0.000000  -0.000000   0.000000  -0.000000  -0.000000  -0.000000
    14  C    0.000000   0.000000  -0.000000  -0.000000  -0.000000  -0.000000
    15  O   -0.000000   0.000000   0.000000   0.000000   0.000000   0.000000
    16  C   -0.000000   0.000000   0.000000   0.000000   0.000000   0.000000
    17  H   -0.030706  -0.002816  -0.003131  -0.000025  -0.000021   0.000001
    18  H   -0.031956  -0.004912   0.005492  -0.000404   0.004913   0.000004
    19  H    0.576659   0.005486  -0.004570   0.005044  -0.000414   0.000006
    20  H    0.005486   0.609236  -0.038718   0.005765  -0.005168   0.005232
    21  H   -0.004570  -0.038718   0.608631  -0.005260   0.005776  -0.000423
    22  H    0.005044   0.005765  -0.005260   0.601569  -0.038259   0.005814
    23  H   -0.000414  -0.005168   0.005776  -0.038259   0.602926  -0.005063
    24  H    0.000006   0.005232  -0.000423   0.005814  -0.005063   0.601854
    25  H    0.000004  -0.000433   0.005271  -0.005051   0.005833  -0.037907
    26  H    0.000000   0.000001   0.000006   0.000748   0.000032   0.000072
    27  H   -0.000000   0.000000  -0.000000   0.000003   0.000000   0.000003
    28  H   -0.000000  -0.000000   0.000000   0.000000   0.000002  -0.000006
    29  H    0.000000   0.000006   0.000001   0.000034   0.000734   0.005076
    30  H   -0.000000   0.000000   0.000000   0.000000   0.000000   0.000000
    31  H    0.000000  -0.000000  -0.000000  -0.000000  -0.000000  -0.000000
    32  H    0.000000   0.000000  -0.000000   0.000000   0.000000   0.000000
    33  H    0.000000   0.000000  -0.000000  -0.000000   0.000000  -0.000000
    34  H    0.000000   0.000000  -0.000000  -0.000000  -0.000000  -0.000000
             25         26         27         28         29         30
     1  C    0.000052   0.000001   0.000000   0.000000   0.000001  -0.000000
     2  C   -0.004552  -0.000065  -0.000000  -0.000000  -0.000062   0.000000
     3  C   -0.037411   0.000425   0.000000  -0.000000   0.000431  -0.000000
     4  C    0.361239  -0.009045  -0.000165  -0.000164  -0.008947  -0.000000
     5  C   -0.031261  -0.043843   0.003728   0.003894  -0.043631  -0.000000
     6  C   -0.005558   0.355683  -0.037252   0.000377   0.006016   0.000000
     7  C    0.000174  -0.041249   0.350049   0.006473   0.000187   0.000003
     8  C    0.000017   0.003405  -0.034279  -0.036905   0.003911  -0.000221
     9  C   -0.000219   0.000465   0.004968   0.345720  -0.043238   0.000020
    10  C    0.003986   0.005752   0.000565  -0.038901   0.356466  -0.000000
    11  O   -0.000000  -0.000048  -0.006942  -0.001008  -0.000053  -0.000623
    12  C   -0.000000  -0.000011   0.001585  -0.000035   0.000000  -0.022891
    13  O    0.000000  -0.000006   0.010029   0.000008  -0.000000   0.001604
    14  C   -0.000000  -0.000000  -0.000003   0.000000  -0.000000   0.333515
    15  O   -0.000000  -0.000000  -0.000003   0.000007  -0.000000  -0.036683
    16  C    0.000000   0.000000   0.000000  -0.000000  -0.000000  -0.007332
    17  H    0.000001  -0.000000  -0.000000  -0.000000  -0.000000   0.000000
    18  H    0.000006   0.000000  -0.000000  -0.000000   0.000000  -0.000000
    19  H    0.000004   0.000000  -0.000000  -0.000000   0.000000  -0.000000
    20  H   -0.000433   0.000001   0.000000  -0.000000   0.000006   0.000000
    21  H    0.005271   0.000006  -0.000000   0.000000   0.000001   0.000000
    22  H   -0.005051   0.000748   0.000003   0.000000   0.000034   0.000000
    23  H    0.005833   0.000032   0.000000   0.000002   0.000734   0.000000
    24  H   -0.037907   0.000072   0.000003  -0.000006   0.005076   0.000000
    25  H    0.599658   0.005235  -0.000009   0.000003   0.000048   0.000000
    26  H    0.005235   0.598262  -0.005580   0.000017  -0.000174  -0.000000
    27  H   -0.000009  -0.005580   0.550752  -0.000145   0.000014   0.000004
    28  H    0.000003   0.000017  -0.000145   0.584180  -0.005868   0.000001
    29  H    0.000048  -0.000174   0.000014  -0.005868   0.601084   0.000000
    30  H    0.000000  -0.000000   0.000004   0.000001   0.000000   0.603352
    31  H   -0.000000   0.000000   0.000010   0.000001   0.000000  -0.045084
    32  H   -0.000000   0.000000  -0.000000   0.000000   0.000000  -0.000064
    33  H    0.000000  -0.000000   0.000000   0.000000   0.000000   0.015158
    34  H   -0.000000  -0.000000   0.000000   0.000000  -0.000000  -0.002499
             31         32         33         34
     1  C    0.000000   0.000000   0.000000   0.000000
     2  C   -0.000000  -0.000000  -0.000000  -0.000000
     3  C    0.000000  -0.000000  -0.000000   0.000000
     4  C    0.000000  -0.000000   0.000000   0.000000
     5  C    0.000000  -0.000000   0.000000   0.000000
     6  C   -0.000000  -0.000000  -0.000000  -0.000000
     7  C   -0.000018  -0.000000   0.000000  -0.000000
     8  C    0.000041  -0.000001  -0.000000   0.000001
     9  C    0.000002   0.000000  -0.000000   0.000000
    10  C   -0.000000   0.000000  -0.000000  -0.000000
    11  O    0.003155   0.000005  -0.000018   0.000006
    12  C   -0.037422  -0.000093   0.000133  -0.000421
    13  O    0.002647   0.000001   0.000003  -0.000001
    14  C    0.355841   0.005394  -0.011180  -0.007087
    15  O   -0.041704  -0.030570  -0.037001  -0.041010
    16  C   -0.005490   0.386059   0.360826   0.364995
    17  H    0.000000   0.000000   0.000000   0.000000
    18  H    0.000000  -0.000000   0.000000   0.000000
    19  H    0.000000   0.000000   0.000000   0.000000
    20  H   -0.000000   0.000000   0.000000   0.000000
    21  H   -0.000000  -0.000000  -0.000000  -0.000000
    22  H   -0.000000   0.000000  -0.000000  -0.000000
    23  H   -0.000000   0.000000   0.000000  -0.000000
    24  H   -0.000000   0.000000  -0.000000  -0.000000
    25  H   -0.000000  -0.000000   0.000000  -0.000000
    26  H    0.000000   0.000000  -0.000000  -0.000000
    27  H    0.000010  -0.000000   0.000000   0.000000
    28  H    0.000001   0.000000   0.000000   0.000000
    29  H    0.000000   0.000000   0.000000  -0.000000
    30  H   -0.045084  -0.000064   0.015158  -0.002499
    31  H    0.597154  -0.000219  -0.002744   0.012624
    32  H   -0.000219   0.539222  -0.032294  -0.035071
    33  H   -0.002744  -0.032294   0.620319  -0.048143
    34  H    0.012624  -0.035071  -0.048143   0.618233
 Mulliken atomic charges:
              1
     1  C   -0.440194
     2  C   -0.246109
     3  C   -0.240807
     4  C   -0.350866
     5  C    0.171027
     6  C   -0.189636
     7  C   -0.147346
     8  C    0.345857
     9  C   -0.173745
    10  C   -0.183385
    11  O   -0.517128
    12  C    0.597875
    13  O   -0.452666
    14  C   -0.086961
    15  O   -0.456577
    16  C   -0.194537
    17  H    0.140428
    18  H    0.141783
    19  H    0.142086
    20  H    0.131242
    21  H    0.131660
    22  H    0.135954
    23  H    0.135095
    24  H    0.139286
    25  H    0.140874
    26  H    0.129916
    27  H    0.162669
    28  H    0.142350
    29  H    0.127964
    30  H    0.161741
    31  H    0.161206
    32  H    0.167631
    33  H    0.134942
    34  H    0.138373
 Sum of Mulliken atomic charges =  -0.00000
 Mulliken charges with hydrogens summed into heavy atoms:
              1
     1  C   -0.015897
     2  C    0.016793
     3  C    0.030242
     4  C   -0.070706
     5  C    0.171027
     6  C   -0.059720
     7  C    0.015323
     8  C    0.345857
     9  C   -0.031395
    10  C   -0.055421
    11  O   -0.517128
    12  C    0.597875
    13  O   -0.452666
    14  C    0.235986
    15  O   -0.456577
    16  C    0.246409
 Sum of Mulliken charges with hydrogens summed into heavy atoms =  -0.00000
 Electronic spatial extent (au):  <R**2>=           7253.8357
 Charge=             -0.0000 electrons
 Dipole moment (field-independent basis, Debye):
    X=              0.7260    Y=             -1.1160    Z=              0.4397  Tot=              1.4021
 Quadrupole moment (field-independent basis, Debye-Ang):
   XX=            -72.4410   YY=            -98.7146   ZZ=            -94.5321
   XY=             -5.1781   XZ=             -0.2241   YZ=             -3.5094
 Traceless Quadrupole moment (field-independent basis, Debye-Ang):
   XX=             16.1216   YY=            -10.1521   ZZ=             -5.9695
   XY=             -5.1781   XZ=             -0.2241   YZ=             -3.5094
 Octapole moment (field-independent basis, Debye-Ang**2):
  XXX=            180.9277  YYY=            -16.5542  ZZZ=             -2.3162  XYY=              2.0649
  XXY=            -18.6657  XXZ=              3.7052  XZZ=             18.6951  YZZ=             -0.5155
  YYZ=             -1.2704  XYZ=              5.8678
 Hexadecapole moment (field-independent basis, Debye-Ang**3):
 XXXX=          -7692.5395 YYYY=           -647.4988 ZZZZ=           -386.8600 XXXY=           -178.1395
 XXXZ=            -84.7517 YYYX=            -75.9922 YYYZ=             -5.3413 ZZZX=            -13.5863
 ZZZY=             -8.7813 XXYY=          -1532.4378 XXZZ=          -1487.8710 YYZZ=           -162.6302
 XXYZ=             -5.5054 YYXZ=            -12.7544 ZZXY=              0.6587
 N-N= 1.030832177629D+03 E-N=-3.764721810342D+03  KE= 7.249422056480D+02
 No NMR shielding tensors so no spin-rotation constants.
 Leave Link  601 at Thu Sep 30 11:14:48 2021, MaxMem= 1342177280 cpu:       1.7
 (Enter /sw/target/amd/app/gaussian/Gaussian09RevA.02_gcc-4.9.2/g09/l701.exe)
 Compute integral first derivatives.
 ... and contract with generalized density number  0.
 Leave Link  701 at Thu Sep 30 11:14:51 2021, MaxMem= 1342177280 cpu:       1.6
 (Enter /sw/target/amd/app/gaussian/Gaussian09RevA.02_gcc-4.9.2/g09/l702.exe)
 L702 exits ... SP integral derivatives will be done elsewhere.
 Leave Link  702 at Thu Sep 30 11:14:51 2021, MaxMem= 1342177280 cpu:       0.1
 (Enter /sw/target/amd/app/gaussian/Gaussian09RevA.02_gcc-4.9.2/g09/l703.exe)
 Compute integral first derivatives, UseDBF=F ICtDFT=           0.
 Integral derivatives from FoFDir, PRISM(SPDF).
 Calling FoFJK, ICntrl=      2127 FMM=F ISym2X=0 I1Cent= 0 IOpClX= 0 NMat=1 NMatS=1 NMatT=0.
 FoFCou: FMM=F IPFlag=           0 FMFlag=      100000 FMFlg1=         800
         NFxFlg=           0 DoJE=F BraDBF=F KetDBF=F FulRan=T
         Omega=  0.000000  0.000000  1.000000  0.000000  0.000000 ICntrl=    2127 IOpCl=  0
         NMat0=    1 NMatS0=    1 NMatT0=    0 NMatD0=    1 NMtDS0=    0 NMtDT0=    0
         I1Cent=           0 NGrid=           0.
 Symmetry not used in FoFCou.
 Leave Link  703 at Thu Sep 30 11:16:25 2021, MaxMem= 1342177280 cpu:      98.3
 (Enter /sw/target/amd/app/gaussian/Gaussian09RevA.02_gcc-4.9.2/g09/l716.exe)
 Dipole        = 2.85643640D-01-4.39073577D-01 1.72995119D-01
 ***** Axes restored to original set *****
 -------------------------------------------------------------------
 Center     Atomic                   Forces (Hartrees/Bohr)
 Number     Number              X              Y              Z
[...]
     9    C    1  pz     Val( 2p)     1.17402
    10    C    1  pz     Ryd( 3p)     0.00097
    11    C    1  dxy    Ryd( 3d)     0.00028
    12    C    1  dxz    Ryd( 3d)     0.00032
    13    C    1  dyz    Ryd( 3d)     0.00035
    14    C    1  dx2y2  Ryd( 3d)     0.00120
    15    C    1  dz2    Ryd( 3d)     0.00116

    16    C    2  S      Cor( 1S)     1.99935
    17    C    2  S      Val( 2S)     1.03581
    18    C    2  S      Ryd( 3S)     0.00083
    19    C    2  S      Ryd( 4S)     0.00002
    20    C    2  px     Val( 2p)     1.04568
    21    C    2  px     Ryd( 3p)     0.00139
    22    C    2  py     Val( 2p)     1.18998
    23    C    2  py     Ryd( 3p)     0.00220
    24    C    2  pz     Val( 2p)     1.17367
    25    C    2  pz     Ryd( 3p)     0.00200
    26    C    2  dxy    Ryd( 3d)     0.00052
    27    C    2  dxz    Ryd( 3d)     0.00054
    28    C    2  dyz    Ryd( 3d)     0.00036
    29    C    2  dx2y2  Ryd( 3d)     0.00099
    30    C    2  dz2    Ryd( 3d)     0.00113

    31    C    3  S      Cor( 1S)     1.99931
    32    C    3  S      Val( 2S)     1.03865
    33    C    3  S      Ryd( 3S)     0.00104
    34    C    3  S      Ryd( 4S)     0.00002
    35    C    3  px     Val( 2p)     1.04227
    36    C    3  px     Ryd( 3p)     0.00170
    37    C    3  py     Val( 2p)     1.18567
    38    C    3  py     Ryd( 3p)     0.00238
    39    C    3  pz     Val( 2p)     1.16628
    40    C    3  pz     Ryd( 3p)     0.00218
    41    C    3  dxy    Ryd( 3d)     0.00056
    42    C    3  dxz    Ryd( 3d)     0.00058
    43    C    3  dyz    Ryd( 3d)     0.00037
    44    C    3  dx2y2  Ryd( 3d)     0.00097
    45    C    3  dz2    Ryd( 3d)     0.00111

    46    C    4  S      Cor( 1S)     1.99928
    47    C    4  S      Val( 2S)     1.02859
    48    C    4  S      Ryd( 3S)     0.00073
    49    C    4  S      Ryd( 4S)     0.00002
    50    C    4  px     Val( 2p)     1.05253
    51    C    4  px     Ryd( 3p)     0.00198
    52    C    4  py     Val( 2p)     1.19935
    53    C    4  py     Ryd( 3p)     0.00383
    54    C    4  pz     Val( 2p)     1.17916
    55    C    4  pz     Ryd( 3p)     0.00299
    56    C    4  dxy    Ryd( 3d)     0.00053
    57    C    4  dxz    Ryd( 3d)     0.00057
    58    C    4  dyz    Ryd( 3d)     0.00040
    59    C    4  dx2y2  Ryd( 3d)     0.00102
    60    C    4  dz2    Ryd( 3d)     0.00111

    61    C    5  S      Cor( 1S)     1.99906
    62    C    5  S      Val( 2S)     0.88966
    63    C    5  S      Ryd( 3S)     0.00086
    64    C    5  S      Ryd( 4S)     0.00005
    65    C    5  px     Val( 2p)     1.05694
    66    C    5  px     Ryd( 3p)     0.00498
    67    C    5  py     Val( 2p)     1.03398
    68    C    5  py     Ryd( 3p)     0.00441
    69    C    5  pz     Val( 2p)     1.00787
    70    C    5  pz     Ryd( 3p)     0.00422
    71    C    5  dxy    Ryd( 3d)     0.00076
    72    C    5  dxz    Ryd( 3d)     0.00070
    73    C    5  dyz    Ryd( 3d)     0.00044
    74    C    5  dx2y2  Ryd( 3d)     0.00068
    75    C    5  dz2    Ryd( 3d)     0.00076

    76    C    6  S      Cor( 1S)     1.99907
    77    C    6  S      Val( 2S)     0.95826
    78    C    6  S      Ryd( 3S)     0.00061
    79    C    6  S      Ryd( 4S)     0.00005
    80    C    6  px     Val( 2p)     1.08210
    81    C    6  px     Ryd( 3p)     0.00411
    82    C    6  py     Val( 2p)     1.10704
    83    C    6  py     Ryd( 3p)     0.00462
    84    C    6  pz     Val( 2p)     1.05385
    85    C    6  pz     Ryd( 3p)     0.00464
    86    C    6  dxy    Ryd( 3d)     0.00079
    87    C    6  dxz    Ryd( 3d)     0.00065
    88    C    6  dyz    Ryd( 3d)     0.00055
    89    C    6  dx2y2  Ryd( 3d)     0.00057
    90    C    6  dz2    Ryd( 3d)     0.00050

    91    C    7  S      Cor( 1S)     1.99904
    92    C    7  S      Val( 2S)     0.96848
    93    C    7  S      Ryd( 3S)     0.00078
    94    C    7  S      Ryd( 4S)     0.00005
    95    C    7  px     Val( 2p)     1.09037
    96    C    7  px     Ryd( 3p)     0.00469
    97    C    7  py     Val( 2p)     1.09856
    98    C    7  py     Ryd( 3p)     0.00498
    99    C    7  pz     Val( 2p)     1.10222
   100    C    7  pz     Ryd( 3p)     0.00477
   101    C    7  dxy    Ryd( 3d)     0.00065
   102    C    7  dxz    Ryd( 3d)     0.00074
   103    C    7  dyz    Ryd( 3d)     0.00059
   104    C    7  dx2y2  Ryd( 3d)     0.00057
   105    C    7  dz2    Ryd( 3d)     0.00044

   106    C    8  S      Cor( 1S)     1.99872
   107    C    8  S      Val( 2S)     0.84898
   108    C    8  S      Ryd( 3S)     0.00123
   109    C    8  S      Ryd( 4S)     0.00011
   110    C    8  px     Val( 2p)     0.74405
   111    C    8  px     Ryd( 3p)     0.00646
   112    C    8  py     Val( 2p)     1.05180
   113    C    8  py     Ryd( 3p)     0.00628
   114    C    8  pz     Val( 2p)     1.02268
   115    C    8  pz     Ryd( 3p)     0.00303
   116    C    8  dxy    Ryd( 3d)     0.00127
   117    C    8  dxz    Ryd( 3d)     0.00141
   118    C    8  dyz    Ryd( 3d)     0.00053
   119    C    8  dx2y2  Ryd( 3d)     0.00162
   120    C    8  dz2    Ryd( 3d)     0.00117

   121    C    9  S      Cor( 1S)     1.99904
   122    C    9  S      Val( 2S)     0.97010
   123    C    9  S      Ryd( 3S)     0.00079
   124    C    9  S      Ryd( 4S)     0.00005
   125    C    9  px     Val( 2p)     1.09485
   126    C    9  px     Ryd( 3p)     0.00508
   127    C    9  py     Val( 2p)     1.11409
   128    C    9  py     Ryd( 3p)     0.00471
   129    C    9  pz     Val( 2p)     1.05254
   130    C    9  pz     Ryd( 3p)     0.00508
   131    C    9  dxy    Ryd( 3d)     0.00080
   132    C    9  dxz    Ryd( 3d)     0.00064
   133    C    9  dyz    Ryd( 3d)     0.00053
   134    C    9  dx2y2  Ryd( 3d)     0.00049
   135    C    9  dz2    Ryd( 3d)     0.00054

   136    C   10  S      Cor( 1S)     1.99906
   137    C   10  S      Val( 2S)     0.95699
   138    C   10  S      Ryd( 3S)     0.00057
   139    C   10  S      Ryd( 4S)     0.00005
   140    C   10  px     Val( 2p)     1.07857
   141    C   10  px     Ryd( 3p)     0.00404
   142    C   10  py     Val( 2p)     1.09512
   143    C   10  py     Ryd( 3p)     0.00477
   144    C   10  pz     Val( 2p)     1.09204
   145    C   10  pz     Ryd( 3p)     0.00480
   146    C   10  dxy    Ryd( 3d)     0.00067
   147    C   10  dxz    Ryd( 3d)     0.00071
   148    C   10  dyz    Ryd( 3d)     0.00059
   149    C   10  dx2y2  Ryd( 3d)     0.00061
   150    C   10  dz2    Ryd( 3d)     0.00041

   151    O   11  S      Cor( 1S)     1.99969
   152    O   11  S      Val( 2S)     1.59545
   153    O   11  S      Ryd( 3S)     0.00144
   154    O   11  S      Ryd( 4S)     0.00008
   155    O   11  px     Val( 2p)     1.43105
   156    O   11  px     Ryd( 3p)     0.00104
   157    O   11  py     Val( 2p)     1.72632
   158    O   11  py     Ryd( 3p)     0.00210
   159    O   11  pz     Val( 2p)     1.73449
   160    O   11  pz     Ryd( 3p)     0.00189
   161    O   11  dxy    Ryd( 3d)     0.00139
   162    O   11  dxz    Ryd( 3d)     0.00047
   163    O   11  dyz    Ryd( 3d)     0.00172
   164    O   11  dx2y2  Ryd( 3d)     0.00136
   165    O   11  dz2    Ryd( 3d)     0.00071

   166    C   12  S      Cor( 1S)     1.99944
   167    C   12  S      Val( 2S)     0.78286
   168    C   12  S      Ryd( 3S)     0.00379
   169    C   12  S      Ryd( 4S)     0.00045
   170    C   12  px     Val( 2p)     0.86156
   171    C   12  px     Ryd( 3p)     0.00459
   172    C   12  py     Val( 2p)     0.71718
   173    C   12  py     Ryd( 3p)     0.02226
   174    C   12  pz     Val( 2p)     0.81664
   175    C   12  pz     Ryd( 3p)     0.00275
   176    C   12  dxy    Ryd( 3d)     0.00384
   177    C   12  dxz    Ryd( 3d)     0.00111
   178    C   12  dyz    Ryd( 3d)     0.00232
   179    C   12  dx2y2  Ryd( 3d)     0.00202
   180    C   12  dz2    Ryd( 3d)     0.00049

   181    O   13  S      Cor( 1S)     1.99979
   182    O   13  S      Val( 2S)     1.70150
   183    O   13  S      Ryd( 3S)     0.00059
   184    O   13  S      Ryd( 4S)     0.00012
   185    O   13  px     Val( 2p)     1.79674
   186    O   13  px     Ryd( 3p)     0.00186
   187    O   13  py     Val( 2p)     1.59705
   188    O   13  py     Ryd( 3p)     0.00050
   189    O   13  pz     Val( 2p)     1.46618
   190    O   13  pz     Ryd( 3p)     0.00120
   191    O   13  dxy    Ryd( 3d)     0.00481
   192    O   13  dxz    Ryd( 3d)     0.00028
   193    O   13  dyz    Ryd( 3d)     0.00471
   194    O   13  dx2y2  Ryd( 3d)     0.00480
   195    O   13  dz2    Ryd( 3d)     0.00154

   196    C   14  S      Cor( 1S)     1.99921
   197    C   14  S      Val( 2S)     1.04843
   198    C   14  S      Ryd( 3S)     0.00305
   199    C   14  S      Ryd( 4S)     0.00006
   200    C   14  px     Val( 2p)     1.12206
   201    C   14  px     Ryd( 3p)     0.00231
   202    C   14  py     Val( 2p)     0.77663
   203    C   14  py     Ryd( 3p)     0.00449
   204    C   14  pz     Val( 2p)     1.22814
   205    C   14  pz     Ryd( 3p)     0.00091
   206    C   14  dxy    Ryd( 3d)     0.00142
   207    C   14  dxz    Ryd( 3d)     0.00066
   208    C   14  dyz    Ryd( 3d)     0.00218
   209    C   14  dx2y2  Ryd( 3d)     0.00177
   210    C   14  dz2    Ryd( 3d)     0.00110

   211    O   15  S      Cor( 1S)     1.99979
   212    O   15  S      Val( 2S)     1.61652
   213    O   15  S      Ryd( 3S)     0.00158
   214    O   15  S      Ryd( 4S)     0.00003
   215    O   15  px     Val( 2p)     1.57044
   216    O   15  px     Ryd( 3p)     0.00155
   217    O   15  py     Val( 2p)     1.45807
   218    O   15  py     Ryd( 3p)     0.00129
   219    O   15  pz     Val( 2p)     1.90121
   220    O   15  pz     Ryd( 3p)     0.00311
   221    O   15  dxy    Ryd( 3d)     0.00148
   222    O   15  dxz    Ryd( 3d)     0.00114
   223    O   15  dyz    Ryd( 3d)     0.00077
   224    O   15  dx2y2  Ryd( 3d)     0.00134
   225    O   15  dz2    Ryd( 3d)     0.00096

   226    C   16  S      Cor( 1S)     1.99946
   227    C   16  S      Val( 2S)     1.09645
   228    C   16  S      Ryd( 3S)     0.00161
   229    C   16  S      Ryd( 4S)     0.00003
   230    C   16  px     Val( 2p)     0.82198
   231    C   16  px     Ryd( 3p)     0.00323
   232    C   16  py     Val( 2p)     1.17622
   233    C   16  py     Ryd( 3p)     0.00221
   234    C   16  pz     Val( 2p)     1.20192
   235    C   16  pz     Ryd( 3p)     0.00042
   236    C   16  dxy    Ryd( 3d)     0.00122
   237    C   16  dxz    Ryd( 3d)     0.00197
   238    C   16  dyz    Ryd( 3d)     0.00050
   239    C   16  dx2y2  Ryd( 3d)     0.00197
   240    C   16  dz2    Ryd( 3d)     0.00122

   241    H   17  S      Val( 1S)     0.76595
   242    H   17  S      Ryd( 2S)     0.00083

   243    H   18  S      Val( 1S)     0.77345
   244    H   18  S      Ryd( 2S)     0.00107

   245    H   19  S      Val( 1S)     0.77334
   246    H   19  S      Ryd( 2S)     0.00107

   247    H   20  S      Val( 1S)     0.77142
   248    H   20  S      Ryd( 2S)     0.00167

   249    H   21  S      Val( 1S)     0.77130
   250    H   21  S      Ryd( 2S)     0.00167

   251    H   22  S      Val( 1S)     0.76695
   252    H   22  S      Ryd( 2S)     0.00188

   253    H   23  S      Val( 1S)     0.76722
   254    H   23  S      Ryd( 2S)     0.00185

   255    H   24  S      Val( 1S)     0.75819
   256    H   24  S      Ryd( 2S)     0.00217

   257    H   25  S      Val( 1S)     0.75837
   258    H   25  S      Ryd( 2S)     0.00199

   259    H   26  S      Val( 1S)     0.76819
   260    H   26  S      Ryd( 2S)     0.00104

   261    H   27  S      Val( 1S)     0.74540
   262    H   27  S      Ryd( 2S)     0.00120

   263    H   28  S      Val( 1S)     0.75288
   264    H   28  S      Ryd( 2S)     0.00113

   265    H   29  S      Val( 1S)     0.76845
   266    H   29  S      Ryd( 2S)     0.00104

   267    H   30  S      Val( 1S)     0.77499
   268    H   30  S      Ryd( 2S)     0.00268

   269    H   31  S      Val( 1S)     0.78020
   270    H   31  S      Ryd( 2S)     0.00304

   271    H   32  S      Val( 1S)     0.77559
   272    H   32  S      Ryd( 2S)     0.00060

   273    H   33  S      Val( 1S)     0.80737
   274    H   33  S      Ryd( 2S)     0.00198

   275    H   34  S      Val( 1S)     0.80766
   276    H   34  S      Ryd( 2S)     0.00202

 WARNING:  1 low occupancy (<1.9990e) core orbital  found on  C    8


 Summary of Natural Population Analysis:                  
                                                          
                                       Natural Population 
                Natural  -----------------------------------------------
    Atom  No    Charge         Core      Valence    Rydberg      Total
 -----------------------------------------------------------------------
      C    1   -0.67286      1.99946     4.66589    0.00751     6.67286
      C    2   -0.45446      1.99935     4.44514    0.00997     6.45446
      C    3   -0.44309      1.99931     4.43287    0.01091     6.44309
      C    4   -0.47210      1.99928     4.45963    0.01319     6.47210
      C    5   -0.00540      1.99906     3.98846    0.01787     6.00540
      C    6   -0.21740      1.99907     4.20125    0.01708     6.21740
      C    7   -0.27691      1.99904     4.25963    0.01824     6.27691
      C    8    0.31066      1.99872     3.66751    0.02310     5.68934
      C    9   -0.24932      1.99904     4.23158    0.01871     6.24932
      C   10   -0.23902      1.99906     4.22273    0.01723     6.23902
      O   11   -0.49921      1.99969     6.48732    0.01220     8.49921
      C   12    0.77871      1.99944     3.17823    0.04362     5.22129
      O   13   -0.58166      1.99979     6.56147    0.02041     8.58166
      C   14   -0.19242      1.99921     4.17525    0.01796     6.19242
      O   15   -0.55928      1.99979     6.54624    0.01325     8.55928
      C   16   -0.31041      1.99946     4.29657    0.01439     6.31041
      H   17    0.23323      0.00000     0.76595    0.00083     0.76677
      H   18    0.22548      0.00000     0.77345    0.00107     0.77452
      H   19    0.22559      0.00000     0.77334    0.00107     0.77441
      H   20    0.22691      0.00000     0.77142    0.00167     0.77309
      H   21    0.22703      0.00000     0.77130    0.00167     0.77297
      H   22    0.23117      0.00000     0.76695    0.00188     0.76883
      H   23    0.23093      0.00000     0.76722    0.00185     0.76907
      H   24    0.23964      0.00000     0.75819    0.00217     0.76036
      H   25    0.23964      0.00000     0.75837    0.00199     0.76036
      H   26    0.23076      0.00000     0.76819    0.00104     0.76924
      H   27    0.25340      0.00000     0.74540    0.00120     0.74660
      H   28    0.24599      0.00000     0.75288    0.00113     0.75401
      H   29    0.23051      0.00000     0.76845    0.00104     0.76949
      H   30    0.22233      0.00000     0.77499    0.00268     0.77767
      H   31    0.21676      0.00000     0.78020    0.00304     0.78324
      H   32    0.22382      0.00000     0.77559    0.00060     0.77618
      H   33    0.19065      0.00000     0.80737    0.00198     0.80935
      H   34    0.19032      0.00000     0.80766    0.00202     0.80968
 =======================================================================
   * Total *    0.00000     31.98877    87.70669    0.30455   120.00000

                                 Natural Population      
 --------------------------------------------------------
   Core                      31.98877 ( 99.9649% of  32)
   Valence                   87.70669 ( 99.6667% of  88)
   Natural Minimal Basis    119.69545 ( 99.7462% of 120)
   Natural Rydberg Basis      0.30455 (  0.2538% of 120)
 --------------------------------------------------------

    Atom  No          Natural Electron Configuration
 ----------------------------------------------------------------------------
      C    1      [core]2S( 1.10)2p( 3.56)
      C    2      [core]2S( 1.04)2p( 3.41)3p( 0.01)
      C    3      [core]2S( 1.04)2p( 3.39)3p( 0.01)
      C    4      [core]2S( 1.03)2p( 3.43)3p( 0.01)
      C    5      [core]2S( 0.89)2p( 3.10)3p( 0.01)
      C    6      [core]2S( 0.96)2p( 3.24)3p( 0.01)
      C    7      [core]2S( 0.97)2p( 3.29)3p( 0.01)
      C    8      [core]2S( 0.85)2p( 2.82)3p( 0.02)3d( 0.01)
      C    9      [core]2S( 0.97)2p( 3.26)3p( 0.01)
      C   10      [core]2S( 0.96)2p( 3.27)3p( 0.01)
      O   11      [core]2S( 1.60)2p( 4.89)3p( 0.01)3d( 0.01)
      C   12      [core]2S( 0.78)2p( 2.40)3p( 0.03)3d( 0.01)
      O   13      [core]2S( 1.70)2p( 4.86)3d( 0.02)
      C   14      [core]2S( 1.05)2p( 3.13)3p( 0.01)3d( 0.01)
      O   15      [core]2S( 1.62)2p( 4.93)3p( 0.01)3d( 0.01)
      C   16      [core]2S( 1.10)2p( 3.20)3p( 0.01)3d( 0.01)
      H   17            1S( 0.77)
      H   18            1S( 0.77)
      H   19            1S( 0.77)
      H   20            1S( 0.77)
      H   21            1S( 0.77)
      H   22            1S( 0.77)
      H   23            1S( 0.77)
      H   24            1S( 0.76)
      H   25            1S( 0.76)
      H   26            1S( 0.77)
      H   27            1S( 0.75)
      H   28            1S( 0.75)
      H   29            1S( 0.77)
      H   30            1S( 0.77)
      H   31            1S( 0.78)
      H   32            1S( 0.78)
      H   33            1S( 0.81)
      H   34            1S( 0.81)


 NBO analysis skipped by request.
 Leave Link  607 at Thu Sep 30 20:18:13 2021, MaxMem= 1342177280 cpu:      22.8
 (Enter /sw/target/amd/app/gaussian/Gaussian09RevA.02_gcc-4.9.2/g09/l9999.exe)
 1\1\GINC-HERMITE\SP\RTD-B3LYP-FC\6-31G(d)\C13H18O3\JSCHLEINITZ\30-Sep-
 2021\0\\#p TD(NStates=10, Root=1) b3lyp/6-31G* volume pop=NPA density=
 current Geom=AllCheck Guess=Read\\CCCCc1ccc(cc1)OC(=O)COC_conf_0\\0,1\
 C,0,0.9805486743,-0.9653781284,-0.287605451\C,0,2.48810281,-0.71239116
 33,-0.1838264161\C,0,2.9476461869,0.5186063195,-0.9744256011\C,0,4.464
 9125132,0.7748486753,-0.8726221192\C,0,4.915409426,1.9949910842,-1.646
 8311282\C,0,4.9598041714,3.2579078691,-1.0418470294\C,0,5.3353830512,4
 .3997601318,-1.7497907285\C,0,5.6787937806,4.2705998684,-3.0942407574\
 C,0,5.6426282119,3.0306229999,-3.7272122036\C,0,5.262984564,1.90333613
 03,-3.0014053755\O,0,5.9961155817,5.361118764,-3.9129659273\C,0,6.8495
 540468,6.3245604453,-3.4974246861\O,0,7.3898966979,6.3771470926,-2.417
 9777582\C,0,7.0483979196,7.4076807791,-4.5479970119\O,0,6.5505200235,7
 .0405130703,-5.8062786118\C,0,6.7123199456,8.0660348434,-6.7658379519\
 H,0,0.6829721163,-1.8492108288,0.2881086872\H,0,0.6764616243,-1.127922
 1116,-1.3289210428\H,0,0.4080227871,-0.110983282,0.0937616851\H,0,3.03
 39291963,-1.597509144,-0.5407519472\H,0,2.7671509763,-0.5896537115,0.8
 724991108\H,0,2.4086805048,1.4080223511,-0.618669666\H,0,2.6733829446,
 0.4013725519,-2.0324174114\H,0,5.0013408419,-0.1118508893,-1.236245802
 5\H,0,4.7370977527,0.8892237934,0.1850698461\H,0,4.6992909381,3.354676
 9197,0.0097991562\H,0,5.3751358248,5.3651598126,-1.2619648391\H,0,5.91
 14378041,2.9647986973,-4.7767244925\H,0,5.2403589473,0.9354648411,-3.4
 972977192\H,0,8.128192968,7.6261381484,-4.5756420155\H,0,6.5528250958,
 8.3180408611,-4.1648294739\H,0,6.2961157252,7.6916241126,-7.7039643868
 \H,0,7.7738546637,8.3185633374,-6.9187529436\H,0,6.1756243721,8.983396
 3356,-6.4748733272\\Version=AM64L-G09RevA.02\State=1-A\HF=-731.8903936
 \RMSD=4.900e-09\Dipole=-0.4312669,-0.0938306,-0.363795\Quadrupole=-7.2
 271259,6.3755631,0.8515628,1.8025886,-5.5842707,-7.3769497\PG=C01 [X(C
 13H18O3)]\\@


 NO SCIENCE HAS EVER MADE MORE RAPID PROGRESS IN A
 SHORTER TIME THAN CHEMISTRY.
   -- MARTIN HEINRICH KLOPROTH, 1791
 (FIRST PROFESSOR OF CHEMISTRY AT THE UNIVERSITY OF BERLIN)
 Job cpu time:  0 days  4 hours 21 minutes 24.3 seconds.
 File lengths (MBytes):  RWF=    259 Int=      0 D2E=      0 Chk=     35 Scr=      1
 Normal termination of Gaussian 09 at Thu Sep 30 20:18:22 2021.
