 Entering Gaussian System, Link 0=g09
 Input=C13H19NO2_23d2_conf_0.com
 Output=C13H19NO2_23d2_conf_0.log
 Initial command:
 /sw/target/amd/app/gaussian/Gaussian09RevA.02_gcc-4.9.2/g09/l1.exe /home/jschleinitz/gaussian/Gau-3750845.inp -scrdir=/home/jschleinitz/gaussian/
 Entering Link 1 = /sw/target/amd/app/gaussian/Gaussian09RevA.02_gcc-4.9.2/g09/l1.exe PID=   3750855.
  
 Copyright (c) 1988,1990,1992,1993,1995,1998,2003,2009, Gaussian, Inc.
                  All Rights Reserved.
  
 This is part of the Gaussian(R) 09 program.  It is based on
 the Gaussian(R) 03 system (copyright 2003, Gaussian, Inc.),
 the Gaussian(R) 98 system (copyright 1998, Gaussian, Inc.),
 the Gaussian(R) 94 system (copyright 1995, Gaussian, Inc.),
 the Gaussian 92(TM) system (copyright 1992, Gaussian, Inc.),
 the Gaussian 90(TM) system (copyright 1990, Gaussian, Inc.),
 the Gaussian 88(TM) system (copyright 1988, Gaussian, Inc.),
 the Gaussian 86(TM) system (copyright 1986, Carnegie Mellon
 University), and the Gaussian 82(TM) system (copyright 1983,
 Carnegie Mellon University). Gaussian is a federally registered
 trademark of Gaussian, Inc.
  
 This software contains proprietary and confidential information,
 including trade secrets, belonging to Gaussian, Inc.
  
 This software is provided under written license and may be
 used, copied, transmitted, or stored only in accord with that
 written license.
  
 The following legend is applicable only to US Government
 contracts under FAR:
  
                    RESTRICTED RIGHTS LEGEND
  
 Use, reproduction and disclosure by the US Government is
 subject to restrictions as set forth in subparagraphs (a)
 and (c) of the Commercial Computer Software - Restricted
 Rights clause in FAR 52.227-19.
  
 Gaussian, Inc.
 340 Quinnipiac St., Bldg. 40, Wallingford CT 06492
  
  
 ---------------------------------------------------------------
 Warning -- This program may not be used in any manner that
 competes with the business of Gaussian, Inc. or will provide
 assistance to any competitor of Gaussian, Inc.  The licensee
 of this program is prohibited from giving any competitor of
 Gaussian, Inc. access to this program.  By using this program,
 the user acknowledges that Gaussian, Inc. is engaged in the
 business of creating and licensing software in the field of
 computational chemistry and represents and warrants to the
 licensee that it is not a competitor of Gaussian, Inc. and that
 it will not use this program in any manner prohibited above.
 ---------------------------------------------------------------
  

 Cite this work as:
 Gaussian 09, Revision A.02,
 M. J. Frisch, G. W. Trucks, H. B. Schlegel, G. E. Scuseria, 
 M. A. Robb, J. R. Cheeseman, G. Scalmani, V. Barone, B. Mennucci, 
 G. A. Petersson, H. Nakatsuji, M. Caricato, X. Li, H. P. Hratchian, 
 A. F. Izmaylov, J. Bloino, G. Zheng, J. L. Sonnenberg, M. Hada, 
 M. Ehara, K. Toyota, R. Fukuda, J. Hasegawa, M. Ishida, T. Nakajima, 
 Y. Honda, O. Kitao, H. Nakai, T. Vreven, J. A. Montgomery, Jr., 
 J. E. Peralta, F. Ogliaro, M. Bearpark, J. J. Heyd, E. Brothers, 
 K. N. Kudin, V. N. Staroverov, R. Kobayashi, J. Normand, 
 K. Raghavachari, A. Rendell, J. C. Burant, S. S. Iyengar, J. Tomasi, 
 M. Cossi, N. Rega, J. M. Millam, M. Klene, J. E. Knox, J. B. Cross, 
 V. Bakken, C. Adamo, J. Jaramillo, R. Gomperts, R. E. Stratmann, 
 O. Yazyev, A. J. Austin, R. Cammi, C. Pomelli, J. W. Ochterski, 
 R. L. Martin, K. Morokuma, V. G. Zakrzewski, G. A. Voth, 
 P. Salvador, J. J. Dannenberg, S. Dapprich, A. D. Daniels, 
 O. Farkas, J. B. Foresman, J. V. Ortiz, J. Cioslowski, 
 and D. J. Fox, Gaussian, Inc., Wallingford CT, 2009.
 
 ******************************************
 Gaussian 09:  AM64L-G09RevA.02 11-Jun-2009
                30-Sep-2021 
 ******************************************
 %nproc=5
 Will use up to    5 processors via shared memory.
 %mem=10gb
 %chk=C13H19NO2_23d2_conf_0.chk
 -----------------------------------
 #p opt b3lyp/6-31G* scf=(xqc,tight)
 -----------------------------------
 1/14=-1,18=20,19=15,26=3,38=1/1,3;
 2/9=110,12=2,17=6,18=5,40=1/2;
 3/5=1,6=6,7=1,11=2,16=1,25=1,30=1,71=1,74=-5/1,2,3;
 4//1;
 5/5=2,8=3,13=1,32=2,38=5/2,8;
 6/7=2,8=2,9=2,10=2,28=1/1;
 7//1,2,3,16;
 1/14=-1,18=20,19=15/3(2);
 2/9=110/2;
 99//99;
 2/9=110/2;
 3/5=1,6=6,7=1,11=2,16=1,25=1,30=1,71=1,74=-5/1,2,3;
 4/5=5,16=3/1;
 5/5=2,8=3,13=1,32=2,38=5/2,8;
 7//1,2,3,16;
 1/14=-1,18=20,19=15/3(-5);
 2/9=110/2;
 6/7=2,8=2,9=2,10=2,19=2,28=1/1;
 99/9=1/99;
 Leave Link    1 at Thu Sep 30 16:33:04 2021, MaxMem= 1342177280 cpu:       0.1
 (Enter /sw/target/amd/app/gaussian/Gaussian09RevA.02_gcc-4.9.2/g09/l101.exe)
 ------------------------------------
 O=C(N(C)C)Oc1cccc(c1)C(C)(C)C_conf_0
 ------------------------------------
 Symbolic Z-matrix:
 Charge =  0 Multiplicity = 1
 O                     3.2218    0.27275  -1.74262 
 C                     2.94066   0.67701  -0.61513 
 N                     1.80035   0.28015   0.06757 
 C                     0.72615  -0.34337  -0.67904 
 C                     1.50609   0.7171    1.41907 
 O                     3.70267   1.59298   0.10997 
 C                     4.90199   2.1661   -0.36955 
 C                     5.18459   2.36616  -1.71434 
 C                     6.40145   2.93914  -2.06848 
 C                     7.31238   3.3307   -1.08079 
 C                     7.02724   3.1726    0.2901 
 C                     5.79659   2.58273   0.62298 
 C                     8.01597   3.67641   1.35581 
 C                     8.167     5.20476   1.20142 
 C                     7.55765   3.3911    2.80453 
 C                     9.40285   3.01841   1.188 
 H                     1.08029  -0.77324  -1.62076 
 H                    -0.01988   0.42467  -0.90714 
 H                     0.26902  -1.13235  -0.07643 
 H                     2.41513   0.99046   1.96133 
 H                     1.02005  -0.10025   1.95963 
 H                     0.83788   1.58146   1.37367 
 H                     4.48501   2.08708  -2.49464 
 H                     6.64023   3.08629  -3.11869 
 H                     8.24687   3.78469  -1.40294 
 H                     5.49841   2.43596   1.65612 
 H                     7.2012    5.71001   1.32037 
 H                     8.55901   5.48052   0.2156 
 H                     8.85644   5.61406   1.94785 
 H                     6.6281    3.91994   3.04529 
 H                     8.31032   3.71671   3.53201 
 H                     7.39351   2.31942   2.96997 
 H                     9.88243   3.29294   0.2425 
 H                     9.33386   1.92521   1.22384 
 H                     10.08273   3.33245   1.99044 
 
 NAtoms=     35 NQM=     35 NQMF=      0 NMic=      0 NMicF=      0 NTot=     35.
                    Isotopes and Nuclear Properties:
 (Nuclear quadrupole moments (NQMom) in fm**2, nuclear magnetic moments (NMagM)
  in nuclear magnetons)

  Atom         1           2           3           4           5           6           7           8           9          10
 IAtWgt=          16          12          14          12          12          16          12          12          12          12
 AtmWgt=  15.9949146  12.0000000  14.0030740  12.0000000  12.0000000  15.9949146  12.0000000  12.0000000  12.0000000  12.0000000
 NucSpn=           0           0           2           0           0           0           0           0           0           0
 AtZEff=   0.0000000   0.0000000   0.0000000   0.0000000   0.0000000   0.0000000   0.0000000   0.0000000   0.0000000   0.0000000
 NQMom=    0.0000000   0.0000000   2.0440000   0.0000000   0.0000000   0.0000000   0.0000000   0.0000000   0.0000000   0.0000000
 NMagM=    0.0000000   0.0000000   0.4037610   0.0000000   0.0000000   0.0000000   0.0000000   0.0000000   0.0000000   0.0000000

  Atom        11          12          13          14          15          16          17          18          19          20
 IAtWgt=          12          12          12          12          12          12           1           1           1           1
 AtmWgt=  12.0000000  12.0000000  12.0000000  12.0000000  12.0000000  12.0000000   1.0078250   1.0078250   1.0078250   1.0078250
 NucSpn=           0           0           0           0           0           0           1           1           1           1
 AtZEff=   0.0000000   0.0000000   0.0000000   0.0000000   0.0000000   0.0000000   0.0000000   0.0000000   0.0000000   0.0000000
 NQMom=    0.0000000   0.0000000   0.0000000   0.0000000   0.0000000   0.0000000   0.0000000   0.0000000   0.0000000   0.0000000
 NMagM=    0.0000000   0.0000000   0.0000000   0.0000000   0.0000000   0.0000000   2.7928460   2.7928460   2.7928460   2.7928460

  Atom        21          22          23          24          25          26          27          28          29          30
 IAtWgt=           1           1           1           1           1           1           1           1           1           1
 AtmWgt=   1.0078250   1.0078250   1.0078250   1.0078250   1.0078250   1.0078250   1.0078250   1.0078250   1.0078250   1.0078250
 NucSpn=           1           1           1           1           1           1           1           1           1           1
 AtZEff=   0.0000000   0.0000000   0.0000000   0.0000000   0.0000000   0.0000000   0.0000000   0.0000000   0.0000000   0.0000000
 NQMom=    0.0000000   0.0000000   0.0000000   0.0000000   0.0000000   0.0000000   0.0000000   0.0000000   0.0000000   0.0000000
 NMagM=    2.7928460   2.7928460   2.7928460   2.7928460   2.7928460   2.7928460   2.7928460   2.7928460   2.7928460   2.7928460

  Atom        31          32          33          34          35
 IAtWgt=           1           1           1           1           1
 AtmWgt=   1.0078250   1.0078250   1.0078250   1.0078250   1.0078250
 NucSpn=           1           1           1           1           1
 AtZEff=   0.0000000   0.0000000   0.0000000   0.0000000   0.0000000
 NQMom=    0.0000000   0.0000000   0.0000000   0.0000000   0.0000000
 NMagM=    2.7928460   2.7928460   2.7928460   2.7928460   2.7928460
 Leave Link  101 at Thu Sep 30 16:33:05 2021, MaxMem= 1342177280 cpu:       0.2
 (Enter /sw/target/amd/app/gaussian/Gaussian09RevA.02_gcc-4.9.2/g09/l103.exe)

 GradGradGradGradGradGradGradGradGradGradGradGradGradGradGradGradGradGrad
 Berny optimization.
 Initialization pass.
                           ----------------------------
                           !    Initial Parameters    !
                           ! (Angstroms and Degrees)  !
 --------------------------                            --------------------------
 ! Name  Definition              Value          Derivative Info.                !
 --------------------------------------------------------------------------------
 ! R1    R(1,2)                  1.2303         estimate D2E/DX2                !
 ! R2    R(2,3)                  1.387          estimate D2E/DX2                !
 ! R3    R(2,6)                  1.3948         estimate D2E/DX2                !
 ! R4    R(3,4)                  1.4492         estimate D2E/DX2                !
 ! R5    R(3,5)                  1.4505         estimate D2E/DX2                !
 ! R6    R(4,17)                 1.0941         estimate D2E/DX2                !
 ! R7    R(4,18)                 1.0947         estimate D2E/DX2                !
 ! R8    R(4,19)                 1.093          estimate D2E/DX2                !
 ! R9    R(5,20)                 1.0932         estimate D2E/DX2                !
 ! R10   R(5,21)                 1.0938         estimate D2E/DX2                !
 ! R11   R(5,22)                 1.0935         estimate D2E/DX2                !
 ! R12   R(6,7)                  1.4131         estimate D2E/DX2                !
 ! R13   R(7,8)                  1.3887         estimate D2E/DX2                !
 ! R14   R(7,12)                 1.3996         estimate D2E/DX2                !
 ! R15   R(8,9)                  1.3908         estimate D2E/DX2                !
 ! R16   R(8,23)                 1.0845         estimate D2E/DX2                !
 ! R17   R(9,10)                 1.3995         estimate D2E/DX2                !
 ! R18   R(9,24)                 1.087          estimate D2E/DX2                !
 ! R19   R(10,11)                1.4091         estimate D2E/DX2                !
 ! R20   R(10,25)                1.0877         estimate D2E/DX2                !
 ! R21   R(11,12)                1.4047         estimate D2E/DX2                !
 ! R22   R(11,13)                1.5386         estimate D2E/DX2                !
 ! R23   R(12,26)                1.0853         estimate D2E/DX2                !
 ! R24   R(13,14)                1.5435         estimate D2E/DX2                !
 ! R25   R(13,15)                1.546          estimate D2E/DX2                !
 ! R26   R(13,16)                1.5442         estimate D2E/DX2                !
 ! R27   R(14,27)                1.0964         estimate D2E/DX2                !
 ! R28   R(14,28)                1.0962         estimate D2E/DX2                !
 ! R29   R(14,29)                1.0955         estimate D2E/DX2                !
 ! R30   R(15,30)                1.0962         estimate D2E/DX2                !
 ! R31   R(15,31)                1.0962         estimate D2E/DX2                !
 ! R32   R(15,32)                1.0967         estimate D2E/DX2                !
 ! R33   R(16,33)                1.0951         estimate D2E/DX2                !
 ! R34   R(16,34)                1.096          estimate D2E/DX2                !
 ! R35   R(16,35)                1.0976         estimate D2E/DX2                !
 ! A1    A(1,2,3)              123.0181         estimate D2E/DX2                !
 ! A2    A(1,2,6)              124.566          estimate D2E/DX2                !
 ! A3    A(3,2,6)              112.406          estimate D2E/DX2                !
 ! A4    A(2,3,4)              118.6154         estimate D2E/DX2                !
 ! A5    A(2,3,5)              122.6278         estimate D2E/DX2                !
 ! A6    A(4,3,5)              117.3387         estimate D2E/DX2                !
 ! A7    A(3,4,17)             111.8736         estimate D2E/DX2                !
 ! A8    A(3,4,18)             108.0972         estimate D2E/DX2                !
 ! A9    A(3,4,19)             109.6677         estimate D2E/DX2                !
 ! A10   A(17,4,18)            108.4744         estimate D2E/DX2                !
 ! A11   A(17,4,19)            109.0451         estimate D2E/DX2                !
 ! A12   A(18,4,19)            109.6516         estimate D2E/DX2                !
 ! A13   A(3,5,20)             111.6408         estimate D2E/DX2                !
 ! A14   A(3,5,21)             108.9952         estimate D2E/DX2                !
 ! A15   A(3,5,22)             108.8683         estimate D2E/DX2                !
 ! A16   A(20,5,21)            108.1319         estimate D2E/DX2                !
 ! A17   A(20,5,22)            109.3345         estimate D2E/DX2                !
 ! A18   A(21,5,22)            109.8553         estimate D2E/DX2                !
 ! A19   A(2,6,7)              123.6159         estimate D2E/DX2                !
 ! A20   A(6,7,8)              124.0409         estimate D2E/DX2                !
 ! A21   A(6,7,12)             114.9965         estimate D2E/DX2                !
 ! A22   A(8,7,12)             120.9156         estimate D2E/DX2                !
 ! A23   A(7,8,9)              118.9454         estimate D2E/DX2                !
 ! A24   A(7,8,23)             121.8985         estimate D2E/DX2                !
 ! A25   A(9,8,23)             119.1559         estimate D2E/DX2                !
 ! A26   A(8,9,10)             120.3338         estimate D2E/DX2                !
 ! A27   A(8,9,24)             119.6007         estimate D2E/DX2                !
 ! A28   A(10,9,24)            120.0649         estimate D2E/DX2                !
 ! A29   A(9,10,11)            121.5662         estimate D2E/DX2                !
 ! A30   A(9,10,25)            117.8362         estimate D2E/DX2                !
 ! A31   A(11,10,25)           120.5847         estimate D2E/DX2                !
 ! A32   A(10,11,12)           117.0605         estimate D2E/DX2                !
 ! A33   A(10,11,13)           120.4707         estimate D2E/DX2                !
 ! A34   A(12,11,13)           122.4361         estimate D2E/DX2                !
 ! A35   A(7,12,11)            121.125          estimate D2E/DX2                !
 ! A36   A(7,12,26)            117.3357         estimate D2E/DX2                !
 ! A37   A(11,12,26)           121.5386         estimate D2E/DX2                !
 ! A38   A(11,13,14)           108.5315         estimate D2E/DX2                !
 ! A39   A(11,13,15)           113.4617         estimate D2E/DX2                !
 ! A40   A(11,13,16)           111.245          estimate D2E/DX2                !
 ! A41   A(14,13,15)           107.7857         estimate D2E/DX2                !
 ! A42   A(14,13,16)           108.8548         estimate D2E/DX2                !
 ! A43   A(15,13,16)           106.8246         estimate D2E/DX2                !
 ! A44   A(13,14,27)           111.0533         estimate D2E/DX2                !
 ! A45   A(13,14,28)           111.9652         estimate D2E/DX2                !
 ! A46   A(13,14,29)           111.3076         estimate D2E/DX2                !
 ! A47   A(27,14,28)           107.2569         estimate D2E/DX2                !
 ! A48   A(27,14,29)           107.9557         estimate D2E/DX2                !
 ! A49   A(28,14,29)           107.0817         estimate D2E/DX2                !
 ! A50   A(13,15,30)           111.6021         estimate D2E/DX2                !
 ! A51   A(13,15,31)           111.3149         estimate D2E/DX2                !
 ! A52   A(13,15,32)           111.4722         estimate D2E/DX2                !
 ! A53   A(30,15,31)           107.0471         estimate D2E/DX2                !
 ! A54   A(30,15,32)           108.1405         estimate D2E/DX2                !
 ! A55   A(31,15,32)           107.031          estimate D2E/DX2                !
 ! A56   A(13,16,33)           112.3524         estimate D2E/DX2                !
 ! A57   A(13,16,34)           111.404          estimate D2E/DX2                !
 ! A58   A(13,16,35)           110.7899         estimate D2E/DX2                !
 ! A59   A(33,16,34)           107.8091         estimate D2E/DX2                !
 ! A60   A(33,16,35)           106.7508         estimate D2E/DX2                !
 ! A61   A(34,16,35)           107.4868         estimate D2E/DX2                !
 ! D1    D(1,2,3,4)            -16.6841         estimate D2E/DX2                !
 ! D2    D(1,2,3,5)            177.2781         estimate D2E/DX2                !
 ! D3    D(6,2,3,4)            162.2156         estimate D2E/DX2                !
 ! D4    D(6,2,3,5)             -3.8223         estimate D2E/DX2                !
 ! D5    D(1,2,6,7)             -0.228          estimate D2E/DX2                !
 ! D6    D(3,2,6,7)           -179.1075         estimate D2E/DX2                !
 ! D7    D(2,3,4,17)            21.9192         estimate D2E/DX2                !
 ! D8    D(2,3,4,18)           -97.4497         estimate D2E/DX2                !
 ! D9    D(2,3,4,19)           143.0437         estimate D2E/DX2                !
 ! D10   D(5,3,4,17)          -171.3046         estimate D2E/DX2                !
 ! D11   D(5,3,4,18)            69.3265         estimate D2E/DX2                !
 ! D12   D(5,3,4,19)           -50.1801         estimate D2E/DX2                !
 ! D13   D(2,3,5,20)           -24.934          estimate D2E/DX2                !
 ! D14   D(2,3,5,21)          -144.3181         estimate D2E/DX2                !
 ! D15   D(2,3,5,22)            95.8637         estimate D2E/DX2                !
 ! D16   D(4,3,5,20)           168.8606         estimate D2E/DX2                !
 ! D17   D(4,3,5,21)            49.4765         estimate D2E/DX2                !
 ! D18   D(4,3,5,22)           -70.3417         estimate D2E/DX2                !
 ! D19   D(2,6,7,8)             28.3041         estimate D2E/DX2                !
 ! D20   D(2,6,7,12)          -154.1742         estimate D2E/DX2                !
 ! D21   D(6,7,8,9)           -179.9344         estimate D2E/DX2                !
 ! D22   D(6,7,8,23)            -0.0396         estimate D2E/DX2                !
 ! D23   D(12,7,8,9)             2.6839         estimate D2E/DX2                !
 ! D24   D(12,7,8,23)         -177.4214         estimate D2E/DX2                !
 ! D25   D(6,7,12,11)         -179.8686         estimate D2E/DX2                !
 ! D26   D(6,7,12,26)           -0.1658         estimate D2E/DX2                !
 ! D27   D(8,7,12,11)           -2.2623         estimate D2E/DX2                !
 ! D28   D(8,7,12,26)          177.4405         estimate D2E/DX2                !
 ! D29   D(7,8,9,10)            -1.2547         estimate D2E/DX2                !
 ! D30   D(7,8,9,24)           179.0462         estimate D2E/DX2                !
 ! D31   D(23,8,9,10)          178.8476         estimate D2E/DX2                !
 ! D32   D(23,8,9,24)           -0.8515         estimate D2E/DX2                !
 ! D33   D(8,9,10,11)           -0.631          estimate D2E/DX2                !
 ! D34   D(8,9,10,25)         -179.3258         estimate D2E/DX2                !
 ! D35   D(24,9,10,11)         179.0667         estimate D2E/DX2                !
 ! D36   D(24,9,10,25)           0.3719         estimate D2E/DX2                !
 ! D37   D(9,10,11,12)           1.0681         estimate D2E/DX2                !
 ! D38   D(9,10,11,13)        -176.9025         estimate D2E/DX2                !
 ! D39   D(25,10,11,12)        179.7273         estimate D2E/DX2                !
 ! D40   D(25,10,11,13)          1.7567         estimate D2E/DX2                !
 ! D41   D(10,11,12,7)           0.358          estimate D2E/DX2                !
 ! D42   D(10,11,12,26)       -179.3322         estimate D2E/DX2                !
 ! D43   D(13,11,12,7)         178.2856         estimate D2E/DX2                !
 ! D44   D(13,11,12,26)         -1.4046         estimate D2E/DX2                !
 ! D45   D(10,11,13,14)         61.5444         estimate D2E/DX2                !
 ! D46   D(10,11,13,15)       -178.6748         estimate D2E/DX2                !
 ! D47   D(10,11,13,16)        -58.1925         estimate D2E/DX2                !
 ! D48   D(12,11,13,14)       -116.3142         estimate D2E/DX2                !
 ! D49   D(12,11,13,15)          3.4665         estimate D2E/DX2                !
 ! D50   D(12,11,13,16)        123.9488         estimate D2E/DX2                !
 ! D51   D(11,13,14,27)         59.1163         estimate D2E/DX2                !
 ! D52   D(11,13,14,28)        -60.7519         estimate D2E/DX2                !
 ! D53   D(11,13,14,29)        179.4283         estimate D2E/DX2                !
 ! D54   D(15,13,14,27)        -64.1489         estimate D2E/DX2                !
 ! D55   D(15,13,14,28)        175.9829         estimate D2E/DX2                !
 ! D56   D(15,13,14,29)         56.163          estimate D2E/DX2                !
 ! D57   D(16,13,14,27)       -179.6645         estimate D2E/DX2                !
 ! D58   D(16,13,14,28)         60.4674         estimate D2E/DX2                !
 ! D59   D(16,13,14,29)        -59.3525         estimate D2E/DX2                !
 ! D60   D(11,13,15,30)        -63.4369         estimate D2E/DX2                !
 ! D61   D(11,13,15,31)        177.0281         estimate D2E/DX2                !
 ! D62   D(11,13,15,32)         57.6007         estimate D2E/DX2                !
 ! D63   D(14,13,15,30)         56.7677         estimate D2E/DX2                !
 ! D64   D(14,13,15,31)        -62.7673         estimate D2E/DX2                !
 ! D65   D(14,13,15,32)        177.8053         estimate D2E/DX2                !
 ! D66   D(16,13,15,30)        173.6123         estimate D2E/DX2                !
 ! D67   D(16,13,15,31)         54.0773         estimate D2E/DX2                !
 ! D68   D(16,13,15,32)        -65.3501         estimate D2E/DX2                !
 ! D69   D(11,13,16,33)         64.4097         estimate D2E/DX2                !
 ! D70   D(11,13,16,34)        -56.6796         estimate D2E/DX2                !
 ! D71   D(11,13,16,35)       -176.2863         estimate D2E/DX2                !
 ! D72   D(14,13,16,33)        -55.135          estimate D2E/DX2                !
 ! D73   D(14,13,16,34)       -176.2243         estimate D2E/DX2                !
 ! D74   D(14,13,16,35)         64.169          estimate D2E/DX2                !
 ! D75   D(15,13,16,33)       -171.2693         estimate D2E/DX2                !
 ! D76   D(15,13,16,34)         67.6414         estimate D2E/DX2                !
 ! D77   D(15,13,16,35)        -51.9652         estimate D2E/DX2                !
 --------------------------------------------------------------------------------
 Trust Radius=3.00D-01 FncErr=1.00D-07 GrdErr=1.00D-06
 Number of steps in this run= 183 maximum allowed number of steps= 210.
 GradGradGradGradGradGradGradGradGradGradGradGradGradGradGradGradGradGrad

 Leave Link  103 at Thu Sep 30 16:33:05 2021, MaxMem= 1342177280 cpu:       0.0
 (Enter /sw/target/amd/app/gaussian/Gaussian09RevA.02_gcc-4.9.2/g09/l202.exe)
                          Input orientation:                          
 ---------------------------------------------------------------------
 Center     Atomic      Atomic             Coordinates (Angstroms)
 Number     Number       Type             X           Y           Z
 ---------------------------------------------------------------------
      1          8           0        3.221800    0.272752   -1.742622
      2          6           0        2.940663    0.677010   -0.615130
      3          7           0        1.800353    0.280152    0.067565
      4          6           0        0.726149   -0.343366   -0.679036
      5          6           0        1.506092    0.717101    1.419075
      6          8           0        3.702667    1.592981    0.109967
      7          6           0        4.901987    2.166103   -0.369553
      8          6           0        5.184594    2.366156   -1.714345
      9          6           0        6.401450    2.939137   -2.068477
     10          6           0        7.312384    3.330702   -1.080788
     11          6           0        7.027245    3.172597    0.290099
     12          6           0        5.796585    2.582729    0.622980
     13          6           0        8.015970    3.676405    1.355814
     14          6           0        8.166996    5.204765    1.201420
     15          6           0        7.557654    3.391102    2.804527
     16          6           0        9.402855    3.018406    1.188000
     17          1           0        1.080288   -0.773240   -1.620757
     18          1           0       -0.019879    0.424668   -0.907139
     19          1           0        0.269021   -1.132348   -0.076430
     20          1           0        2.415132    0.990455    1.961328
     21          1           0        1.020051   -0.100247    1.959627
     22          1           0        0.837884    1.581455    1.373672
     23          1           0        4.485007    2.087080   -2.494645
     24          1           0        6.640233    3.086295   -3.118690
     25          1           0        8.246866    3.784692   -1.402944
     26          1           0        5.498407    2.435964    1.656123
     27          1           0        7.201203    5.710012    1.320371
     28          1           0        8.559010    5.480525    0.215601
     29          1           0        8.856439    5.614056    1.947855
     30          1           0        6.628100    3.919936    3.045295
     31          1           0        8.310321    3.716710    3.532013
     32          1           0        7.393506    2.319418    2.969973
     33          1           0        9.882426    3.292935    0.242501
     34          1           0        9.333861    1.925209    1.223835
     35          1           0       10.082734    3.332454    1.990440
 ---------------------------------------------------------------------
                    Distance matrix (angstroms):
                    1          2          3          4          5
     1  O    0.000000
     2  C    1.230326   0.000000
     3  N    2.301595   1.387038   0.000000
     4  C    2.781922   2.439124   1.449173   0.000000
     5  C    3.624559   2.489496   1.450549   2.476887   0.000000
     6  O    2.325151   1.394783   2.311734   3.637531   2.702937
     7  C    2.879779   2.474772   3.656230   4.881684   4.102548
     8  C    2.869791   3.016076   4.356569   5.318939   5.105788
     9  C    4.162447   4.382520   5.727387   6.701822   6.408197
    10  C    5.149948   5.135257   6.403675   7.552396   6.840559
    11  C    5.198314   4.873145   5.977972   7.280455   6.147127
    12  C    4.190654   3.649790   4.645451   5.997216   4.745805
    13  C    6.645993   6.216087   7.199168   8.569753   7.151223
    14  C    7.579387   7.149474   8.128443   9.470168   8.034559
    15  C    7.014293   6.354286   7.093341   8.529416   6.759524
    16  C    7.371065   7.105866   8.157906   9.490656   8.228503
    17  H    2.386425   2.564276   2.116261   1.094096   3.412185
    18  H    3.351058   2.985591   2.069826   1.094744   2.797387
    19  H    3.670069   3.271337   2.088270   1.092974   2.680922
    20  H    3.858115   2.648125   2.113959   3.406356   1.093213
    21  H    4.323594   3.304883   2.081699   2.666088   1.093842
    22  H    4.136067   3.032332   2.079820   2.816209   1.093468
    23  H    2.335169   2.811738   4.127623   4.830374   5.105680
    24  H    4.636300   5.075361   6.438252   7.258848   7.250089
    25  H    6.140065   6.199526   7.483430   8.609651   7.925398
    26  H    4.627514   3.846369   4.565812   5.996006   4.353074
    27  H    7.401444   6.872370   7.760288   9.086657   7.574508
    28  H    7.709821   7.438393   8.529081   9.801622   8.595475
    29  H    8.596412   8.120327   9.042918  10.415999   8.848015
    30  H    6.915850   6.124742   6.739587   8.177983   6.256013
    31  H    8.097880   7.434500   8.135847   9.577934   7.730439
    32  H    6.618197   5.947964   6.623136   8.053530   6.295582
    33  H    7.578005   7.467708   8.627129   9.894914   8.842070
    34  H    6.991979   6.768514   7.797238   9.102751   7.922854
    35  H    8.388680   8.052922   9.033926  10.401127   8.984727
                    6          7          8          9         10
     6  O    0.000000
     7  C    1.413074   0.000000
     8  C    2.474271   1.388651   0.000000
     9  C    3.720374   2.394225   1.390847   0.000000
    10  C    4.179429   2.769866   2.420586   1.399520   0.000000
    11  C    3.685166   2.442313   2.839631   2.451327   1.409124
    12  C    2.372188   1.399644   2.425803   2.781516   2.399986
    13  C    4.949482   3.867143   4.377136   3.856943   2.559603
    14  C    5.845210   4.728817   5.045206   4.352293   3.074239
    15  C    5.035357   4.316014   5.205971   5.028643   3.893517
    16  C    5.973787   4.838409   5.161663   4.429375   3.100806
    17  H    3.933356   4.981028   5.168162   6.503611   7.481506
    18  H    4.031973   5.248462   5.613153   6.993191   7.889060
    19  H    4.387721   5.694742   6.251812   7.625741   8.398602
    20  H    2.334164   3.605496   4.803440   5.993948   6.222082
    21  H    3.672150   5.062692   6.076563   7.377189   7.785177
    22  H    3.131144   4.460671   5.389387   6.681688   7.141666
    23  H    2.764090   2.167056   1.084516   2.140181   3.397006
    24  H    4.613405   3.380237   2.147015   1.087023   2.159761
    25  H    5.267090   3.856934   3.389207   2.136226   1.087726
    26  H    2.515133   2.128827   3.385765   3.865400   3.403197
    27  H    5.536675   4.549893   4.945461   4.449904   3.382165
    28  H    6.221593   4.970071   4.981030   4.041130   2.802933
    29  H    6.790304   5.735542   6.119069   5.414156   4.095178
    30  H    4.752791   4.209107   5.210768   5.211910   4.223742
    31  H    6.119730   5.407711   6.254473   5.967738   4.735273
    32  H    4.725424   4.169365   5.179219   5.172447   4.175876
    33  H    6.410681   5.142872   5.172793   4.193208   2.890957
    34  H    5.749906   4.715764   5.103308   4.523982   3.372398
    35  H    6.875114   5.811203   6.216988   5.493757   4.136095
                   11         12         13         14         15
    11  C    0.000000
    12  C    1.404734   0.000000
    13  C    1.538554   2.580474   0.000000
    14  C    2.501848   3.581692   1.543545   0.000000
    15  C    2.579036   2.917873   1.546034   2.496122   0.000000
    16  C    2.544312   3.676172   1.544206   2.511512   2.481295
    17  H    7.388322   6.208087   8.761450   9.691371   8.881507
    18  H    7.658096   6.389815   8.959331   9.711862   8.944004
    19  H    8.021253   6.696637   9.229879  10.206367   9.049072
    20  H    5.369016   3.969979   6.241023   7.170900   5.737563
    21  H    7.041676   5.639172   7.973116   8.932908   7.459466
    22  H    6.481825   5.114177   7.477570   8.177648   7.104750
    23  H    3.923789   3.418404   5.460741   6.077656   6.262815
    24  H    3.431773   3.868516   4.718270   5.047997   6.001589
    25  H    2.174518   3.398964   2.770520   2.967440   4.281675
    26  H    2.178531   1.085281   2.822589   3.872258   2.543938
    27  H    2.744120   3.498457   2.191040   1.096440   2.776169
    28  H    2.770990   4.024198   2.202232   1.096156   3.474326
    29  H    3.472006   4.506322   2.193488   1.095452   2.713347
    30  H    2.882522   2.889143   2.199963   2.723759   1.096223
    31  H    3.528789   4.008398   2.196386   2.768847   1.096250
    32  H    2.836157   2.850941   2.198724   3.471497   1.096733
    33  H    2.858112   4.164523   2.206846   2.741772   3.460950
    34  H    2.783580   3.647696   2.195664   3.481029   2.793267
    35  H    3.500390   4.561043   2.189193   2.792517   2.653715
                   16         17         18         19         20
    16  C    0.000000
    17  H    9.567174   0.000000
    18  H    9.995248   1.776120   0.000000
    19  H   10.112095   1.781028   1.788251   0.000000
    20  H    7.317027   4.209960   3.804930   3.642053   0.000000
    21  H    8.977349   3.643583   3.094404   2.403083   1.770843
    22  H    8.686658   3.817062   2.697409   3.129079   1.783909
    23  H    6.214054   4.531801   5.057448   5.829838   5.034149
    24  H    5.117057   6.932013   7.505485   8.224636   6.931854
    25  H    2.938792   8.496001   8.937262   9.464827   7.289390
    26  H    3.975310   6.368415   6.408361   6.563617   3.418951
    27  H    3.479876   9.388737   9.221750   9.839923   6.752148
    28  H    2.778429   9.920336  10.020956  10.608454   7.807402
    29  H    2.759230  10.677128  10.670977  11.106550   7.928953
    30  H    3.458549   8.635749   8.487299   8.701071   5.244610
    31  H    2.678741   9.949074   9.996791  10.059659   6.682272
    32  H    2.775156   8.396194   8.577899   8.482544   5.250497
    33  H    1.095136   9.873356  10.373247  10.587843   8.001016
    34  H    1.095957   9.137550   9.710053   9.654568   7.020432
    35  H    1.097621  10.532878  10.904768  10.977950   8.017352
                   21         22         23         24         25
    21  H    0.000000
    22  H    1.790153   0.000000
    23  H    6.052342   5.340509   0.000000
    24  H    8.217651   7.490869   2.456189   0.000000
    25  H    8.867158   8.213213   4.269108   2.452104   0.000000
    26  H    5.155594   4.746623   4.286907   4.952326   4.327931
    27  H    8.507313   7.585489   5.920954   5.186892   3.495242
    28  H    9.540573   8.726950   5.954695   4.531174   2.364946
    29  H    9.698575   8.993819   7.161339   6.080380   3.866006
    30  H    6.985038   6.464473   6.216360   6.220114   4.735559
    31  H    8.377923   8.065672   7.321839   6.886107   4.935833
    32  H    6.891771   6.787411   6.194788   6.182826   4.690166
    33  H    9.643852   9.274290   6.170753   4.674625   2.371576
    34  H    8.588556   8.504249   6.112666   5.240351   3.396941
    35  H    9.691058   9.429404   7.280213   6.165600   3.884583
                   26         27         28         29         30
    26  H    0.000000
    27  H    3.705622   0.000000
    28  H    4.551016   1.765453   0.000000
    29  H    4.632684   1.772780   1.762668   0.000000
    30  H    2.325549   2.551113   3.764442   3.006645   0.000000
    31  H    3.614711   3.177224   3.764503   2.531348   1.762970
    32  H    2.308936   3.775485   4.351731   3.746937   1.775718
    33  H    4.685334   3.767362   2.556893   3.057529   4.340440
    34  H    3.893386   4.345375   3.775871   3.789423   3.823322
    35  H    4.683110   3.795391   3.175846   2.590622   3.659556
                   31         32         33         34         35
    31  H    0.000000
    32  H    1.763197   0.000000
    33  H    3.670420   3.818581   0.000000
    34  H    3.095932   2.639957   1.770484   0.000000
    35  H    2.380241   3.036062   1.759823   1.768850   0.000000
 Stoichiometry    C13H19NO2
 Framework group  C1[X(C13H19NO2)]
 Deg. of freedom    99
 Full point group                 C1      NOp   1
 Largest Abelian subgroup         C1      NOp   1
 Largest concise Abelian subgroup C1      NOp   1
                         Standard orientation:                         
 ---------------------------------------------------------------------
 Center     Atomic      Atomic             Coordinates (Angstroms)
 Number     Number       Type             X           Y           Z
 ---------------------------------------------------------------------
      1          8           0        2.950632    1.407412    0.622012
      2          6           0        2.797540    0.255609    0.217521
      3          7           0        3.844520   -0.644566    0.085645
      4          6           0        5.201185   -0.135133    0.079189
      5          6           0        3.646612   -2.017901   -0.337294
      6          8           0        1.576170   -0.287375   -0.181030
      7          6           0        0.358190    0.428825   -0.162040
      8          6           0        0.264407    1.806855   -0.305535
      9          6           0       -0.991426    2.403517   -0.269011
     10          6           0       -2.141613    1.620912   -0.116515
     11          6           0       -2.070178    0.217693   -0.009257
     12          6           0       -0.790606   -0.361180   -0.038899
     13          6           0       -3.354617   -0.623869    0.086333
     14          6           0       -4.177909   -0.410510   -1.201766
     15          6           0       -3.087905   -2.139870    0.230655
     16          6           0       -4.210258   -0.202959    1.300947
     17          1           0        5.269613    0.848192    0.553988
     18          1           0        5.523957   -0.040545   -0.962606
     19          1           0        5.858285   -0.831940    0.605756
     20          1           0        2.634790   -2.366602   -0.114272
     21          1           0        4.353318   -2.660098    0.196221
     22          1           0        3.823594   -2.085247   -1.414240
     23          1           0        1.141484    2.429690   -0.443327
     24          1           0       -1.075986    3.483019   -0.364640
     25          1           0       -3.103494    2.128641   -0.104477
     26          1           0       -0.651884   -1.435514    0.027420
     27          1           0       -3.604629   -0.704671   -2.088896
     28          1           0       -4.467048    0.638456   -1.334532
     29          1           0       -5.101511   -0.999344   -1.185977
     30          1           0       -2.579161   -2.545916   -0.651394
     31          1           0       -4.023131   -2.699579    0.348305
     32          1           0       -2.470752   -2.356907    1.110905
     33          1           0       -4.581689    0.823512    1.213078
     34          1           0       -3.641496   -0.274810    2.235007
     35          1           0       -5.090855   -0.850601    1.400349
 ---------------------------------------------------------------------
 Rotational constants (GHZ):      1.1681291      0.2371721      0.2088035
 Leave Link  202 at Thu Sep 30 16:33:05 2021, MaxMem= 1342177280 cpu:       0.1
 (Enter /sw/target/amd/app/gaussian/Gaussian09RevA.02_gcc-4.9.2/g09/l301.exe)
 Standard basis: 6-31G(d) (6D, 7F)
 Ernie: Thresh=  0.10000D-02 Tol=  0.10000D-05 Strict=F.
 There are   278 symmetry adapted basis functions of A   symmetry.
 Integral buffers will be    131072 words long.
 Raffenetti 2 integral format.
 Two-electron integral symmetry is turned on.
   278 basis functions,   524 primitive gaussians,   278 cartesian basis functions
    60 alpha electrons       60 beta electrons
       nuclear repulsion energy      1094.1325698303 Hartrees.
 IExCor=  402 DFT=T Ex+Corr=B3LYP ExCW=0 ScaHFX=  0.200000
 ScaDFX=  0.800000  0.720000  1.000000  0.810000 ScalE2=  1.000000  1.000000
 IRadAn=      0 IRanWt=     -1 IRanGd=            0 ICorTp=0
 NAtoms=   35 NActive=   35 NUniq=   35 SFac= 7.50D-01 NAtFMM=   80 NAOKFM=F Big=F
 Leave Link  301 at Thu Sep 30 16:33:05 2021, MaxMem= 1342177280 cpu:       0.1
 (Enter /sw/target/amd/app/gaussian/Gaussian09RevA.02_gcc-4.9.2/g09/l302.exe)
 NPDir=0 NMtPBC=     1 NCelOv=     1 NCel=       1 NClECP=     1 NCelD=      1
         NCelK=      1 NCelE2=     1 NClLst=     1 CellRange=     0.0.
 One-electron integrals computed using PRISM.
 NBasis=   278 RedAO= T  NBF=   278
 NBsUse=   278 1.00D-06 NBFU=   278
 Precomputing XC quadrature grid using
 IXCGrd= 2 IRadAn=           0 IRanWt=          -1 IRanGd=           0 AccXCQ= 1.00D-10.
 NRdTot=    2227 NPtTot=      283782 NUsed=      299839 NTot=      299871
 NSgBfM=   276   276   276   276   276 NAtAll=    35    35.
 Leave Link  302 at Thu Sep 30 16:33:10 2021, MaxMem= 1342177280 cpu:       3.2
 (Enter /sw/target/amd/app/gaussian/Gaussian09RevA.02_gcc-4.9.2/g09/l303.exe)
 DipDrv:  MaxL=1.
 Leave Link  303 at Thu Sep 30 16:33:11 2021, MaxMem= 1342177280 cpu:       0.2
 (Enter /sw/target/amd/app/gaussian/Gaussian09RevA.02_gcc-4.9.2/g09/l401.exe)
 Harris functional with IExCor=  402 diagonalized for initial guess.
 ExpMin= 1.61D-01 ExpMax= 5.48D+03 ExpMxC= 8.25D+02 IAcc=1 IRadAn=         1 AccDes= 0.00D+00
 HarFok:  IExCor=  402 AccDes= 0.00D+00 IRadAn=         1 IDoV= 1
 ScaDFX=  1.000000  1.000000  1.000000  1.000000
 FoFCou: FMM=F IPFlag=           0 FMFlag=      100000 FMFlg1=           0
         NFxFlg=           0 DoJE=T BraDBF=F KetDBF=T FulRan=T
         Omega=  0.000000  0.000000  1.000000  0.000000  0.000000 ICntrl=     500 IOpCl=  0
         NMat0=    1 NMatS0=    1 NMatT0=    0 NMatD0=    1 NMtDS0=    0 NMtDT0=    0
         I1Cent=           4 NGrid=           0.
 Petite list used in FoFCou.
 Harris En= -712.172373549517    
 Initial guess orbital symmetries:
       Occupied  (A) (A) (A) (A) (A) (A) (A) (A) (A) (A) (A) (A)
                 (A) (A) (A) (A) (A) (A) (A) (A) (A) (A) (A) (A)
                 (A) (A) (A) (A) (A) (A) (A) (A) (A) (A) (A) (A)
                 (A) (A) (A) (A) (A) (A) (A) (A) (A) (A) (A) (A)
                 (A) (A) (A) (A) (A) (A) (A) (A) (A) (A) (A) (A)
       Virtual   (A) (A) (A) (A) (A) (A) (A) (A) (A) (A) (A) (A)
                 (A) (A) (A) (A) (A) (A) (A) (A) (A) (A) (A) (A)
                 (A) (A) (A) (A) (A) (A) (A) (A) (A) (A) (A) (A)
                 (A) (A) (A) (A) (A) (A) (A) (A) (A) (A) (A) (A)
                 (A) (A) (A) (A) (A) (A) (A) (A) (A) (A) (A) (A)
                 (A) (A) (A) (A) (A) (A) (A) (A) (A) (A) (A) (A)
                 (A) (A) (A) (A) (A) (A) (A) (A) (A) (A) (A) (A)
                 (A) (A) (A) (A) (A) (A) (A) (A) (A) (A) (A) (A)
                 (A) (A) (A) (A) (A) (A) (A) (A) (A) (A) (A) (A)
                 (A) (A) (A) (A) (A) (A) (A) (A) (A) (A) (A) (A)
                 (A) (A) (A) (A) (A) (A) (A) (A) (A) (A) (A) (A)
                 (A) (A) (A) (A) (A) (A) (A) (A) (A) (A) (A) (A)
                 (A) (A) (A) (A) (A) (A) (A) (A) (A) (A) (A) (A)
                 (A) (A) (A) (A) (A) (A) (A) (A) (A) (A) (A) (A)
                 (A) (A) (A) (A) (A) (A) (A) (A) (A) (A) (A) (A)
                 (A) (A) (A) (A) (A) (A) (A) (A) (A) (A) (A) (A)
                 (A) (A) (A) (A) (A) (A) (A) (A) (A) (A) (A) (A)
                 (A) (A) (A) (A) (A) (A) (A) (A) (A) (A) (A) (A)
                 (A) (A)
 The electronic state of the initial guess is 1-A.
 Leave Link  401 at Thu Sep 30 16:33:25 2021, MaxMem= 1342177280 cpu:      13.0
 (Enter /sw/target/amd/app/gaussian/Gaussian09RevA.02_gcc-4.9.2/g09/l502.exe)
 Closed shell SCF:
 Requested convergence on RMS density matrix=1.00D-08 within  64 cycles.
 Requested convergence on MAX density matrix=1.00D-06.
 Requested convergence on             energy=1.00D-06.
 No special actions if energy rises.
 Using DIIS extrapolation, IDIIS=  1040.
 Integral symmetry usage will be decided dynamically.
       299511 words used for storage of precomputed grid.
 Keep R1 ints in memory in canonical form, NReq=763401752.
 IEnd=      540687 IEndB=      540687 NGot=  1342177280 MDV=   589715981
 LenX=   589715981 LenY=   589638256
 Symmetry not used in FoFDir.
 MinBra= 0 MaxBra= 2 Meth= 1.
 IRaf=       0 NMat=   1 IRICut=       1 DoRegI=T DoRafI=F ISym2E= 0 JSym2E=0.
 Integral accuracy reduced to 1.0D-05 until final iterations.

 Cycle   1  Pass 0  IDiag  1:
 E= -711.537391182703    
 DIIS: error= 4.60D-02 at cycle   1 NSaved=   1.
 NSaved= 1 IEnMin= 1 EnMin= -711.537391182703     IErMin= 1 ErrMin= 4.60D-02
 ErrMax= 4.60D-02 EMaxC= 1.00D-01 BMatC= 5.09D-01 BMatP= 5.09D-01
 IDIUse=3 WtCom= 5.40D-01 WtEn= 4.60D-01
 Coeff-Com:  0.100D+01
 Coeff-En:   0.100D+01
 Coeff:      0.100D+01
 Gap=     0.297 Goal=   None    Shift=    0.000
 GapD=    0.297 DampG=1.000 DampE=0.500 DampFc=0.5000 IDamp=-1.
 Damping current iteration by 5.00D-01
 RMSDP=5.73D-03 MaxDP=2.24D-01              OVMax= 2.54D-01

 Cycle   2  Pass 0  IDiag  1:
 E= -711.712578249346     Delta-E=       -0.175187066643 Rises=F Damp=T
 DIIS: error= 1.44D-02 at cycle   2 NSaved=   2.
 NSaved= 2 IEnMin= 2 EnMin= -711.712578249346     IErMin= 2 ErrMin= 1.44D-02
 ErrMax= 1.44D-02 EMaxC= 1.00D-01 BMatC= 6.21D-02 BMatP= 5.09D-01
 IDIUse=3 WtCom= 8.56D-01 WtEn= 1.44D-01
 Coeff-Com:  0.177D+00 0.823D+00
 Coeff-En:   0.267D+00 0.733D+00
 Coeff:      0.190D+00 0.810D+00
 Gap=     0.249 Goal=   None    Shift=    0.000
 RMSDP=1.78D-03 MaxDP=7.65D-02 DE=-1.75D-01 OVMax= 1.70D-01

 Cycle   3  Pass 0  IDiag  1:
 E= -711.975874289722     Delta-E=       -0.263296040377 Rises=F Damp=F
 DIIS: error= 1.94D-02 at cycle   3 NSaved=   3.
 NSaved= 3 IEnMin= 3 EnMin= -711.975874289722     IErMin= 2 ErrMin= 1.44D-02
 ErrMax= 1.94D-02 EMaxC= 1.00D-01 BMatC= 7.94D-02 BMatP= 6.21D-02
 IDIUse=2 WtCom= 0.00D+00 WtEn= 1.00D+00
 Coeff-En:   0.000D+00 0.000D+00 0.100D+01
 Coeff:      0.000D+00 0.000D+00 0.100D+01
 Gap=     0.261 Goal=   None    Shift=    0.000
 RMSDP=3.00D-03 MaxDP=1.72D-01 DE=-2.63D-01 OVMax= 3.02D-01

 Cycle   4  Pass 0  IDiag  1:
 E= -711.647911335560     Delta-E=        0.327962954163 Rises=F Damp=F
 DIIS: error= 4.88D-02 at cycle   4 NSaved=   4.
 NSaved= 4 IEnMin= 3 EnMin= -711.975874289722     IErMin= 2 ErrMin= 1.44D-02
 ErrMax= 4.88D-02 EMaxC= 1.00D-01 BMatC= 4.93D-01 BMatP= 6.21D-02
 IDIUse=2 WtCom= 0.00D+00 WtEn= 1.00D+00
 Coeff-En:   0.000D+00 0.000D+00 0.801D+00 0.199D+00
 Coeff:      0.000D+00 0.000D+00 0.801D+00 0.199D+00
 Gap=     0.239 Goal=   None    Shift=    0.000
 RMSDP=1.61D-03 MaxDP=9.24D-02 DE= 3.28D-01 OVMax= 1.36D-01

 Cycle   5  Pass 0  IDiag  1:
 E= -712.014579060603     Delta-E=       -0.366667725043 Rises=F Damp=F
 DIIS: error= 1.20D-02 at cycle   5 NSaved=   5.
 NSaved= 5 IEnMin= 5 EnMin= -712.014579060603     IErMin= 5 ErrMin= 1.20D-02
 ErrMax= 1.20D-02 EMaxC= 1.00D-01 BMatC= 3.46D-02 BMatP= 6.21D-02
 IDIUse=3 WtCom= 8.80D-01 WtEn= 1.20D-01
 Coeff-Com: -0.512D-02 0.446D-01 0.326D+00-0.704D-01 0.705D+00
 Coeff-En:   0.000D+00 0.000D+00 0.341D+00 0.000D+00 0.659D+00
 Coeff:     -0.451D-02 0.392D-01 0.328D+00-0.619D-01 0.700D+00
 Gap=     0.229 Goal=   None    Shift=    0.000
 RMSDP=6.08D-04 MaxDP=3.00D-02 DE=-3.67D-01 OVMax= 3.85D-02

 Cycle   6  Pass 0  IDiag  1:
 E= -712.042672907085     Delta-E=       -0.028093846483 Rises=F Damp=F
 DIIS: error= 1.39D-03 at cycle   6 NSaved=   6.
 NSaved= 6 IEnMin= 6 EnMin= -712.042672907085     IErMin= 6 ErrMin= 1.39D-03
 ErrMax= 1.39D-03 EMaxC= 1.00D-01 BMatC= 4.80D-04 BMatP= 3.46D-02
 IDIUse=3 WtCom= 9.86D-01 WtEn= 1.39D-02
 Coeff-Com: -0.700D-02 0.239D-01 0.167D+00-0.629D-01 0.469D+00 0.410D+00
 Coeff-En:   0.000D+00 0.000D+00 0.000D+00 0.000D+00 0.000D+00 0.100D+01
 Coeff:     -0.690D-02 0.236D-01 0.165D+00-0.621D-01 0.463D+00 0.418D+00
 Gap=     0.227 Goal=   None    Shift=    0.000
 RMSDP=8.73D-05 MaxDP=3.56D-03 DE=-2.81D-02 OVMax= 8.71D-03

 Cycle   7  Pass 0  IDiag  1:
 E= -712.043122637670     Delta-E=       -0.000449730584 Rises=F Damp=F
 DIIS: error= 2.49D-04 at cycle   7 NSaved=   7.
 NSaved= 7 IEnMin= 7 EnMin= -712.043122637670     IErMin= 7 ErrMin= 2.49D-04
 ErrMax= 2.49D-04 EMaxC= 1.00D-01 BMatC= 1.29D-05 BMatP= 4.80D-04
 IDIUse=3 WtCom= 9.98D-01 WtEn= 2.49D-03
 Coeff-Com: -0.118D-02 0.264D-02 0.343D-01-0.144D-01 0.967D-01 0.151D+00
 Coeff-Com:  0.731D+00
 Coeff-En:   0.000D+00 0.000D+00 0.000D+00 0.000D+00 0.000D+00 0.000D+00
 Coeff-En:   0.100D+01
 Coeff:     -0.118D-02 0.263D-02 0.342D-01-0.144D-01 0.965D-01 0.151D+00
 Coeff:      0.731D+00
 Gap=     0.227 Goal=   None    Shift=    0.000
 RMSDP=1.58D-05 MaxDP=6.05D-04 DE=-4.50D-04 OVMax= 1.36D-03

 Cycle   8  Pass 0  IDiag  1:
 E= -712.043134366615     Delta-E=       -0.000011728945 Rises=F Damp=F
 DIIS: error= 4.24D-05 at cycle   8 NSaved=   8.
 NSaved= 8 IEnMin= 8 EnMin= -712.043134366615     IErMin= 8 ErrMin= 4.24D-05
 ErrMax= 4.24D-05 EMaxC= 1.00D-01 BMatC= 1.51D-06 BMatP= 1.29D-05
 IDIUse=1 WtCom= 1.00D+00 WtEn= 0.00D+00
 Coeff-Com: -0.114D-03-0.418D-03 0.935D-02-0.383D-02 0.239D-01 0.598D-01
 Coeff-Com:  0.422D+00 0.489D+00
 Coeff:     -0.114D-03-0.418D-03 0.935D-02-0.383D-02 0.239D-01 0.598D-01
 Coeff:      0.422D+00 0.489D+00
 Gap=     0.227 Goal=   None    Shift=    0.000
 RMSDP=4.93D-06 MaxDP=2.27D-04 DE=-1.17D-05 OVMax= 3.74D-04

 Initial convergence to 1.0D-05 achieved.  Increase integral accuracy.
 Cycle   9  Pass 1  IDiag  1:
 E= -712.043217739767     Delta-E=       -0.000083373152 Rises=F Damp=F
 DIIS: error= 2.61D-05 at cycle   1 NSaved=   1.
 NSaved= 1 IEnMin= 1 EnMin= -712.043217739767     IErMin= 1 ErrMin= 2.61D-05
 ErrMax= 2.61D-05 EMaxC= 1.00D-01 BMatC= 2.33D-07 BMatP= 2.33D-07
 IDIUse=1 WtCom= 1.00D+00 WtEn= 0.00D+00
 Coeff-Com:  0.100D+01
 Coeff:      0.100D+01
 Gap=     0.227 Goal=   None    Shift=    0.000
 RMSDP=4.93D-06 MaxDP=2.27D-04 DE=-8.34D-05 OVMax= 2.62D-04

 Cycle  10  Pass 1  IDiag  1:
 E= -712.043217802005     Delta-E=       -0.000000062238 Rises=F Damp=F
 DIIS: error= 2.33D-05 at cycle   2 NSaved=   2.
 NSaved= 2 IEnMin= 2 EnMin= -712.043217802005     IErMin= 2 ErrMin= 2.33D-05
 ErrMax= 2.33D-05 EMaxC= 1.00D-01 BMatC= 2.35D-07 BMatP= 2.33D-07
 IDIUse=1 WtCom= 1.00D+00 WtEn= 0.00D+00
 Coeff-Com:  0.501D+00 0.499D+00
 Coeff:      0.501D+00 0.499D+00
 Gap=     0.227 Goal=   None    Shift=    0.000
 RMSDP=2.60D-06 MaxDP=1.08D-04 DE=-6.22D-08 OVMax= 2.50D-04

 Cycle  11  Pass 1  IDiag  1:
 E= -712.043217981183     Delta-E=       -0.000000179177 Rises=F Damp=F
 DIIS: error= 1.28D-05 at cycle   3 NSaved=   3.
 NSaved= 3 IEnMin= 3 EnMin= -712.043217981183     IErMin= 3 ErrMin= 1.28D-05
 ErrMax= 1.28D-05 EMaxC= 1.00D-01 BMatC= 5.44D-08 BMatP= 2.33D-07
 IDIUse=1 WtCom= 1.00D+00 WtEn= 0.00D+00
 Coeff-Com: -0.196D-03 0.322D+00 0.679D+00
 Coeff:     -0.196D-03 0.322D+00 0.679D+00
 Gap=     0.227 Goal=   None    Shift=    0.000
 RMSDP=9.84D-07 MaxDP=3.28D-05 DE=-1.79D-07 OVMax= 9.20D-05

 Cycle  12  Pass 1  IDiag  1:
 E= -712.043218032613     Delta-E=       -0.000000051431 Rises=F Damp=F
 DIIS: error= 3.43D-06 at cycle   4 NSaved=   4.
 NSaved= 4 IEnMin= 4 EnMin= -712.043218032613     IErMin= 4 ErrMin= 3.43D-06
 ErrMax= 3.43D-06 EMaxC= 1.00D-01 BMatC= 5.49D-09 BMatP= 5.44D-08
 IDIUse=1 WtCom= 1.00D+00 WtEn= 0.00D+00
 Coeff-Com: -0.166D-01 0.193D+00 0.440D+00 0.383D+00
 Coeff:     -0.166D-01 0.193D+00 0.440D+00 0.383D+00
 Gap=     0.227 Goal=   None    Shift=    0.000
 RMSDP=2.58D-07 MaxDP=1.40D-05 DE=-5.14D-08 OVMax= 1.55D-05

 Cycle  13  Pass 1  IDiag  1:
 E= -712.043218036994     Delta-E=       -0.000000004381 Rises=F Damp=F
 DIIS: error= 6.34D-07 at cycle   5 NSaved=   5.
 NSaved= 5 IEnMin= 5 EnMin= -712.043218036994     IErMin= 5 ErrMin= 6.34D-07
 ErrMax= 6.34D-07 EMaxC= 1.00D-01 BMatC= 1.45D-10 BMatP= 5.49D-09
 IDIUse=1 WtCom= 1.00D+00 WtEn= 0.00D+00
 Coeff-Com: -0.823D-02 0.706D-01 0.166D+00 0.193D+00 0.578D+00
 Coeff:     -0.823D-02 0.706D-01 0.166D+00 0.193D+00 0.578D+00
 Gap=     0.227 Goal=   None    Shift=    0.000
 RMSDP=4.93D-08 MaxDP=2.13D-06 DE=-4.38D-09 OVMax= 2.73D-06

 Cycle  14  Pass 1  IDiag  1:
 E= -712.043218037149     Delta-E=       -0.000000000155 Rises=F Damp=F
 DIIS: error= 2.80D-07 at cycle   6 NSaved=   6.
 NSaved= 6 IEnMin= 6 EnMin= -712.043218037149     IErMin= 6 ErrMin= 2.80D-07
 ErrMax= 2.80D-07 EMaxC= 1.00D-01 BMatC= 2.32D-11 BMatP= 1.45D-10
 IDIUse=1 WtCom= 1.00D+00 WtEn= 0.00D+00
 Coeff-Com: -0.338D-02 0.240D-01 0.580D-01 0.796D-01 0.341D+00 0.501D+00
 Coeff:     -0.338D-02 0.240D-01 0.580D-01 0.796D-01 0.341D+00 0.501D+00
 Gap=     0.227 Goal=   None    Shift=    0.000
 RMSDP=2.11D-08 MaxDP=9.81D-07 DE=-1.55D-10 OVMax= 1.64D-06

 Cycle  15  Pass 1  IDiag  1:
 E= -712.043218037123     Delta-E=        0.000000000027 Rises=F Damp=F
 DIIS: error= 1.01D-07 at cycle   7 NSaved=   7.
 NSaved= 7 IEnMin= 6 EnMin= -712.043218037149     IErMin= 7 ErrMin= 1.01D-07
 ErrMax= 1.01D-07 EMaxC= 1.00D-01 BMatC= 2.87D-12 BMatP= 2.32D-11
 IDIUse=1 WtCom= 1.00D+00 WtEn= 0.00D+00
 Coeff-Com: -0.580D-03 0.233D-02 0.632D-02 0.140D-01 0.962D-01 0.294D+00
 Coeff-Com:  0.587D+00
 Coeff:     -0.580D-03 0.233D-02 0.632D-02 0.140D-01 0.962D-01 0.294D+00
 Coeff:      0.587D+00
 Gap=     0.227 Goal=   None    Shift=    0.000
 RMSDP=7.97D-09 MaxDP=3.09D-07 DE= 2.68D-11 OVMax= 7.10D-07

 SCF Done:  E(RB3LYP) =  -712.043218037     A.U. after   15 cycles
             Convg  =    0.7966D-08             -V/T =  2.0099
 KE= 7.050484694804D+02 PE=-3.842737707492D+03 EE= 1.331513450144D+03
 Leave Link  502 at Thu Sep 30 16:44:50 2021, MaxMem= 1342177280 cpu:     354.1
 (Enter /sw/target/amd/app/gaussian/Gaussian09RevA.02_gcc-4.9.2/g09/l508.exe)
 QCSCF skips out because SCF is already converged.
 Leave Link  508 at Thu Sep 30 16:44:53 2021, MaxMem= 1342177280 cpu:       0.0
 (Enter /sw/target/amd/app/gaussian/Gaussian09RevA.02_gcc-4.9.2/g09/l601.exe)
 Copying SCF densities to generalized density rwf, IOpCl= 0 IROHF=0.

 **********************************************************************

            Population analysis using the SCF density.

 **********************************************************************

 Orbital symmetries:
       Occupied  (A) (A) (A) (A) (A) (A) (A) (A) (A) (A) (A) (A)
                 (A) (A) (A) (A) (A) (A) (A) (A) (A) (A) (A) (A)
                 (A) (A) (A) (A) (A) (A) (A) (A) (A) (A) (A) (A)
                 (A) (A) (A) (A) (A) (A) (A) (A) (A) (A) (A) (A)
                 (A) (A) (A) (A) (A) (A) (A) (A) (A) (A) (A) (A)
       Virtual   (A) (A) (A) (A) (A) (A) (A) (A) (A) (A) (A) (A)
                 (A) (A) (A) (A) (A) (A) (A) (A) (A) (A) (A) (A)
                 (A) (A) (A) (A) (A) (A) (A) (A) (A) (A) (A) (A)
                 (A) (A) (A) (A) (A) (A) (A) (A) (A) (A) (A) (A)
                 (A) (A) (A) (A) (A) (A) (A) (A) (A) (A) (A) (A)
                 (A) (A) (A) (A) (A) (A) (A) (A) (A) (A) (A) (A)
                 (A) (A) (A) (A) (A) (A) (A) (A) (A) (A) (A) (A)
                 (A) (A) (A) (A) (A) (A) (A) (A) (A) (A) (A) (A)
                 (A) (A) (A) (A) (A) (A) (A) (A) (A) (A) (A) (A)
                 (A) (A) (A) (A) (A) (A) (A) (A) (A) (A) (A) (A)
                 (A) (A) (A) (A) (A) (A) (A) (A) (A) (A) (A) (A)
                 (A) (A) (A) (A) (A) (A) (A) (A) (A) (A) (A) (A)
                 (A) (A) (A) (A) (A) (A) (A) (A) (A) (A) (A) (A)
                 (A) (A) (A) (A) (A) (A) (A) (A) (A) (A) (A) (A)
                 (A) (A) (A) (A) (A) (A) (A) (A) (A) (A) (A) (A)
                 (A) (A) (A) (A) (A) (A) (A) (A) (A) (A) (A) (A)
                 (A) (A) (A) (A) (A) (A) (A) (A) (A) (A) (A) (A)
                 (A) (A) (A) (A) (A) (A) (A) (A) (A) (A) (A) (A)
                 (A) (A)
 The electronic state is 1-A.
 Alpha  occ. eigenvalues --  -19.19498 -19.11554 -14.36835 -10.33581 -10.24887
 Alpha  occ. eigenvalues --  -10.22113 -10.21796 -10.20398 -10.19508 -10.18579
 Alpha  occ. eigenvalues --  -10.18503 -10.18138 -10.17945 -10.17422 -10.17256
 Alpha  occ. eigenvalues --  -10.17221  -1.09120  -1.00605  -0.93734  -0.85421
 Alpha  occ. eigenvalues --   -0.81060  -0.75038  -0.73250  -0.72523  -0.69634
 Alpha  occ. eigenvalues --   -0.68207  -0.68112  -0.62586  -0.60515  -0.57402
 Alpha  occ. eigenvalues --   -0.53573  -0.51239  -0.49705  -0.48609  -0.48057
 Alpha  occ. eigenvalues --   -0.45864  -0.45220  -0.44173  -0.43670  -0.42989
 Alpha  occ. eigenvalues --   -0.42542  -0.41991  -0.41083  -0.40157  -0.39595
 Alpha  occ. eigenvalues --   -0.39173  -0.38055  -0.37491  -0.37034  -0.36345
 Alpha  occ. eigenvalues --   -0.36058  -0.34728  -0.33274  -0.32277  -0.31655
 Alpha  occ. eigenvalues --   -0.31077  -0.26581  -0.24193  -0.24020  -0.22467
 Alpha virt. eigenvalues --    0.00204   0.00538   0.04889   0.08162   0.08955
 Alpha virt. eigenvalues --    0.10584   0.11863   0.12248   0.13492   0.14446
 Alpha virt. eigenvalues --    0.14884   0.15107   0.15221   0.16163   0.16378
 Alpha virt. eigenvalues --    0.16435   0.16515   0.17797   0.18472   0.19505
 Alpha virt. eigenvalues --    0.19589   0.20268   0.20535   0.21887   0.22293
 Alpha virt. eigenvalues --    0.23069   0.23871   0.24969   0.25520   0.26688
 Alpha virt. eigenvalues --    0.27204   0.30640   0.32763   0.35073   0.37060
 Alpha virt. eigenvalues --    0.38612   0.39465   0.46296   0.48043   0.49354
 Alpha virt. eigenvalues --    0.49589   0.50341   0.50617   0.51703   0.52361
 Alpha virt. eigenvalues --    0.52855   0.55185   0.56021   0.56614   0.56921
 Alpha virt. eigenvalues --    0.59173   0.59625   0.60419   0.61248   0.61776
 Alpha virt. eigenvalues --    0.62484   0.63800   0.64070   0.65407   0.67074
 Alpha virt. eigenvalues --    0.67885   0.68810   0.70745   0.72163   0.72418
 Alpha virt. eigenvalues --    0.74859   0.76148   0.77487   0.79087   0.79574
 Alpha virt. eigenvalues --    0.80968   0.82024   0.82304   0.83653   0.84289
 Alpha virt. eigenvalues --    0.84705   0.85972   0.86314   0.87362   0.88137
 Alpha virt. eigenvalues --    0.88551   0.89578   0.90757   0.91345   0.91853
 Alpha virt. eigenvalues --    0.92216   0.92637   0.93101   0.93952   0.94347
 Alpha virt. eigenvalues --    0.95208   0.97059   0.97292   0.98813   0.99150
 Alpha virt. eigenvalues --    0.99649   1.00382   1.02076   1.03053   1.04221
 Alpha virt. eigenvalues --    1.06209   1.11186   1.12394   1.13206   1.14807
 Alpha virt. eigenvalues --    1.17744   1.19272   1.21927   1.24618   1.27439
 Alpha virt. eigenvalues --    1.28845   1.30234   1.33814   1.34845   1.37837
 Alpha virt. eigenvalues --    1.38295   1.40194   1.42835   1.45211   1.45974
 Alpha virt. eigenvalues --    1.47839   1.48891   1.49845   1.52587   1.53901
 Alpha virt. eigenvalues --    1.56319   1.57859   1.63080   1.66303   1.66357
 Alpha virt. eigenvalues --    1.71426   1.72916   1.75192   1.77396   1.78775
 Alpha virt. eigenvalues --    1.80579   1.81285   1.85200   1.86280   1.86626
 Alpha virt. eigenvalues --    1.86935   1.88889   1.91175   1.92009   1.93123
 Alpha virt. eigenvalues --    1.94910   1.95778   1.96784   1.97637   1.98563
 Alpha virt. eigenvalues --    2.00813   2.02309   2.05588   2.07392   2.08419
 Alpha virt. eigenvalues --    2.08997   2.09922   2.11292   2.12557   2.15067
 Alpha virt. eigenvalues --    2.16716   2.18205   2.18654   2.19840   2.22682
 Alpha virt. eigenvalues --    2.23654   2.25062   2.25358   2.25953   2.27103
 Alpha virt. eigenvalues --    2.28430   2.30146   2.30772   2.32248   2.33969
 Alpha virt. eigenvalues --    2.36327   2.39605   2.46087   2.47105   2.47678
 Alpha virt. eigenvalues --    2.50639   2.54742   2.58329   2.59468   2.60868
 Alpha virt. eigenvalues --    2.62433   2.65078   2.66944   2.67465   2.72288
 Alpha virt. eigenvalues --    2.73873   2.75975   2.80707   2.82683   2.85186
 Alpha virt. eigenvalues --    2.88126   2.94540   2.98737   3.05961   3.18532
 Alpha virt. eigenvalues --    3.28984   3.43229   3.98557   4.08070   4.10849
 Alpha virt. eigenvalues --    4.14499   4.17768   4.21187   4.23696   4.28446
 Alpha virt. eigenvalues --    4.30686   4.32077   4.34880   4.39582   4.46591
 Alpha virt. eigenvalues --    4.49837   4.67104   4.79259
          Condensed to atoms (all electrons):
              1          2          3          4          5          6
     1  O    8.101654   0.543579  -0.086115  -0.006872   0.002673  -0.069091
     2  C    0.543579   4.155105   0.332894  -0.031297  -0.028159   0.261525
     3  N   -0.086115   0.332894   6.931560   0.304392   0.289083  -0.088972
     4  C   -0.006872  -0.031297   0.304392   4.967523  -0.053026   0.002222
     5  C    0.002673  -0.028159   0.289083  -0.053026   4.970358  -0.002271
     6  O   -0.069091   0.261525  -0.088972   0.002222  -0.002271   8.339440
     7  C   -0.003632  -0.012437   0.002032  -0.000025   0.000146   0.208288
     8  C   -0.002440  -0.001220   0.000277  -0.000002  -0.000035  -0.051181
     9  C    0.000287   0.000353   0.000001  -0.000000  -0.000000   0.003331
    10  C   -0.000001   0.000014   0.000000   0.000000   0.000000   0.000246
    11  C    0.000002  -0.000018   0.000001  -0.000000  -0.000001   0.002746
    12  C    0.000189   0.000995  -0.000279   0.000002   0.000013  -0.043943
    13  C   -0.000000   0.000000  -0.000000   0.000000   0.000000  -0.000048
    14  C    0.000000  -0.000000  -0.000000  -0.000000   0.000000   0.000000
    15  C   -0.000000  -0.000000   0.000000   0.000000   0.000000  -0.000003
    16  C   -0.000000  -0.000000   0.000000   0.000000  -0.000000   0.000000
    17  H    0.015631  -0.002161  -0.028523   0.371994   0.004175   0.000274
    18  H    0.000888  -0.000213  -0.058651   0.381699  -0.000181   0.000063
    19  H    0.000405   0.002841  -0.042547   0.376189  -0.002553  -0.000045
    20  H    0.000110  -0.005649  -0.025778   0.003909   0.376073   0.009808
    21  H   -0.000045   0.002221  -0.041532  -0.004577   0.374080   0.000352
    22  H   -0.000023  -0.000868  -0.054443   0.001050   0.375967   0.000650
    23  H    0.015020   0.000470  -0.000075   0.000016  -0.000010  -0.006479
    24  H   -0.000005  -0.000011  -0.000000   0.000000   0.000000  -0.000047
    25  H    0.000000   0.000000   0.000000  -0.000000   0.000000   0.000002
    26  H    0.000016   0.000082  -0.000021   0.000000  -0.000047   0.000175
    27  H   -0.000000  -0.000000   0.000000   0.000000  -0.000000   0.000000
    28  H    0.000000   0.000000   0.000000  -0.000000   0.000000   0.000000
    29  H   -0.000000  -0.000000  -0.000000   0.000000   0.000000  -0.000000
    30  H   -0.000000  -0.000000   0.000000   0.000000   0.000000  -0.000001
    31  H   -0.000000   0.000000   0.000000   0.000000  -0.000000  -0.000000
    32  H    0.000000  -0.000000   0.000000  -0.000000   0.000000  -0.000002
    33  H   -0.000000   0.000000   0.000000   0.000000  -0.000000   0.000000
    34  H    0.000000   0.000000   0.000000  -0.000000  -0.000000   0.000000
    35  H    0.000000   0.000000  -0.000000   0.000000  -0.000000  -0.000000
              7          8          9         10         11         12
     1  O   -0.003632  -0.002440   0.000287  -0.000001   0.000002   0.000189
     2  C   -0.012437  -0.001220   0.000353   0.000014  -0.000018   0.000995
     3  N    0.002032   0.000277   0.000001   0.000000   0.000001  -0.000279
     4  C   -0.000025  -0.000002  -0.000000   0.000000  -0.000000   0.000002
     5  C    0.000146  -0.000035  -0.000000   0.000000  -0.000001   0.000013
     6  O    0.208288  -0.051181   0.003331   0.000246   0.002746  -0.043943
     7  C    4.555486   0.517753  -0.004890  -0.044032  -0.006834   0.492477
     8  C    0.517753   5.015317   0.497223  -0.038111  -0.034385  -0.074498
     9  C   -0.004890   0.497223   4.901075   0.518165  -0.011126  -0.043181
    10  C   -0.044032  -0.038111   0.518165   5.016408   0.521672  -0.055946
    11  C   -0.006834  -0.034385  -0.011126   0.521672   4.696850   0.524059
    12  C    0.492477  -0.074498  -0.043181  -0.055946   0.524059   5.152684
    13  C    0.005808   0.000220   0.005213  -0.058560   0.378631  -0.046738
    14  C   -0.000203   0.000014   0.000261  -0.007472  -0.055266  -0.000078
    15  C    0.000329  -0.000007  -0.000161   0.005464  -0.042949  -0.010239
    16  C   -0.000161   0.000008   0.000199  -0.006416  -0.048766   0.001334
    17  H    0.000000  -0.000001  -0.000000   0.000000  -0.000000  -0.000000
    18  H   -0.000003  -0.000000   0.000000   0.000000  -0.000000   0.000000
    19  H    0.000001  -0.000000  -0.000000   0.000000   0.000000  -0.000000
    20  H    0.000239   0.000035  -0.000001   0.000000   0.000001  -0.000072
    21  H    0.000005   0.000000  -0.000000  -0.000000   0.000000  -0.000001
    22  H   -0.000016   0.000005   0.000000   0.000000  -0.000000  -0.000002
    23  H   -0.031825   0.348021  -0.041414   0.004624   0.000433   0.005310
    24  H    0.003136  -0.038161   0.358080  -0.038435   0.003135   0.000913
    25  H    0.000495   0.005031  -0.043794   0.355380  -0.047749   0.005770
    26  H   -0.045831   0.007320  -0.000060   0.006361  -0.038422   0.340631
    27  H   -0.000024  -0.000010  -0.000045  -0.000011  -0.002284   0.001295
    28  H    0.000009  -0.000004  -0.000027   0.004466  -0.007772  -0.000183
    29  H    0.000002  -0.000000   0.000002   0.000180   0.005427  -0.000041
    30  H    0.000077  -0.000003   0.000000  -0.000158  -0.005882   0.001983
    31  H   -0.000004   0.000000   0.000002  -0.000081   0.003868   0.000368
    32  H    0.000060  -0.000003   0.000000  -0.000095  -0.005999   0.001852
    33  H    0.000009  -0.000003   0.000015   0.003336  -0.006780  -0.000212
    34  H   -0.000013  -0.000008  -0.000032   0.000297  -0.002660   0.000725
    35  H    0.000002   0.000000   0.000001   0.000090   0.004980  -0.000047
             13         14         15         16         17         18
     1  O   -0.000000   0.000000  -0.000000  -0.000000   0.015631   0.000888
     2  C    0.000000  -0.000000  -0.000000  -0.000000  -0.002161  -0.000213
     3  N   -0.000000  -0.000000   0.000000   0.000000  -0.028523  -0.058651
     4  C    0.000000  -0.000000   0.000000   0.000000   0.371994   0.381699
     5  C    0.000000   0.000000   0.000000  -0.000000   0.004175  -0.000181
     6  O   -0.000048   0.000000  -0.000003   0.000000   0.000274   0.000063
     7  C    0.005808  -0.000203   0.000329  -0.000161   0.000000  -0.000003
     8  C    0.000220   0.000014  -0.000007   0.000008  -0.000001  -0.000000
     9  C    0.005213   0.000261  -0.000161   0.000199  -0.000000   0.000000
    10  C   -0.058560  -0.007472   0.005464  -0.006416   0.000000   0.000000
    11  C    0.378631  -0.055266  -0.042949  -0.048766  -0.000000  -0.000000
    12  C   -0.046738  -0.000078  -0.010239   0.001334  -0.000000   0.000000
    13  C    4.846671   0.376108   0.369768   0.372663   0.000000   0.000000
    14  C    0.376108   5.164257  -0.063869  -0.061927  -0.000000   0.000000
    15  C    0.369768  -0.063869   5.175309  -0.066648   0.000000   0.000000
    16  C    0.372663  -0.061927  -0.066648   5.161699   0.000000  -0.000000
    17  H    0.000000  -0.000000   0.000000   0.000000   0.485213  -0.028555
    18  H    0.000000   0.000000   0.000000  -0.000000  -0.028555   0.588251
    19  H   -0.000000  -0.000000  -0.000000   0.000000  -0.021832  -0.042216
    20  H   -0.000000  -0.000000  -0.000000   0.000000  -0.000174  -0.000205
    21  H   -0.000000   0.000000  -0.000000  -0.000000   0.000077  -0.001746
    22  H    0.000000   0.000000   0.000000  -0.000000  -0.000226   0.006519
    23  H    0.000007   0.000000  -0.000000  -0.000000  -0.000007   0.000005
    24  H   -0.000156   0.000002   0.000001   0.000001   0.000000  -0.000000
    25  H   -0.007624   0.000110   0.000108   0.000904  -0.000000  -0.000000
    26  H   -0.015289   0.000314   0.007185   0.000265  -0.000000  -0.000000
    27  H   -0.028986   0.366423  -0.005313   0.005854   0.000000  -0.000000
    28  H   -0.026734   0.365465   0.005851  -0.005245  -0.000000   0.000000
    29  H   -0.029584   0.360750  -0.005268  -0.003753   0.000000   0.000000
    30  H   -0.024816  -0.005690   0.362405   0.006140   0.000000  -0.000000
    31  H   -0.024750  -0.004693   0.366690  -0.006748   0.000000   0.000000
    32  H   -0.025675   0.006002   0.363206  -0.004325  -0.000000   0.000000
    33  H   -0.026452  -0.005458   0.005987   0.364960   0.000000  -0.000000
    34  H   -0.028706   0.005741  -0.004014   0.367126  -0.000000   0.000000
    35  H   -0.028539  -0.003522  -0.007316   0.362934   0.000000  -0.000000
             19         20         21         22         23         24
     1  O    0.000405   0.000110  -0.000045  -0.000023   0.015020  -0.000005
     2  C    0.002841  -0.005649   0.002221  -0.000868   0.000470  -0.000011
     3  N   -0.042547  -0.025778  -0.041532  -0.054443  -0.000075  -0.000000
     4  C    0.376189   0.003909  -0.004577   0.001050   0.000016   0.000000
     5  C   -0.002553   0.376073   0.374080   0.375967  -0.000010   0.000000
     6  O   -0.000045   0.009808   0.000352   0.000650  -0.006479  -0.000047
     7  C    0.000001   0.000239   0.000005  -0.000016  -0.031825   0.003136
     8  C   -0.000000   0.000035   0.000000   0.000005   0.348021  -0.038161
     9  C   -0.000000  -0.000001  -0.000000   0.000000  -0.041414   0.358080
    10  C    0.000000   0.000000  -0.000000   0.000000   0.004624  -0.038435
    11  C    0.000000   0.000001   0.000000  -0.000000   0.000433   0.003135
    12  C   -0.000000  -0.000072  -0.000001  -0.000002   0.005310   0.000913
    13  C   -0.000000  -0.000000  -0.000000   0.000000   0.000007  -0.000156
    14  C   -0.000000  -0.000000   0.000000   0.000000   0.000000   0.000002
    15  C   -0.000000  -0.000000  -0.000000   0.000000  -0.000000   0.000001
    16  C    0.000000   0.000000  -0.000000  -0.000000  -0.000000   0.000001
    17  H   -0.021832  -0.000174   0.000077  -0.000226  -0.000007   0.000000
    18  H   -0.042216  -0.000205  -0.001746   0.006519   0.000005  -0.000000
    19  H    0.569973   0.000164   0.006905  -0.001717  -0.000000  -0.000000
    20  H    0.000164   0.504913  -0.024044  -0.029227  -0.000002   0.000000
    21  H    0.006905  -0.024044   0.574861  -0.042127  -0.000000   0.000000
    22  H   -0.001717  -0.029227  -0.042127   0.589643   0.000003  -0.000000
    23  H   -0.000000  -0.000002  -0.000000   0.000003   0.543565  -0.005532
    24  H   -0.000000   0.000000   0.000000  -0.000000  -0.005532   0.588078
    25  H    0.000000  -0.000000  -0.000000   0.000000  -0.000165  -0.005273
    26  H   -0.000000   0.000600   0.000001   0.000000  -0.000149   0.000017
    27  H    0.000000   0.000000  -0.000000  -0.000000  -0.000000   0.000000
    28  H   -0.000000  -0.000000   0.000000   0.000000  -0.000000   0.000004
    29  H   -0.000000  -0.000000   0.000000   0.000000  -0.000000  -0.000000
    30  H    0.000000  -0.000000  -0.000000  -0.000000   0.000000   0.000000
    31  H   -0.000000   0.000000  -0.000000   0.000000  -0.000000  -0.000000
    32  H   -0.000000  -0.000000   0.000000   0.000000   0.000000   0.000000
    33  H    0.000000   0.000000  -0.000000   0.000000  -0.000000   0.000002
    34  H    0.000000   0.000000   0.000000   0.000000  -0.000000   0.000000
    35  H   -0.000000   0.000000  -0.000000  -0.000000   0.000000  -0.000000
             25         26         27         28         29         30
     1  O    0.000000   0.000016  -0.000000   0.000000  -0.000000  -0.000000
     2  C    0.000000   0.000082  -0.000000   0.000000  -0.000000  -0.000000
     3  N    0.000000  -0.000021   0.000000   0.000000  -0.000000   0.000000
     4  C   -0.000000   0.000000   0.000000  -0.000000   0.000000   0.000000
     5  C    0.000000  -0.000047  -0.000000   0.000000   0.000000   0.000000
     6  O    0.000002   0.000175   0.000000   0.000000  -0.000000  -0.000001
     7  C    0.000495  -0.045831  -0.000024   0.000009   0.000002   0.000077
     8  C    0.005031   0.007320  -0.000010  -0.000004  -0.000000  -0.000003
     9  C   -0.043794  -0.000060  -0.000045  -0.000027   0.000002   0.000000
    10  C    0.355380   0.006361  -0.000011   0.004466   0.000180  -0.000158
    11  C   -0.047749  -0.038422  -0.002284  -0.007772   0.005427  -0.005882
    12  C    0.005770   0.340631   0.001295  -0.000183  -0.000041   0.001983
    13  C   -0.007624  -0.015289  -0.028986  -0.026734  -0.029584  -0.024816
    14  C    0.000110   0.000314   0.366423   0.365465   0.360750  -0.005690
    15  C    0.000108   0.007185  -0.005313   0.005851  -0.005268   0.362405
    16  C    0.000904   0.000265   0.005854  -0.005245  -0.003753   0.006140
    17  H   -0.000000  -0.000000   0.000000  -0.000000   0.000000   0.000000
    18  H   -0.000000  -0.000000  -0.000000   0.000000   0.000000  -0.000000
    19  H    0.000000  -0.000000   0.000000  -0.000000  -0.000000   0.000000
    20  H   -0.000000   0.000600   0.000000  -0.000000  -0.000000  -0.000000
    21  H   -0.000000   0.000001  -0.000000   0.000000   0.000000  -0.000000
    22  H    0.000000   0.000000  -0.000000   0.000000   0.000000  -0.000000
    23  H   -0.000165  -0.000149  -0.000000  -0.000000  -0.000000   0.000000
    24  H   -0.005273   0.000017   0.000000   0.000004  -0.000000   0.000000
    25  H    0.608887  -0.000146   0.000083   0.002783  -0.000121  -0.000000
    26  H   -0.000146   0.600114  -0.000002  -0.000007  -0.000014   0.001793
    27  H    0.000083  -0.000002   0.571960  -0.029975  -0.029704   0.004591
    28  H    0.002783  -0.000007  -0.029975   0.576180  -0.030702  -0.000017
    29  H   -0.000121  -0.000014  -0.029704  -0.030702   0.588569  -0.000059
    30  H   -0.000000   0.001793   0.004591  -0.000017  -0.000059   0.579846
    31  H   -0.000005  -0.000139  -0.000121  -0.000054   0.003683  -0.030861
    32  H    0.000001   0.001886  -0.000070  -0.000196  -0.000037  -0.032698
    33  H    0.002654  -0.000007  -0.000016   0.003616  -0.000124  -0.000204
    34  H    0.000073  -0.000013  -0.000193  -0.000039  -0.000065  -0.000093
    35  H   -0.000117  -0.000011  -0.000080  -0.000154   0.002805   0.000031
             31         32         33         34         35
     1  O   -0.000000   0.000000  -0.000000   0.000000   0.000000
     2  C    0.000000  -0.000000   0.000000   0.000000   0.000000
     3  N    0.000000   0.000000   0.000000   0.000000  -0.000000
     4  C    0.000000  -0.000000   0.000000  -0.000000   0.000000
     5  C   -0.000000   0.000000  -0.000000  -0.000000  -0.000000
     6  O   -0.000000  -0.000002   0.000000   0.000000  -0.000000
     7  C   -0.000004   0.000060   0.000009  -0.000013   0.000002
     8  C    0.000000  -0.000003  -0.000003  -0.000008   0.000000
     9  C    0.000002   0.000000   0.000015  -0.000032   0.000001
    10  C   -0.000081  -0.000095   0.003336   0.000297   0.000090
    11  C    0.003868  -0.005999  -0.006780  -0.002660   0.004980
    12  C    0.000368   0.001852  -0.000212   0.000725  -0.000047
    13  C   -0.024750  -0.025675  -0.026452  -0.028706  -0.028539
    14  C   -0.004693   0.006002  -0.005458   0.005741  -0.003522
    15  C    0.366690   0.363206   0.005987  -0.004014  -0.007316
    16  C   -0.006748  -0.004325   0.364960   0.367126   0.362934
    17  H    0.000000  -0.000000   0.000000  -0.000000   0.000000
    18  H    0.000000   0.000000  -0.000000   0.000000  -0.000000
    19  H   -0.000000  -0.000000   0.000000   0.000000  -0.000000
    20  H    0.000000  -0.000000   0.000000   0.000000   0.000000
    21  H   -0.000000   0.000000  -0.000000   0.000000  -0.000000
    22  H    0.000000   0.000000   0.000000   0.000000  -0.000000
    23  H   -0.000000   0.000000  -0.000000  -0.000000   0.000000
    24  H   -0.000000   0.000000   0.000002   0.000000  -0.000000
    25  H   -0.000005   0.000001   0.002654   0.000073  -0.000117
    26  H   -0.000139   0.001886  -0.000007  -0.000013  -0.000011
    27  H   -0.000121  -0.000070  -0.000016  -0.000193  -0.000080
    28  H   -0.000054  -0.000196   0.003616  -0.000039  -0.000154
    29  H    0.003683  -0.000037  -0.000124  -0.000065   0.002805
    30  H   -0.030861  -0.032698  -0.000204  -0.000093   0.000031
    31  H    0.575549  -0.030526   0.000025  -0.000086   0.004889
    32  H   -0.030526   0.577225  -0.000070   0.003647  -0.000049
    33  H    0.000025  -0.000070   0.577319  -0.029345  -0.031247
    34  H   -0.000086   0.003647  -0.029345   0.568729  -0.030029
    35  H    0.004889  -0.000049  -0.031247  -0.030029   0.586436
 Mulliken atomic charges:
              1
     1  O   -0.512229
     2  C    0.781956
     3  N   -0.433303
     4  C   -0.313198
     5  C   -0.306286
     6  O   -0.567039
     7  C    0.363576
     8  C   -0.151152
     9  C   -0.139476
    10  C   -0.187386
    11  C    0.175087
    12  C   -0.255141
    13  C    0.017567
    14  C   -0.437269
    15  C   -0.456515
    16  C   -0.440099
    17  H    0.204114
    18  H    0.154344
    19  H    0.154433
    20  H    0.189300
    21  H    0.155570
    22  H    0.154811
    23  H    0.168184
    24  H    0.134251
    25  H    0.122713
    26  H    0.133400
    27  H    0.146627
    28  H    0.142735
    29  H    0.138053
    30  H    0.143618
    31  H    0.142994
    32  H    0.145867
    33  H    0.141994
    34  H    0.148957
    35  H    0.138943
 Sum of Mulliken atomic charges =  -0.00000
 Mulliken charges with hydrogens summed into heavy atoms:
              1
     1  O   -0.512229
     2  C    0.781956
     3  N   -0.433303
     4  C    0.199694
     5  C    0.193395
     6  O   -0.567039
     7  C    0.363576
     8  C    0.017031
     9  C   -0.005225
    10  C   -0.064673
    11  C    0.175087
    12  C   -0.121740
    13  C    0.017567
    14  C   -0.009854
    15  C   -0.024037
    16  C   -0.010205
 Sum of Mulliken charges with hydrogens summed into heavy atoms =  -0.00000
 Electronic spatial extent (au):  <R**2>=           5329.9648
 Charge=             -0.0000 electrons
 Dipole moment (field-independent basis, Debye):
    X=              0.3281    Y=             -2.3565    Z=             -0.9530  Tot=              2.5630
 Quadrupole moment (field-independent basis, Debye-Ang):
   XX=            -81.1922   YY=            -92.9850   ZZ=            -99.2642
   XY=             -8.3116   XZ=             -3.3699   YZ=             -2.3990
 Traceless Quadrupole moment (field-independent basis, Debye-Ang):
   XX=              9.9550   YY=             -1.8379   ZZ=             -8.1171
   XY=             -8.3116   XZ=             -3.3699   YZ=             -2.3990
 Octapole moment (field-independent basis, Debye-Ang**2):
  XXX=             88.6739  YYY=              4.1057  ZZZ=              1.9461  XYY=              4.4500
  XXY=            -28.5727  XXZ=             -6.1270  XZZ=             12.9718  YZZ=             -4.5544
  YYZ=             -4.4985  XYZ=             -4.2141
 Hexadecapole moment (field-independent basis, Debye-Ang**3):
[...]
    15    O    1  dz2    Ryd( 3d)     0.00358

    16    C    2  S      Cor( 1S)     1.99937
    17    C    2  S      Val( 2S)     0.69376
    18    C    2  S      Ryd( 3S)     0.00256
    19    C    2  S      Ryd( 4S)     0.00047
    20    C    2  px     Val( 2p)     0.75632
    21    C    2  px     Ryd( 3p)     0.00612
    22    C    2  py     Val( 2p)     0.78435
    23    C    2  py     Ryd( 3p)     0.01458
    24    C    2  pz     Val( 2p)     0.78425
    25    C    2  pz     Ryd( 3p)     0.00963
    26    C    2  dxy    Ryd( 3d)     0.00319
    27    C    2  dxz    Ryd( 3d)     0.00304
    28    C    2  dyz    Ryd( 3d)     0.00105
    29    C    2  dx2y2  Ryd( 3d)     0.00217
    30    C    2  dz2    Ryd( 3d)     0.00219

    31    N    3  S      Cor( 1S)     1.99932
    32    N    3  S      Val( 2S)     1.20633
    33    N    3  S      Ryd( 3S)     0.00115
    34    N    3  S      Ryd( 4S)     0.00004
    35    N    3  px     Val( 2p)     1.31578
    36    N    3  px     Ryd( 3p)     0.00136
    37    N    3  py     Val( 2p)     1.41919
    38    N    3  py     Ryd( 3p)     0.00214
    39    N    3  pz     Val( 2p)     1.53032
    40    N    3  pz     Ryd( 3p)     0.00333
    41    N    3  dxy    Ryd( 3d)     0.00069
    42    N    3  dxz    Ryd( 3d)     0.00069
    43    N    3  dyz    Ryd( 3d)     0.00055
    44    N    3  dx2y2  Ryd( 3d)     0.00059
    45    N    3  dz2    Ryd( 3d)     0.00042

    46    C    4  S      Cor( 1S)     1.99947
    47    C    4  S      Val( 2S)     1.08676
    48    C    4  S      Ryd( 3S)     0.00092
    49    C    4  S      Ryd( 4S)     0.00002
    50    C    4  px     Val( 2p)     0.95436
    51    C    4  px     Ryd( 3p)     0.00201
    52    C    4  py     Val( 2p)     1.24702
    53    C    4  py     Ryd( 3p)     0.00257
    54    C    4  pz     Val( 2p)     1.17011
    55    C    4  pz     Ryd( 3p)     0.00172
    56    C    4  dxy    Ryd( 3d)     0.00064
    57    C    4  dxz    Ryd( 3d)     0.00150
    58    C    4  dyz    Ryd( 3d)     0.00102
    59    C    4  dx2y2  Ryd( 3d)     0.00110
    60    C    4  dz2    Ryd( 3d)     0.00039

    61    C    5  S      Cor( 1S)     1.99946
    62    C    5  S      Val( 2S)     1.08542
    63    C    5  S      Ryd( 3S)     0.00099
    64    C    5  S      Ryd( 4S)     0.00002
    65    C    5  px     Val( 2p)     1.26752
    66    C    5  px     Ryd( 3p)     0.00309
    67    C    5  py     Val( 2p)     0.99021
    68    C    5  py     Ryd( 3p)     0.00146
    69    C    5  pz     Val( 2p)     1.11687
    70    C    5  pz     Ryd( 3p)     0.00130
    71    C    5  dxy    Ryd( 3d)     0.00027
    72    C    5  dxz    Ryd( 3d)     0.00110
    73    C    5  dyz    Ryd( 3d)     0.00134
    74    C    5  dx2y2  Ryd( 3d)     0.00138
    75    C    5  dz2    Ryd( 3d)     0.00057

    76    O    6  S      Cor( 1S)     1.99969
    77    O    6  S      Val( 2S)     1.59698
    78    O    6  S      Ryd( 3S)     0.00092
    79    O    6  S      Ryd( 4S)     0.00012
    80    O    6  px     Val( 2p)     1.42667
    81    O    6  px     Ryd( 3p)     0.00087
    82    O    6  py     Val( 2p)     1.78286
    83    O    6  py     Ryd( 3p)     0.00202
    84    O    6  pz     Val( 2p)     1.71583
    85    O    6  pz     Ryd( 3p)     0.00131
    86    O    6  dxy    Ryd( 3d)     0.00108
    87    O    6  dxz    Ryd( 3d)     0.00075
    88    O    6  dyz    Ryd( 3d)     0.00119
    89    O    6  dx2y2  Ryd( 3d)     0.00097
    90    O    6  dz2    Ryd( 3d)     0.00115

    91    C    7  S      Cor( 1S)     1.99874
    92    C    7  S      Val( 2S)     0.84125
    93    C    7  S      Ryd( 3S)     0.00136
    94    C    7  S      Ryd( 4S)     0.00012
    95    C    7  px     Val( 2p)     0.79744
    96    C    7  px     Ryd( 3p)     0.00594
    97    C    7  py     Val( 2p)     1.01186
    98    C    7  py     Ryd( 3p)     0.00686
    99    C    7  pz     Val( 2p)     1.01281
   100    C    7  pz     Ryd( 3p)     0.00365
   101    C    7  dxy    Ryd( 3d)     0.00167
   102    C    7  dxz    Ryd( 3d)     0.00124
   103    C    7  dyz    Ryd( 3d)     0.00109
   104    C    7  dx2y2  Ryd( 3d)     0.00138
   105    C    7  dz2    Ryd( 3d)     0.00057

   106    C    8  S      Cor( 1S)     1.99902
   107    C    8  S      Val( 2S)     0.96982
   108    C    8  S      Ryd( 3S)     0.00071
   109    C    8  S      Ryd( 4S)     0.00005
   110    C    8  px     Val( 2p)     1.15858
   111    C    8  px     Ryd( 3p)     0.00389
   112    C    8  py     Val( 2p)     1.09653
   113    C    8  py     Ryd( 3p)     0.00467
   114    C    8  pz     Val( 2p)     1.02207
   115    C    8  pz     Ryd( 3p)     0.00487
   116    C    8  dxy    Ryd( 3d)     0.00065
   117    C    8  dxz    Ryd( 3d)     0.00057
   118    C    8  dyz    Ryd( 3d)     0.00063
   119    C    8  dx2y2  Ryd( 3d)     0.00077
   120    C    8  dz2    Ryd( 3d)     0.00045

   121    C    9  S      Cor( 1S)     1.99915
   122    C    9  S      Val( 2S)     0.96190
   123    C    9  S      Ryd( 3S)     0.00069
   124    C    9  S      Ryd( 4S)     0.00004
   125    C    9  px     Val( 2p)     1.04922
   126    C    9  px     Ryd( 3p)     0.00540
   127    C    9  py     Val( 2p)     1.18471
   128    C    9  py     Ryd( 3p)     0.00486
   129    C    9  pz     Val( 2p)     1.03357
   130    C    9  pz     Ryd( 3p)     0.00502
   131    C    9  dxy    Ryd( 3d)     0.00067
   132    C    9  dxz    Ryd( 3d)     0.00070
   133    C    9  dyz    Ryd( 3d)     0.00039
   134    C    9  dx2y2  Ryd( 3d)     0.00082
   135    C    9  dz2    Ryd( 3d)     0.00044

   136    C   10  S      Cor( 1S)     1.99907
   137    C   10  S      Val( 2S)     0.95573
   138    C   10  S      Ryd( 3S)     0.00068
   139    C   10  S      Ryd( 4S)     0.00005
   140    C   10  px     Val( 2p)     1.16720
   141    C   10  px     Ryd( 3p)     0.00381
   142    C   10  py     Val( 2p)     1.08157
   143    C   10  py     Ryd( 3p)     0.00430
   144    C   10  pz     Val( 2p)     0.98352
   145    C   10  pz     Ryd( 3p)     0.00385
   146    C   10  dxy    Ryd( 3d)     0.00080
   147    C   10  dxz    Ryd( 3d)     0.00043
   148    C   10  dyz    Ryd( 3d)     0.00070
   149    C   10  dx2y2  Ryd( 3d)     0.00075
   150    C   10  dz2    Ryd( 3d)     0.00048

   151    C   11  S      Cor( 1S)     1.99904
   152    C   11  S      Val( 2S)     0.87598
   153    C   11  S      Ryd( 3S)     0.00170
   154    C   11  S      Ryd( 4S)     0.00005
   155    C   11  px     Val( 2p)     1.06045
   156    C   11  px     Ryd( 3p)     0.00553
   157    C   11  py     Val( 2p)     1.07077
   158    C   11  py     Ryd( 3p)     0.00525
   159    C   11  pz     Val( 2p)     1.00217
   160    C   11  pz     Ryd( 3p)     0.00514
   161    C   11  dxy    Ryd( 3d)     0.00064
   162    C   11  dxz    Ryd( 3d)     0.00077
   163    C   11  dyz    Ryd( 3d)     0.00061
   164    C   11  dx2y2  Ryd( 3d)     0.00084
   165    C   11  dz2    Ryd( 3d)     0.00039

   166    C   12  S      Cor( 1S)     1.99898
   167    C   12  S      Val( 2S)     0.95202
   168    C   12  S      Ryd( 3S)     0.00078
   169    C   12  S      Ryd( 4S)     0.00005
   170    C   12  px     Val( 2p)     1.06290
   171    C   12  px     Ryd( 3p)     0.00424
   172    C   12  py     Val( 2p)     1.19144
   173    C   12  py     Ryd( 3p)     0.00390
   174    C   12  pz     Val( 2p)     1.05451
   175    C   12  pz     Ryd( 3p)     0.00594
   176    C   12  dxy    Ryd( 3d)     0.00072
   177    C   12  dxz    Ryd( 3d)     0.00072
   178    C   12  dyz    Ryd( 3d)     0.00040
   179    C   12  dx2y2  Ryd( 3d)     0.00070
   180    C   12  dz2    Ryd( 3d)     0.00046

   181    C   13  S      Cor( 1S)     1.99911
   182    C   13  S      Val( 2S)     0.91248
   183    C   13  S      Ryd( 3S)     0.00029
   184    C   13  S      Ryd( 4S)     0.00002
   185    C   13  px     Val( 2p)     1.04805
   186    C   13  px     Ryd( 3p)     0.00275
   187    C   13  py     Val( 2p)     1.05090
   188    C   13  py     Ryd( 3p)     0.00372
   189    C   13  pz     Val( 2p)     1.04792
   190    C   13  pz     Ryd( 3p)     0.00232
   191    C   13  dxy    Ryd( 3d)     0.00079
   192    C   13  dxz    Ryd( 3d)     0.00101
   193    C   13  dyz    Ryd( 3d)     0.00061
   194    C   13  dx2y2  Ryd( 3d)     0.00071
   195    C   13  dz2    Ryd( 3d)     0.00081

   196    C   14  S      Cor( 1S)     1.99937
   197    C   14  S      Val( 2S)     1.09479
   198    C   14  S      Ryd( 3S)     0.00067
   199    C   14  S      Ryd( 4S)     0.00001
   200    C   14  px     Val( 2p)     1.17413
   201    C   14  px     Ryd( 3p)     0.00187
   202    C   14  py     Val( 2p)     1.24267
   203    C   14  py     Ryd( 3p)     0.00210
   204    C   14  pz     Val( 2p)     1.14144
   205    C   14  pz     Ryd( 3p)     0.00188
   206    C   14  dxy    Ryd( 3d)     0.00083
   207    C   14  dxz    Ryd( 3d)     0.00070
   208    C   14  dyz    Ryd( 3d)     0.00037
   209    C   14  dx2y2  Ryd( 3d)     0.00063
   210    C   14  dz2    Ryd( 3d)     0.00091

   211    C   15  S      Cor( 1S)     1.99939
   212    C   15  S      Val( 2S)     1.08881
   213    C   15  S      Ryd( 3S)     0.00059
   214    C   15  S      Ryd( 4S)     0.00001
   215    C   15  px     Val( 2p)     1.24288
   216    C   15  px     Ryd( 3p)     0.00224
   217    C   15  py     Val( 2p)     1.09143
   218    C   15  py     Ryd( 3p)     0.00173
   219    C   15  pz     Val( 2p)     1.24383
   220    C   15  pz     Ryd( 3p)     0.00222
   221    C   15  dxy    Ryd( 3d)     0.00080
   222    C   15  dxz    Ryd( 3d)     0.00092
   223    C   15  dyz    Ryd( 3d)     0.00054
   224    C   15  dx2y2  Ryd( 3d)     0.00049
   225    C   15  dz2    Ryd( 3d)     0.00064

   226    C   16  S      Cor( 1S)     1.99937
   227    C   16  S      Val( 2S)     1.09477
   228    C   16  S      Ryd( 3S)     0.00068
   229    C   16  S      Ryd( 4S)     0.00001
   230    C   16  px     Val( 2p)     1.20249
   231    C   16  px     Ryd( 3p)     0.00198
   232    C   16  py     Val( 2p)     1.22812
   233    C   16  py     Ryd( 3p)     0.00212
   234    C   16  pz     Val( 2p)     1.12809
   235    C   16  pz     Ryd( 3p)     0.00176
   236    C   16  dxy    Ryd( 3d)     0.00075
   237    C   16  dxz    Ryd( 3d)     0.00089
   238    C   16  dyz    Ryd( 3d)     0.00022
   239    C   16  dx2y2  Ryd( 3d)     0.00070
   240    C   16  dz2    Ryd( 3d)     0.00088

   241    H   17  S      Val( 1S)     0.73444
   242    H   17  S      Ryd( 2S)     0.00153

   243    H   18  S      Val( 1S)     0.77769
   244    H   18  S      Ryd( 2S)     0.00133

   245    H   19  S      Val( 1S)     0.77856
   246    H   19  S      Ryd( 2S)     0.00141

   247    H   20  S      Val( 1S)     0.74185
   248    H   20  S      Ryd( 2S)     0.00091

   249    H   21  S      Val( 1S)     0.77771
   250    H   21  S      Ryd( 2S)     0.00162

   251    H   22  S      Val( 1S)     0.77511
   252    H   22  S      Ryd( 2S)     0.00146

   253    H   23  S      Val( 1S)     0.74985
   254    H   23  S      Ryd( 2S)     0.00117

   255    H   24  S      Val( 1S)     0.76784
   256    H   24  S      Ryd( 2S)     0.00086

   257    H   25  S      Val( 1S)     0.77359
   258    H   25  S      Ryd( 2S)     0.00096

   259    H   26  S      Val( 1S)     0.76192
   260    H   26  S      Ryd( 2S)     0.00147

   261    H   27  S      Val( 1S)     0.76391
   262    H   27  S      Ryd( 2S)     0.00103

   263    H   28  S      Val( 1S)     0.76905
   264    H   28  S      Ryd( 2S)     0.00096

   265    H   29  S      Val( 1S)     0.77059
   266    H   29  S      Ryd( 2S)     0.00142

   267    H   30  S      Val( 1S)     0.76664
   268    H   30  S      Ryd( 2S)     0.00119

   269    H   31  S      Val( 1S)     0.76388
   270    H   31  S      Ryd( 2S)     0.00094

   271    H   32  S      Val( 1S)     0.76550
   272    H   32  S      Ryd( 2S)     0.00119

   273    H   33  S      Val( 1S)     0.76904
   274    H   33  S      Ryd( 2S)     0.00095

   275    H   34  S      Val( 1S)     0.76260
   276    H   34  S      Ryd( 2S)     0.00101

   277    H   35  S      Val( 1S)     0.77129
   278    H   35  S      Ryd( 2S)     0.00141

 WARNING:  1 low occupancy (<1.9990e) core orbital  found on  C    7
           1 low occupancy (<1.9990e) core orbital  found on  C   12


 Summary of Natural Population Analysis:                  
                                                          
                                       Natural Population 
                Natural  -----------------------------------------------
    Atom  No    Charge         Core      Valence    Rydberg      Total
 -----------------------------------------------------------------------
      O    1   -0.63809      1.99978     6.61917    0.01914     8.63809
      C    2    0.93696      1.99937     3.01868    0.04499     5.06304
      N    3   -0.48191      1.99932     5.47162    0.01097     7.48191
      C    4   -0.46961      1.99947     4.45825    0.01189     6.46961
      C    5   -0.47099      1.99946     4.46001    0.01151     6.47099
      O    6   -0.53240      1.99969     6.52233    0.01038     8.53240
      C    7    0.31401      1.99874     3.66336    0.02389     5.68599
      C    8   -0.26329      1.99902     4.24700    0.01727     6.26329
      C    9   -0.24759      1.99915     4.22940    0.01904     6.24759
      C   10   -0.20293      1.99907     4.18802    0.01584     6.20293
      C   11   -0.02931      1.99904     4.00937    0.02091     6.02931
      C   12   -0.27776      1.99898     4.26087    0.01790     6.27776
      C   13   -0.07149      1.99911     4.05935    0.01303     6.07149
      C   14   -0.66236      1.99937     4.65302    0.00997     6.66236
      C   15   -0.67653      1.99939     4.66695    0.01019     6.67653
      C   16   -0.66284      1.99937     4.65347    0.00999     6.66284
      H   17    0.26403      0.00000     0.73444    0.00153     0.73597
      H   18    0.22098      0.00000     0.77769    0.00133     0.77902
      H   19    0.22003      0.00000     0.77856    0.00141     0.77997
      H   20    0.25724      0.00000     0.74185    0.00091     0.74276
      H   21    0.22067      0.00000     0.77771    0.00162     0.77933
      H   22    0.22342      0.00000     0.77511    0.00146     0.77658
      H   23    0.24899      0.00000     0.74985    0.00117     0.75101
      H   24    0.23130      0.00000     0.76784    0.00086     0.76870
      H   25    0.22545      0.00000     0.77359    0.00096     0.77455
      H   26    0.23661      0.00000     0.76192    0.00147     0.76339
      H   27    0.23506      0.00000     0.76391    0.00103     0.76494
      H   28    0.22999      0.00000     0.76905    0.00096     0.77001
      H   29    0.22799      0.00000     0.77059    0.00142     0.77201
      H   30    0.23217      0.00000     0.76664    0.00119     0.76783
      H   31    0.23518      0.00000     0.76388    0.00094     0.76482
      H   32    0.23332      0.00000     0.76550    0.00119     0.76668
      H   33    0.23001      0.00000     0.76904    0.00095     0.76999
      H   34    0.23639      0.00000     0.76260    0.00101     0.76361
      H   35    0.22730      0.00000     0.77129    0.00141     0.77270
 =======================================================================
   * Total *    0.00000     31.98834    87.72193    0.28973   120.00000

                                 Natural Population      
 --------------------------------------------------------
   Core                      31.98834 ( 99.9636% of  32)
   Valence                   87.72193 ( 99.6840% of  88)
   Natural Minimal Basis    119.71027 ( 99.7586% of 120)
   Natural Rydberg Basis      0.28973 (  0.2414% of 120)
 --------------------------------------------------------

    Atom  No          Natural Electron Configuration
 ----------------------------------------------------------------------------
      O    1      [core]2S( 1.70)2p( 4.91)3d( 0.02)
      C    2      [core]2S( 0.69)2p( 2.32)3p( 0.03)3d( 0.01)
      N    3      [core]2S( 1.21)2p( 4.27)3p( 0.01)
      C    4      [core]2S( 1.09)2p( 3.37)3p( 0.01)
      C    5      [core]2S( 1.09)2p( 3.37)3p( 0.01)
      O    6      [core]2S( 1.60)2p( 4.93)3d( 0.01)
      C    7      [core]2S( 0.84)2p( 2.82)3p( 0.02)3d( 0.01)
      C    8      [core]2S( 0.97)2p( 3.28)3p( 0.01)
      C    9      [core]2S( 0.96)2p( 3.27)3p( 0.02)
      C   10      [core]2S( 0.96)2p( 3.23)3p( 0.01)
      C   11      [core]2S( 0.88)2p( 3.13)3p( 0.02)
      C   12      [core]2S( 0.95)2p( 3.31)3p( 0.01)
      C   13      [core]2S( 0.91)2p( 3.15)3p( 0.01)
      C   14      [core]2S( 1.09)2p( 3.56)3p( 0.01)
      C   15      [core]2S( 1.09)2p( 3.58)3p( 0.01)
      C   16      [core]2S( 1.09)2p( 3.56)3p( 0.01)
      H   17            1S( 0.73)
      H   18            1S( 0.78)
      H   19            1S( 0.78)
      H   20            1S( 0.74)
      H   21            1S( 0.78)
      H   22            1S( 0.78)
      H   23            1S( 0.75)
      H   24            1S( 0.77)
      H   25            1S( 0.77)
      H   26            1S( 0.76)
      H   27            1S( 0.76)
      H   28            1S( 0.77)
      H   29            1S( 0.77)
      H   30            1S( 0.77)
      H   31            1S( 0.76)
      H   32            1S( 0.77)
      H   33            1S( 0.77)
      H   34            1S( 0.76)
      H   35            1S( 0.77)


 NBO analysis skipped by request.
 Leave Link  607 at Fri Oct  1 03:23:49 2021, MaxMem= 1342177280 cpu:      23.2
 (Enter /sw/target/amd/app/gaussian/Gaussian09RevA.02_gcc-4.9.2/g09/l9999.exe)
 1\1\GINC-HERMITE\SP\RTD-B3LYP-FC\6-31G(d)\C13H19N1O2\JSCHLEINITZ\01-Oc
 t-2021\0\\#p TD(NStates=10, Root=1) b3lyp/6-31G* volume pop=NPA densit
 y=current Geom=AllCheck Guess=Read\\O=C(N(C)C)Oc1cccc(c1)C(C)(C)C_conf
 _0\\0,1\O,0,3.5362917382,0.1330734252,-1.4641465953\C,0,3.0233876379,0
 .7388852071,-0.5426262526\N,0,1.8129691994,0.4447057068,0.0188136357\C
 ,0,1.0815787315,-0.7109179003,-0.4749494744\C,0,1.2216335721,1.1533422
 54,1.1430382327\O,0,3.5953738581,1.8269556051,0.0798723848\C,0,4.81420
 50231,2.3287475583,-0.3753128476\C,0,5.0646984574,2.5972186048,-1.7170
 619393\C,0,6.287033906,3.1840504626,-2.0468823191\C,0,7.2220850604,3.4
 987031844,-1.0631848392\C,0,6.969529919,3.2339435669,0.2937380193\C,0,
 5.7444898258,2.6388141224,0.6169250398\C,0,8.0200849052,3.5935569747,1
 .360580958\C,0,8.2972140808,5.1151753688,1.3173340395\C,0,7.5583575332
 ,3.2301380151,2.7844399278\C,0,9.3314745392,2.8260876131,1.0686792362\
 H,0,1.6272814486,-1.1408806847,-1.3133418002\H,0,0.0779855313,-0.41304
 03452,-0.8054364297\H,0,0.9736094245,-1.4669620797,0.3147554023\H,0,1.
 8110882472,2.0338987286,1.3856496436\H,0,1.1681692016,0.5026054376,2.0
 272332927\H,0,0.2004377013,1.4664362547,0.8894737309\H,0,4.3376495942,
 2.3416692096,-2.4769848597\H,0,6.5093750021,3.3992778546,-3.0886985543
 \H,0,8.1610408299,3.956541582,-1.3605646204\H,0,5.4799979282,2.4050335
 178,1.6411446223\H,0,7.3852627636,5.6862582414,1.5256557183\H,0,8.6739
 19993,5.4332367267,0.3396521607\H,0,9.0483857294,5.3873516896,2.068951
 5694\H,0,6.643149076,3.7638922033,3.0650311443\H,0,8.3354994264,3.5052
 325076,3.5063561301\H,0,7.3744193549,2.1550556005,2.8915079461\H,0,9.7
 362820261,3.0719775138,0.081480053\H,0,9.1668386734,1.7431235532,1.101
 4852919\H,0,10.0952558052,3.0775767676,1.8149161434\\Version=AM64L-G09
 RevA.02\State=1-A\HF=-712.0493997\RMSD=6.165e-09\Dipole=-0.8106413,0.1
 670213,0.7678234\Quadrupole=8.6469564,-5.0650518,-3.5819046,5.459508,-
 1.9746981,-3.4014755\PG=C01 [X(C13H19N1O2)]\\@


 WHEN YOU REACH FOR THE STARS, YOU MAY NOT QUITE GET ONE,
 BUT YOU WON'T COME UP WITH A HANDFUL OF MUD, EITHER.

                                         -- LEO BURNETT (AD AGENCY HEAD)
 Job cpu time:  0 days  4 hours 46 minutes 52.7 seconds.
 File lengths (MBytes):  RWF=    261 Int=      0 D2E=      0 Chk=     36 Scr=      1
 Normal termination of Gaussian 09 at Fri Oct  1 03:23:54 2021.
