 Entering Gaussian System, Link 0=g09
 Input=C13H16O3_bff6_conf_0.com
 Output=C13H16O3_bff6_conf_0.log
 Initial command:
 /sw/target/amd/app/gaussian/Gaussian09RevA.02_gcc-4.9.2/g09/l1.exe /home/jschleinitz/gaussian/Gau-681158.inp -scrdir=/home/jschleinitz/gaussian/
 Entering Link 1 = /sw/target/amd/app/gaussian/Gaussian09RevA.02_gcc-4.9.2/g09/l1.exe PID=    681160.
  
 Copyright (c) 1988,1990,1992,1993,1995,1998,2003,2009, Gaussian, Inc.
                  All Rights Reserved.
  
 This is part of the Gaussian(R) 09 program.  It is based on
 the Gaussian(R) 03 system (copyright 2003, Gaussian, Inc.),
 the Gaussian(R) 98 system (copyright 1998, Gaussian, Inc.),
 the Gaussian(R) 94 system (copyright 1995, Gaussian, Inc.),
 the Gaussian 92(TM) system (copyright 1992, Gaussian, Inc.),
 the Gaussian 90(TM) system (copyright 1990, Gaussian, Inc.),
 the Gaussian 88(TM) system (copyright 1988, Gaussian, Inc.),
 the Gaussian 86(TM) system (copyright 1986, Carnegie Mellon
 University), and the Gaussian 82(TM) system (copyright 1983,
 Carnegie Mellon University). Gaussian is a federally registered
 trademark of Gaussian, Inc.
  
 This software contains proprietary and confidential information,
 including trade secrets, belonging to Gaussian, Inc.
  
 This software is provided under written license and may be
 used, copied, transmitted, or stored only in accord with that
 written license.
  
 The following legend is applicable only to US Government
 contracts under FAR:
  
                    RESTRICTED RIGHTS LEGEND
  
 Use, reproduction and disclosure by the US Government is
 subject to restrictions as set forth in subparagraphs (a)
 and (c) of the Commercial Computer Software - Restricted
 Rights clause in FAR 52.227-19.
  
 Gaussian, Inc.
 340 Quinnipiac St., Bldg. 40, Wallingford CT 06492
  
  
 ---------------------------------------------------------------
 Warning -- This program may not be used in any manner that
 competes with the business of Gaussian, Inc. or will provide
 assistance to any competitor of Gaussian, Inc.  The licensee
 of this program is prohibited from giving any competitor of
 Gaussian, Inc. access to this program.  By using this program,
 the user acknowledges that Gaussian, Inc. is engaged in the
 business of creating and licensing software in the field of
 computational chemistry and represents and warrants to the
 licensee that it is not a competitor of Gaussian, Inc. and that
 it will not use this program in any manner prohibited above.
 ---------------------------------------------------------------
  

 Cite this work as:
 Gaussian 09, Revision A.02,
 M. J. Frisch, G. W. Trucks, H. B. Schlegel, G. E. Scuseria, 
 M. A. Robb, J. R. Cheeseman, G. Scalmani, V. Barone, B. Mennucci, 
 G. A. Petersson, H. Nakatsuji, M. Caricato, X. Li, H. P. Hratchian, 
 A. F. Izmaylov, J. Bloino, G. Zheng, J. L. Sonnenberg, M. Hada, 
 M. Ehara, K. Toyota, R. Fukuda, J. Hasegawa, M. Ishida, T. Nakajima, 
 Y. Honda, O. Kitao, H. Nakai, T. Vreven, J. A. Montgomery, Jr., 
 J. E. Peralta, F. Ogliaro, M. Bearpark, J. J. Heyd, E. Brothers, 
 K. N. Kudin, V. N. Staroverov, R. Kobayashi, J. Normand, 
 K. Raghavachari, A. Rendell, J. C. Burant, S. S. Iyengar, J. Tomasi, 
 M. Cossi, N. Rega, J. M. Millam, M. Klene, J. E. Knox, J. B. Cross, 
 V. Bakken, C. Adamo, J. Jaramillo, R. Gomperts, R. E. Stratmann, 
 O. Yazyev, A. J. Austin, R. Cammi, C. Pomelli, J. W. Ochterski, 
 R. L. Martin, K. Morokuma, V. G. Zakrzewski, G. A. Voth, 
 P. Salvador, J. J. Dannenberg, S. Dapprich, A. D. Daniels, 
 O. Farkas, J. B. Foresman, J. V. Ortiz, J. Cioslowski, 
 and D. J. Fox, Gaussian, Inc., Wallingford CT, 2009.
 
 ******************************************
 Gaussian 09:  AM64L-G09RevA.02 11-Jun-2009
                29-Sep-2021 
 ******************************************
 %nproc=5
 Will use up to    5 processors via shared memory.
 %mem=10gb
 %chk=C13H16O3_bff6_conf_0.chk
 -----------------------------------
 #p opt b3lyp/6-31G* scf=(xqc,tight)
 -----------------------------------
 1/14=-1,18=20,19=15,26=3,38=1/1,3;
 2/9=110,12=2,17=6,18=5,40=1/2;
 3/5=1,6=6,7=1,11=2,16=1,25=1,30=1,71=1,74=-5/1,2,3;
 4//1;
 5/5=2,8=3,13=1,32=2,38=5/2,8;
 6/7=2,8=2,9=2,10=2,28=1/1;
 7//1,2,3,16;
 1/14=-1,18=20,19=15/3(2);
 2/9=110/2;
 99//99;
 2/9=110/2;
 3/5=1,6=6,7=1,11=2,16=1,25=1,30=1,71=1,74=-5/1,2,3;
 4/5=5,16=3/1;
 5/5=2,8=3,13=1,32=2,38=5/2,8;
 7//1,2,3,16;
 1/14=-1,18=20,19=15/3(-5);
 2/9=110/2;
 6/7=2,8=2,9=2,10=2,19=2,28=1/1;
 99/9=1/99;
 Leave Link    1 at Wed Sep 29 02:27:15 2021, MaxMem= 1342177280 cpu:       0.1
 (Enter /sw/target/amd/app/gaussian/Gaussian09RevA.02_gcc-4.9.2/g09/l101.exe)
 -------------------------------------
 O=C(C(C)(C)C)Oc1ccc(cc1)C(=O)C_conf_0
 -------------------------------------
 Symbolic Z-matrix:
 Charge =  0 Multiplicity = 1
 O                     3.8281   -2.54981  -0.31751 
 C                     3.42624  -2.2644    0.80131 
 C                     1.94262  -2.24242   1.18634 
 C                     1.55502  -3.62433   1.72139 
 C                     1.64866  -1.16161   2.23378 
 C                     1.13017  -1.93516  -0.08405 
 O                     4.23012  -1.95288   1.90342 
 C                     5.63248  -1.93105   1.76863 
 C                     6.32162  -0.97249   2.5163 
 C                     7.71579  -0.89544   2.42577 
 C                     8.41046  -1.78266   1.59311 
 C                     7.71238  -2.76677   0.88563 
 C                     6.32459  -2.84942   0.98345 
 C                     9.8867   -1.72077   1.42957 
 O                     10.51391  -2.73825   1.14585 
 C                     10.56608  -0.38848   1.59194 
 H                     2.13754  -3.88574   2.61174 
 H                     1.73799  -4.40608   0.97472 
 H                     0.4932   -3.66061   1.98973 
 H                     2.14058  -1.38016   3.18855 
 H                     0.57423  -1.08265   2.43174 
 H                     2.0051   -0.18105   1.89773 
 H                     1.25835  -2.71979  -0.83962 
 H                     1.45428  -0.99199  -0.53994 
 H                     0.05965  -1.85789   0.13352 
 H                     5.78143  -0.28627   3.16341 
 H                     8.24119  -0.15203   3.01887 
 H                     8.24367  -3.46677   0.24336 
 H                     5.80644  -3.6262    0.42907 
 H                     10.03007   0.37933   1.02667 
 H                     11.58007  -0.45313   1.18501 
 H                     10.6271  -0.11991   2.64863 
 
 NAtoms=     32 NQM=     32 NQMF=      0 NMic=      0 NMicF=      0 NTot=     32.
                    Isotopes and Nuclear Properties:
 (Nuclear quadrupole moments (NQMom) in fm**2, nuclear magnetic moments (NMagM)
  in nuclear magnetons)

  Atom         1           2           3           4           5           6           7           8           9          10
 IAtWgt=          16          12          12          12          12          12          16          12          12          12
 AtmWgt=  15.9949146  12.0000000  12.0000000  12.0000000  12.0000000  12.0000000  15.9949146  12.0000000  12.0000000  12.0000000
 NucSpn=           0           0           0           0           0           0           0           0           0           0
 AtZEff=   0.0000000   0.0000000   0.0000000   0.0000000   0.0000000   0.0000000   0.0000000   0.0000000   0.0000000   0.0000000
 NQMom=    0.0000000   0.0000000   0.0000000   0.0000000   0.0000000   0.0000000   0.0000000   0.0000000   0.0000000   0.0000000
 NMagM=    0.0000000   0.0000000   0.0000000   0.0000000   0.0000000   0.0000000   0.0000000   0.0000000   0.0000000   0.0000000

  Atom        11          12          13          14          15          16          17          18          19          20
 IAtWgt=          12          12          12          12          16          12           1           1           1           1
 AtmWgt=  12.0000000  12.0000000  12.0000000  12.0000000  15.9949146  12.0000000   1.0078250   1.0078250   1.0078250   1.0078250
 NucSpn=           0           0           0           0           0           0           1           1           1           1
 AtZEff=   0.0000000   0.0000000   0.0000000   0.0000000   0.0000000   0.0000000   0.0000000   0.0000000   0.0000000   0.0000000
 NQMom=    0.0000000   0.0000000   0.0000000   0.0000000   0.0000000   0.0000000   0.0000000   0.0000000   0.0000000   0.0000000
 NMagM=    0.0000000   0.0000000   0.0000000   0.0000000   0.0000000   0.0000000   2.7928460   2.7928460   2.7928460   2.7928460

  Atom        21          22          23          24          25          26          27          28          29          30
 IAtWgt=           1           1           1           1           1           1           1           1           1           1
 AtmWgt=   1.0078250   1.0078250   1.0078250   1.0078250   1.0078250   1.0078250   1.0078250   1.0078250   1.0078250   1.0078250
 NucSpn=           1           1           1           1           1           1           1           1           1           1
 AtZEff=   0.0000000   0.0000000   0.0000000   0.0000000   0.0000000   0.0000000   0.0000000   0.0000000   0.0000000   0.0000000
 NQMom=    0.0000000   0.0000000   0.0000000   0.0000000   0.0000000   0.0000000   0.0000000   0.0000000   0.0000000   0.0000000
 NMagM=    2.7928460   2.7928460   2.7928460   2.7928460   2.7928460   2.7928460   2.7928460   2.7928460   2.7928460   2.7928460

  Atom        31          32
 IAtWgt=           1           1
 AtmWgt=   1.0078250   1.0078250
 NucSpn=           1           1
 AtZEff=   0.0000000   0.0000000
 NQMom=    0.0000000   0.0000000
 NMagM=    2.7928460   2.7928460
 Leave Link  101 at Wed Sep 29 02:27:16 2021, MaxMem= 1342177280 cpu:       0.2
 (Enter /sw/target/amd/app/gaussian/Gaussian09RevA.02_gcc-4.9.2/g09/l103.exe)

 GradGradGradGradGradGradGradGradGradGradGradGradGradGradGradGradGradGrad
 Berny optimization.
 Initialization pass.
                           ----------------------------
                           !    Initial Parameters    !
                           ! (Angstroms and Degrees)  !
 --------------------------                            --------------------------
 ! Name  Definition              Value          Derivative Info.                !
 --------------------------------------------------------------------------------
 ! R1    R(1,2)                  1.2226         estimate D2E/DX2                !
 ! R2    R(2,3)                  1.5329         estimate D2E/DX2                !
 ! R3    R(2,7)                  1.3993         estimate D2E/DX2                !
 ! R4    R(3,4)                  1.5317         estimate D2E/DX2                !
 ! R5    R(3,5)                  1.5335         estimate D2E/DX2                !
 ! R6    R(3,6)                  1.539          estimate D2E/DX2                !
 ! R7    R(4,17)                 1.0956         estimate D2E/DX2                !
 ! R8    R(4,18)                 1.0964         estimate D2E/DX2                !
 ! R9    R(4,19)                 1.0958         estimate D2E/DX2                !
 ! R10   R(5,20)                 1.0961         estimate D2E/DX2                !
 ! R11   R(5,21)                 1.0954         estimate D2E/DX2                !
 ! R12   R(5,22)                 1.0961         estimate D2E/DX2                !
 ! R13   R(6,23)                 1.0968         estimate D2E/DX2                !
 ! R14   R(6,24)                 1.0966         estimate D2E/DX2                !
 ! R15   R(6,25)                 1.0951         estimate D2E/DX2                !
 ! R16   R(7,8)                  1.409          estimate D2E/DX2                !
 ! R17   R(8,9)                  1.3974         estimate D2E/DX2                !
 ! R18   R(8,13)                 1.3925         estimate D2E/DX2                !
 ! R19   R(9,10)                 1.3992         estimate D2E/DX2                !
 ! R20   R(9,26)                 1.087          estimate D2E/DX2                !
 ! R21   R(10,11)                1.4011         estimate D2E/DX2                !
 ! R22   R(10,27)                1.0865         estimate D2E/DX2                !
 ! R23   R(11,12)                1.3987         estimate D2E/DX2                !
 ! R24   R(11,14)                1.4866         estimate D2E/DX2                !
 ! R25   R(12,13)                1.3937         estimate D2E/DX2                !
 ! R26   R(12,28)                1.0885         estimate D2E/DX2                !
 ! R27   R(13,29)                1.0859         estimate D2E/DX2                !
 ! R28   R(14,15)                1.2285         estimate D2E/DX2                !
 ! R29   R(14,16)                1.5043         estimate D2E/DX2                !
 ! R30   R(16,30)                1.0938         estimate D2E/DX2                !
 ! R31   R(16,31)                1.0945         estimate D2E/DX2                !
 ! R32   R(16,32)                1.092          estimate D2E/DX2                !
 ! A1    A(1,2,3)              123.4586         estimate D2E/DX2                !
 ! A2    A(1,2,7)              125.7271         estimate D2E/DX2                !
 ! A3    A(3,2,7)              110.7932         estimate D2E/DX2                !
 ! A4    A(2,3,4)              108.6451         estimate D2E/DX2                !
 ! A5    A(2,3,5)              111.5427         estimate D2E/DX2                !
 ! A6    A(2,3,6)              107.8461         estimate D2E/DX2                !
 ! A7    A(4,3,5)              110.4115         estimate D2E/DX2                !
 ! A8    A(4,3,6)              109.5659         estimate D2E/DX2                !
 ! A9    A(5,3,6)              108.7792         estimate D2E/DX2                !
 ! A10   A(3,4,17)             111.3817         estimate D2E/DX2                !
 ! A11   A(3,4,18)             111.2939         estimate D2E/DX2                !
 ! A12   A(3,4,19)             111.1376         estimate D2E/DX2                !
 ! A13   A(17,4,18)            107.1319         estimate D2E/DX2                !
 ! A14   A(17,4,19)            107.9564         estimate D2E/DX2                !
 ! A15   A(18,4,19)            107.7502         estimate D2E/DX2                !
 ! A16   A(3,5,20)             111.6177         estimate D2E/DX2                !
 ! A17   A(3,5,21)             111.2399         estimate D2E/DX2                !
 ! A18   A(3,5,22)             111.0226         estimate D2E/DX2                !
 ! A19   A(20,5,21)            107.2883         estimate D2E/DX2                !
 ! A20   A(20,5,22)            107.4276         estimate D2E/DX2                !
 ! A21   A(21,5,22)            108.0531         estimate D2E/DX2                !
 ! A22   A(3,6,23)             111.355          estimate D2E/DX2                !
 ! A23   A(3,6,24)             111.0317         estimate D2E/DX2                !
 ! A24   A(3,6,25)             111.4781         estimate D2E/DX2                !
 ! A25   A(23,6,24)            107.1198         estimate D2E/DX2                !
 ! A26   A(23,6,25)            107.5517         estimate D2E/DX2                !
 ! A27   A(24,6,25)            108.1096         estimate D2E/DX2                !
 ! A28   A(2,7,8)              119.9934         estimate D2E/DX2                !
 ! A29   A(7,8,9)              116.7615         estimate D2E/DX2                !
 ! A30   A(7,8,13)             122.5767         estimate D2E/DX2                !
 ! A31   A(9,8,13)             120.5965         estimate D2E/DX2                !
 ! A32   A(8,9,10)             119.6387         estimate D2E/DX2                !
 ! A33   A(8,9,26)             120.4311         estimate D2E/DX2                !
 ! A34   A(10,9,26)            119.9298         estimate D2E/DX2                !
 ! A35   A(9,10,11)            119.8411         estimate D2E/DX2                !
 ! A36   A(9,10,27)            118.9594         estimate D2E/DX2                !
 ! A37   A(11,10,27)           121.1935         estimate D2E/DX2                !
 ! A38   A(10,11,12)           119.9133         estimate D2E/DX2                !
 ! A39   A(10,11,14)           122.0988         estimate D2E/DX2                !
 ! A40   A(12,11,14)           117.9879         estimate D2E/DX2                !
 ! A41   A(11,12,13)           120.2126         estimate D2E/DX2                !
 ! A42   A(11,12,28)           120.4861         estimate D2E/DX2                !
 ! A43   A(13,12,28)           119.2962         estimate D2E/DX2                !
 ! A44   A(8,13,12)            119.6966         estimate D2E/DX2                !
 ! A45   A(8,13,29)            121.4992         estimate D2E/DX2                !
 ! A46   A(12,13,29)           118.7982         estimate D2E/DX2                !
 ! A47   A(11,14,15)           119.8635         estimate D2E/DX2                !
 ! A48   A(11,14,16)           118.2612         estimate D2E/DX2                !
 ! A49   A(15,14,16)           121.8628         estimate D2E/DX2                !
 ! A50   A(14,16,30)           110.1575         estimate D2E/DX2                !
 ! A51   A(14,16,31)           109.0239         estimate D2E/DX2                !
 ! A52   A(14,16,32)           110.3352         estimate D2E/DX2                !
 ! A53   A(30,16,31)           107.657          estimate D2E/DX2                !
 ! A54   A(30,16,32)           110.7825         estimate D2E/DX2                !
 ! A55   A(31,16,32)           108.8165         estimate D2E/DX2                !
 ! D1    D(1,2,3,4)             91.1572         estimate D2E/DX2                !
 ! D2    D(1,2,3,5)           -146.9102         estimate D2E/DX2                !
 ! D3    D(1,2,3,6)            -27.5242         estimate D2E/DX2                !
 ! D4    D(7,2,3,4)            -87.2574         estimate D2E/DX2                !
 ! D5    D(7,2,3,5)             34.6752         estimate D2E/DX2                !
 ! D6    D(7,2,3,6)            154.0612         estimate D2E/DX2                !
 ! D7    D(1,2,7,8)              0.9946         estimate D2E/DX2                !
 ! D8    D(3,2,7,8)            179.3653         estimate D2E/DX2                !
 ! D9    D(2,3,4,17)            60.7996         estimate D2E/DX2                !
 ! D10   D(2,3,4,18)           -58.681          estimate D2E/DX2                !
 ! D11   D(2,3,4,19)          -178.7803         estimate D2E/DX2                !
 ! D12   D(5,3,4,17)           -61.8198         estimate D2E/DX2                !
 ! D13   D(5,3,4,18)           178.6996         estimate D2E/DX2                !
 ! D14   D(5,3,4,19)            58.6003         estimate D2E/DX2                !
 ! D15   D(6,3,4,17)           178.392          estimate D2E/DX2                !
 ! D16   D(6,3,4,18)            58.9114         estimate D2E/DX2                !
 ! D17   D(6,3,4,19)           -61.1879         estimate D2E/DX2                !
 ! D18   D(2,3,5,20)           -65.8547         estimate D2E/DX2                !
 ! D19   D(2,3,5,21)           174.3445         estimate D2E/DX2                !
 ! D20   D(2,3,5,22)            53.9756         estimate D2E/DX2                !
 ! D21   D(4,3,5,20)            55.0524         estimate D2E/DX2                !
 ! D22   D(4,3,5,21)           -64.7484         estimate D2E/DX2                !
 ! D23   D(4,3,5,22)           174.8826         estimate D2E/DX2                !
 ! D24   D(6,3,5,20)           175.314          estimate D2E/DX2                !
 ! D25   D(6,3,5,21)            55.5132         estimate D2E/DX2                !
 ! D26   D(6,3,5,22)           -64.8558         estimate D2E/DX2                !
 ! D27   D(2,3,6,23)            62.5993         estimate D2E/DX2                !
 ! D28   D(2,3,6,24)           -56.6733         estimate D2E/DX2                !
 ! D29   D(2,3,6,25)          -177.2812         estimate D2E/DX2                !
 ! D30   D(4,3,6,23)           -55.4918         estimate D2E/DX2                !
 ! D31   D(4,3,6,24)          -174.7645         estimate D2E/DX2                !
 ! D32   D(4,3,6,25)            64.6276         estimate D2E/DX2                !
 ! D33   D(5,3,6,23)          -176.2751         estimate D2E/DX2                !
 ! D34   D(5,3,6,24)            64.4523         estimate D2E/DX2                !
 ! D35   D(5,3,6,25)           -56.1556         estimate D2E/DX2                !
 ! D36   D(2,7,8,9)            144.858          estimate D2E/DX2                !
 ! D37   D(2,7,8,13)           -38.067          estimate D2E/DX2                !
 ! D38   D(7,8,9,10)          -179.8558         estimate D2E/DX2                !
 ! D39   D(7,8,9,26)            -0.0589         estimate D2E/DX2                !
 ! D40   D(13,8,9,10)            3.0077         estimate D2E/DX2                !
 ! D41   D(13,8,9,26)         -177.1954         estimate D2E/DX2                !
 ! D42   D(7,8,13,12)          179.5654         estimate D2E/DX2                !
 ! D43   D(7,8,13,29)            0.4686         estimate D2E/DX2                !
 ! D44   D(9,8,13,12)           -3.4689         estimate D2E/DX2                !
 ! D45   D(9,8,13,29)          177.4343         estimate D2E/DX2                !
 ! D46   D(8,9,10,11)           -0.3298         estimate D2E/DX2                !
 ! D47   D(8,9,10,27)         -179.4438         estimate D2E/DX2                !
 ! D48   D(26,9,10,11)         179.8722         estimate D2E/DX2                !
 ! D49   D(26,9,10,27)           0.7582         estimate D2E/DX2                !
 ! D50   D(9,10,11,12)          -1.855          estimate D2E/DX2                !
 ! D51   D(9,10,11,14)         178.2412         estimate D2E/DX2                !
 ! D52   D(27,10,11,12)        177.2387         estimate D2E/DX2                !
 ! D53   D(27,10,11,14)         -2.6651         estimate D2E/DX2                !
 ! D54   D(10,11,12,13)          1.4003         estimate D2E/DX2                !
 ! D55   D(10,11,12,28)       -179.4274         estimate D2E/DX2                !
 ! D56   D(14,11,12,13)       -178.692          estimate D2E/DX2                !
 ! D57   D(14,11,12,28)          0.4803         estimate D2E/DX2                !
 ! D58   D(10,11,14,15)        152.27           estimate D2E/DX2                !
 ! D59   D(10,11,14,16)        -28.9911         estimate D2E/DX2                !
 ! D60   D(12,11,14,15)        -27.6356         estimate D2E/DX2                !
 ! D61   D(12,11,14,16)        151.1033         estimate D2E/DX2                !
 ! D62   D(11,12,13,8)           1.2498         estimate D2E/DX2                !
 ! D63   D(11,12,13,29)       -179.629          estimate D2E/DX2                !
 ! D64   D(28,12,13,8)        -177.9323         estimate D2E/DX2                !
 ! D65   D(28,12,13,29)          1.1888         estimate D2E/DX2                !
 ! D66   D(11,14,16,30)        -47.0162         estimate D2E/DX2                !
 ! D67   D(11,14,16,31)       -164.9432         estimate D2E/DX2                !
 ! D68   D(11,14,16,32)         75.6089         estimate D2E/DX2                !
 ! D69   D(15,14,16,30)        131.6961         estimate D2E/DX2                !
 ! D70   D(15,14,16,31)         13.7691         estimate D2E/DX2                !
 ! D71   D(15,14,16,32)       -105.6788         estimate D2E/DX2                !
 --------------------------------------------------------------------------------
 Trust Radius=3.00D-01 FncErr=1.00D-07 GrdErr=1.00D-06
 Number of steps in this run= 168 maximum allowed number of steps= 192.
 GradGradGradGradGradGradGradGradGradGradGradGradGradGradGradGradGradGrad

 Leave Link  103 at Wed Sep 29 02:27:16 2021, MaxMem= 1342177280 cpu:       0.0
 (Enter /sw/target/amd/app/gaussian/Gaussian09RevA.02_gcc-4.9.2/g09/l202.exe)
                          Input orientation:                          
 ---------------------------------------------------------------------
 Center     Atomic      Atomic             Coordinates (Angstroms)
 Number     Number       Type             X           Y           Z
 ---------------------------------------------------------------------
      1          8           0        3.828101   -2.549807   -0.317506
      2          6           0        3.426240   -2.264405    0.801308
      3          6           0        1.942619   -2.242418    1.186342
      4          6           0        1.555020   -3.624332    1.721388
      5          6           0        1.648656   -1.161606    2.233785
      6          6           0        1.130174   -1.935157   -0.084050
      7          8           0        4.230115   -1.952877    1.903416
      8          6           0        5.632481   -1.931050    1.768628
      9          6           0        6.321625   -0.972486    2.516296
     10          6           0        7.715789   -0.895441    2.425773
     11          6           0        8.410462   -1.782660    1.593105
     12          6           0        7.712376   -2.766775    0.885627
     13          6           0        6.324590   -2.849422    0.983449
     14          6           0        9.886701   -1.720768    1.429568
     15          8           0       10.513910   -2.738254    1.145851
     16          6           0       10.566082   -0.388483    1.591940
     17          1           0        2.137543   -3.885741    2.611738
     18          1           0        1.737992   -4.406077    0.974718
     19          1           0        0.493196   -3.660613    1.989731
     20          1           0        2.140577   -1.380163    3.188550
     21          1           0        0.574231   -1.082646    2.431744
     22          1           0        2.005104   -0.181051    1.897726
     23          1           0        1.258346   -2.719793   -0.839620
     24          1           0        1.454284   -0.991994   -0.539941
     25          1           0        0.059646   -1.857888    0.133516
     26          1           0        5.781429   -0.286269    3.163415
     27          1           0        8.241194   -0.152029    3.018866
     28          1           0        8.243668   -3.466768    0.243364
     29          1           0        5.806438   -3.626203    0.429070
     30          1           0       10.030067    0.379328    1.026673
     31          1           0       11.580068   -0.453127    1.185008
     32          1           0       10.627097   -0.119907    2.648629
 ---------------------------------------------------------------------
                    Distance matrix (angstroms):
                    1          2          3          4          5
     1  O    0.000000
     2  C    1.222576   0.000000
     3  C    2.431273   1.532926   0.000000
     4  C    3.237066   2.489460   1.531729   0.000000
     5  C    3.631276   2.535342   1.533527   2.517209   0.000000
     6  C    2.776888   2.482777   1.538952   2.508668   2.497912
     7  O    2.334617   1.399253   2.414677   3.159594   2.720144
     8  C    2.826765   2.431941   3.748478   4.415328   4.084027
     9  C    4.090969   3.604649   4.749441   5.512231   4.685319
    10  C    5.037522   4.786772   6.056404   6.774812   6.076003
    11  C    5.023642   5.069665   6.496909   7.099669   6.820425
    12  C    4.072124   4.316301   5.801334   6.272714   6.415824
    13  C    2.831026   2.962407   4.428463   4.888132   5.126053
    14  C    6.359733   6.513663   7.964904   8.551352   8.296071
    15  O    6.846675   7.111843   8.585715   9.020980   9.069848
    16  C    7.329235   7.424387   8.829818   9.575318   8.973860
    17  H    3.636369   2.750841   2.184092   1.095623   2.793344
    18  H    3.079632   2.732583   2.183592   1.096412   3.481353
    19  H    4.204620   3.458972   2.181178   1.095808   2.763998
    20  H    4.063033   2.851971   2.188952   2.744401   1.096052
    21  H    4.505398   3.491251   2.183710   2.815444   1.095360
    22  H    3.720427   2.749931   2.181561   3.477047   1.096119
    23  H    2.627764   2.756771   2.191036   2.732210   3.467868
    24  H    2.848029   2.703070   2.186798   3.471738   2.785696
    25  H    3.857905   3.456176   2.191323   2.806743   2.724131
    26  H    4.588671   3.878077   4.740442   5.575360   4.325533
    27  H    6.029603   5.706443   6.884760   7.644950   6.715442
    28  H    4.544516   4.996459   6.487793   6.851817   7.264278
    29  H    2.372724   2.767381   4.173417   4.443494   5.159300
    30  H    6.989351   7.116927   8.503285   9.398848   8.606953
    31  H    8.169859   8.361392   9.802141  10.528335  10.011734
    32  H    7.805685   7.737171   9.058890   9.769512   9.048184
                    6          7          8          9         10
     6  C    0.000000
     7  O    3.682387   0.000000
     8  C    4.868594   1.408998   0.000000
     9  C    5.885550   2.389812   1.397416   0.000000
    10  C    7.123943   3.679803   2.417540   1.399223   0.000000
    11  C    7.472530   4.195303   2.787473   2.423201   1.401094
    12  C    6.705017   3.718127   2.409168   2.795128   2.423623
    13  C    5.381208   2.457022   1.392454   2.423327   2.798888
    14  C    8.888969   5.681141   4.272887   3.801403   2.527141
    15  O    9.498006   6.377836   4.986760   4.750927   3.586591
    16  C    9.707600   6.533668   5.172151   4.383025   3.012715
    17  H    3.476614   2.935395   4.092218   5.099285   6.331928
    18  H    2.756062   3.618197   4.682210   5.930910   7.082668
    19  H    2.771914   4.109547   5.427018   6.440022   7.746106
    20  H    3.469705   2.519075   3.809599   4.254326   5.647989
    21  H    2.713867   3.794987   5.171597   5.749072   7.144015
    22  H    2.787442   2.844306   4.029519   4.431856   5.779370
    23  H    1.096799   4.116288   5.153458   6.320763   7.462549
    24  H    1.096559   3.820802   4.865044   5.747345   6.929014
    25  H    1.095142   4.531488   5.808221   6.758251   8.049676
    26  H    5.907540   2.602259   2.161694   1.086954   2.157999
    27  H    7.960795   4.536082   3.396086   2.147202   1.086495
    28  H    7.283875   4.599592   3.391631   3.883544   3.413691
    29  H    4.999037   2.731027   2.167538   3.415281   3.884522
    30  H    9.262756   6.312472   5.022660   4.218877   2.989716
    31  H   10.630485   7.535726   6.156188   5.449154   4.082620
    32  H   10.047598   6.696006   5.385242   4.391070   3.021065
                   11         12         13         14         15
    11  C    0.000000
    12  C    1.398689   0.000000
    13  C    2.420852   1.393682   0.000000
    14  C    1.486558   2.473396   3.763179   0.000000
    15  O    2.353229   2.813738   4.193940   1.228481   0.000000
    16  C    2.567182   3.781373   4.941329   1.504296   2.392309
    17  H    6.694033   5.942248   4.610493   8.132286   8.580738
    18  H    7.196289   6.195846   4.843566   8.591811   8.934632
    19  H    8.146602   7.357619   5.972921   9.608054  10.098395
    20  H    6.482199   6.186363   4.952490   7.950626   8.725235
    21  H    7.912008   7.495325   6.187543   9.387953  10.158336
    22  H    6.609581   6.346910   5.158882   8.044219   8.916523
    23  H    7.612433   6.680808   5.385835   8.977515   9.466145
    24  H    7.318706   6.659265   5.430528   8.689979   9.379133
    25  H    8.477747   7.743128   6.399613   9.913100  10.539995
    26  H    3.408354   3.881982   3.408376   4.681588   5.699050
    27  H    2.172650   3.415736   3.884871   2.773897   3.919437
    28  H    2.164680   1.088469   2.147488   2.674911   2.549355
    29  H    3.396259   2.140015   1.085913   4.613050   4.843813
    30  H    2.760101   3.910185   4.915003   2.143195   3.157155
    31  H    3.461300   4.516817   5.779524   2.129370   2.521910
    32  H    2.965190   4.313894   5.360471   2.144074   3.021076
                   16         17         18         19         20
    16  C    0.000000
    17  H    9.182106   0.000000
    18  H    9.718909   1.763583   0.000000
    19  H   10.598495   1.772414   1.770730   0.000000
    20  H    8.632596   2.571117   3.770846   3.058020   0.000000
    21  H   10.051081   3.214606   3.810835   2.616841   1.764855
    22  H    8.568948   3.775193   4.332913   3.794955   1.767045
    23  H    9.898557   3.747572   2.522981   3.078283   4.335793
    24  H    9.377313   4.332863   3.745750   3.800587   3.810948
    25  H   10.708471   3.817254   3.165080   2.623608   3.727161
    26  H    5.037150   5.151548   6.173539   6.381938   3.801715
    27  H    2.738089   7.166654   8.035366   8.567424   6.225322
    28  H    4.085107   6.562736   6.613698   7.947150   7.090540
    29  H    5.872760   4.276937   4.178299   5.537814   5.108616
    30  H    1.093788   9.110170   9.573991  10.401948   8.367412
    31  H    1.094505  10.147890  10.608321  11.569541   9.694202
    32  H    1.091992   9.287379  10.009466  10.754845   8.596556
                   21         22         23         24         25
    21  H    0.000000
    22  H    1.773540   0.000000
    23  H    3.721571   3.807351   0.000000
    24  H    3.100584   2.627404   1.764509   0.000000
    25  H    2.479445   3.115931   1.768264   1.774354   0.000000
    26  H    5.318314   3.984177   6.511882   5.739083   6.662512
    27  H    7.745521   6.336136   8.381021   7.709268   8.841546
    28  H    8.324261   7.242412   7.108133   7.268688   8.341390
    29  H    6.152754   5.336306   4.807941   5.178734   6.019959
    30  H    9.670804   8.091526   9.488451   8.824900  10.257298
    31  H   11.094102   9.605307  10.759872  10.285783  11.653287
    32  H   10.101190   8.654846  10.329608   9.750283  11.000791
                   26         27         28         29         30
    26  H    0.000000
    27  H    2.467663   0.000000
    28  H    4.970402   4.323299   0.000000
    29  H    4.316530   4.970410   2.449490   0.000000
    30  H    4.802043   2.729696   4.312453   5.851535   0.000000
    31  H    6.129123   3.821227   4.593505   6.631339   1.766509
    32  H    4.875775   2.414672   4.761041   6.360764   1.799006
                   31         32
    31  H    0.000000
    32  H    1.778026   0.000000
 Stoichiometry    C13H16O3
 Framework group  C1[X(C13H16O3)]
 Deg. of freedom    90
 Full point group                 C1      NOp   1
 Largest Abelian subgroup         C1      NOp   1
 Largest concise Abelian subgroup C1      NOp   1
                         Standard orientation:                         
 ---------------------------------------------------------------------
 Center     Atomic      Atomic             Coordinates (Angstroms)
 Number     Number       Type             X           Y           Z
 ---------------------------------------------------------------------
      1          8           0        1.853302   -1.346599    0.908510
      2          6           0        2.164433   -0.354832    0.264858
      3          6           0        3.616039    0.072239    0.019271
      4          6           0        4.099429   -0.564416   -1.287327
      5          6           0        3.750350    1.598405   -0.047695
      6          6           0        4.465778   -0.448907    1.191758
      7          8           0        1.275359    0.517627   -0.372536
      8          6           0       -0.113386    0.296548   -0.284304
      9          6           0       -0.928543    1.430084   -0.226124
     10          6           0       -2.316691    1.280166   -0.134505
     11          6           0       -2.879174   -0.002805   -0.108772
     12          6           0       -2.054994   -1.127981   -0.213820
     13          6           0       -0.673073   -0.978109   -0.314744
     14          6           0       -4.343471   -0.220777    0.026056
     15          8           0       -4.857273   -1.232333   -0.445033
     16          6           0       -5.151015    0.807050    0.770604
     17          1           0        3.495103   -0.234897   -2.139734
     18          1           0        4.031153   -1.657940   -1.246524
     19          1           0        5.143548   -0.302286   -1.492015
     20          1           0        3.228568    2.011866   -0.918398
     21          1           0        4.800250    1.901428   -0.123203
     22          1           0        3.323992    2.070217    0.845104
     23          1           0        4.452744   -1.544636    1.238403
     24          1           0        4.081666   -0.080416    2.150462
     25          1           0        5.510871   -0.134650    1.100337
     26          1           0       -0.490777    2.424740   -0.248294
     27          1           0       -2.940612    2.168955   -0.099147
     28          1           0       -2.482903   -2.128763   -0.204219
     29          1           0       -0.055425   -1.867052   -0.401341
     30          1           0       -4.657744    1.064009    1.712426
     31          1           0       -6.130566    0.383543    1.013631
     32          1           0       -5.295068    1.696328    0.153447
 ---------------------------------------------------------------------
 Rotational constants (GHZ):      1.6547927      0.2092646      0.1987382
 Leave Link  202 at Wed Sep 29 02:27:16 2021, MaxMem= 1342177280 cpu:       0.1
 (Enter /sw/target/amd/app/gaussian/Gaussian09RevA.02_gcc-4.9.2/g09/l301.exe)
 Standard basis: 6-31G(d) (6D, 7F)
 Ernie: Thresh=  0.10000D-02 Tol=  0.10000D-05 Strict=F.
 There are   272 symmetry adapted basis functions of A   symmetry.
 Integral buffers will be    131072 words long.
 Raffenetti 2 integral format.
 Two-electron integral symmetry is turned on.
   272 basis functions,   512 primitive gaussians,   272 cartesian basis functions
    59 alpha electrons       59 beta electrons
       nuclear repulsion energy      1056.7045012365 Hartrees.
 IExCor=  402 DFT=T Ex+Corr=B3LYP ExCW=0 ScaHFX=  0.200000
 ScaDFX=  0.800000  0.720000  1.000000  0.810000 ScalE2=  1.000000  1.000000
 IRadAn=      0 IRanWt=     -1 IRanGd=            0 ICorTp=0
 NAtoms=   32 NActive=   32 NUniq=   32 SFac= 7.50D-01 NAtFMM=   80 NAOKFM=F Big=F
 Leave Link  301 at Wed Sep 29 02:27:17 2021, MaxMem= 1342177280 cpu:       0.1
 (Enter /sw/target/amd/app/gaussian/Gaussian09RevA.02_gcc-4.9.2/g09/l302.exe)
 NPDir=0 NMtPBC=     1 NCelOv=     1 NCel=       1 NClECP=     1 NCelD=      1
         NCelK=      1 NCelE2=     1 NClLst=     1 CellRange=     0.0.
 One-electron integrals computed using PRISM.
 NBasis=   272 RedAO= T  NBF=   272
 NBsUse=   272 1.00D-06 NBFU=   272
 Precomputing XC quadrature grid using
 IXCGrd= 2 IRadAn=           0 IRanWt=          -1 IRanGd=           0 AccXCQ= 1.00D-10.
 NRdTot=    2036 NPtTot=      259716 NUsed=      274397 NTot=      274429
 NSgBfM=   270   270   270   270   270 NAtAll=    32    32.
 Leave Link  302 at Wed Sep 29 02:27:20 2021, MaxMem= 1342177280 cpu:       3.0
 (Enter /sw/target/amd/app/gaussian/Gaussian09RevA.02_gcc-4.9.2/g09/l303.exe)
 DipDrv:  MaxL=1.
 Leave Link  303 at Wed Sep 29 02:27:21 2021, MaxMem= 1342177280 cpu:       0.2
 (Enter /sw/target/amd/app/gaussian/Gaussian09RevA.02_gcc-4.9.2/g09/l401.exe)
 Harris functional with IExCor=  402 diagonalized for initial guess.
 ExpMin= 1.61D-01 ExpMax= 5.48D+03 ExpMxC= 8.25D+02 IAcc=1 IRadAn=         1 AccDes= 0.00D+00
 HarFok:  IExCor=  402 AccDes= 0.00D+00 IRadAn=         1 IDoV= 1
 ScaDFX=  1.000000  1.000000  1.000000  1.000000
 FoFCou: FMM=F IPFlag=           0 FMFlag=      100000 FMFlg1=           0
         NFxFlg=           0 DoJE=T BraDBF=F KetDBF=T FulRan=T
         Omega=  0.000000  0.000000  1.000000  0.000000  0.000000 ICntrl=     500 IOpCl=  0
         NMat0=    1 NMatS0=    1 NMatT0=    0 NMatD0=    1 NMtDS0=    0 NMtDT0=    0
         I1Cent=           4 NGrid=           0.
 Petite list used in FoFCou.
 Harris En= -730.839042166406    
 Initial guess orbital symmetries:
       Occupied  (A) (A) (A) (A) (A) (A) (A) (A) (A) (A) (A) (A)
                 (A) (A) (A) (A) (A) (A) (A) (A) (A) (A) (A) (A)
                 (A) (A) (A) (A) (A) (A) (A) (A) (A) (A) (A) (A)
                 (A) (A) (A) (A) (A) (A) (A) (A) (A) (A) (A) (A)
                 (A) (A) (A) (A) (A) (A) (A) (A) (A) (A) (A)
       Virtual   (A) (A) (A) (A) (A) (A) (A) (A) (A) (A) (A) (A)
                 (A) (A) (A) (A) (A) (A) (A) (A) (A) (A) (A) (A)
                 (A) (A) (A) (A) (A) (A) (A) (A) (A) (A) (A) (A)
                 (A) (A) (A) (A) (A) (A) (A) (A) (A) (A) (A) (A)
                 (A) (A) (A) (A) (A) (A) (A) (A) (A) (A) (A) (A)
                 (A) (A) (A) (A) (A) (A) (A) (A) (A) (A) (A) (A)
                 (A) (A) (A) (A) (A) (A) (A) (A) (A) (A) (A) (A)
                 (A) (A) (A) (A) (A) (A) (A) (A) (A) (A) (A) (A)
                 (A) (A) (A) (A) (A) (A) (A) (A) (A) (A) (A) (A)
                 (A) (A) (A) (A) (A) (A) (A) (A) (A) (A) (A) (A)
                 (A) (A) (A) (A) (A) (A) (A) (A) (A) (A) (A) (A)
                 (A) (A) (A) (A) (A) (A) (A) (A) (A) (A) (A) (A)
                 (A) (A) (A) (A) (A) (A) (A) (A) (A) (A) (A) (A)
                 (A) (A) (A) (A) (A) (A) (A) (A) (A) (A) (A) (A)
                 (A) (A) (A) (A) (A) (A) (A) (A) (A) (A) (A) (A)
                 (A) (A) (A) (A) (A) (A) (A) (A) (A) (A) (A) (A)
                 (A) (A) (A) (A) (A) (A) (A) (A) (A) (A) (A) (A)
                 (A) (A) (A) (A) (A) (A) (A) (A) (A)
 The electronic state of the initial guess is 1-A.
 Leave Link  401 at Wed Sep 29 02:27:31 2021, MaxMem= 1342177280 cpu:      11.8
 (Enter /sw/target/amd/app/gaussian/Gaussian09RevA.02_gcc-4.9.2/g09/l502.exe)
 Closed shell SCF:
 Requested convergence on RMS density matrix=1.00D-08 within  64 cycles.
 Requested convergence on MAX density matrix=1.00D-06.
 Requested convergence on             energy=1.00D-06.
 No special actions if energy rises.
 Using DIIS extrapolation, IDIIS=  1040.
 Integral symmetry usage will be decided dynamically.
       274096 words used for storage of precomputed grid.
 Keep R1 ints in memory in canonical form, NReq=699941124.
 IEnd=      505282 IEndB=      505282 NGot=  1342177280 MDV=   652487695
 LenX=   652487695 LenY=   652413270
 Symmetry not used in FoFDir.
 MinBra= 0 MaxBra= 2 Meth= 1.
 IRaf=       0 NMat=   1 IRICut=       1 DoRegI=T DoRafI=F ISym2E= 0 JSym2E=0.
 Integral accuracy reduced to 1.0D-05 until final iterations.

 Cycle   1  Pass 0  IDiag  1:
 E= -730.203585553039    
 DIIS: error= 5.14D-02 at cycle   1 NSaved=   1.
 NSaved= 1 IEnMin= 1 EnMin= -730.203585553039     IErMin= 1 ErrMin= 5.14D-02
 ErrMax= 5.14D-02 EMaxC= 1.00D-01 BMatC= 5.25D-01 BMatP= 5.25D-01
 IDIUse=3 WtCom= 4.86D-01 WtEn= 5.14D-01
 Coeff-Com:  0.100D+01
 Coeff-En:   0.100D+01
 Coeff:      0.100D+01
 Gap=     0.199 Goal=   None    Shift=    0.000
 GapD=    0.199 DampG=1.000 DampE=0.500 DampFc=0.5000 IDamp=-1.
 Damping current iteration by 5.00D-01
 RMSDP=6.02D-03 MaxDP=1.94D-01              OVMax= 2.23D-01

 Cycle   2  Pass 0  IDiag  1:
 E= -730.358686564329     Delta-E=       -0.155101011290 Rises=F Damp=T
 DIIS: error= 1.24D-02 at cycle   2 NSaved=   2.
 NSaved= 2 IEnMin= 2 EnMin= -730.358686564329     IErMin= 2 ErrMin= 1.24D-02
 ErrMax= 1.24D-02 EMaxC= 1.00D-01 BMatC= 7.95D-02 BMatP= 5.25D-01
 IDIUse=3 WtCom= 8.76D-01 WtEn= 1.24D-01
 Coeff-Com:  0.211D+00 0.789D+00
 Coeff-En:   0.311D+00 0.689D+00
 Coeff:      0.223D+00 0.777D+00
 Gap=     0.209 Goal=   None    Shift=    0.000
 RMSDP=1.88D-03 MaxDP=6.72D-02 DE=-1.55D-01 OVMax= 1.93D-01

 Cycle   3  Pass 0  IDiag  1:
 E= -730.626037680064     Delta-E=       -0.267351115735 Rises=F Damp=F
 DIIS: error= 1.62D-02 at cycle   3 NSaved=   3.
 NSaved= 3 IEnMin= 3 EnMin= -730.626037680064     IErMin= 2 ErrMin= 1.24D-02
 ErrMax= 1.62D-02 EMaxC= 1.00D-01 BMatC= 9.39D-02 BMatP= 7.95D-02
 IDIUse=2 WtCom= 0.00D+00 WtEn= 1.00D+00
 Coeff-En:   0.000D+00 0.000D+00 0.100D+01
 Coeff:      0.000D+00 0.000D+00 0.100D+01
 Gap=     0.231 Goal=   None    Shift=    0.000
 RMSDP=3.31D-03 MaxDP=1.49D-01 DE=-2.67D-01 OVMax= 3.02D-01

 Cycle   4  Pass 0  IDiag  1:
 E= -730.233273157178     Delta-E=        0.392764522886 Rises=F Damp=F
 DIIS: error= 4.32D-02 at cycle   4 NSaved=   4.
 NSaved= 4 IEnMin= 3 EnMin= -730.626037680064     IErMin= 2 ErrMin= 1.24D-02
 ErrMax= 4.32D-02 EMaxC= 1.00D-01 BMatC= 5.90D-01 BMatP= 7.95D-02
 IDIUse=2 WtCom= 0.00D+00 WtEn= 1.00D+00
 Coeff-En:   0.000D+00 0.000D+00 0.800D+00 0.200D+00
 Coeff:      0.000D+00 0.000D+00 0.800D+00 0.200D+00
 Gap=     0.177 Goal=   None    Shift=    0.000
 RMSDP=1.78D-03 MaxDP=8.08D-02 DE= 3.93D-01 OVMax= 1.53D-01

 Cycle   5  Pass 0  IDiag  1:
 E= -730.672662828875     Delta-E=       -0.439389671697 Rises=F Damp=F
 DIIS: error= 1.04D-02 at cycle   5 NSaved=   5.
 NSaved= 5 IEnMin= 5 EnMin= -730.672662828875     IErMin= 5 ErrMin= 1.04D-02
 ErrMax= 1.04D-02 EMaxC= 1.00D-01 BMatC= 4.14D-02 BMatP= 7.95D-02
 IDIUse=3 WtCom= 8.96D-01 WtEn= 1.04D-01
 Coeff-Com: -0.382D-02 0.459D-01 0.336D+00-0.621D-01 0.684D+00
 Coeff-En:   0.000D+00 0.000D+00 0.342D+00 0.000D+00 0.658D+00
 Coeff:     -0.342D-02 0.411D-01 0.337D+00-0.556D-01 0.681D+00
 Gap=     0.196 Goal=   None    Shift=    0.000
 RMSDP=6.76D-04 MaxDP=2.51D-02 DE=-4.39D-01 OVMax= 4.78D-02

 Cycle   6  Pass 0  IDiag  1:
 E= -730.706622618222     Delta-E=       -0.033959789347 Rises=F Damp=F
 DIIS: error= 1.16D-03 at cycle   6 NSaved=   6.
 NSaved= 6 IEnMin= 6 EnMin= -730.706622618222     IErMin= 6 ErrMin= 1.16D-03
 ErrMax= 1.16D-03 EMaxC= 1.00D-01 BMatC= 5.93D-04 BMatP= 4.14D-02
 IDIUse=3 WtCom= 9.88D-01 WtEn= 1.16D-02
 Coeff-Com: -0.820D-02 0.278D-01 0.168D+00-0.643D-01 0.465D+00 0.411D+00
 Coeff-En:   0.000D+00 0.000D+00 0.000D+00 0.000D+00 0.000D+00 0.100D+01
 Coeff:     -0.811D-02 0.275D-01 0.166D+00-0.635D-01 0.460D+00 0.418D+00
 Gap=     0.191 Goal=   None    Shift=    0.000
 RMSDP=8.49D-05 MaxDP=4.69D-03 DE=-3.40D-02 OVMax= 5.42D-03

 Cycle   7  Pass 0  IDiag  1:
 E= -730.707083001025     Delta-E=       -0.000460382803 Rises=F Damp=F
 DIIS: error= 2.33D-04 at cycle   7 NSaved=   7.
 NSaved= 7 IEnMin= 7 EnMin= -730.707083001025     IErMin= 7 ErrMin= 2.33D-04
 ErrMax= 2.33D-04 EMaxC= 1.00D-01 BMatC= 1.55D-05 BMatP= 5.93D-04
 IDIUse=3 WtCom= 9.98D-01 WtEn= 2.33D-03
 Coeff-Com: -0.210D-02 0.534D-02 0.456D-01-0.190D-01 0.127D+00 0.167D+00
 Coeff-Com:  0.676D+00
 Coeff-En:   0.000D+00 0.000D+00 0.000D+00 0.000D+00 0.000D+00 0.000D+00
 Coeff-En:   0.100D+01
 Coeff:     -0.209D-02 0.532D-02 0.455D-01-0.189D-01 0.127D+00 0.166D+00
 Coeff:      0.677D+00
 Gap=     0.191 Goal=   None    Shift=    0.000
 RMSDP=1.87D-05 MaxDP=9.12D-04 DE=-4.60D-04 OVMax= 1.18D-03

 Cycle   8  Pass 0  IDiag  1:
 E= -730.707091640475     Delta-E=       -0.000008639450 Rises=F Damp=F
 DIIS: error= 1.01D-04 at cycle   8 NSaved=   8.
 NSaved= 8 IEnMin= 8 EnMin= -730.707091640475     IErMin= 8 ErrMin= 1.01D-04
 ErrMax= 1.01D-04 EMaxC= 1.00D-01 BMatC= 4.70D-06 BMatP= 1.55D-05
 IDIUse=3 WtCom= 9.99D-01 WtEn= 1.01D-03
 Coeff-Com: -0.455D-03 0.510D-03 0.135D-01-0.597D-02 0.363D-01 0.692D-01
 Coeff-Com:  0.467D+00 0.419D+00
 Coeff-En:   0.000D+00 0.000D+00 0.000D+00 0.000D+00 0.000D+00 0.000D+00
 Coeff-En:   0.204D+00 0.796D+00
 Coeff:     -0.455D-03 0.509D-03 0.135D-01-0.597D-02 0.362D-01 0.692D-01
 Coeff:      0.467D+00 0.420D+00
 Gap=     0.191 Goal=   None    Shift=    0.000
 RMSDP=8.19D-06 MaxDP=3.14D-04 DE=-8.64D-06 OVMax= 6.41D-04

 Initial convergence to 1.0D-05 achieved.  Increase integral accuracy.
 Cycle   9  Pass 1  IDiag  1:
 E= -730.707057180818     Delta-E=        0.000034459658 Rises=F Damp=F
 DIIS: error= 4.47D-05 at cycle   1 NSaved=   1.
 NSaved= 1 IEnMin= 1 EnMin= -730.707057180818     IErMin= 1 ErrMin= 4.47D-05
 ErrMax= 4.47D-05 EMaxC= 1.00D-01 BMatC= 2.72D-07 BMatP= 2.72D-07
 IDIUse=1 WtCom= 1.00D+00 WtEn= 0.00D+00
 Coeff-Com:  0.100D+01
 Coeff:      0.100D+01
 Gap=     0.191 Goal=   None    Shift=    0.000
 RMSDP=8.19D-06 MaxDP=3.14D-04 DE= 3.45D-05 OVMax= 2.70D-04

 Cycle  10  Pass 1  IDiag  1:
 E= -730.707056956888     Delta-E=        0.000000223930 Rises=F Damp=F
 DIIS: error= 4.01D-05 at cycle   2 NSaved=   2.
 NSaved= 2 IEnMin= 1 EnMin= -730.707057180818     IErMin= 2 ErrMin= 4.01D-05
 ErrMax= 4.01D-05 EMaxC= 1.00D-01 BMatC= 5.89D-07 BMatP= 2.72D-07
 IDIUse=1 WtCom= 1.00D+00 WtEn= 0.00D+00
 Coeff-Com:  0.612D+00 0.388D+00
 Coeff:      0.612D+00 0.388D+00
 Gap=     0.191 Goal=   None    Shift=    0.000
 RMSDP=3.31D-06 MaxDP=1.46D-04 DE= 2.24D-07 OVMax= 2.08D-04

 Cycle  11  Pass 1  IDiag  1:
 E= -730.707057450695     Delta-E=       -0.000000493807 Rises=F Damp=F
 DIIS: error= 1.25D-05 at cycle   3 NSaved=   3.
 NSaved= 3 IEnMin= 3 EnMin= -730.707057450695     IErMin= 3 ErrMin= 1.25D-05
 ErrMax= 1.25D-05 EMaxC= 1.00D-01 BMatC= 4.60D-08 BMatP= 2.72D-07
 IDIUse=1 WtCom= 1.00D+00 WtEn= 0.00D+00
 Coeff-Com:  0.108D+00 0.220D+00 0.672D+00
 Coeff:      0.108D+00 0.220D+00 0.672D+00
 Gap=     0.191 Goal=   None    Shift=    0.000
 RMSDP=9.56D-07 MaxDP=5.43D-05 DE=-4.94D-07 OVMax= 6.68D-05

 Cycle  12  Pass 1  IDiag  1:
 E= -730.707057481540     Delta-E=       -0.000000030845 Rises=F Damp=F
 DIIS: error= 3.51D-06 at cycle   4 NSaved=   4.
 NSaved= 4 IEnMin= 4 EnMin= -730.707057481540     IErMin= 4 ErrMin= 3.51D-06
 ErrMax= 3.51D-06 EMaxC= 1.00D-01 BMatC= 9.25D-09 BMatP= 4.60D-08
 IDIUse=1 WtCom= 1.00D+00 WtEn= 0.00D+00
 Coeff-Com: -0.871D-02 0.895D-01 0.412D+00 0.507D+00
 Coeff:     -0.871D-02 0.895D-01 0.412D+00 0.507D+00
 Gap=     0.191 Goal=   None    Shift=    0.000
 RMSDP=3.58D-07 MaxDP=1.64D-05 DE=-3.08D-08 OVMax= 1.90D-05

 Cycle  13  Pass 1  IDiag  1:
 E= -730.707057488893     Delta-E=       -0.000000007353 Rises=F Damp=F
 DIIS: error= 7.88D-07 at cycle   5 NSaved=   5.
 NSaved= 5 IEnMin= 5 EnMin= -730.707057488893     IErMin= 5 ErrMin= 7.88D-07
 ErrMax= 7.88D-07 EMaxC= 1.00D-01 BMatC= 4.14D-10 BMatP= 9.25D-09
 IDIUse=1 WtCom= 1.00D+00 WtEn= 0.00D+00
 Coeff-Com: -0.917D-02 0.416D-01 0.207D+00 0.292D+00 0.469D+00
 Coeff:     -0.917D-02 0.416D-01 0.207D+00 0.292D+00 0.469D+00
 Gap=     0.191 Goal=   None    Shift=    0.000
 RMSDP=8.62D-08 MaxDP=2.79D-06 DE=-7.35D-09 OVMax= 5.54D-06

 Cycle  14  Pass 1  IDiag  1:
 E= -730.707057489209     Delta-E=       -0.000000000315 Rises=F Damp=F
 DIIS: error= 2.67D-07 at cycle   6 NSaved=   6.
 NSaved= 6 IEnMin= 6 EnMin= -730.707057489209     IErMin= 6 ErrMin= 2.67D-07
 ErrMax= 2.67D-07 EMaxC= 1.00D-01 BMatC= 3.63D-11 BMatP= 4.14D-10
 IDIUse=1 WtCom= 1.00D+00 WtEn= 0.00D+00
 Coeff-Com: -0.448D-02 0.151D-01 0.787D-01 0.120D+00 0.273D+00 0.518D+00
 Coeff:     -0.448D-02 0.151D-01 0.787D-01 0.120D+00 0.273D+00 0.518D+00
 Gap=     0.191 Goal=   None    Shift=    0.000
 RMSDP=2.40D-08 MaxDP=1.05D-06 DE=-3.15D-10 OVMax= 1.42D-06

 Cycle  15  Pass 1  IDiag  1:
 E= -730.707057489256     Delta-E=       -0.000000000048 Rises=F Damp=F
 DIIS: error= 6.46D-08 at cycle   7 NSaved=   7.
 NSaved= 7 IEnMin= 7 EnMin= -730.707057489256     IErMin= 7 ErrMin= 6.46D-08
 ErrMax= 6.46D-08 EMaxC= 1.00D-01 BMatC= 2.49D-12 BMatP= 3.63D-11
 IDIUse=1 WtCom= 1.00D+00 WtEn= 0.00D+00
 Coeff-Com: -0.132D-02 0.351D-02 0.193D-01 0.327D-01 0.911D-01 0.263D+00
 Coeff-Com:  0.592D+00
 Coeff:     -0.132D-02 0.351D-02 0.193D-01 0.327D-01 0.911D-01 0.263D+00
 Coeff:      0.592D+00
 Gap=     0.191 Goal=   None    Shift=    0.000
 RMSDP=6.57D-09 MaxDP=3.47D-07 DE=-4.77D-11 OVMax= 5.40D-07

 SCF Done:  E(RB3LYP) =  -730.707057489     A.U. after   15 cycles
             Convg  =    0.6569D-08             -V/T =  2.0096
 KE= 7.237797594932D+02 PE=-3.813490756089D+03 EE= 1.302299437870D+03
 Leave Link  502 at Wed Sep 29 02:35:34 2021, MaxMem= 1342177280 cpu:     315.8
 (Enter /sw/target/amd/app/gaussian/Gaussian09RevA.02_gcc-4.9.2/g09/l508.exe)
 QCSCF skips out because SCF is already converged.
 Leave Link  508 at Wed Sep 29 02:35:37 2021, MaxMem= 1342177280 cpu:       0.0
 (Enter /sw/target/amd/app/gaussian/Gaussian09RevA.02_gcc-4.9.2/g09/l601.exe)
 Copying SCF densities to generalized density rwf, IOpCl= 0 IROHF=0.

 **********************************************************************

            Population analysis using the SCF density.

 **********************************************************************

 Orbital symmetries:
       Occupied  (A) (A) (A) (A) (A) (A) (A) (A) (A) (A) (A) (A)
                 (A) (A) (A) (A) (A) (A) (A) (A) (A) (A) (A) (A)
                 (A) (A) (A) (A) (A) (A) (A) (A) (A) (A) (A) (A)
                 (A) (A) (A) (A) (A) (A) (A) (A) (A) (A) (A) (A)
                 (A) (A) (A) (A) (A) (A) (A) (A) (A) (A) (A)
       Virtual   (A) (A) (A) (A) (A) (A) (A) (A) (A) (A) (A) (A)
                 (A) (A) (A) (A) (A) (A) (A) (A) (A) (A) (A) (A)
                 (A) (A) (A) (A) (A) (A) (A) (A) (A) (A) (A) (A)
                 (A) (A) (A) (A) (A) (A) (A) (A) (A) (A) (A) (A)
                 (A) (A) (A) (A) (A) (A) (A) (A) (A) (A) (A) (A)
                 (A) (A) (A) (A) (A) (A) (A) (A) (A) (A) (A) (A)
                 (A) (A) (A) (A) (A) (A) (A) (A) (A) (A) (A) (A)
                 (A) (A) (A) (A) (A) (A) (A) (A) (A) (A) (A) (A)
                 (A) (A) (A) (A) (A) (A) (A) (A) (A) (A) (A) (A)
                 (A) (A) (A) (A) (A) (A) (A) (A) (A) (A) (A) (A)
                 (A) (A) (A) (A) (A) (A) (A) (A) (A) (A) (A) (A)
                 (A) (A) (A) (A) (A) (A) (A) (A) (A) (A) (A) (A)
                 (A) (A) (A) (A) (A) (A) (A) (A) (A) (A) (A) (A)
                 (A) (A) (A) (A) (A) (A) (A) (A) (A) (A) (A) (A)
                 (A) (A) (A) (A) (A) (A) (A) (A) (A) (A) (A) (A)
                 (A) (A) (A) (A) (A) (A) (A) (A) (A) (A) (A) (A)
                 (A) (A) (A) (A) (A) (A) (A) (A) (A) (A) (A) (A)
                 (A) (A) (A) (A) (A) (A) (A) (A) (A)
 The electronic state is 1-A.
 Alpha  occ. eigenvalues --  -19.21417 -19.15312 -19.13302 -10.33034 -10.27402
 Alpha  occ. eigenvalues --  -10.26703 -10.22005 -10.21061 -10.20698 -10.20260
 Alpha  occ. eigenvalues --  -10.20188 -10.20027 -10.18998 -10.18919 -10.18357
 Alpha  occ. eigenvalues --  -10.17981  -1.10580  -1.02980  -1.02943  -0.86937
 Alpha  occ. eigenvalues --   -0.83151  -0.77943  -0.76230  -0.73754  -0.69847
 Alpha  occ. eigenvalues --   -0.69197  -0.67240  -0.62605  -0.61080  -0.56353
 Alpha  occ. eigenvalues --   -0.55834  -0.50207  -0.49356  -0.48205  -0.47658
 Alpha  occ. eigenvalues --   -0.46152  -0.45634  -0.44881  -0.44117  -0.43629
 Alpha  occ. eigenvalues --   -0.43222  -0.42555  -0.41597  -0.40694  -0.39521
 Alpha  occ. eigenvalues --   -0.38791  -0.38196  -0.37340  -0.37232  -0.36555
 Alpha  occ. eigenvalues --   -0.35956  -0.34943  -0.34123  -0.33654  -0.32724
 Alpha  occ. eigenvalues --   -0.28100  -0.26276  -0.25206  -0.24298
 Alpha virt. eigenvalues --   -0.05237  -0.01443  -0.00889   0.03724   0.07765
 Alpha virt. eigenvalues --    0.08111   0.11129   0.12055   0.13701   0.14324
 Alpha virt. eigenvalues --    0.14553   0.14706   0.14793   0.15392   0.15795
 Alpha virt. eigenvalues --    0.16270   0.17183   0.17995   0.18740   0.19131
 Alpha virt. eigenvalues --    0.20413   0.21285   0.21684   0.22299   0.22929
 Alpha virt. eigenvalues --    0.23567   0.25553   0.26820   0.29595   0.30647
 Alpha virt. eigenvalues --    0.32143   0.32825   0.34971   0.36767   0.39303
 Alpha virt. eigenvalues --    0.47993   0.48654   0.49572   0.49905   0.50223
 Alpha virt. eigenvalues --    0.51316   0.52074   0.53339   0.54806   0.55439
 Alpha virt. eigenvalues --    0.55656   0.57481   0.58048   0.58229   0.59001
 Alpha virt. eigenvalues --    0.59564   0.60027   0.61408   0.62195   0.63190
 Alpha virt. eigenvalues --    0.63917   0.67207   0.67686   0.68550   0.68991
 Alpha virt. eigenvalues --    0.69470   0.70202   0.71620   0.72569   0.75059
 Alpha virt. eigenvalues --    0.76017   0.78522   0.79251   0.81366   0.82509
 Alpha virt. eigenvalues --    0.83448   0.84022   0.84927   0.85632   0.86259
 Alpha virt. eigenvalues --    0.87388   0.87603   0.88003   0.89075   0.89500
 Alpha virt. eigenvalues --    0.90049   0.90610   0.92133   0.92591   0.93666
 Alpha virt. eigenvalues --    0.94235   0.94956   0.96783   0.97075   0.97884
 Alpha virt. eigenvalues --    0.98691   0.98938   1.00156   1.00854   1.01527
 Alpha virt. eigenvalues --    1.05411   1.07760   1.09680   1.11337   1.13284
 Alpha virt. eigenvalues --    1.14590   1.17305   1.20133   1.21754   1.22069
 Alpha virt. eigenvalues --    1.24791   1.25925   1.31240   1.34326   1.35424
 Alpha virt. eigenvalues --    1.38273   1.40722   1.43237   1.44380   1.46632
 Alpha virt. eigenvalues --    1.47081   1.47446   1.49611   1.50815   1.52893
 Alpha virt. eigenvalues --    1.53095   1.60163   1.61810   1.65069   1.66728
 Alpha virt. eigenvalues --    1.69424   1.71569   1.72313   1.76052   1.76534
 Alpha virt. eigenvalues --    1.77913   1.78907   1.80851   1.81843   1.83814
 Alpha virt. eigenvalues --    1.84822   1.85474   1.86305   1.87329   1.88871
 Alpha virt. eigenvalues --    1.91704   1.92777   1.93869   1.95220   1.96823
 Alpha virt. eigenvalues --    1.98372   1.98644   2.02061   2.03370   2.05084
 Alpha virt. eigenvalues --    2.05410   2.07510   2.09368   2.10478   2.13058
 Alpha virt. eigenvalues --    2.13860   2.14954   2.19493   2.20911   2.21694
 Alpha virt. eigenvalues --    2.24098   2.24300   2.25679   2.25873   2.27091
 Alpha virt. eigenvalues --    2.27967   2.29000   2.29947   2.33478   2.36025
 Alpha virt. eigenvalues --    2.39201   2.40600   2.44090   2.49458   2.51639
 Alpha virt. eigenvalues --    2.53383   2.53918   2.57893   2.59498   2.62518
 Alpha virt. eigenvalues --    2.63762   2.66323   2.68564   2.71825   2.72511
 Alpha virt. eigenvalues --    2.75008   2.77965   2.80876   2.82960   2.89348
 Alpha virt. eigenvalues --    2.96202   2.96399   2.98476   3.07077   3.11878
 Alpha virt. eigenvalues --    3.25575   3.42311   3.96400   4.06392   4.08022
 Alpha virt. eigenvalues --    4.11304   4.14086   4.16787   4.20292   4.28532
 Alpha virt. eigenvalues --    4.31078   4.31348   4.33494   4.37637   4.45915
 Alpha virt. eigenvalues --    4.53342   4.70067   4.78211
          Condensed to atoms (all electrons):
              1          2          3          4          5          6
     1  O    8.059753   0.527421  -0.076962  -0.002423   0.002576   0.000355
     2  C    0.527421   4.404829   0.358556  -0.039301  -0.043664  -0.047376
     3  C   -0.076962   0.358556   4.971244   0.373743   0.354542   0.370322
     4  C   -0.002423  -0.039301   0.373743   5.129773  -0.055157  -0.054649
     5  C    0.002576  -0.043664   0.354542  -0.055157   5.156038  -0.065993
     6  C    0.000355  -0.047376   0.370322  -0.054649  -0.065993   5.136128
     7  O   -0.065048   0.223364  -0.090751  -0.000694   0.000890   0.002809
     8  C   -0.002371  -0.007187   0.004087  -0.000026  -0.000222  -0.000070
     9  C    0.000198   0.000557  -0.000346   0.000001  -0.000017   0.000006
    10  C    0.000002  -0.000023   0.000003  -0.000000   0.000001  -0.000000
    11  C    0.000001   0.000026   0.000000   0.000000   0.000000  -0.000000
    12  C   -0.000036   0.000282   0.000004  -0.000001  -0.000000  -0.000000
    13  C   -0.001453  -0.003068   0.000149  -0.000021   0.000020   0.000006
    14  C    0.000000   0.000000   0.000000   0.000000  -0.000000  -0.000000
    15  O   -0.000000   0.000000  -0.000000   0.000000   0.000000  -0.000000
    16  C   -0.000000  -0.000000  -0.000000  -0.000000   0.000000   0.000000
    17  H   -0.000068  -0.004635  -0.031346   0.367317  -0.004693   0.005808
    18  H    0.002325  -0.002744  -0.031967   0.368278   0.005887  -0.005284
    19  H   -0.000048   0.004388  -0.029647   0.373103  -0.005377  -0.004686
    20  H    0.000002  -0.006891  -0.024113  -0.004442   0.365098   0.005552
    21  H   -0.000059   0.003858  -0.026231  -0.004824   0.364655  -0.005635
    22  H    0.000096  -0.003210  -0.032675   0.005330   0.371602  -0.003036
    23  H    0.005997  -0.006293  -0.024963  -0.004759   0.005645   0.367315
    24  H    0.001156  -0.004094  -0.030302   0.005347  -0.003279   0.371230
    25  H    0.000474   0.005117  -0.029359  -0.004306  -0.005120   0.364588
    26  H    0.000009  -0.000008  -0.000048   0.000001   0.000062   0.000000
    27  H   -0.000000  -0.000000  -0.000000  -0.000000  -0.000000   0.000000
    28  H   -0.000010  -0.000012  -0.000000  -0.000000   0.000000   0.000000
    29  H    0.009363   0.001580  -0.000099  -0.000005  -0.000000   0.000009
    30  H    0.000000   0.000000  -0.000000   0.000000   0.000000  -0.000000
    31  H    0.000000  -0.000000  -0.000000   0.000000  -0.000000  -0.000000
    32  H   -0.000000  -0.000000   0.000000   0.000000   0.000000  -0.000000
              7          8          9         10         11         12
     1  O   -0.065048  -0.002371   0.000198   0.000002   0.000001  -0.000036
     2  C    0.223364  -0.007187   0.000557  -0.000023   0.000026   0.000282
     3  C   -0.090751   0.004087  -0.000346   0.000003   0.000000   0.000004
     4  C   -0.000694  -0.000026   0.000001  -0.000000   0.000000  -0.000001
     5  C    0.000890  -0.000222  -0.000017   0.000001   0.000000  -0.000000
     6  C    0.002809  -0.000070   0.000006  -0.000000  -0.000000  -0.000000
     7  O    8.353886   0.204823  -0.048965   0.003366   0.000063   0.003428
     8  C    0.204823   4.533511   0.538818  -0.018685  -0.032870  -0.008494
     9  C   -0.048965   0.538818   4.995797   0.497381  -0.019757  -0.039704
    10  C    0.003366  -0.018685   0.497381   5.006980   0.510167  -0.058135
    11  C    0.000063  -0.032870  -0.019757   0.510167   4.981043   0.500611
    12  C    0.003428  -0.008494  -0.039704  -0.058135   0.500611   5.005884
    13  C   -0.047777   0.498836  -0.064025  -0.039299  -0.027153   0.456736
    14  C    0.000000   0.000174   0.004267  -0.043095   0.289478  -0.030793
    15  O   -0.000000  -0.000019  -0.000066   0.002852  -0.094387   0.003673
    16  C   -0.000000  -0.000018  -0.000146  -0.006423  -0.131276   0.009208
    17  H    0.003378  -0.000050   0.000002  -0.000000   0.000000  -0.000000
    18  H    0.000031  -0.000012   0.000000  -0.000000   0.000000   0.000000
    19  H   -0.000062   0.000001  -0.000000   0.000000  -0.000000   0.000000
    20  H    0.005304   0.000098   0.000002  -0.000001   0.000000  -0.000000
    21  H    0.000355   0.000007  -0.000001   0.000000   0.000000  -0.000000
    22  H    0.000974  -0.000066   0.000009   0.000000   0.000000  -0.000000
    23  H    0.000068  -0.000005  -0.000000  -0.000000  -0.000000   0.000000
    24  H    0.000048  -0.000010  -0.000000   0.000000  -0.000000  -0.000000
    25  H   -0.000037   0.000001  -0.000000   0.000000  -0.000000  -0.000000
    26  H   -0.001205  -0.036639   0.348223  -0.038558   0.003707   0.000296
    27  H   -0.000052   0.003569  -0.039890   0.355318  -0.039956   0.005545
    28  H   -0.000042   0.003161   0.000429   0.005347  -0.041919   0.357620
    29  H   -0.006773  -0.034965   0.005068   0.000500   0.003744  -0.037219
    30  H    0.000000   0.000011  -0.000069   0.000597   0.006506  -0.000641
    31  H   -0.000000   0.000000   0.000002   0.000116   0.005638  -0.000157
    32  H    0.000000   0.000000   0.000127   0.000549  -0.000127  -0.000078
             13         14         15         16         17         18
     1  O   -0.001453   0.000000  -0.000000  -0.000000  -0.000068   0.002325
     2  C   -0.003068   0.000000   0.000000  -0.000000  -0.004635  -0.002744
     3  C    0.000149   0.000000  -0.000000  -0.000000  -0.031346  -0.031967
     4  C   -0.000021   0.000000   0.000000  -0.000000   0.367317   0.368278
     5  C    0.000020  -0.000000   0.000000   0.000000  -0.004693   0.005887
     6  C    0.000006  -0.000000  -0.000000   0.000000   0.005808  -0.005284
     7  O   -0.047777   0.000000  -0.000000  -0.000000   0.003378   0.000031
     8  C    0.498836   0.000174  -0.000019  -0.000018  -0.000050  -0.000012
     9  C   -0.064025   0.004267  -0.000066  -0.000146   0.000002   0.000000
    10  C   -0.039299  -0.043095   0.002852  -0.006423  -0.000000  -0.000000
    11  C   -0.027153   0.289478  -0.094387  -0.131276   0.000000   0.000000
    12  C    0.456736  -0.030793   0.003673   0.009208  -0.000000   0.000000
    13  C    5.040999   0.007041   0.001017  -0.000102   0.000002  -0.000001
    14  C    0.007041   4.577076   0.575432   0.315686   0.000000  -0.000000
    15  O    0.001017   0.575432   8.028611  -0.087329  -0.000000   0.000000
    16  C   -0.000102   0.315686  -0.087329   5.378833   0.000000   0.000000
    17  H    0.000002   0.000000  -0.000000   0.000000   0.562169  -0.029749
    18  H   -0.000001  -0.000000   0.000000   0.000000  -0.029749   0.557958
    19  H    0.000000  -0.000000  -0.000000   0.000000  -0.028380  -0.028553
    20  H    0.000008  -0.000000  -0.000000   0.000000   0.004132  -0.000057
    21  H    0.000001  -0.000000   0.000000  -0.000000  -0.000189  -0.000074
    22  H   -0.000001  -0.000000   0.000000   0.000000  -0.000058  -0.000188
    23  H   -0.000000  -0.000000  -0.000000  -0.000000  -0.000031   0.004575
    24  H   -0.000001  -0.000000   0.000000  -0.000000  -0.000192  -0.000036
    25  H   -0.000000  -0.000000   0.000000   0.000000  -0.000048  -0.000139
    26  H    0.006353  -0.000103   0.000000   0.000009   0.000001  -0.000000
    27  H    0.000211  -0.009945   0.000039   0.006306   0.000000   0.000000
    28  H   -0.038082  -0.007360   0.011555   0.000736   0.000000   0.000000
    29  H    0.353402  -0.000128   0.000002   0.000002   0.000019   0.000023
    30  H   -0.000038  -0.023585   0.002200   0.349618  -0.000000   0.000000
    31  H    0.000002  -0.020038   0.005213   0.350559  -0.000000  -0.000000
    32  H    0.000004  -0.016105   0.000609   0.350560  -0.000000  -0.000000
             19         20         21         22         23         24
     1  O   -0.000048   0.000002  -0.000059   0.000096   0.005997   0.001156
     2  C    0.004388  -0.006891   0.003858  -0.003210  -0.006293  -0.004094
     3  C   -0.029647  -0.024113  -0.026231  -0.032675  -0.024963  -0.030302
     4  C    0.373103  -0.004442  -0.004824   0.005330  -0.004759   0.005347
     5  C   -0.005377   0.365098   0.364655   0.371602   0.005645  -0.003279
     6  C   -0.004686   0.005552  -0.005635  -0.003036   0.367315   0.371230
     7  O   -0.000062   0.005304   0.000355   0.000974   0.000068   0.000048
     8  C    0.000001   0.000098   0.000007  -0.000066  -0.000005  -0.000010
     9  C   -0.000000   0.000002  -0.000001   0.000009  -0.000000  -0.000000
    10  C    0.000000  -0.000001   0.000000   0.000000  -0.000000   0.000000
    11  C   -0.000000   0.000000   0.000000   0.000000  -0.000000  -0.000000
    12  C    0.000000  -0.000000  -0.000000  -0.000000   0.000000  -0.000000
    13  C    0.000000   0.000008   0.000001  -0.000001  -0.000000  -0.000001
    14  C   -0.000000  -0.000000  -0.000000  -0.000000  -0.000000  -0.000000
    15  O   -0.000000  -0.000000   0.000000   0.000000  -0.000000   0.000000
    16  C    0.000000   0.000000  -0.000000   0.000000  -0.000000  -0.000000
    17  H   -0.028380   0.004132  -0.000189  -0.000058  -0.000031  -0.000192
    18  H   -0.028553  -0.000057  -0.000074  -0.000188   0.004575  -0.000036
    19  H    0.557321  -0.000144   0.003643  -0.000006  -0.000233  -0.000013
    20  H   -0.000144   0.555106  -0.029743  -0.028493  -0.000194  -0.000067
    21  H    0.003643  -0.029743   0.575004  -0.029394   0.000007  -0.000166
    22  H   -0.000006  -0.028493  -0.029394   0.568396  -0.000059   0.003461
    23  H   -0.000233  -0.000194   0.000007  -0.000059   0.546424  -0.027158
    24  H   -0.000013  -0.000067  -0.000166   0.003461  -0.027158   0.563657
    25  H    0.002999   0.000012   0.003264  -0.000132  -0.029940  -0.029630
    26  H   -0.000000   0.000132   0.000001   0.000056  -0.000000  -0.000000
    27  H   -0.000000  -0.000000  -0.000000  -0.000000   0.000000   0.000000
    28  H   -0.000000   0.000000   0.000000   0.000000   0.000000   0.000000
    29  H    0.000000   0.000000   0.000000  -0.000000  -0.000000  -0.000001
    30  H   -0.000000  -0.000000   0.000000  -0.000000   0.000000   0.000000
    31  H   -0.000000  -0.000000  -0.000000   0.000000  -0.000000   0.000000
    32  H   -0.000000  -0.000000  -0.000000   0.000000  -0.000000   0.000000
             25         26         27         28         29         30
     1  O    0.000474   0.000009  -0.000000  -0.000010   0.009363   0.000000
     2  C    0.005117  -0.000008  -0.000000  -0.000012   0.001580   0.000000
     3  C   -0.029359  -0.000048  -0.000000  -0.000000  -0.000099  -0.000000
     4  C   -0.004306   0.000001  -0.000000  -0.000000  -0.000005   0.000000
     5  C   -0.005120   0.000062  -0.000000   0.000000  -0.000000   0.000000
     6  C    0.364588   0.000000   0.000000   0.000000   0.000009  -0.000000
     7  O   -0.000037  -0.001205  -0.000052  -0.000042  -0.006773   0.000000
     8  C    0.000001  -0.036639   0.003569   0.003161  -0.034965   0.000011
     9  C   -0.000000   0.348223  -0.039890   0.000429   0.005068  -0.000069
    10  C    0.000000  -0.038558   0.355318   0.005347   0.000500   0.000597
    11  C   -0.000000   0.003707  -0.039956  -0.041919   0.003744   0.006506
    12  C   -0.000000   0.000296   0.005545   0.357620  -0.037219  -0.000641
    13  C   -0.000000   0.006353   0.000211  -0.038082   0.353402  -0.000038
    14  C   -0.000000  -0.000103  -0.009945  -0.007360  -0.000128  -0.023585
    15  O    0.000000   0.000000   0.000039   0.011555   0.000002   0.002200
    16  C    0.000000   0.000009   0.006306   0.000736   0.000002   0.349618
    17  H   -0.000048   0.000001   0.000000   0.000000   0.000019  -0.000000
    18  H   -0.000139  -0.000000   0.000000   0.000000   0.000023   0.000000
    19  H    0.002999  -0.000000  -0.000000  -0.000000   0.000000  -0.000000
    20  H    0.000012   0.000132  -0.000000   0.000000   0.000000  -0.000000
    21  H    0.003264   0.000001  -0.000000   0.000000   0.000000   0.000000
    22  H   -0.000132   0.000056  -0.000000   0.000000  -0.000000  -0.000000
    23  H   -0.029940  -0.000000   0.000000   0.000000  -0.000000   0.000000
    24  H   -0.029630  -0.000000   0.000000   0.000000  -0.000001   0.000000
    25  H    0.580692  -0.000000  -0.000000  -0.000000  -0.000000  -0.000000
    26  H   -0.000000   0.576081  -0.005482   0.000015  -0.000133  -0.000004
    27  H   -0.000000  -0.005482   0.581912  -0.000149   0.000013   0.000234
    28  H   -0.000000   0.000015  -0.000149   0.545666  -0.004933  -0.000048
    29  H   -0.000000  -0.000133   0.000013  -0.004933   0.541929   0.000000
    30  H   -0.000000  -0.000004   0.000234  -0.000048   0.000000   0.542208
    31  H   -0.000000  -0.000000  -0.000111  -0.000021  -0.000000  -0.024334
    32  H   -0.000000  -0.000004   0.001864  -0.000007  -0.000000  -0.024235
             31         32
     1  O    0.000000  -0.000000
     2  C   -0.000000  -0.000000
     3  C   -0.000000   0.000000
     4  C    0.000000   0.000000
     5  C   -0.000000   0.000000
     6  C   -0.000000  -0.000000
     7  O   -0.000000   0.000000
     8  C    0.000000   0.000000
     9  C    0.000002   0.000127
    10  C    0.000116   0.000549
    11  C    0.005638  -0.000127
    12  C   -0.000157  -0.000078
    13  C    0.000002   0.000004
    14  C   -0.020038  -0.016105
    15  O    0.005213   0.000609
    16  C    0.350559   0.350560
    17  H   -0.000000  -0.000000
    18  H   -0.000000  -0.000000
    19  H   -0.000000  -0.000000
    20  H   -0.000000  -0.000000
    21  H   -0.000000  -0.000000
    22  H    0.000000   0.000000
    23  H   -0.000000  -0.000000
    24  H    0.000000   0.000000
    25  H   -0.000000  -0.000000
    26  H   -0.000000  -0.000004
    27  H   -0.000111   0.001864
    28  H   -0.000021  -0.000007
    29  H   -0.000000  -0.000000
    30  H   -0.024334  -0.024235
    31  H    0.520904  -0.020233
    32  H   -0.020233   0.532120
 Mulliken atomic charges:
              1
     1  O   -0.461251
     2  C    0.638527
     3  C   -0.003842
     4  C   -0.452286
     5  C   -0.443496
     6  C   -0.437398
     7  O   -0.541380
     8  C    0.354610
     9  C   -0.177903
    10  C   -0.178958
    11  C    0.086462
    12  C   -0.168028
    13  C   -0.143767
    14  C    0.381998
    15  O   -0.449402
    16  C   -0.536223
    17  H    0.156611
    18  H    0.159727
    19  H    0.155693
    20  H    0.158699
    21  H    0.145524
    22  H    0.147394
    23  H    0.163605
    24  H    0.150050
    25  H    0.141565
    26  H    0.147237
    27  H    0.140577
    28  H    0.168056
    29  H    0.168604
    30  H    0.171579
    31  H    0.182461
    32  H    0.174957
 Sum of Mulliken atomic charges =  -0.00000
 Mulliken charges with hydrogens summed into heavy atoms:
              1
     1  O   -0.461251
     2  C    0.638527
     3  C   -0.003842
     4  C    0.019744
     5  C    0.008121
     6  C    0.017822
     7  O   -0.541380
     8  C    0.354610
     9  C   -0.030666
    10  C   -0.038381
    11  C    0.086462
    12  C    0.000028
    13  C    0.024837
    14  C    0.381998
    15  O   -0.449402
    16  C   -0.007226
 Sum of Mulliken charges with hydrogens summed into heavy atoms =  -0.00000
 Electronic spatial extent (au):  <R**2>=           5497.2403
 Charge=             -0.0000 electrons
 Dipole moment (field-independent basis, Debye):
    X=              2.2800    Y=              3.2634    Z=              0.0853  Tot=              3.9819
 Quadrupole moment (field-independent basis, Debye-Ang):
   XX=            -93.6785   YY=            -93.3194   ZZ=            -96.2983
   XY=             -9.7067   XZ=             -7.6608   YZ=              1.6270
 Traceless Quadrupole moment (field-independent basis, Debye-Ang):
   XX=              0.7536   YY=              1.1127   ZZ=             -1.8663
   XY=             -9.7067   XZ=             -7.6608   YZ=              1.6270
 Octapole moment (field-independent basis, Debye-Ang**2):
  XXX=             85.4624  YYY=             -0.1353  ZZZ=              2.7559  XYY=             -1.7576
  XXY=             60.0759  XXZ=             23.6968  XZZ=              0.3436  YZZ=              0.2858
  YYZ=             -3.2817  XYZ=             11.2576
 Hexadecapole moment (field-independent basis, Debye-Ang**3):
 XXXX=          -6319.8475 YYYY=           -656.6185 ZZZZ=           -349.0443 XXXY=           -272.1582
 XXXZ=           -153.2014 YYYX=             -8.8497 YYYZ=             -1.4048 ZZZX=              2.4773
 ZZZY=             -0.0527 XXYY=          -1200.0410 XXZZ=          -1104.1056 YYZZ=           -179.9567
 XXYZ=            -25.7845 YYXZ=             -6.6715 ZZXY=              8.1292
 N-N= 1.056704501236D+03 E-N=-3.813490770330D+03  KE= 7.237797594932D+02
 No NMR shielding tensors so no spin-rotation constants.
 Leave Link  601 at Wed Sep 29 02:35:39 2021, MaxMem= 1342177280 cpu:       1.8
 (Enter /sw/target/amd/app/gaussian/Gaussian09RevA.02_gcc-4.9.2/g09/l701.exe)
 Compute integral first derivatives.
 ... and contract with generalized density number  0.
 Leave Link  701 at Wed Sep 29 02:35:41 2021, MaxMem= 1342177280 cpu:       1.6
 (Enter /sw/target/amd/app/gaussian/Gaussian09RevA.02_gcc-4.9.2/g09/l702.exe)
 L702 exits ... SP integral derivatives will be done elsewhere.
 Leave Link  702 at Wed Sep 29 02:35:41 2021, MaxMem= 1342177280 cpu:       0.1
 (Enter /sw/target/amd/app/gaussian/Gaussian09RevA.02_gcc-4.9.2/g09/l703.exe)
 Compute integral first derivatives, UseDBF=F ICtDFT=           0.
 Integral derivatives from FoFDir, PRISM(SPDF).
 Calling FoFJK, ICntrl=      2127 FMM=F ISym2X=0 I1Cent= 0 IOpClX= 0 NMat=1 NMatS=1 NMatT=0.
 FoFCou: FMM=F IPFlag=           0 FMFlag=      100000 FMFlg1=         800
         NFxFlg=           0 DoJE=F BraDBF=F KetDBF=F FulRan=T
         Omega=  0.000000  0.000000  1.000000  0.000000  0.000000 ICntrl=    2127 IOpCl=  0
         NMat0=    1 NMatS0=    1 NMatT0=    0 NMatD0=    1 NMtDS0=    0 NMtDT0=    0
         I1Cent=           0 NGrid=           0.
 Symmetry not used in FoFCou.
 Leave Link  703 at Wed Sep 29 02:37:16 2021, MaxMem= 1342177280 cpu:     113.6
 (Enter /sw/target/amd/app/gaussian/Gaussian09RevA.02_gcc-4.9.2/g09/l716.exe)
 Dipole        = 8.97019422D-01 1.28390247D+00 3.35685712D-02
 ***** Axes restored to original set *****
 -------------------------------------------------------------------
 Center     Atomic                   Forces (Hartrees/Bohr)
 Number     Number              X              Y              Z
 -------------------------------------------------------------------
      1        8          -0.002609478    0.008481358    0.028722305
      2        6           0.005467532   -0.005212025   -0.012275843
      3        6          -0.006236615    0.008108237   -0.002987323
      4        6           0.003656133   -0.010120604    0.003109309
      5        6           0.004043560    0.003383184    0.008612365
      6        6           0.001456378   -0.002078758   -0.008830241
      7        8           0.005556245   -0.004381508   -0.017097102
      8        6          -0.007728106    0.000336434    0.002508173
      9        6           0.002512243    0.002624242    0.001590550
     10        6          -0.010304980   -0.002340290   -0.002180095
     11        6           0.002870321    0.001812217    0.000185479
     12        6          -0.007954832   -0.001113510    0.002434741
     13        6           0.003719401   -0.008276546   -0.006943126
     14        6           0.005797104   -0.017151070   -0.002325997
     15        8          -0.002228486    0.009227673   -0.000323414
     16        6           0.008444865    0.001300407   -0.007373555
     17        1          -0.000469062    0.000706481    0.001244936
     18        1          -0.000522655    0.000818496   -0.000750620
     19        1          -0.000031164    0.002100391   -0.000413094
     20        1           0.000003277    0.000416894   -0.001357999
     21        1          -0.000619847   -0.001358133   -0.002383905
     22        1          -0.001175366    0.000291334    0.000084534
     23        1           0.000924040    0.001489327    0.001357850
     24        1          -0.000960754   -0.000200786    0.000659655
     25        1           0.000553413   -0.000037949    0.003187401
     26        1          -0.001715109   -0.001493859   -0.001614386
     27        1           0.000119813   -0.000168699   -0.001558910
     28        1           0.001252525    0.002446965    0.003462242
     29        1          -0.000704134    0.004197899    0.001794192
     30        1          -0.001973405    0.003363613    0.004540778
     31        1          -0.000073786   -0.001661212    0.003055588
     32        1          -0.001069071    0.004489798    0.001865510
 -------------------------------------------------------------------
 Cartesian Forces:  Max     0.028722305 RMS     0.005591328
 Leave Link  716 at Wed Sep 29 02:37:17 2021, MaxMem= 1342177280 cpu:       0.1
 (Enter /sw/target/amd/app/gaussian/Gaussian09RevA.02_gcc-4.9.2/g09/l103.exe)

 GradGradGradGradGradGradGradGradGradGradGradGradGradGradGradGradGradGrad
 Berny optimization.
 Internal  Forces:  Max     0.029121776 RMS     0.003928690
 Search for a local minimum.
 Step number   1 out of a maximum of  168
 All quantities printed in internal units (Hartrees-Bohrs-Radians)
 RMS Force = .39287D-02 SwitMx=.10000D-02 MixMth= 1
 Mixed Optimization -- RFO/linear search
 Second derivative matrix not updated -- first step.
     Eigenvalues ---    0.00251   0.00322   0.00330   0.00346   0.00690
     Eigenvalues ---    0.00709   0.00802   0.00944   0.01573   0.01702
     Eigenvalues ---    0.01740   0.02056   0.02086   0.02093   0.02111
     Eigenvalues ---    0.02125   0.02139   0.02168   0.02181   0.04713
     Eigenvalues ---    0.05096   0.05358   0.05428   0.05428   0.05449
     Eigenvalues ---    0.05453   0.05472   0.05604   0.07284   0.07572
     Eigenvalues ---    0.14849   0.15225   0.15998   0.15998   0.15999
     Eigenvalues ---    0.16000   0.16000   0.16000   0.16000   0.16000
     Eigenvalues ---    0.16000   0.16000   0.16000   0.16000   0.16000
     Eigenvalues ---    0.16000   0.16000   0.16000   0.21993   0.22971
     Eigenvalues ---    0.23994   0.24967   0.24993   0.24995   0.25000
[...]
     5    O    1  px     Val( 2p)     1.82182
     6    O    1  px     Ryd( 3p)     0.00172
     7    O    1  py     Val( 2p)     1.55349
     8    O    1  py     Ryd( 3p)     0.00054
     9    O    1  pz     Val( 2p)     1.49149
    10    O    1  pz     Ryd( 3p)     0.00060
    11    O    1  dxy    Ryd( 3d)     0.00327
    12    O    1  dxz    Ryd( 3d)     0.00197
    13    O    1  dyz    Ryd( 3d)     0.00444
    14    O    1  dx2y2  Ryd( 3d)     0.00341
    15    O    1  dz2    Ryd( 3d)     0.00334

    16    C    2  S      Cor( 1S)     1.99927
    17    C    2  S      Val( 2S)     0.77996
    18    C    2  S      Ryd( 3S)     0.00663
    19    C    2  S      Ryd( 4S)     0.00048
    20    C    2  px     Val( 2p)     0.86239
    21    C    2  px     Ryd( 3p)     0.00594
    22    C    2  py     Val( 2p)     0.72907
    23    C    2  py     Ryd( 3p)     0.01647
    24    C    2  pz     Val( 2p)     0.73713
    25    C    2  pz     Ryd( 3p)     0.00972
    26    C    2  dxy    Ryd( 3d)     0.00280
    27    C    2  dxz    Ryd( 3d)     0.00195
    28    C    2  dyz    Ryd( 3d)     0.00114
    29    C    2  dx2y2  Ryd( 3d)     0.00191
    30    C    2  dz2    Ryd( 3d)     0.00184

    31    C    3  S      Cor( 1S)     1.99905
    32    C    3  S      Val( 2S)     0.94069
    33    C    3  S      Ryd( 3S)     0.00045
    34    C    3  S      Ryd( 4S)     0.00003
    35    C    3  px     Val( 2p)     1.06353
    36    C    3  px     Ryd( 3p)     0.00208
    37    C    3  py     Val( 2p)     1.06931
    38    C    3  py     Ryd( 3p)     0.00324
    39    C    3  pz     Val( 2p)     1.06667
    40    C    3  pz     Ryd( 3p)     0.00262
    41    C    3  dxy    Ryd( 3d)     0.00071
    42    C    3  dxz    Ryd( 3d)     0.00056
    43    C    3  dyz    Ryd( 3d)     0.00071
    44    C    3  dx2y2  Ryd( 3d)     0.00096
    45    C    3  dz2    Ryd( 3d)     0.00096

    46    C    4  S      Cor( 1S)     1.99938
    47    C    4  S      Val( 2S)     1.09539
    48    C    4  S      Ryd( 3S)     0.00058
    49    C    4  S      Ryd( 4S)     0.00002
    50    C    4  px     Val( 2p)     1.24690
    51    C    4  px     Ryd( 3p)     0.00191
    52    C    4  py     Val( 2p)     1.25190
    53    C    4  py     Ryd( 3p)     0.00238
    54    C    4  pz     Val( 2p)     1.06576
    55    C    4  pz     Ryd( 3p)     0.00151
    56    C    4  dxy    Ryd( 3d)     0.00059
    57    C    4  dxz    Ryd( 3d)     0.00052
    58    C    4  dyz    Ryd( 3d)     0.00073
    59    C    4  dx2y2  Ryd( 3d)     0.00082
    60    C    4  dz2    Ryd( 3d)     0.00070

    61    C    5  S      Cor( 1S)     1.99938
    62    C    5  S      Val( 2S)     1.09532
    63    C    5  S      Ryd( 3S)     0.00058
    64    C    5  S      Ryd( 4S)     0.00002
    65    C    5  px     Val( 2p)     1.24627
    66    C    5  px     Ryd( 3p)     0.00191
    67    C    5  py     Val( 2p)     1.08904
    68    C    5  py     Ryd( 3p)     0.00160
    69    C    5  pz     Val( 2p)     1.22854
    70    C    5  pz     Ryd( 3p)     0.00228
    71    C    5  dxy    Ryd( 3d)     0.00080
    72    C    5  dxz    Ryd( 3d)     0.00031
    73    C    5  dyz    Ryd( 3d)     0.00047
    74    C    5  dx2y2  Ryd( 3d)     0.00065
    75    C    5  dz2    Ryd( 3d)     0.00113

    76    C    6  S      Cor( 1S)     1.99940
    77    C    6  S      Val( 2S)     1.09062
    78    C    6  S      Ryd( 3S)     0.00058
    79    C    6  S      Ryd( 4S)     0.00002
    80    C    6  px     Val( 2p)     1.16331
    81    C    6  px     Ryd( 3p)     0.00249
    82    C    6  py     Val( 2p)     1.18332
    83    C    6  py     Ryd( 3p)     0.00225
    84    C    6  pz     Val( 2p)     1.22200
    85    C    6  pz     Ryd( 3p)     0.00241
    86    C    6  dxy    Ryd( 3d)     0.00048
    87    C    6  dxz    Ryd( 3d)     0.00029
    88    C    6  dyz    Ryd( 3d)     0.00041
    89    C    6  dx2y2  Ryd( 3d)     0.00099
    90    C    6  dz2    Ryd( 3d)     0.00116

    91    O    7  S      Cor( 1S)     1.99969
    92    O    7  S      Val( 2S)     1.59322
    93    O    7  S      Ryd( 3S)     0.00133
    94    O    7  S      Ryd( 4S)     0.00009
    95    O    7  px     Val( 2p)     1.43200
    96    O    7  px     Ryd( 3p)     0.00093
    97    O    7  py     Val( 2p)     1.76444
    98    O    7  py     Ryd( 3p)     0.00223
    99    O    7  pz     Val( 2p)     1.74927
   100    O    7  pz     Ryd( 3p)     0.00142
   101    O    7  dxy    Ryd( 3d)     0.00094
   102    O    7  dxz    Ryd( 3d)     0.00076
   103    O    7  dyz    Ryd( 3d)     0.00111
   104    O    7  dx2y2  Ryd( 3d)     0.00111
   105    O    7  dz2    Ryd( 3d)     0.00117

   106    C    8  S      Cor( 1S)     1.99873
   107    C    8  S      Val( 2S)     0.83183
   108    C    8  S      Ryd( 3S)     0.00129
   109    C    8  S      Ryd( 4S)     0.00011
   110    C    8  px     Val( 2p)     0.74034
   111    C    8  px     Ryd( 3p)     0.00684
   112    C    8  py     Val( 2p)     1.08153
   113    C    8  py     Ryd( 3p)     0.00583
   114    C    8  pz     Val( 2p)     1.05886
   115    C    8  pz     Ryd( 3p)     0.00250
   116    C    8  dxy    Ryd( 3d)     0.00132
   117    C    8  dxz    Ryd( 3d)     0.00139
   118    C    8  dyz    Ryd( 3d)     0.00062
   119    C    8  dx2y2  Ryd( 3d)     0.00164
   120    C    8  dz2    Ryd( 3d)     0.00052

   121    C    9  S      Cor( 1S)     1.99902
   122    C    9  S      Val( 2S)     0.95937
   123    C    9  S      Ryd( 3S)     0.00080
   124    C    9  S      Ryd( 4S)     0.00004
   125    C    9  px     Val( 2p)     1.08771
   126    C    9  px     Ryd( 3p)     0.00485
   127    C    9  py     Val( 2p)     1.17185
   128    C    9  py     Ryd( 3p)     0.00474
   129    C    9  pz     Val( 2p)     1.02274
   130    C    9  pz     Ryd( 3p)     0.00092
   131    C    9  dxy    Ryd( 3d)     0.00081
   132    C    9  dxz    Ryd( 3d)     0.00065
   133    C    9  dyz    Ryd( 3d)     0.00043
   134    C    9  dx2y2  Ryd( 3d)     0.00056
   135    C    9  dz2    Ryd( 3d)     0.00046

   136    C   10  S      Cor( 1S)     1.99904
   137    C   10  S      Val( 2S)     0.93988
   138    C   10  S      Ryd( 3S)     0.00052
   139    C   10  S      Ryd( 4S)     0.00004
   140    C   10  px     Val( 2p)     1.10233
   141    C   10  px     Ryd( 3p)     0.00354
   142    C   10  py     Val( 2p)     1.14073
   143    C   10  py     Ryd( 3p)     0.00443
   144    C   10  pz     Val( 2p)     1.04313
   145    C   10  pz     Ryd( 3p)     0.00167
   146    C   10  dxy    Ryd( 3d)     0.00085
   147    C   10  dxz    Ryd( 3d)     0.00059
   148    C   10  dyz    Ryd( 3d)     0.00038
   149    C   10  dx2y2  Ryd( 3d)     0.00056
   150    C   10  dz2    Ryd( 3d)     0.00043

   151    C   11  S      Cor( 1S)     1.99889
   152    C   11  S      Val( 2S)     0.88389
   153    C   11  S      Ryd( 3S)     0.00038
   154    C   11  S      Ryd( 4S)     0.00004
   155    C   11  px     Val( 2p)     1.02157
   156    C   11  px     Ryd( 3p)     0.00454
   157    C   11  py     Val( 2p)     1.11275
   158    C   11  py     Ryd( 3p)     0.00538
   159    C   11  pz     Val( 2p)     1.13364
   160    C   11  pz     Ryd( 3p)     0.00124
   161    C   11  dxy    Ryd( 3d)     0.00061
   162    C   11  dxz    Ryd( 3d)     0.00082
   163    C   11  dyz    Ryd( 3d)     0.00056
   164    C   11  dx2y2  Ryd( 3d)     0.00072
   165    C   11  dz2    Ryd( 3d)     0.00040

   166    C   12  S      Cor( 1S)     1.99906
   167    C   12  S      Val( 2S)     0.94352
   168    C   12  S      Ryd( 3S)     0.00064
   169    C   12  S      Ryd( 4S)     0.00005
   170    C   12  px     Val( 2p)     1.08474
   171    C   12  px     Ryd( 3p)     0.00410
   172    C   12  py     Val( 2p)     1.15848
   173    C   12  py     Ryd( 3p)     0.00475
   174    C   12  pz     Val( 2p)     1.02037
   175    C   12  pz     Ryd( 3p)     0.00211
   176    C   12  dxy    Ryd( 3d)     0.00083
   177    C   12  dxz    Ryd( 3d)     0.00061
   178    C   12  dyz    Ryd( 3d)     0.00034
   179    C   12  dx2y2  Ryd( 3d)     0.00061
   180    C   12  dz2    Ryd( 3d)     0.00045

   181    C   13  S      Cor( 1S)     1.99901
   182    C   13  S      Val( 2S)     0.96113
   183    C   13  S      Ryd( 3S)     0.00073
   184    C   13  S      Ryd( 4S)     0.00005
   185    C   13  px     Val( 2p)     1.11378
   186    C   13  px     Ryd( 3p)     0.00432
   187    C   13  py     Val( 2p)     1.15798
   188    C   13  py     Ryd( 3p)     0.00446
   189    C   13  pz     Val( 2p)     1.01123
   190    C   13  pz     Ryd( 3p)     0.00095
   191    C   13  dxy    Ryd( 3d)     0.00078
   192    C   13  dxz    Ryd( 3d)     0.00063
   193    C   13  dyz    Ryd( 3d)     0.00052
   194    C   13  dx2y2  Ryd( 3d)     0.00059
   195    C   13  dz2    Ryd( 3d)     0.00044

   196    C   14  S      Cor( 1S)     1.99928
   197    C   14  S      Val( 2S)     0.84102
   198    C   14  S      Ryd( 3S)     0.00455
   199    C   14  S      Ryd( 4S)     0.00020
   200    C   14  px     Val( 2p)     0.97600
   201    C   14  px     Ryd( 3p)     0.00410
   202    C   14  py     Val( 2p)     0.81177
   203    C   14  py     Ryd( 3p)     0.01448
   204    C   14  pz     Val( 2p)     0.96252
   205    C   14  pz     Ryd( 3p)     0.00347
   206    C   14  dxy    Ryd( 3d)     0.00131
   207    C   14  dxz    Ryd( 3d)     0.00104
   208    C   14  dyz    Ryd( 3d)     0.00164
   209    C   14  dx2y2  Ryd( 3d)     0.00128
   210    C   14  dz2    Ryd( 3d)     0.00039

   211    O   15  S      Cor( 1S)     1.99981
   212    O   15  S      Val( 2S)     1.70391
   213    O   15  S      Ryd( 3S)     0.00016
   214    O   15  S      Ryd( 4S)     0.00001
   215    O   15  px     Val( 2p)     1.22435
   216    O   15  px     Ryd( 3p)     0.00143
   217    O   15  py     Val( 2p)     1.53620
   218    O   15  py     Ryd( 3p)     0.00047
   219    O   15  pz     Val( 2p)     1.76902
   220    O   15  pz     Ryd( 3p)     0.00322
   221    O   15  dxy    Ryd( 3d)     0.00345
   222    O   15  dxz    Ryd( 3d)     0.00079
   223    O   15  dyz    Ryd( 3d)     0.00387
   224    O   15  dx2y2  Ryd( 3d)     0.00329
   225    O   15  dz2    Ryd( 3d)     0.00140

   226    C   16  S      Cor( 1S)     1.99932
   227    C   16  S      Val( 2S)     1.12974
   228    C   16  S      Ryd( 3S)     0.00019
   229    C   16  S      Ryd( 4S)     0.00001
   230    C   16  px     Val( 2p)     1.19354
   231    C   16  px     Ryd( 3p)     0.00153
   232    C   16  py     Val( 2p)     1.12110
   233    C   16  py     Ryd( 3p)     0.00147
   234    C   16  pz     Val( 2p)     1.25851
   235    C   16  pz     Ryd( 3p)     0.00010
   236    C   16  dxy    Ryd( 3d)     0.00073
   237    C   16  dxz    Ryd( 3d)     0.00035
   238    C   16  dyz    Ryd( 3d)     0.00109
   239    C   16  dx2y2  Ryd( 3d)     0.00056
   240    C   16  dz2    Ryd( 3d)     0.00073

   241    H   17  S      Val( 1S)     0.75395
   242    H   17  S      Ryd( 2S)     0.00108

   243    H   18  S      Val( 1S)     0.76395
   244    H   18  S      Ryd( 2S)     0.00092

   245    H   19  S      Val( 1S)     0.76556
   246    H   19  S      Ryd( 2S)     0.00109

   247    H   20  S      Val( 1S)     0.75614
   248    H   20  S      Ryd( 2S)     0.00116

   249    H   21  S      Val( 1S)     0.76551
   250    H   21  S      Ryd( 2S)     0.00105

   251    H   22  S      Val( 1S)     0.76300
   252    H   22  S      Ryd( 2S)     0.00091

   253    H   23  S      Val( 1S)     0.75702
   254    H   23  S      Ryd( 2S)     0.00105

   255    H   24  S      Val( 1S)     0.75580
   256    H   24  S      Ryd( 2S)     0.00105

   257    H   25  S      Val( 1S)     0.77010
   258    H   25  S      Ryd( 2S)     0.00092

   259    H   26  S      Val( 1S)     0.75247
   260    H   26  S      Ryd( 2S)     0.00117

   261    H   27  S      Val( 1S)     0.76836
   262    H   27  S      Ryd( 2S)     0.00095

   263    H   28  S      Val( 1S)     0.75744
   264    H   28  S      Ryd( 2S)     0.00079

   265    H   29  S      Val( 1S)     0.74111
   266    H   29  S      Ryd( 2S)     0.00103

   267    H   30  S      Val( 1S)     0.73657
   268    H   30  S      Ryd( 2S)     0.00118

   269    H   31  S      Val( 1S)     0.73993
   270    H   31  S      Ryd( 2S)     0.00112

   271    H   32  S      Val( 1S)     0.73724
   272    H   32  S      Ryd( 2S)     0.00121

 WARNING:  1 low occupancy (<1.9990e) core orbital  found on  C    8
           1 low occupancy (<1.9990e) core orbital  found on  C   11


 Summary of Natural Population Analysis:                  
                                                          
                                       Natural Population 
                Natural  -----------------------------------------------
    Atom  No    Charge         Core      Valence    Rydberg      Total
 -----------------------------------------------------------------------
      O    1   -0.58159      1.99977     6.56184    0.01998     8.58159
      C    2    0.84330      1.99927     3.10855    0.04887     5.15670
      C    3   -0.15158      1.99905     4.14020    0.01232     6.15158
      C    4   -0.66907      1.99938     4.65995    0.00974     6.66907
      C    5   -0.66828      1.99938     4.65916    0.00973     6.66828
      C    6   -0.66972      1.99940     4.65925    0.01108     6.66972
      O    7   -0.54972      1.99969     6.53893    0.01109     8.54972
      C    8    0.26666      1.99873     3.71255    0.02206     5.73334
      C    9   -0.25496      1.99902     4.24167    0.01428     6.25496
      C   10   -0.23813      1.99904     4.22607    0.01302     6.23813
      C   11   -0.16543      1.99889     4.15185    0.01469     6.16543
      C   12   -0.22064      1.99906     4.20711    0.01447     6.22064
      C   13   -0.25658      1.99901     4.24412    0.01345     6.25658
      C   14    0.37694      1.99928     3.59131    0.03247     5.62306
      O   15   -0.25140      1.99981     6.23349    0.01810     8.25140
      C   16   -0.70897      1.99932     4.70289    0.00676     6.70897
      H   17    0.24497      0.00000     0.75395    0.00108     0.75503
      H   18    0.23513      0.00000     0.76395    0.00092     0.76487
      H   19    0.23334      0.00000     0.76556    0.00109     0.76666
      H   20    0.24270      0.00000     0.75614    0.00116     0.75730
      H   21    0.23344      0.00000     0.76551    0.00105     0.76656
      H   22    0.23609      0.00000     0.76300    0.00091     0.76391
      H   23    0.24193      0.00000     0.75702    0.00105     0.75807
      H   24    0.24314      0.00000     0.75580    0.00105     0.75686
      H   25    0.22898      0.00000     0.77010    0.00092     0.77102
      H   26    0.24637      0.00000     0.75247    0.00117     0.75363
      H   27    0.23069      0.00000     0.76836    0.00095     0.76931
      H   28    0.24177      0.00000     0.75744    0.00079     0.75823
      H   29    0.25786      0.00000     0.74111    0.00103     0.74214
      H   30    0.26225      0.00000     0.73657    0.00118     0.73775
      H   31    0.25895      0.00000     0.73993    0.00112     0.74105
      H   32    0.26154      0.00000     0.73724    0.00121     0.73846
 =======================================================================
   * Total *    0.00000     31.98811    85.72311    0.28878   118.00000

                                 Natural Population      
 --------------------------------------------------------
   Core                      31.98811 ( 99.9629% of  32)
   Valence                   85.72311 ( 99.6780% of  86)
   Natural Minimal Basis    117.71122 ( 99.7553% of 118)
   Natural Rydberg Basis      0.28878 (  0.2447% of 118)
 --------------------------------------------------------

    Atom  No          Natural Electron Configuration
 ----------------------------------------------------------------------------
      O    1      [core]2S( 1.70)2p( 4.87)3d( 0.02)
      C    2      [core]2S( 0.78)2p( 2.33)3S( 0.01)3p( 0.03)3d( 0.01)
      C    3      [core]2S( 0.94)2p( 3.20)3p( 0.01)
      C    4      [core]2S( 1.10)2p( 3.56)3p( 0.01)
      C    5      [core]2S( 1.10)2p( 3.56)3p( 0.01)
      C    6      [core]2S( 1.09)2p( 3.57)3p( 0.01)
      O    7      [core]2S( 1.59)2p( 4.95)3d( 0.01)
      C    8      [core]2S( 0.83)2p( 2.88)3p( 0.02)3d( 0.01)
      C    9      [core]2S( 0.96)2p( 3.28)3p( 0.01)
      C   10      [core]2S( 0.94)2p( 3.29)3p( 0.01)
      C   11      [core]2S( 0.88)2p( 3.27)3p( 0.01)
      C   12      [core]2S( 0.94)2p( 3.26)3p( 0.01)
      C   13      [core]2S( 0.96)2p( 3.28)3p( 0.01)
      C   14      [core]2S( 0.84)2p( 2.75)3p( 0.02)3d( 0.01)
      O   15      [core]2S( 1.70)2p( 4.53)3p( 0.01)3d( 0.01)
      C   16      [core]2S( 1.13)2p( 3.57)
      H   17            1S( 0.75)
      H   18            1S( 0.76)
      H   19            1S( 0.77)
      H   20            1S( 0.76)
      H   21            1S( 0.77)
      H   22            1S( 0.76)
      H   23            1S( 0.76)
      H   24            1S( 0.76)
      H   25            1S( 0.77)
      H   26            1S( 0.75)
      H   27            1S( 0.77)
      H   28            1S( 0.76)
      H   29            1S( 0.74)
      H   30            1S( 0.74)
      H   31            1S( 0.74)
      H   32            1S( 0.74)


 NBO analysis skipped by request.
 Leave Link  607 at Wed Sep 29 11:10:26 2021, MaxMem= 1342177280 cpu:      20.3
 (Enter /sw/target/amd/app/gaussian/Gaussian09RevA.02_gcc-4.9.2/g09/l9999.exe)
 1\1\GINC-HERMITE\SP\RTD-B3LYP-FC\6-31G(d)\C13H16O3\JSCHLEINITZ\29-Sep-
 2021\0\\#p TD(NStates=10, Root=1) b3lyp/6-31G* volume pop=NPA density=
 current Geom=AllCheck Guess=Read\\O=C(C(C)(C)C)Oc1ccc(cc1)C(=O)C_conf_
 0\\0,1\O,0,3.7010769768,-2.0786041889,-0.4694524986\C,0,3.3586472445,-
 2.1003491699,0.6864712392\C,0,1.9211479176,-2.2133894531,1.2018293879\
 C,0,1.7995169747,-3.4747240796,2.0863859017\C,0,1.581878815,-0.9559617
 111,2.0342995966\C,0,0.9776458334,-2.3190587011,-0.0068090374\O,0,4.24
 20402399,-2.0147721417,1.7410617335\C,0,5.6137434438,-1.9201617851,1.5
 364695282\C,0,6.2881929863,-1.0166167193,2.3576724164\C,0,7.6740209881
 ,-0.9158958298,2.2746827513\C,0,8.3947409765,-1.7134961386,1.373414171
 2\C,0,7.6917716655,-2.6174424369,0.5607583261\C,0,6.3087650438,-2.7309
 684164,0.6339663781\C,0,9.8849773795,-1.6496056104,1.2396857401\O,0,10
 .4708091909,-2.369859309,0.445159515\C,0,10.6594925248,-0.6726070495,2
 .1105558489\H,0,2.4609312471,-3.4199632719,2.955408108\H,0,2.046173049
 8,-4.3811962074,1.5215873761\H,0,0.7680624081,-3.5725200409,2.44351344
 92\H,0,2.2368305307,-0.8640861037,2.9051258607\H,0,0.5463669914,-1.019
 4327869,2.3875726642\H,0,1.6761193331,-0.0442881668,1.4331728492\H,0,1
 .2085678812,-3.1988992236,-0.6149512583\H,0,1.0595795267,-1.4400372392
 ,-0.6529721836\H,0,-0.0585963102,-2.3999146651,0.3397054092\H,0,5.7187
 074775,-0.407628848,3.0523568315\H,0,8.1876918893,-0.2094969309,2.9189
 895748\H,0,8.2594336792,-3.2319475706,-0.1301035537\H,0,5.7752580625,-
 3.4265295859,-0.0006741584\H,0,10.3331157008,0.3593917683,1.9343580497
 \H,0,11.7209736654,-0.7606482998,1.8732867927\H,0,10.5081382099,-0.886
 1722948,3.1755822577\\Version=AM64L-G09RevA.02\State=1-A\HF=-730.71463
 42\RMSD=8.943e-09\Dipole=0.4557099,0.4841489,1.0974064\Quadrupole=9.16
 74159,-1.8781977,-7.2892182,6.0604507,2.4551221,2.8528683\PG=C01 [X(C1
 3H16O3)]\\@


 IF YOU BELIEVE CERTAIN WORDS, YOU BELIEVE THEIR HIDDEN ARGUMENTS.
 WHEN YOU BELIEVE SOMETHING IS RIGHT OR WRONG, TRUE OR FALSE, 
 YOU BELIEVE THE ASSUMPTIONS IN THE WORDS WHICH EXPRESS THE ARGUMENTS.
 SUCH ASSUMPTIONS ARE OFTEN FULL OF HOLES, BUT REMAIN MOST PRECIOUS 
 TO THE CONVINCED.

                 -- THE OPEN-ENDED PROOF FROM THE PANOPLIA PROPHETICA
                    CHILDREN OF DUNE BY FRANK HERBERT
 Job cpu time:  0 days  4 hours  5 minutes 57.6 seconds.
 File lengths (MBytes):  RWF=    248 Int=      0 D2E=      0 Chk=     34 Scr=      1
 Normal termination of Gaussian 09 at Wed Sep 29 11:10:33 2021.
