 Entering Gaussian System, Link 0=g09
 Input=C13H12O_3674_conf_0.com
 Output=C13H12O_3674_conf_0.log
 Initial command:
 /sw/target/amd/app/gaussian/Gaussian09RevA.02_gcc-4.9.2/g09/l1.exe /home/jschleinitz/gaussian/Gau-3236505.inp -scrdir=/home/jschleinitz/gaussian/
 Entering Link 1 = /sw/target/amd/app/gaussian/Gaussian09RevA.02_gcc-4.9.2/g09/l1.exe PID=   3236507.
  
 Copyright (c) 1988,1990,1992,1993,1995,1998,2003,2009, Gaussian, Inc.
                  All Rights Reserved.
  
 This is part of the Gaussian(R) 09 program.  It is based on
 the Gaussian(R) 03 system (copyright 2003, Gaussian, Inc.),
 the Gaussian(R) 98 system (copyright 1998, Gaussian, Inc.),
 the Gaussian(R) 94 system (copyright 1995, Gaussian, Inc.),
 the Gaussian 92(TM) system (copyright 1992, Gaussian, Inc.),
 the Gaussian 90(TM) system (copyright 1990, Gaussian, Inc.),
 the Gaussian 88(TM) system (copyright 1988, Gaussian, Inc.),
 the Gaussian 86(TM) system (copyright 1986, Carnegie Mellon
 University), and the Gaussian 82(TM) system (copyright 1983,
 Carnegie Mellon University). Gaussian is a federally registered
 trademark of Gaussian, Inc.
  
 This software contains proprietary and confidential information,
 including trade secrets, belonging to Gaussian, Inc.
  
 This software is provided under written license and may be
 used, copied, transmitted, or stored only in accord with that
 written license.
  
 The following legend is applicable only to US Government
 contracts under FAR:
  
                    RESTRICTED RIGHTS LEGEND
  
 Use, reproduction and disclosure by the US Government is
 subject to restrictions as set forth in subparagraphs (a)
 and (c) of the Commercial Computer Software - Restricted
 Rights clause in FAR 52.227-19.
  
 Gaussian, Inc.
 340 Quinnipiac St., Bldg. 40, Wallingford CT 06492
  
  
 ---------------------------------------------------------------
 Warning -- This program may not be used in any manner that
 competes with the business of Gaussian, Inc. or will provide
 assistance to any competitor of Gaussian, Inc.  The licensee
 of this program is prohibited from giving any competitor of
 Gaussian, Inc. access to this program.  By using this program,
 the user acknowledges that Gaussian, Inc. is engaged in the
 business of creating and licensing software in the field of
 computational chemistry and represents and warrants to the
 licensee that it is not a competitor of Gaussian, Inc. and that
 it will not use this program in any manner prohibited above.
 ---------------------------------------------------------------
  

 Cite this work as:
 Gaussian 09, Revision A.02,
 M. J. Frisch, G. W. Trucks, H. B. Schlegel, G. E. Scuseria, 
 M. A. Robb, J. R. Cheeseman, G. Scalmani, V. Barone, B. Mennucci, 
 G. A. Petersson, H. Nakatsuji, M. Caricato, X. Li, H. P. Hratchian, 
 A. F. Izmaylov, J. Bloino, G. Zheng, J. L. Sonnenberg, M. Hada, 
 M. Ehara, K. Toyota, R. Fukuda, J. Hasegawa, M. Ishida, T. Nakajima, 
 Y. Honda, O. Kitao, H. Nakai, T. Vreven, J. A. Montgomery, Jr., 
 J. E. Peralta, F. Ogliaro, M. Bearpark, J. J. Heyd, E. Brothers, 
 K. N. Kudin, V. N. Staroverov, R. Kobayashi, J. Normand, 
 K. Raghavachari, A. Rendell, J. C. Burant, S. S. Iyengar, J. Tomasi, 
 M. Cossi, N. Rega, J. M. Millam, M. Klene, J. E. Knox, J. B. Cross, 
 V. Bakken, C. Adamo, J. Jaramillo, R. Gomperts, R. E. Stratmann, 
 O. Yazyev, A. J. Austin, R. Cammi, C. Pomelli, J. W. Ochterski, 
 R. L. Martin, K. Morokuma, V. G. Zakrzewski, G. A. Voth, 
 P. Salvador, J. J. Dannenberg, S. Dapprich, A. D. Daniels, 
 O. Farkas, J. B. Foresman, J. V. Ortiz, J. Cioslowski, 
 and D. J. Fox, Gaussian, Inc., Wallingford CT, 2009.
 
 ******************************************
 Gaussian 09:  AM64L-G09RevA.02 11-Jun-2009
                30-Sep-2021 
 ******************************************
 %nproc=4
 Will use up to    4 processors via shared memory.
 %mem=8gb
 %chk=C13H12O_3674_conf_0.chk
 -----------------------------------
 #p opt b3lyp/6-31G* scf=(xqc,tight)
 -----------------------------------
 1/14=-1,18=20,19=15,26=3,38=1/1,3;
 2/9=110,12=2,17=6,18=5,40=1/2;
 3/5=1,6=6,7=1,11=2,16=1,25=1,30=1,71=1,74=-5/1,2,3;
 4//1;
 5/5=2,8=3,13=1,32=2,38=5/2,8;
 6/7=2,8=2,9=2,10=2,28=1/1;
 7//1,2,3,16;
 1/14=-1,18=20,19=15/3(2);
 2/9=110/2;
 99//99;
 2/9=110/2;
 3/5=1,6=6,7=1,11=2,16=1,25=1,30=1,71=1,74=-5/1,2,3;
 4/5=5,16=3/1;
 5/5=2,8=3,13=1,32=2,38=5/2,8;
 7//1,2,3,16;
 1/14=-1,18=20,19=15/3(-5);
 2/9=110/2;
 6/7=2,8=2,9=2,10=2,19=2,28=1/1;
 99/9=1/99;
 Leave Link    1 at Thu Sep 30 12:26:14 2021, MaxMem= 1073741824 cpu:       0.1
 (Enter /sw/target/amd/app/gaussian/Gaussian09RevA.02_gcc-4.9.2/g09/l101.exe)
 -------------------------
 COc1ccccc1c1ccccc1_conf_0
 -------------------------
 Symbolic Z-matrix:
 Charge =  0 Multiplicity = 1
 C                     2.38024   0.29835   1.65865 
 O                     3.16854  -0.05374   0.53029 
 C                     3.534     0.94441  -0.34085 
 C                     3.23917   2.30032  -0.11977 
 C                     3.66065   3.28059  -1.01799 
 C                     4.37576   2.91822  -2.15047 
 C                     4.66513   1.57282  -2.38576 
 C                     4.26314   0.55511  -1.49353 
 C                     4.62191  -0.85519  -1.80175 
 C                     5.90702  -1.19108  -2.27212 
 C                     6.24914  -2.50944  -2.59146 
 C                     5.31899  -3.52992  -2.4332 
 C                     4.04379  -3.22983  -1.96463 
 C                     3.69849  -1.9074   -1.6649 
 H                     1.43865   0.77042   1.35724 
 H                     2.944     0.93783   2.34483 
 H                     2.12952  -0.62358   2.1918 
 H                     2.6864    2.62964   0.75364 
 H                     3.43083   4.32613  -0.82969 
 H                     4.7095    3.67745  -2.85307 
 H                     5.21237   1.31968  -3.29221 
 H                     6.66453  -0.42014  -2.39163 
 H                     7.24684  -2.73511  -2.96192 
 H                     5.5857   -4.55557  -2.67134 
 H                     3.31235  -4.02202  -1.83105 
 H                     2.68873  -1.70406  -1.31622 
 
 NAtoms=     26 NQM=     26 NQMF=      0 NMic=      0 NMicF=      0 NTot=     26.
                    Isotopes and Nuclear Properties:
 (Nuclear quadrupole moments (NQMom) in fm**2, nuclear magnetic moments (NMagM)
  in nuclear magnetons)

  Atom         1           2           3           4           5           6           7           8           9          10
 IAtWgt=          12          16          12          12          12          12          12          12          12          12
 AtmWgt=  12.0000000  15.9949146  12.0000000  12.0000000  12.0000000  12.0000000  12.0000000  12.0000000  12.0000000  12.0000000
 NucSpn=           0           0           0           0           0           0           0           0           0           0
 AtZEff=   0.0000000   0.0000000   0.0000000   0.0000000   0.0000000   0.0000000   0.0000000   0.0000000   0.0000000   0.0000000
 NQMom=    0.0000000   0.0000000   0.0000000   0.0000000   0.0000000   0.0000000   0.0000000   0.0000000   0.0000000   0.0000000
 NMagM=    0.0000000   0.0000000   0.0000000   0.0000000   0.0000000   0.0000000   0.0000000   0.0000000   0.0000000   0.0000000

  Atom        11          12          13          14          15          16          17          18          19          20
 IAtWgt=          12          12          12          12           1           1           1           1           1           1
 AtmWgt=  12.0000000  12.0000000  12.0000000  12.0000000   1.0078250   1.0078250   1.0078250   1.0078250   1.0078250   1.0078250
 NucSpn=           0           0           0           0           1           1           1           1           1           1
 AtZEff=   0.0000000   0.0000000   0.0000000   0.0000000   0.0000000   0.0000000   0.0000000   0.0000000   0.0000000   0.0000000
 NQMom=    0.0000000   0.0000000   0.0000000   0.0000000   0.0000000   0.0000000   0.0000000   0.0000000   0.0000000   0.0000000
 NMagM=    0.0000000   0.0000000   0.0000000   0.0000000   2.7928460   2.7928460   2.7928460   2.7928460   2.7928460   2.7928460

  Atom        21          22          23          24          25          26
 IAtWgt=           1           1           1           1           1           1
 AtmWgt=   1.0078250   1.0078250   1.0078250   1.0078250   1.0078250   1.0078250
 NucSpn=           1           1           1           1           1           1
 AtZEff=   0.0000000   0.0000000   0.0000000   0.0000000   0.0000000   0.0000000
 NQMom=    0.0000000   0.0000000   0.0000000   0.0000000   0.0000000   0.0000000
 NMagM=    2.7928460   2.7928460   2.7928460   2.7928460   2.7928460   2.7928460
 Leave Link  101 at Thu Sep 30 12:26:16 2021, MaxMem= 1073741824 cpu:       0.2
 (Enter /sw/target/amd/app/gaussian/Gaussian09RevA.02_gcc-4.9.2/g09/l103.exe)

 GradGradGradGradGradGradGradGradGradGradGradGradGradGradGradGradGradGrad
 Berny optimization.
 Initialization pass.
                           ----------------------------
                           !    Initial Parameters    !
                           ! (Angstroms and Degrees)  !
 --------------------------                            --------------------------
 ! Name  Definition              Value          Derivative Info.                !
 --------------------------------------------------------------------------------
 ! R1    R(1,2)                  1.4208         estimate D2E/DX2                !
 ! R2    R(1,15)                 1.0956         estimate D2E/DX2                !
 ! R3    R(1,16)                 1.0943         estimate D2E/DX2                !
 ! R4    R(1,17)                 1.0941         estimate D2E/DX2                !
 ! R5    R(2,3)                  1.3743         estimate D2E/DX2                !
 ! R6    R(3,4)                  1.4051         estimate D2E/DX2                !
 ! R7    R(3,8)                  1.4184         estimate D2E/DX2                !
 ! R8    R(4,5)                  1.3948         estimate D2E/DX2                !
 ! R9    R(4,18)                 1.0848         estimate D2E/DX2                !
 ! R10   R(5,6)                  1.3875         estimate D2E/DX2                !
 ! R11   R(5,19)                 1.0869         estimate D2E/DX2                !
 ! R12   R(6,7)                  1.3961         estimate D2E/DX2                !
 ! R13   R(6,20)                 1.0869         estimate D2E/DX2                !
 ! R14   R(7,8)                  1.4119         estimate D2E/DX2                !
 ! R15   R(7,21)                 1.0887         estimate D2E/DX2                !
 ! R16   R(8,9)                  1.4875         estimate D2E/DX2                !
 ! R17   R(9,10)                 1.4091         estimate D2E/DX2                !
 ! R18   R(9,14)                 1.4066         estimate D2E/DX2                !
 ! R19   R(10,11)                1.399          estimate D2E/DX2                !
 ! R20   R(10,22)                1.0874         estimate D2E/DX2                !
 ! R21   R(11,12)                1.3898         estimate D2E/DX2                !
 ! R22   R(11,23)                1.0879         estimate D2E/DX2                !
 ! R23   R(12,13)                1.3913         estimate D2E/DX2                !
 ! R24   R(12,24)                1.0862         estimate D2E/DX2                !
 ! R25   R(13,14)                1.3992         estimate D2E/DX2                !
 ! R26   R(13,25)                1.0865         estimate D2E/DX2                !
 ! R27   R(14,26)                1.0874         estimate D2E/DX2                !
 ! A1    A(2,1,15)             111.4164         estimate D2E/DX2                !
 ! A2    A(2,1,16)             110.9133         estimate D2E/DX2                !
 ! A3    A(2,1,17)             107.7779         estimate D2E/DX2                !
 ! A4    A(15,1,16)            111.3133         estimate D2E/DX2                !
 ! A5    A(15,1,17)            107.4695         estimate D2E/DX2                !
 ! A6    A(16,1,17)            107.7518         estimate D2E/DX2                !
 ! A7    A(1,2,3)              118.0974         estimate D2E/DX2                !
 ! A8    A(2,3,4)              123.0473         estimate D2E/DX2                !
 ! A9    A(2,3,8)              116.9028         estimate D2E/DX2                !
 ! A10   A(4,3,8)              120.0388         estimate D2E/DX2                !
 ! A11   A(3,4,5)              120.8961         estimate D2E/DX2                !
 ! A12   A(3,4,18)             121.7719         estimate D2E/DX2                !
 ! A13   A(5,4,18)             117.3297         estimate D2E/DX2                !
 ! A14   A(4,5,6)              119.8557         estimate D2E/DX2                !
 ! A15   A(4,5,19)             120.0395         estimate D2E/DX2                !
 ! A16   A(6,5,19)             120.1047         estimate D2E/DX2                !
 ! A17   A(5,6,7)              119.7385         estimate D2E/DX2                !
 ! A18   A(5,6,20)             120.2257         estimate D2E/DX2                !
 ! A19   A(7,6,20)             120.0358         estimate D2E/DX2                !
 ! A20   A(6,7,8)              121.9453         estimate D2E/DX2                !
 ! A21   A(6,7,21)             117.9417         estimate D2E/DX2                !
 ! A22   A(8,7,21)             120.1119         estimate D2E/DX2                !
 ! A23   A(3,8,7)              117.5214         estimate D2E/DX2                !
 ! A24   A(3,8,9)              123.5453         estimate D2E/DX2                !
 ! A25   A(7,8,9)              118.9332         estimate D2E/DX2                !
 ! A26   A(8,9,10)             121.0061         estimate D2E/DX2                !
 ! A27   A(8,9,14)             122.0545         estimate D2E/DX2                !
 ! A28   A(10,9,14)            116.9286         estimate D2E/DX2                !
 ! A29   A(9,10,11)            121.5918         estimate D2E/DX2                !
 ! A30   A(9,10,22)            120.1996         estimate D2E/DX2                !
 ! A31   A(11,10,22)           118.2081         estimate D2E/DX2                !
 ! A32   A(10,11,12)           120.1513         estimate D2E/DX2                !
 ! A33   A(10,11,23)           119.8334         estimate D2E/DX2                !
 ! A34   A(12,11,23)           120.015          estimate D2E/DX2                !
 ! A35   A(11,12,13)           119.5633         estimate D2E/DX2                !
 ! A36   A(11,12,24)           120.2668         estimate D2E/DX2                !
 ! A37   A(13,12,24)           120.1698         estimate D2E/DX2                !
 ! A38   A(12,13,14)           120.1436         estimate D2E/DX2                !
 ! A39   A(12,13,25)           120.0778         estimate D2E/DX2                !
 ! A40   A(14,13,25)           119.7785         estimate D2E/DX2                !
 ! A41   A(9,14,13)            121.6102         estimate D2E/DX2                !
 ! A42   A(9,14,26)            120.0593         estimate D2E/DX2                !
 ! A43   A(13,14,26)           118.3303         estimate D2E/DX2                !
 ! D1    D(15,1,2,3)            58.3636         estimate D2E/DX2                !
 ! D2    D(16,1,2,3)           -66.2363         estimate D2E/DX2                !
 ! D3    D(17,1,2,3)           176.0348         estimate D2E/DX2                !
 ! D4    D(1,2,3,4)              4.2942         estimate D2E/DX2                !
 ! D5    D(1,2,3,8)           -176.9155         estimate D2E/DX2                !
 ! D6    D(2,3,4,5)            178.403          estimate D2E/DX2                !
 ! D7    D(2,3,4,18)            -1.04           estimate D2E/DX2                !
 ! D8    D(8,3,4,5)             -0.3508         estimate D2E/DX2                !
 ! D9    D(8,3,4,18)          -179.7938         estimate D2E/DX2                !
 ! D10   D(2,3,8,7)           -178.9405         estimate D2E/DX2                !
 ! D11   D(2,3,8,9)              0.9421         estimate D2E/DX2                !
 ! D12   D(4,3,8,7)             -0.1118         estimate D2E/DX2                !
 ! D13   D(4,3,8,9)            179.7708         estimate D2E/DX2                !
 ! D14   D(3,4,5,6)              0.3048         estimate D2E/DX2                !
 ! D15   D(3,4,5,19)          -179.5729         estimate D2E/DX2                !
 ! D16   D(18,4,5,6)           179.7717         estimate D2E/DX2                !
 ! D17   D(18,4,5,19)           -0.1059         estimate D2E/DX2                !
 ! D18   D(4,5,6,7)              0.2103         estimate D2E/DX2                !
 ! D19   D(4,5,6,20)          -179.8338         estimate D2E/DX2                !
 ! D20   D(19,5,6,7)          -179.9121         estimate D2E/DX2                !
 ! D21   D(19,5,6,20)            0.0437         estimate D2E/DX2                !
 ! D22   D(5,6,7,8)             -0.6936         estimate D2E/DX2                !
 ! D23   D(5,6,7,21)           178.9271         estimate D2E/DX2                !
 ! D24   D(20,6,7,8)           179.3505         estimate D2E/DX2                !
 ! D25   D(20,6,7,21)           -1.0288         estimate D2E/DX2                !
 ! D26   D(6,7,8,3)              0.6349         estimate D2E/DX2                !
 ! D27   D(6,7,8,9)           -179.2532         estimate D2E/DX2                !
 ! D28   D(21,7,8,3)          -178.9778         estimate D2E/DX2                !
 ! D29   D(21,7,8,9)             1.1341         estimate D2E/DX2                !
 ! D30   D(3,8,9,10)          -136.8136         estimate D2E/DX2                !
 ! D31   D(3,8,9,14)            44.4224         estimate D2E/DX2                !
 ! D32   D(7,8,9,10)            43.0674         estimate D2E/DX2                !
 ! D33   D(7,8,9,14)          -135.6966         estimate D2E/DX2                !
 ! D34   D(8,9,10,11)         -178.6881         estimate D2E/DX2                !
 ! D35   D(8,9,10,22)            1.5821         estimate D2E/DX2                !
 ! D36   D(14,9,10,11)           0.137          estimate D2E/DX2                !
 ! D37   D(14,9,10,22)        -179.5929         estimate D2E/DX2                !
 ! D38   D(8,9,14,13)          179.6368         estimate D2E/DX2                !
 ! D39   D(8,9,14,26)           -0.53           estimate D2E/DX2                !
 ! D40   D(10,9,14,13)           0.8249         estimate D2E/DX2                !
 ! D41   D(10,9,14,26)        -179.3418         estimate D2E/DX2                !
 ! D42   D(9,10,11,12)          -0.7797         estimate D2E/DX2                !
 ! D43   D(9,10,11,23)         179.3812         estimate D2E/DX2                !
 ! D44   D(22,10,11,12)        178.9554         estimate D2E/DX2                !
 ! D45   D(22,10,11,23)         -0.8837         estimate D2E/DX2                !
 ! D46   D(10,11,12,13)          0.4589         estimate D2E/DX2                !
 ! D47   D(10,11,12,24)       -179.4002         estimate D2E/DX2                !
 ! D48   D(23,11,12,13)       -179.7023         estimate D2E/DX2                !
 ! D49   D(23,11,12,24)          0.4386         estimate D2E/DX2                !
 ! D50   D(11,12,13,14)          0.4872         estimate D2E/DX2                !
 ! D51   D(11,12,13,25)       -179.5639         estimate D2E/DX2                !
 ! D52   D(24,12,13,14)       -179.6536         estimate D2E/DX2                !
 ! D53   D(24,12,13,25)          0.2953         estimate D2E/DX2                !
 ! D54   D(12,13,14,9)          -1.1538         estimate D2E/DX2                !
 ! D55   D(12,13,14,26)        179.0102         estimate D2E/DX2                !
 ! D56   D(25,13,14,9)         178.8972         estimate D2E/DX2                !
 ! D57   D(25,13,14,26)         -0.9389         estimate D2E/DX2                !
 --------------------------------------------------------------------------------
 Trust Radius=3.00D-01 FncErr=1.00D-07 GrdErr=1.00D-06
 Number of steps in this run= 137 maximum allowed number of steps= 156.
 GradGradGradGradGradGradGradGradGradGradGradGradGradGradGradGradGradGrad

 Leave Link  103 at Thu Sep 30 12:26:16 2021, MaxMem= 1073741824 cpu:       0.0
 (Enter /sw/target/amd/app/gaussian/Gaussian09RevA.02_gcc-4.9.2/g09/l202.exe)
                          Input orientation:                          
 ---------------------------------------------------------------------
 Center     Atomic      Atomic             Coordinates (Angstroms)
 Number     Number       Type             X           Y           Z
 ---------------------------------------------------------------------
      1          6           0        2.380236    0.298354    1.658650
      2          8           0        3.168537   -0.053737    0.530285
      3          6           0        3.533997    0.944409   -0.340851
      4          6           0        3.239167    2.300321   -0.119771
      5          6           0        3.660645    3.280591   -1.017993
      6          6           0        4.375765    2.918224   -2.150475
      7          6           0        4.665134    1.572819   -2.385763
      8          6           0        4.263142    0.555107   -1.493526
      9          6           0        4.621908   -0.855192   -1.801750
     10          6           0        5.907022   -1.191077   -2.272121
     11          6           0        6.249144   -2.509441   -2.591455
     12          6           0        5.318985   -3.529925   -2.433202
     13          6           0        4.043785   -3.229832   -1.964627
     14          6           0        3.698492   -1.907404   -1.664897
     15          1           0        1.438650    0.770422    1.357242
     16          1           0        2.943996    0.937826    2.344827
     17          1           0        2.129519   -0.623580    2.191801
     18          1           0        2.686403    2.629642    0.753636
     19          1           0        3.430833    4.326132   -0.829692
     20          1           0        4.709499    3.677453   -2.853071
     21          1           0        5.212374    1.319684   -3.292213
     22          1           0        6.664530   -0.420142   -2.391627
     23          1           0        7.246845   -2.735109   -2.961920
     24          1           0        5.585696   -4.555567   -2.671340
     25          1           0        3.312351   -4.022025   -1.831049
     26          1           0        2.688730   -1.704058   -1.316220
 ---------------------------------------------------------------------
                    Distance matrix (angstroms):
                    1          2          3          4          5
     1  C    0.000000
     2  O    1.420772   0.000000
     3  C    2.397197   1.374313   0.000000
     4  C    2.812190   2.443184   1.405097   0.000000
     5  C    4.206851   3.709054   2.435633   1.394768   0.000000
     6  C    5.035403   4.180482   2.807002   2.407783   1.387523
     7  C    4.816876   3.659075   2.419925   2.774412   2.407546
     8  C    3.680688   2.380055   1.418403   2.445710   2.831500
     9  C    4.281370   2.862343   2.560535   3.833834   4.317754
    10  C    5.487037   4.079990   3.731133   4.892844   5.158959
    11  C    6.396527   5.026518   4.936226   6.188941   6.534568
    12  C    6.327339   5.048818   5.252027   6.608281   7.150946
    13  C    5.323873   4.132581   4.507862   5.885023   6.590031
    14  C    4.201087   2.921602   3.148491   4.505923   5.228308
    15  H    1.095572   2.087009   2.702641   2.786399   4.108522
    16  H    1.094344   2.079947   2.749729   2.831565   4.160612
    17  H    1.094108   2.040812   3.293246   3.888943   5.281067
    18  H    2.519462   2.735482   2.180900   1.084823   2.124042
    19  H    4.849597   4.593647   3.418430   2.155142   1.086935
    20  H    6.099130   5.267204   3.893916   3.395482   2.150605
    21  H    5.794407   4.546982   3.415892   3.862587   3.380102
    22  H    5.939373   4.570972   3.983456   4.929032   4.960405
    23  H    7.364471   6.001487   5.847572   7.035257   7.268309
    24  H    7.251506   6.029887   6.315884   7.682441   8.236792
    25  H    5.631386   4.619944   5.189921   6.550258   7.355988
    26  H    3.599261   2.522570   2.946218   4.215391   5.087267
                    6          7          8          9         10
     6  C    0.000000
     7  C    1.396141   0.000000
     8  C    2.455319   1.411887   0.000000
     9  C    3.797481   2.497634   1.487501   0.000000
    10  C    4.387016   3.032215   2.521451   1.409108   0.000000
    11  C    5.758782   4.383634   3.813281   2.451137   1.398966
    12  C    6.522900   5.144684   4.322648   2.835286   2.417011
    13  C    6.159817   4.860956   3.820447   2.449423   2.778979
    14  C    4.897058   3.683206   2.532224   1.406619   2.399885
    15  H    5.054085   5.006409   4.018830   4.770219   6.081620
    16  H    5.116608   5.073857   4.076711   4.819171   5.884553
    17  H    6.036999   5.675175   4.418516   4.713184   5.875218
    18  H    3.372104   3.858507   3.440863   4.735002   5.841702
    19  H    2.149318   3.394936   3.918424   5.404598   6.217050
    20  H    1.086944   2.156346   3.434624   4.653796   5.047192
    21  H    2.135137   1.088668   2.172762   2.701891   2.797686
    22  H    4.054786   2.823032   2.743057   2.170144   1.087401
    23  H    6.392317   5.055238   4.678053   3.430798   2.157540
    24  H    7.588992   6.203717   5.408825   3.921461   3.403295
    25  H    7.028509   5.782734   4.687009   3.427044   3.865375
    26  H    4.990748   3.973415   2.759354   2.166446   3.396218
                   11         12         13         14         15
    11  C    0.000000
    12  C    1.389829   0.000000
    13  C    2.403223   1.391314   0.000000
    14  C    2.779709   2.418443   1.399243   0.000000
    15  H    7.034953   6.922244   5.815804   4.627199   0.000000
    16  H    6.868373   6.959234   6.095105   4.974182   1.808152
    17  H    6.588424   6.325361   5.266200   4.357064   1.765511
    18  H    7.091751   7.417998   6.600369   5.240077   2.319035
    19  H    7.600773   8.237354   7.665271   6.294933   4.625424
    20  H    6.380957   7.245278   6.995934   5.798666   6.072563
    21  H    4.028419   4.926254   4.881207   3.918430   6.013328
    22  H    2.139544   3.388653   3.865875   3.396684   6.540740
    23  H    1.087923   2.151259   3.391008   3.867579   8.042328
    24  H    2.152481   1.086180   2.152790   3.404003   7.860892
    25  H    3.389820   2.152053   1.086466   2.155999   6.053387
    26  H    3.866705   3.391118   2.141166   1.087448   3.851384
                   16         17         18         19         20
    16  H    0.000000
    17  H    1.767704   0.000000
    18  H    2.336768   3.600262   0.000000
    19  H    4.668533   5.943273   2.437044   0.000000
    20  H    6.135202   7.113783   4.266047   2.479886   0.000000
    21  H    6.088315   6.584427   4.946252   4.275117   2.450470
    22  H    6.174176   6.451010   5.917715   5.951769   4.563481
    23  H    7.756709   7.563493   7.961378   8.304786   6.897167
    24  H    7.894168   7.145336   8.471339   9.323073   8.281507
    25  H    6.494132   5.397392   7.163593   8.408833   7.891673
    26  H    4.521945   3.713000   4.802631   6.095131   5.950301
                   21         22         23         24         25
    21  H    0.000000
    22  H    2.438608   0.000000
    23  H    4.548572   2.454261   0.000000
    24  H    5.919749   4.282974   2.481516   0.000000
    25  H    5.854822   4.952263   4.291301   2.481705   0.000000
    26  H    4.406398   4.314154   4.954573   4.284841   2.454978
                   26
    26  H    0.000000
 Stoichiometry    C13H12O
 Framework group  C1[X(C13H12O)]
 Deg. of freedom    72
 Full point group                 C1      NOp   1
 Largest Abelian subgroup         C1      NOp   1
 Largest concise Abelian subgroup C1      NOp   1
                         Standard orientation:                         
 ---------------------------------------------------------------------
 Center     Atomic      Atomic             Coordinates (Angstroms)
 Number     Number       Type             X           Y           Z
 ---------------------------------------------------------------------
      1          6           0        1.908380    2.798003    0.373602
      2          8           0        0.956056    1.747580    0.282581
      3          6           0        1.419323    0.469669    0.079937
      4          6           0        2.786333    0.146409    0.047014
      5          6           0        3.206502   -1.171858   -0.129073
      6          6           0        2.267219   -2.181801   -0.280669
      7          6           0        0.906342   -1.870657   -0.260302
      8          6           0        0.444819   -0.549359   -0.074309
      9          6           0       -1.020712   -0.296091   -0.047272
     10          6           0       -1.891955   -1.149646    0.658394
     11          6           0       -3.274857   -0.938560    0.669760
     12          6           0       -3.821685    0.142241   -0.011764
     13          6           0       -2.985822    1.006069   -0.712397
     14          6           0       -1.605063    0.780855   -0.738140
     15          1           0        2.523725    2.859572   -0.530742
     16          1           0        2.527477    2.687476    1.269197
     17          1           0        1.359143    3.740133    0.461926
     18          1           0        3.555116    0.902603    0.165265
     19          1           0        4.267531   -1.407186   -0.145427
     20          1           0        2.587919   -3.211559   -0.415568
     21          1           0        0.195172   -2.683061   -0.399712
     22          1           0       -1.496447   -1.995012    1.216401
     23          1           0       -3.922107   -1.621418    1.215974
     24          1           0       -4.894171    0.313464    0.003851
     25          1           0       -3.403619    1.857625   -1.242215
     26          1           0       -0.981127    1.465088   -1.308292
 ---------------------------------------------------------------------
 Rotational constants (GHZ):      1.2280200      0.4981305      0.3738169
 Leave Link  202 at Thu Sep 30 12:26:16 2021, MaxMem= 1073741824 cpu:       0.0
 (Enter /sw/target/amd/app/gaussian/Gaussian09RevA.02_gcc-4.9.2/g09/l301.exe)
 Standard basis: 6-31G(d) (6D, 7F)
 Ernie: Thresh=  0.10000D-02 Tol=  0.10000D-05 Strict=F.
 There are   234 symmetry adapted basis functions of A   symmetry.
 Integral buffers will be    131072 words long.
 Raffenetti 2 integral format.
 Two-electron integral symmetry is turned on.
   234 basis functions,   440 primitive gaussians,   234 cartesian basis functions
    49 alpha electrons       49 beta electrons
       nuclear repulsion energy       811.6964595691 Hartrees.
 IExCor=  402 DFT=T Ex+Corr=B3LYP ExCW=0 ScaHFX=  0.200000
 ScaDFX=  0.800000  0.720000  1.000000  0.810000 ScalE2=  1.000000  1.000000
 IRadAn=      0 IRanWt=     -1 IRanGd=            0 ICorTp=0
 NAtoms=   26 NActive=   26 NUniq=   26 SFac= 7.50D-01 NAtFMM=   80 NAOKFM=F Big=F
 Leave Link  301 at Thu Sep 30 12:26:16 2021, MaxMem= 1073741824 cpu:       0.1
 (Enter /sw/target/amd/app/gaussian/Gaussian09RevA.02_gcc-4.9.2/g09/l302.exe)
 NPDir=0 NMtPBC=     1 NCelOv=     1 NCel=       1 NClECP=     1 NCelD=      1
         NCelK=      1 NCelE2=     1 NClLst=     1 CellRange=     0.0.
 One-electron integrals computed using PRISM.
 NBasis=   234 RedAO= T  NBF=   234
 NBsUse=   234 1.00D-06 NBFU=   234
 Precomputing XC quadrature grid using
 IXCGrd= 2 IRadAn=           0 IRanWt=          -1 IRanGd=           0 AccXCQ= 1.00D-10.
 NRdTot=    1641 NPtTot=      208616 NUsed=      220454 NTot=      220486
 NSgBfM=   233   233   233   233   233 NAtAll=    26    26.
 Leave Link  302 at Thu Sep 30 12:26:20 2021, MaxMem= 1073741824 cpu:       2.0
 (Enter /sw/target/amd/app/gaussian/Gaussian09RevA.02_gcc-4.9.2/g09/l303.exe)
 DipDrv:  MaxL=1.
 Leave Link  303 at Thu Sep 30 12:26:21 2021, MaxMem= 1073741824 cpu:       0.2
 (Enter /sw/target/amd/app/gaussian/Gaussian09RevA.02_gcc-4.9.2/g09/l401.exe)
 Harris functional with IExCor=  402 diagonalized for initial guess.
 ExpMin= 1.61D-01 ExpMax= 5.48D+03 ExpMxC= 8.25D+02 IAcc=1 IRadAn=         1 AccDes= 0.00D+00
 HarFok:  IExCor=  402 AccDes= 0.00D+00 IRadAn=         1 IDoV= 1
 ScaDFX=  1.000000  1.000000  1.000000  1.000000
 FoFCou: FMM=F IPFlag=           0 FMFlag=      100000 FMFlg1=           0
         NFxFlg=           0 DoJE=T BraDBF=F KetDBF=T FulRan=T
         Omega=  0.000000  0.000000  1.000000  0.000000  0.000000 ICntrl=     500 IOpCl=  0
         NMat0=    1 NMatS0=    1 NMatT0=    0 NMatD0=    1 NMtDS0=    0 NMtDT0=    0
         I1Cent=           4 NGrid=           0.
 Petite list used in FoFCou.
 Harris En= -577.896442688862    
 Initial guess orbital symmetries:
       Occupied  (A) (A) (A) (A) (A) (A) (A) (A) (A) (A) (A) (A)
                 (A) (A) (A) (A) (A) (A) (A) (A) (A) (A) (A) (A)
                 (A) (A) (A) (A) (A) (A) (A) (A) (A) (A) (A) (A)
                 (A) (A) (A) (A) (A) (A) (A) (A) (A) (A) (A) (A)
                 (A)
       Virtual   (A) (A) (A) (A) (A) (A) (A) (A) (A) (A) (A) (A)
                 (A) (A) (A) (A) (A) (A) (A) (A) (A) (A) (A) (A)
                 (A) (A) (A) (A) (A) (A) (A) (A) (A) (A) (A) (A)
                 (A) (A) (A) (A) (A) (A) (A) (A) (A) (A) (A) (A)
                 (A) (A) (A) (A) (A) (A) (A) (A) (A) (A) (A) (A)
                 (A) (A) (A) (A) (A) (A) (A) (A) (A) (A) (A) (A)
                 (A) (A) (A) (A) (A) (A) (A) (A) (A) (A) (A) (A)
                 (A) (A) (A) (A) (A) (A) (A) (A) (A) (A) (A) (A)
                 (A) (A) (A) (A) (A) (A) (A) (A) (A) (A) (A) (A)
                 (A) (A) (A) (A) (A) (A) (A) (A) (A) (A) (A) (A)
                 (A) (A) (A) (A) (A) (A) (A) (A) (A) (A) (A) (A)
                 (A) (A) (A) (A) (A) (A) (A) (A) (A) (A) (A) (A)
                 (A) (A) (A) (A) (A) (A) (A) (A) (A) (A) (A) (A)
                 (A) (A) (A) (A) (A) (A) (A) (A) (A) (A) (A) (A)
                 (A) (A) (A) (A) (A) (A) (A) (A) (A) (A) (A) (A)
                 (A) (A) (A) (A) (A)
 The electronic state of the initial guess is 1-A.
 Leave Link  401 at Thu Sep 30 12:26:33 2021, MaxMem= 1073741824 cpu:       9.0
 (Enter /sw/target/amd/app/gaussian/Gaussian09RevA.02_gcc-4.9.2/g09/l502.exe)
 Closed shell SCF:
 Requested convergence on RMS density matrix=1.00D-08 within  64 cycles.
 Requested convergence on MAX density matrix=1.00D-06.
 Requested convergence on             energy=1.00D-06.
 No special actions if energy rises.
 Using DIIS extrapolation, IDIIS=  1040.
 Integral symmetry usage will be decided dynamically.
       220207 words used for storage of precomputed grid.
 Keep R1 ints in memory in canonical form, NReq=384883281.
 IEnd=      393187 IEndB=      393187 NGot=  1073741824 MDV=   695406564
 LenX=   695406564 LenY=   695351367
 Symmetry not used in FoFDir.
 MinBra= 0 MaxBra= 2 Meth= 1.
 IRaf=       0 NMat=   1 IRICut=       1 DoRegI=T DoRafI=F ISym2E= 0 JSym2E=0.
 Integral accuracy reduced to 1.0D-05 until final iterations.

 Cycle   1  Pass 0  IDiag  1:
 E= -577.500119725713    
 DIIS: error= 2.80D-02 at cycle   1 NSaved=   1.
 NSaved= 1 IEnMin= 1 EnMin= -577.500119725713     IErMin= 1 ErrMin= 2.80D-02
 ErrMax= 2.80D-02 EMaxC= 1.00D-01 BMatC= 2.90D-01 BMatP= 2.90D-01
 IDIUse=3 WtCom= 7.20D-01 WtEn= 2.80D-01
 Coeff-Com:  0.100D+01
 Coeff-En:   0.100D+01
 Coeff:      0.100D+01
 Gap=     0.217 Goal=   None    Shift=    0.000
 GapD=    0.217 DampG=1.000 DampE=0.500 DampFc=0.5000 IDamp=-1.
 Damping current iteration by 5.00D-01
 RMSDP=5.41D-03 MaxDP=1.30D-01              OVMax= 2.12D-01

 Cycle   2  Pass 0  IDiag  1:
 E= -577.650557198704     Delta-E=       -0.150437472991 Rises=F Damp=T
 DIIS: error= 5.96D-03 at cycle   2 NSaved=   2.
 NSaved= 2 IEnMin= 2 EnMin= -577.650557198704     IErMin= 2 ErrMin= 5.96D-03
 ErrMax= 5.96D-03 EMaxC= 1.00D-01 BMatC= 1.77D-02 BMatP= 2.90D-01
 IDIUse=3 WtCom= 9.40D-01 WtEn= 5.96D-02
 Coeff-Com:  0.236D-01 0.976D+00
 Coeff-En:   0.322D-01 0.968D+00
 Coeff:      0.241D-01 0.976D+00
 Gap=     0.203 Goal=   None    Shift=    0.000
 RMSDP=1.42D-03 MaxDP=4.81D-02 DE=-1.50D-01 OVMax= 1.74D-01

 Cycle   3  Pass 0  IDiag  1:
 E= -577.803765019650     Delta-E=       -0.153207820947 Rises=F Damp=F
 DIIS: error= 8.29D-03 at cycle   3 NSaved=   3.
 NSaved= 3 IEnMin= 3 EnMin= -577.803765019650     IErMin= 2 ErrMin= 5.96D-03
 ErrMax= 8.29D-03 EMaxC= 1.00D-01 BMatC= 1.80D-02 BMatP= 1.77D-02
 IDIUse=3 WtCom= 9.17D-01 WtEn= 8.29D-02
 Coeff-Com: -0.328D-01 0.518D+00 0.515D+00
 Coeff-En:   0.000D+00 0.000D+00 0.100D+01
 Coeff:     -0.301D-01 0.475D+00 0.555D+00
 Gap=     0.194 Goal=   None    Shift=    0.000
 RMSDP=1.03D-03 MaxDP=3.71D-02 DE=-1.53D-01 OVMax= 8.63D-02

 Cycle   4  Pass 0  IDiag  1:
 E= -577.815501092479     Delta-E=       -0.011736072828 Rises=F Damp=F
 DIIS: error= 5.57D-03 at cycle   4 NSaved=   4.
 NSaved= 4 IEnMin= 4 EnMin= -577.815501092479     IErMin= 4 ErrMin= 5.57D-03
 ErrMax= 5.57D-03 EMaxC= 1.00D-01 BMatC= 7.06D-03 BMatP= 1.77D-02
 IDIUse=3 WtCom= 9.44D-01 WtEn= 5.57D-02
 Coeff-Com: -0.193D-01 0.120D+00 0.390D+00 0.510D+00
 Coeff-En:   0.000D+00 0.000D+00 0.332D+00 0.668D+00
 Coeff:     -0.182D-01 0.113D+00 0.386D+00 0.518D+00
 Gap=     0.190 Goal=   None    Shift=    0.000
 RMSDP=4.77D-04 MaxDP=1.28D-02 DE=-1.17D-02 OVMax= 3.46D-02

 Cycle   5  Pass 0  IDiag  1:
 E= -577.823431768856     Delta-E=       -0.007930676377 Rises=F Damp=F
 DIIS: error= 9.26D-04 at cycle   5 NSaved=   5.
 NSaved= 5 IEnMin= 5 EnMin= -577.823431768856     IErMin= 5 ErrMin= 9.26D-04
 ErrMax= 9.26D-04 EMaxC= 1.00D-01 BMatC= 2.43D-04 BMatP= 7.06D-03
 IDIUse=3 WtCom= 9.91D-01 WtEn= 9.26D-03
 Coeff-Com: -0.719D-02 0.305D-01 0.166D+00 0.271D+00 0.540D+00
 Coeff-En:   0.000D+00 0.000D+00 0.000D+00 0.000D+00 0.100D+01
 Coeff:     -0.712D-02 0.302D-01 0.164D+00 0.268D+00 0.544D+00
 Gap=     0.189 Goal=   None    Shift=    0.000
 RMSDP=9.73D-05 MaxDP=2.81D-03 DE=-7.93D-03 OVMax= 6.65D-03

 Cycle   6  Pass 0  IDiag  1:
 E= -577.823637250886     Delta-E=       -0.000205482030 Rises=F Damp=F
 DIIS: error= 3.48D-04 at cycle   6 NSaved=   6.
 NSaved= 6 IEnMin= 6 EnMin= -577.823637250886     IErMin= 6 ErrMin= 3.48D-04
 ErrMax= 3.48D-04 EMaxC= 1.00D-01 BMatC= 4.76D-05 BMatP= 2.43D-04
 IDIUse=3 WtCom= 9.97D-01 WtEn= 3.48D-03
 Coeff-Com: -0.181D-02 0.284D-02 0.497D-01 0.987D-01 0.343D+00 0.508D+00
 Coeff-En:   0.000D+00 0.000D+00 0.000D+00 0.000D+00 0.172D+00 0.828D+00
 Coeff:     -0.180D-02 0.283D-02 0.495D-01 0.984D-01 0.342D+00 0.509D+00
 Gap=     0.190 Goal=   None    Shift=    0.000
 RMSDP=3.65D-05 MaxDP=9.82D-04 DE=-2.05D-04 OVMax= 2.51D-03

 Cycle   7  Pass 0  IDiag  1:
 E= -577.823686029185     Delta-E=       -0.000048778298 Rises=F Damp=F
 DIIS: error= 7.39D-05 at cycle   7 NSaved=   7.
 NSaved= 7 IEnMin= 7 EnMin= -577.823686029185     IErMin= 7 ErrMin= 7.39D-05
 ErrMax= 7.39D-05 EMaxC= 1.00D-01 BMatC= 2.11D-06 BMatP= 4.76D-05
 IDIUse=1 WtCom= 1.00D+00 WtEn= 0.00D+00
 Coeff-Com: -0.650D-03 0.240D-03 0.200D-01 0.420D-01 0.165D+00 0.285D+00
 Coeff-Com:  0.488D+00
 Coeff:     -0.650D-03 0.240D-03 0.200D-01 0.420D-01 0.165D+00 0.285D+00
 Coeff:      0.488D+00
 Gap=     0.190 Goal=   None    Shift=    0.000
 RMSDP=8.66D-06 MaxDP=2.85D-04 DE=-4.88D-05 OVMax= 7.53D-04

 Initial convergence to 1.0D-05 achieved.  Increase integral accuracy.
 Cycle   8  Pass 1  IDiag  1:
 E= -577.823710843505     Delta-E=       -0.000024814320 Rises=F Damp=F
 DIIS: error= 1.75D-05 at cycle   1 NSaved=   1.
 NSaved= 1 IEnMin= 1 EnMin= -577.823710843505     IErMin= 1 ErrMin= 1.75D-05
 ErrMax= 1.75D-05 EMaxC= 1.00D-01 BMatC= 2.20D-07 BMatP= 2.20D-07
 IDIUse=1 WtCom= 1.00D+00 WtEn= 0.00D+00
 Coeff-Com:  0.100D+01
 Coeff:      0.100D+01
 Gap=     0.190 Goal=   None    Shift=    0.000
 RMSDP=8.66D-06 MaxDP=2.85D-04 DE=-2.48D-05 OVMax= 4.02D-04

 Cycle   9  Pass 1  IDiag  1:
 E= -577.823710485707     Delta-E=        0.000000357798 Rises=F Damp=F
 DIIS: error= 3.20D-05 at cycle   2 NSaved=   2.
 NSaved= 2 IEnMin= 1 EnMin= -577.823710843505     IErMin= 1 ErrMin= 1.75D-05
 ErrMax= 3.20D-05 EMaxC= 1.00D-01 BMatC= 5.56D-07 BMatP= 2.20D-07
 IDIUse=1 WtCom= 1.00D+00 WtEn= 0.00D+00
 Coeff-Com:  0.624D+00 0.376D+00
 Coeff:      0.624D+00 0.376D+00
 Gap=     0.190 Goal=   None    Shift=    0.000
 RMSDP=3.99D-06 MaxDP=1.07D-04 DE= 3.58D-07 OVMax= 3.08D-04

 Cycle  10  Pass 1  IDiag  1:
 E= -577.823711078919     Delta-E=       -0.000000593212 Rises=F Damp=F
 DIIS: error= 6.61D-06 at cycle   3 NSaved=   3.
 NSaved= 3 IEnMin= 3 EnMin= -577.823711078919     IErMin= 3 ErrMin= 6.61D-06
 ErrMax= 6.61D-06 EMaxC= 1.00D-01 BMatC= 1.61D-08 BMatP= 2.20D-07
 IDIUse=1 WtCom= 1.00D+00 WtEn= 0.00D+00
 Coeff-Com:  0.151D+00 0.168D+00 0.680D+00
 Coeff:      0.151D+00 0.168D+00 0.680D+00
 Gap=     0.190 Goal=   None    Shift=    0.000
 RMSDP=9.46D-07 MaxDP=2.90D-05 DE=-5.93D-07 OVMax= 6.71D-05

 Cycle  11  Pass 1  IDiag  1:
 E= -577.823711090928     Delta-E=       -0.000000012010 Rises=F Damp=F
 DIIS: error= 3.51D-06 at cycle   4 NSaved=   4.
 NSaved= 4 IEnMin= 4 EnMin= -577.823711090928     IErMin= 4 ErrMin= 3.51D-06
 ErrMax= 3.51D-06 EMaxC= 1.00D-01 BMatC= 6.48D-09 BMatP= 1.61D-08
 IDIUse=1 WtCom= 1.00D+00 WtEn= 0.00D+00
 Coeff-Com: -0.193D-02 0.510D-01 0.448D+00 0.503D+00
 Coeff:     -0.193D-02 0.510D-01 0.448D+00 0.503D+00
 Gap=     0.190 Goal=   None    Shift=    0.000
 RMSDP=3.81D-07 MaxDP=1.23D-05 DE=-1.20D-08 OVMax= 2.37D-05

 Cycle  12  Pass 1  IDiag  1:
 E= -577.823711097021     Delta-E=       -0.000000006093 Rises=F Damp=F
 DIIS: error= 9.28D-07 at cycle   5 NSaved=   5.
 NSaved= 5 IEnMin= 5 EnMin= -577.823711097021     IErMin= 5 ErrMin= 9.28D-07
 ErrMax= 9.28D-07 EMaxC= 1.00D-01 BMatC= 2.58D-10 BMatP= 6.48D-09
 IDIUse=1 WtCom= 1.00D+00 WtEn= 0.00D+00
 Coeff-Com: -0.872D-02 0.205D-01 0.216D+00 0.279D+00 0.493D+00
 Coeff:     -0.872D-02 0.205D-01 0.216D+00 0.279D+00 0.493D+00
 Gap=     0.190 Goal=   None    Shift=    0.000
 RMSDP=1.03D-07 MaxDP=2.91D-06 DE=-6.09D-09 OVMax= 7.76D-06

 Cycle  13  Pass 1  IDiag  1:
 E= -577.823711097253     Delta-E=       -0.000000000232 Rises=F Damp=F
 DIIS: error= 3.40D-07 at cycle   6 NSaved=   6.
 NSaved= 6 IEnMin= 6 EnMin= -577.823711097253     IErMin= 6 ErrMin= 3.40D-07
 ErrMax= 3.40D-07 EMaxC= 1.00D-01 BMatC= 4.12D-11 BMatP= 2.58D-10
 IDIUse=1 WtCom= 1.00D+00 WtEn= 0.00D+00
 Coeff-Com: -0.506D-02 0.728D-02 0.841D-01 0.116D+00 0.317D+00 0.480D+00
 Coeff:     -0.506D-02 0.728D-02 0.841D-01 0.116D+00 0.317D+00 0.480D+00
 Gap=     0.190 Goal=   None    Shift=    0.000
 RMSDP=3.41D-08 MaxDP=1.42D-06 DE=-2.32D-10 OVMax= 2.93D-06

 Cycle  14  Pass 1  IDiag  1:
 E= -577.823711097296     Delta-E=       -0.000000000043 Rises=F Damp=F
 DIIS: error= 3.82D-08 at cycle   7 NSaved=   7.
 NSaved= 7 IEnMin= 7 EnMin= -577.823711097296     IErMin= 7 ErrMin= 3.82D-08
 ErrMax= 3.82D-08 EMaxC= 1.00D-01 BMatC= 9.70D-13 BMatP= 4.12D-11
 IDIUse=1 WtCom= 1.00D+00 WtEn= 0.00D+00
 Coeff-Com: -0.163D-02 0.195D-02 0.229D-01 0.322D-01 0.106D+00 0.210D+00
 Coeff-Com:  0.629D+00
 Coeff:     -0.163D-02 0.195D-02 0.229D-01 0.322D-01 0.106D+00 0.210D+00
 Coeff:      0.629D+00
 Gap=     0.190 Goal=   None    Shift=    0.000
 RMSDP=6.15D-09 MaxDP=2.02D-07 DE=-4.34D-11 OVMax= 3.59D-07

 SCF Done:  E(RB3LYP) =  -577.823711097     A.U. after   14 cycles
             Convg  =    0.6153D-08             -V/T =  2.0098
 KE= 5.721898225744D+02 PE=-2.964171263834D+03 EE= 1.002461270593D+03
 Leave Link  502 at Thu Sep 30 12:32:08 2021, MaxMem= 1073741824 cpu:     195.1
 (Enter /sw/target/amd/app/gaussian/Gaussian09RevA.02_gcc-4.9.2/g09/l508.exe)
 QCSCF skips out because SCF is already converged.
 Leave Link  508 at Thu Sep 30 12:32:09 2021, MaxMem= 1073741824 cpu:       0.0
 (Enter /sw/target/amd/app/gaussian/Gaussian09RevA.02_gcc-4.9.2/g09/l601.exe)
 Copying SCF densities to generalized density rwf, IOpCl= 0 IROHF=0.

 **********************************************************************

            Population analysis using the SCF density.

 **********************************************************************

 Orbital symmetries:
       Occupied  (A) (A) (A) (A) (A) (A) (A) (A) (A) (A) (A) (A)
                 (A) (A) (A) (A) (A) (A) (A) (A) (A) (A) (A) (A)
                 (A) (A) (A) (A) (A) (A) (A) (A) (A) (A) (A) (A)
                 (A) (A) (A) (A) (A) (A) (A) (A) (A) (A) (A) (A)
                 (A)
       Virtual   (A) (A) (A) (A) (A) (A) (A) (A) (A) (A) (A) (A)
                 (A) (A) (A) (A) (A) (A) (A) (A) (A) (A) (A) (A)
                 (A) (A) (A) (A) (A) (A) (A) (A) (A) (A) (A) (A)
                 (A) (A) (A) (A) (A) (A) (A) (A) (A) (A) (A) (A)
                 (A) (A) (A) (A) (A) (A) (A) (A) (A) (A) (A) (A)
                 (A) (A) (A) (A) (A) (A) (A) (A) (A) (A) (A) (A)
                 (A) (A) (A) (A) (A) (A) (A) (A) (A) (A) (A) (A)
                 (A) (A) (A) (A) (A) (A) (A) (A) (A) (A) (A) (A)
                 (A) (A) (A) (A) (A) (A) (A) (A) (A) (A) (A) (A)
                 (A) (A) (A) (A) (A) (A) (A) (A) (A) (A) (A) (A)
                 (A) (A) (A) (A) (A) (A) (A) (A) (A) (A) (A) (A)
                 (A) (A) (A) (A) (A) (A) (A) (A) (A) (A) (A) (A)
                 (A) (A) (A) (A) (A) (A) (A) (A) (A) (A) (A) (A)
                 (A) (A) (A) (A) (A) (A) (A) (A) (A) (A) (A) (A)
                 (A) (A) (A) (A) (A) (A) (A) (A) (A) (A) (A) (A)
                 (A) (A) (A) (A) (A)
 The electronic state is 1-A.
 Alpha  occ. eigenvalues --  -19.17726 -10.24948 -10.24112 -10.19550 -10.19321
 Alpha  occ. eigenvalues --  -10.18794 -10.18727 -10.18653 -10.18234 -10.18159
 Alpha  occ. eigenvalues --  -10.18089 -10.18029 -10.17976 -10.17964  -1.06049
 Alpha  occ. eigenvalues --   -0.85632  -0.83645  -0.77184  -0.74658  -0.73274
 Alpha  occ. eigenvalues --   -0.71991  -0.69213  -0.61915  -0.60174  -0.58308
 Alpha  occ. eigenvalues --   -0.57219  -0.53156  -0.50468  -0.48085  -0.47302
 Alpha  occ. eigenvalues --   -0.46992  -0.45088  -0.43836  -0.43375  -0.41698
 Alpha  occ. eigenvalues --   -0.40978  -0.40614  -0.37682  -0.37071  -0.35709
 Alpha  occ. eigenvalues --   -0.34863  -0.34528  -0.33287  -0.32056  -0.31327
 Alpha  occ. eigenvalues --   -0.26417  -0.23935  -0.23152  -0.20886
 Alpha virt. eigenvalues --   -0.01919   0.00873   0.01189   0.03333   0.09101
 Alpha virt. eigenvalues --    0.09957   0.10972   0.13001   0.14497   0.14978
 Alpha virt. eigenvalues --    0.15302   0.16264   0.16735   0.16964   0.18027
 Alpha virt. eigenvalues --    0.18736   0.19581   0.20070   0.20752   0.24269
 Alpha virt. eigenvalues --    0.26697   0.29868   0.30725   0.31856   0.32493
 Alpha virt. eigenvalues --    0.34132   0.35106   0.37808   0.38797   0.46751
 Alpha virt. eigenvalues --    0.49367   0.50908   0.51131   0.53427   0.54060
 Alpha virt. eigenvalues --    0.54585   0.55161   0.55890   0.56774   0.57021
 Alpha virt. eigenvalues --    0.57783   0.59330   0.60091   0.60672   0.60878
 Alpha virt. eigenvalues --    0.61257   0.61652   0.61818   0.62169   0.62688
 Alpha virt. eigenvalues --    0.63933   0.64380   0.64774   0.67792   0.68269
 Alpha virt. eigenvalues --    0.68524   0.72733   0.73372   0.77377   0.80161
 Alpha virt. eigenvalues --    0.82751   0.83189   0.83729   0.84368   0.84837
 Alpha virt. eigenvalues --    0.85066   0.85442   0.86400   0.86891   0.90020
 Alpha virt. eigenvalues --    0.91208   0.92328   0.93004   0.93884   0.95357
 Alpha virt. eigenvalues --    0.95894   0.96930   0.99394   1.01173   1.03059
 Alpha virt. eigenvalues --    1.03498   1.05513   1.08709   1.10064   1.11743
 Alpha virt. eigenvalues --    1.13127   1.14496   1.16495   1.19224   1.21592
 Alpha virt. eigenvalues --    1.22953   1.25950   1.28179   1.31810   1.32832
 Alpha virt. eigenvalues --    1.35618   1.38485   1.43269   1.44505   1.44667
 Alpha virt. eigenvalues --    1.45979   1.47794   1.48341   1.49724   1.50465
 Alpha virt. eigenvalues --    1.50719   1.51240   1.52568   1.55046   1.65050
 Alpha virt. eigenvalues --    1.69839   1.73700   1.77246   1.78204   1.80552
 Alpha virt. eigenvalues --    1.83507   1.84769   1.85402   1.90677   1.91612
 Alpha virt. eigenvalues --    1.92596   1.93407   1.95529   1.97701   1.99167
 Alpha virt. eigenvalues --    2.00561   2.04459   2.06833   2.07269   2.08454
 Alpha virt. eigenvalues --    2.11487   2.13563   2.14683   2.14940   2.16133
 Alpha virt. eigenvalues --    2.17064   2.20926   2.22945   2.23861   2.26231
 Alpha virt. eigenvalues --    2.27188   2.30734   2.31178   2.31492   2.34408
 Alpha virt. eigenvalues --    2.34580   2.40734   2.41978   2.52627   2.54016
 Alpha virt. eigenvalues --    2.55504   2.59087   2.60583   2.62885   2.65431
 Alpha virt. eigenvalues --    2.66267   2.67806   2.70573   2.72568   2.74498
 Alpha virt. eigenvalues --    2.76137   2.77211   2.79828   2.85007   2.89635
 Alpha virt. eigenvalues --    2.91471   3.03593   3.06648   3.24531   3.37442
 Alpha virt. eigenvalues --    3.46601   4.06021   4.09789   4.10338   4.12507
 Alpha virt. eigenvalues --    4.12803   4.15276   4.22015   4.31249   4.33057
 Alpha virt. eigenvalues --    4.36507   4.42595   4.50152   4.67545   4.82367
          Condensed to atoms (all electrons):
              1          2          3          4          5          6
     1  C    4.892002   0.249710  -0.042526  -0.007481   0.000264   0.000001
     2  O    0.249710   8.214265   0.282748  -0.069522   0.003891  -0.000000
     3  C   -0.042526   0.282748   4.662608   0.431942  -0.002116  -0.042959
     4  C   -0.007481  -0.069522   0.431942   5.130677   0.504768  -0.028344
     5  C    0.000264   0.003891  -0.002116   0.504768   4.852788   0.552681
     6  C    0.000001  -0.000000  -0.042959  -0.028344   0.552681   4.879673
     7  C   -0.000084   0.003570  -0.028321  -0.053818  -0.029244   0.511683
     8  C    0.004884  -0.063304   0.496758  -0.047575  -0.031355  -0.022816
     9  C   -0.000071  -0.004896  -0.046657   0.009563  -0.000122   0.006249
    10  C    0.000006  -0.000132   0.004196  -0.000180   0.000011   0.000407
    11  C   -0.000000  -0.000008  -0.000119   0.000001  -0.000000  -0.000001
    12  C   -0.000000   0.000008   0.000013   0.000000   0.000000  -0.000000
    13  C    0.000001  -0.000158   0.000219   0.000000  -0.000000   0.000001
    14  C    0.000052  -0.002515  -0.009058   0.000181   0.000004  -0.000168
    15  H    0.362100  -0.035278  -0.005156   0.006043  -0.000142  -0.000002
    16  H    0.365623  -0.035948  -0.004969   0.004823  -0.000093  -0.000005
    17  H    0.384261  -0.031766   0.003054   0.000140  -0.000001   0.000000
    18  H    0.006724  -0.007992  -0.043539   0.354249  -0.040525   0.004740
    19  H   -0.000011  -0.000044   0.003360  -0.040059   0.357190  -0.041167
    20  H   -0.000000   0.000002   0.000748   0.005233  -0.043309   0.356909
    21  H    0.000003  -0.000046   0.005423   0.000199   0.005287  -0.043700
    22  H   -0.000000  -0.000001   0.000038  -0.000004  -0.000007  -0.000104
    23  H    0.000000   0.000000   0.000001  -0.000000   0.000000  -0.000000
    24  H   -0.000000   0.000000   0.000000   0.000000  -0.000000   0.000000
    25  H    0.000000  -0.000007  -0.000007  -0.000000   0.000000  -0.000000
    26  H    0.000006   0.007901   0.002591  -0.000052  -0.000011   0.000011
              7          8          9         10         11         12
     1  C   -0.000084   0.004884  -0.000071   0.000006  -0.000000  -0.000000
     2  O    0.003570  -0.063304  -0.004896  -0.000132  -0.000008   0.000008
     3  C   -0.028321   0.496758  -0.046657   0.004196  -0.000119   0.000013
     4  C   -0.053818  -0.047575   0.009563  -0.000180   0.000001   0.000000
     5  C   -0.029244  -0.031355  -0.000122   0.000011  -0.000000   0.000000
     6  C    0.511683  -0.022816   0.006249   0.000407  -0.000001  -0.000000
     7  C    4.985083   0.530023  -0.054252  -0.010855   0.000379   0.000005
     8  C    0.530023   4.937174   0.305254  -0.046496   0.005597   0.000509
     9  C   -0.054252   0.305254   4.779833   0.526810  -0.017709  -0.033705
    10  C   -0.010855  -0.046496   0.526810   4.990055   0.516567  -0.035352
    11  C    0.000379   0.005597  -0.017709   0.516567   4.874453   0.552464
    12  C    0.000005   0.000509  -0.033705  -0.035352   0.552464   4.849633
    13  C   -0.000146   0.005930  -0.012761  -0.046179  -0.028345   0.548049
    14  C    0.004324  -0.046613   0.523683  -0.051438  -0.044451  -0.034357
    15  H   -0.000025  -0.000130   0.000050  -0.000000  -0.000000   0.000000
    16  H   -0.000009  -0.000257   0.000017   0.000000  -0.000000   0.000000
    17  H    0.000005   0.000062  -0.000041  -0.000000   0.000000  -0.000000
    18  H    0.000774   0.002922  -0.000114   0.000001  -0.000000   0.000000
    19  H    0.004802   0.000704   0.000007  -0.000000   0.000000   0.000000
    20  H   -0.039635   0.003740  -0.000162  -0.000005  -0.000000  -0.000000
    21  H    0.353384  -0.041849  -0.008861   0.005201  -0.000072  -0.000006
    22  H    0.004935  -0.007882  -0.042876   0.349873  -0.044465   0.004944
    23  H   -0.000003  -0.000174   0.003589  -0.039183   0.356747  -0.043857
    24  H   -0.000000   0.000006   0.000625   0.004949  -0.044154   0.357359
    25  H    0.000001  -0.000160   0.003446   0.000792   0.004767  -0.044337
    26  H    0.000011  -0.011932  -0.038244   0.006260   0.000364   0.005025
             13         14         15         16         17         18
     1  C    0.000001   0.000052   0.362100   0.365623   0.384261   0.006724
     2  O   -0.000158  -0.002515  -0.035278  -0.035948  -0.031766  -0.007992
     3  C    0.000219  -0.009058  -0.005156  -0.004969   0.003054  -0.043539
     4  C    0.000000   0.000181   0.006043   0.004823   0.000140   0.354249
     5  C   -0.000000   0.000004  -0.000142  -0.000093  -0.000001  -0.040525
     6  C    0.000001  -0.000168  -0.000002  -0.000005   0.000000   0.004740
     7  C   -0.000146   0.004324  -0.000025  -0.000009   0.000005   0.000774
     8  C    0.005930  -0.046613  -0.000130  -0.000257   0.000062   0.002922
     9  C   -0.012761   0.523683   0.000050   0.000017  -0.000041  -0.000114
    10  C   -0.046179  -0.051438  -0.000000   0.000000  -0.000000   0.000001
    11  C   -0.028345  -0.044451  -0.000000  -0.000000   0.000000  -0.000000
    12  C    0.548049  -0.034357   0.000000   0.000000  -0.000000   0.000000
    13  C    4.880882   0.515681  -0.000001   0.000000   0.000002  -0.000000
    14  C    0.515681   4.971995   0.000022  -0.000013   0.000077  -0.000002
    15  H   -0.000001   0.000022   0.598306  -0.046143  -0.033685   0.001596
    16  H    0.000000  -0.000013  -0.046143   0.596320  -0.034986   0.001520
    17  H    0.000002   0.000077  -0.033685  -0.034986   0.543537  -0.000054
    18  H   -0.000000  -0.000002   0.001596   0.001520  -0.000054   0.594004
    19  H    0.000000   0.000000   0.000002   0.000004  -0.000000  -0.005950
    20  H   -0.000000   0.000001   0.000000   0.000000  -0.000000  -0.000205
    21  H   -0.000018   0.000131  -0.000000  -0.000000  -0.000000   0.000015
    22  H    0.000391   0.006212  -0.000000   0.000000  -0.000000   0.000000
    23  H    0.004733   0.000750   0.000000  -0.000000   0.000000   0.000000
    24  H   -0.043894   0.004864   0.000000   0.000000  -0.000000  -0.000000
    25  H    0.357453  -0.039383  -0.000000  -0.000000   0.000000   0.000000
    26  H   -0.047052   0.353102  -0.000087   0.000044  -0.000043   0.000006
             19         20         21         22         23         24
     1  C   -0.000011  -0.000000   0.000003  -0.000000   0.000000  -0.000000
     2  O   -0.000044   0.000002  -0.000046  -0.000001   0.000000   0.000000
     3  C    0.003360   0.000748   0.005423   0.000038   0.000001   0.000000
     4  C   -0.040059   0.005233   0.000199  -0.000004  -0.000000   0.000000
     5  C    0.357190  -0.043309   0.005287  -0.000007   0.000000  -0.000000
     6  C   -0.041167   0.356909  -0.043700  -0.000104  -0.000000   0.000000
     7  C    0.004802  -0.039635   0.353384   0.004935  -0.000003  -0.000000
     8  C    0.000704   0.003740  -0.041849  -0.007882  -0.000174   0.000006
     9  C    0.000007  -0.000162  -0.008861  -0.042876   0.003589   0.000625
    10  C   -0.000000  -0.000005   0.005201   0.349873  -0.039183   0.004949
    11  C    0.000000  -0.000000  -0.000072  -0.044465   0.356747  -0.044154
    12  C    0.000000  -0.000000  -0.000006   0.004944  -0.043857   0.357359
    13  C    0.000000  -0.000000  -0.000018   0.000391   0.004733  -0.043894
    14  C    0.000000   0.000001   0.000131   0.006212   0.000750   0.004864
    15  H    0.000002   0.000000  -0.000000  -0.000000   0.000000   0.000000
    16  H    0.000004   0.000000  -0.000000   0.000000  -0.000000   0.000000
    17  H   -0.000000  -0.000000  -0.000000  -0.000000   0.000000  -0.000000
    18  H   -0.005950  -0.000205   0.000015   0.000000   0.000000  -0.000000
    19  H    0.597708  -0.005459  -0.000210  -0.000000  -0.000000  -0.000000
    20  H   -0.005459   0.603415  -0.005829   0.000005   0.000000  -0.000000
    21  H   -0.000210  -0.005829   0.593868   0.002264   0.000005  -0.000000
    22  H   -0.000000   0.000005   0.002264   0.605110  -0.005950  -0.000190
    23  H   -0.000000   0.000000   0.000005  -0.005950   0.602861  -0.005799
    24  H   -0.000000  -0.000000  -0.000000  -0.000190  -0.005799   0.607473
    25  H   -0.000000   0.000000   0.000000   0.000017  -0.000201  -0.005739
    26  H   -0.000000   0.000000  -0.000001  -0.000171   0.000016  -0.000183
             25         26
     1  C    0.000000   0.000006
     2  O   -0.000007   0.007901
     3  C   -0.000007   0.002591
     4  C   -0.000000  -0.000052
     5  C    0.000000  -0.000011
     6  C   -0.000000   0.000011
     7  C    0.000001   0.000011
     8  C   -0.000160  -0.011932
     9  C    0.003446  -0.038244
    10  C    0.000792   0.006260
    11  C    0.004767   0.000364
    12  C   -0.044337   0.005025
    13  C    0.357453  -0.047052
    14  C   -0.039383   0.353102
    15  H   -0.000000  -0.000087
    16  H   -0.000000   0.000044
    17  H    0.000000  -0.000043
    18  H    0.000000   0.000006
    19  H   -0.000000  -0.000000
    20  H    0.000000   0.000000
    21  H    0.000000  -0.000001
    22  H    0.000017  -0.000171
    23  H   -0.000201   0.000016
    24  H   -0.005739  -0.000183
    25  H    0.603261  -0.005811
    26  H   -0.005811   0.595631
 Mulliken atomic charges:
              1
     1  C   -0.215465
     2  O   -0.510479
     3  C    0.331727
     4  C   -0.200782
     5  C   -0.129959
     6  C   -0.133090
     7  C   -0.182587
     8  C    0.026981
     9  C    0.101346
    10  C   -0.175308
    11  C   -0.132013
    12  C   -0.126395
    13  C   -0.134791
    14  C   -0.153081
    15  H    0.152532
    16  H    0.154071
    17  H    0.169437
    18  H    0.131834
    19  H    0.129124
    20  H    0.124552
    21  H    0.134811
    22  H    0.127859
    23  H    0.126466
    24  H    0.124683
    25  H    0.125909
    26  H    0.132618
 Sum of Mulliken atomic charges =  -0.00000
 Mulliken charges with hydrogens summed into heavy atoms:
              1
     1  C    0.260575
     2  O   -0.510479
     3  C    0.331727
     4  C   -0.068948
     5  C   -0.000836
     6  C   -0.008538
     7  C   -0.047776
     8  C    0.026981
     9  C    0.101346
    10  C   -0.047449
    11  C   -0.005547
    12  C   -0.001712
    13  C   -0.008882
    14  C   -0.020463
 Sum of Mulliken charges with hydrogens summed into heavy atoms =  -0.00000
 Electronic spatial extent (au):  <R**2>=           2962.2584
 Charge=             -0.0000 electrons
 Dipole moment (field-independent basis, Debye):
    X=              1.2840    Y=              0.9694    Z=              0.0236  Tot=              1.6090
 Quadrupole moment (field-independent basis, Debye-Ang):
   XX=            -71.1424   YY=            -71.3575   ZZ=            -83.9543
   XY=              3.5405   XZ=              0.0807   YZ=             -1.8342
 Traceless Quadrupole moment (field-independent basis, Debye-Ang):
   XX=              4.3424   YY=              4.1272   ZZ=             -8.4696
   XY=              3.5405   XZ=              0.0807   YZ=             -1.8342
 Octapole moment (field-independent basis, Debye-Ang**2):
  XXX=              7.6569  YYY=             20.5829  ZZZ=              2.9697  XYY=             15.9659
  XXY=             11.5009  XXZ=              4.6862  XZZ=             -0.4225  YZZ=              7.4608
  YYZ=              0.7521  XYZ=             10.9994
 Hexadecapole moment (field-independent basis, Debye-Ang**3):
 XXXX=          -2511.7025 YYYY=          -1000.3310 ZZZZ=           -199.4580 XXXY=              3.9427
 XXXZ=             -9.3627 YYYX=             32.1935 YYYZ=              8.3757 ZZZX=              4.0914
 ZZZY=             -2.7012 XXYY=           -590.4965 XXZZ=           -514.0738 YYZZ=           -215.6807
 XXYZ=            -17.0347 YYXZ=              0.6316 ZZXY=             13.2562
 N-N= 8.116964595691D+02 E-N=-2.964171275725D+03  KE= 5.721898225744D+02
 No NMR shielding tensors so no spin-rotation constants.
 Leave Link  601 at Thu Sep 30 12:32:12 2021, MaxMem= 1073741824 cpu:       1.2
 (Enter /sw/target/amd/app/gaussian/Gaussian09RevA.02_gcc-4.9.2/g09/l701.exe)
 Compute integral first derivatives.
 ... and contract with generalized density number  0.
 Leave Link  701 at Thu Sep 30 12:32:14 2021, MaxMem= 1073741824 cpu:       1.3
 (Enter /sw/target/amd/app/gaussian/Gaussian09RevA.02_gcc-4.9.2/g09/l702.exe)
 L702 exits ... SP integral derivatives will be done elsewhere.
 Leave Link  702 at Thu Sep 30 12:32:14 2021, MaxMem= 1073741824 cpu:       0.1
 (Enter /sw/target/amd/app/gaussian/Gaussian09RevA.02_gcc-4.9.2/g09/l703.exe)
 Compute integral first derivatives, UseDBF=F ICtDFT=           0.
 Integral derivatives from FoFDir, PRISM(SPDF).
 Calling FoFJK, ICntrl=      2127 FMM=F ISym2X=0 I1Cent= 0 IOpClX= 0 NMat=1 NMatS=1 NMatT=0.
 FoFCou: FMM=F IPFlag=           0 FMFlag=      100000 FMFlg1=         800
         NFxFlg=           0 DoJE=F BraDBF=F KetDBF=F FulRan=T
         Omega=  0.000000  0.000000  1.000000  0.000000  0.000000 ICntrl=    2127 IOpCl=  0
         NMat0=    1 NMatS0=    1 NMatT0=    0 NMatD0=    1 NMtDS0=    0 NMtDT0=    0
         I1Cent=           0 NGrid=           0.
 Symmetry not used in FoFCou.
 Leave Link  703 at Thu Sep 30 12:33:37 2021, MaxMem= 1073741824 cpu:      79.1
 (Enter /sw/target/amd/app/gaussian/Gaussian09RevA.02_gcc-4.9.2/g09/l716.exe)
 Dipole        = 5.05177889D-01 3.81375473D-01 9.26636970D-03
 ***** Axes restored to original set *****
 -------------------------------------------------------------------
 Center     Atomic                   Forces (Hartrees/Bohr)
 Number     Number              X              Y              Z
 -------------------------------------------------------------------
      1        6           0.000277737   -0.003735138    0.000534397
      2        8          -0.001237669    0.001403958   -0.002150609
      3        6          -0.000944113    0.001408307    0.002082477
      4        6          -0.001219613    0.000350224    0.002014449
      5        6           0.000406966   -0.001360029   -0.000294665
      6        6           0.002495930   -0.000286966   -0.003661089
      7        6          -0.001116151    0.000675615    0.005040735
      8        6           0.003184685    0.004925163   -0.007944466
      9        6           0.001087236   -0.006798801    0.001185685
     10        6           0.001908558   -0.000192018   -0.001975381
     11        6           0.000594490    0.005925776    0.000159899
     12        6           0.000474366   -0.004831188   -0.000549293
     13        6          -0.002048073    0.006474994    0.001048353
     14        6          -0.004192394   -0.004691313    0.001828930
     15        1           0.000446699    0.003850938    0.000341319
     16        1          -0.001360997    0.004099005    0.000528126
     17        1           0.003282495   -0.001997582   -0.003702947
     18        1           0.000162809   -0.003945865    0.000915403
     19        1          -0.000789095   -0.000626084    0.001076407
     20        1          -0.000228875   -0.000737881   -0.000454481
     21        1          -0.001340384   -0.003616439    0.002379299
     22        1          -0.001541105    0.001441872    0.001384157
     23        1          -0.000298931    0.000927657    0.000743664
     24        1           0.000340150   -0.000668667   -0.000122181
     25        1          -0.000870200    0.000404981   -0.000436758
     26        1           0.002525479    0.001599481    0.000028567
 -------------------------------------------------------------------
 Cartesian Forces:  Max     0.007944466 RMS     0.002553706
 Leave Link  716 at Thu Sep 30 12:33:37 2021, MaxMem= 1073741824 cpu:       0.1
 (Enter /sw/target/amd/app/gaussian/Gaussian09RevA.02_gcc-4.9.2/g09/l103.exe)

 GradGradGradGradGradGradGradGradGradGradGradGradGradGradGradGradGradGrad
 Berny optimization.
 Internal  Forces:  Max     0.008077818 RMS     0.002155458
 Search for a local minimum.
 Step number   1 out of a maximum of  137
 All quantities printed in internal units (Hartrees-Bohrs-Radians)
 RMS Force = .21555D-02 SwitMx=.10000D-02 MixMth= 1
 Mixed Optimization -- RFO/linear search
 Second derivative matrix not updated -- first step.
     Eigenvalues ---    0.00931   0.01417   0.01592   0.01653   0.01907
     Eigenvalues ---    0.01961   0.02001   0.02032   0.02033   0.02036
     Eigenvalues ---    0.02051   0.02064   0.02085   0.02100   0.02147
     Eigenvalues ---    0.02162   0.02183   0.02186   0.02186   0.02214
     Eigenvalues ---    0.02214   0.09982   0.10552   0.15999   0.16000
     Eigenvalues ---    0.16000   0.16000   0.16000   0.16000   0.16000
     Eigenvalues ---    0.16000   0.16000   0.16000   0.16000   0.16000
     Eigenvalues ---    0.21999   0.22000   0.22000   0.22483   0.23457
     Eigenvalues ---    0.24466   0.24994   0.24994   0.25000   0.25000
     Eigenvalues ---    0.33725   0.34177   0.34315   0.34342   0.34967
     Eigenvalues ---    0.35054   0.35109   0.35115   0.35168   0.35169
     Eigenvalues ---    0.35224   0.35258   0.35418   0.40601   0.40957
     Eigenvalues ---    0.41250   0.41541   0.42344   0.43845   0.44709
     Eigenvalues ---    0.45574   0.45760   0.45769   0.46155   0.47021
     Eigenvalues ---    0.47147   0.501571000.000001000.000001000.00000
     Eigenvalues --- 1000.000001000.000001000.000001000.000001000.00000
     Eigenvalues --- 1000.000001000.000001000.000001000.000001000.00000
     Eigenvalues --- 1000.000001000.000001000.000001000.000001000.00000
     Eigenvalues --- 1000.000001000.000001000.000001000.000001000.00000
     Eigenvalues --- 1000.000001000.000001000.000001000.000001000.00000
     Eigenvalues --- 1000.000001000.000001000.000001000.000001000.00000
     Eigenvalues --- 1000.000001000.000001000.000001000.000001000.00000
     Eigenvalues --- 1000.000001000.000001000.000001000.000001000.00000
     Eigenvalues --- 1000.000001000.000001000.000001000.000001000.00000
     Eigenvalues --- 1000.000001000.000001000.000001000.000001000.00000
     Eigenvalues --- 1000.000001000.00000
 RFO step:  Lambda=-2.55029228D-03 EMin= 9.31291816D-03
 Linear search not attempted -- first point.
 Iteration  1 RMS(Cart)=  0.02767891 RMS(Int)=  0.00034406
 Iteration  2 RMS(Cart)=  0.00042904 RMS(Int)=  0.00007987
 Iteration  3 RMS(Cart)=  0.00000020 RMS(Int)=  0.00007987
 Variable       Old X    -DE/DX   Delta X   Delta X   Delta X     New X
                                 (Linear)    (Quad)   (Total)
    R1        2.68487  -0.00275   0.00000  -0.00645  -0.00645   2.67842
    R2        2.07033   0.00118   0.00000   0.00342   0.00342   2.07375
    R3        2.06801   0.00203   0.00000   0.00587   0.00587   2.07388
    R4        2.06756  -0.00087   0.00000  -0.00252  -0.00252   2.06504
    R5        2.59707  -0.00582   0.00000  -0.01155  -0.01155   2.58553
    R6        2.65525  -0.00547   0.00000  -0.01226  -0.01226   2.64299
    R7        2.68039  -0.00273   0.00000  -0.00724  -0.00722   2.67317
    R8        2.63573   0.00114   0.00000   0.00313   0.00312   2.63885
    R9        2.05002  -0.00054   0.00000  -0.00152  -0.00152   2.04850
   R10        2.62204   0.00419   0.00000   0.00953   0.00951   2.63155
   R11        2.05401  -0.00025   0.00000  -0.00070  -0.00070   2.05331
   R12        2.63832  -0.00115   0.00000  -0.00234  -0.00234   2.63599
   R13        2.05403  -0.00029   0.00000  -0.00083  -0.00083   2.05320
   R14        2.66808  -0.00808   0.00000  -0.01909  -0.01908   2.64900
   R15        2.05729  -0.00181   0.00000  -0.00515  -0.00515   2.05213
   R16        2.81097  -0.00079   0.00000  -0.00231  -0.00231   2.80866
   R17        2.66283  -0.00351   0.00000  -0.00849  -0.00846   2.65437
   R18        2.65812  -0.00096   0.00000  -0.00268  -0.00267   2.65545
   R19        2.64366  -0.00391   0.00000  -0.00854  -0.00853   2.63513
   R20        2.05489  -0.00020   0.00000  -0.00057  -0.00057   2.05432
   R21        2.62640   0.00488   0.00000   0.01077   0.01076   2.63716
   R22        2.05588  -0.00072   0.00000  -0.00204  -0.00204   2.05384
   R23        2.62920   0.00434   0.00000   0.00972   0.00970   2.63890
   R24        2.05258   0.00074   0.00000   0.00209   0.00209   2.05467
   R25        2.64419  -0.00450   0.00000  -0.00975  -0.00976   2.63443
   R26        2.05312   0.00024   0.00000   0.00066   0.00066   2.05379
   R27        2.05498  -0.00204   0.00000  -0.00576  -0.00576   2.04922
    A1        1.94458   0.00103   0.00000   0.00505   0.00510   1.94968
    A2        1.93580   0.00262   0.00000   0.01471   0.01479   1.95059
    A3        1.88108  -0.00720   0.00000  -0.04177  -0.04168   1.83940
    A4        1.94278  -0.00371   0.00000  -0.02730  -0.02726   1.91553
    A5        1.87570   0.00407   0.00000   0.02773   0.02779   1.90349
    A6        1.88062   0.00319   0.00000   0.02207   0.02220   1.90283
    A7        2.06119   0.00052   0.00000   0.00206   0.00206   2.06325
    A8        2.14758  -0.00001   0.00000   0.00072   0.00071   2.14830
    A9        2.04034  -0.00254   0.00000  -0.00929  -0.00930   2.03104
   A10        2.09507   0.00254   0.00000   0.00847   0.00847   2.10355
   A11        2.11004  -0.00265   0.00000  -0.01042  -0.01044   2.09959
   A12        2.12532  -0.00279   0.00000  -0.02007  -0.02006   2.10526
   A13        2.04779   0.00544   0.00000   0.03053   0.03054   2.07833
   A14        2.09188   0.00030   0.00000   0.00490   0.00486   2.09674
   A15        2.09508  -0.00163   0.00000  -0.01156  -0.01154   2.08355
   A16        2.09622   0.00133   0.00000   0.00666   0.00668   2.10290
   A17        2.08983  -0.00238   0.00000  -0.00835  -0.00837   2.08146
   A18        2.09833   0.00189   0.00000   0.00850   0.00850   2.10684
   A19        2.09502   0.00049   0.00000  -0.00016  -0.00015   2.09487
   A20        2.12835   0.00101   0.00000   0.00361   0.00356   2.13191
   A21        2.05847   0.00375   0.00000   0.02433   0.02426   2.08273
   A22        2.09635  -0.00476   0.00000  -0.02806  -0.02812   2.06823
   A23        2.05114   0.00118   0.00000   0.00199   0.00197   2.05311
   A24        2.15627  -0.00303   0.00000  -0.01068  -0.01072   2.14555
   A25        2.07578   0.00185   0.00000   0.00866   0.00862   2.08440
   A26        2.11195  -0.00500   0.00000  -0.01903  -0.01906   2.09289
   A27        2.13025   0.00013   0.00000   0.00126   0.00122   2.13148
   A28        2.04079   0.00487   0.00000   0.01749   0.01745   2.05824
   A29        2.12218  -0.00143   0.00000  -0.00724  -0.00727   2.11491
   A30        2.09788  -0.00179   0.00000  -0.01184  -0.01187   2.08601
   A31        2.06312   0.00322   0.00000   0.01902   0.01898   2.08210
   A32        2.09704  -0.00021   0.00000   0.00062   0.00059   2.09763
   A33        2.09149  -0.00080   0.00000  -0.00586  -0.00584   2.08565
   A34        2.09466   0.00100   0.00000   0.00523   0.00524   2.09990
   A35        2.08677  -0.00137   0.00000  -0.00333  -0.00340   2.08337
   A36        2.09905   0.00054   0.00000   0.00074   0.00078   2.09983
   A37        2.09736   0.00084   0.00000   0.00259   0.00262   2.09998
   A38        2.09690   0.00038   0.00000   0.00348   0.00341   2.10032
   A39        2.09575   0.00054   0.00000   0.00277   0.00280   2.09856
   A40        2.09053  -0.00092   0.00000  -0.00625  -0.00622   2.08431
   A41        2.12250  -0.00222   0.00000  -0.01054  -0.01061   2.11189
   A42        2.09543  -0.00106   0.00000  -0.00808  -0.00809   2.08734
   A43        2.06525   0.00328   0.00000   0.01865   0.01863   2.08388
    D1        1.01864  -0.00085   0.00000   0.00383   0.00385   1.02248
    D2       -1.15604   0.00129   0.00000   0.02476   0.02468  -1.13136
    D3        3.07239   0.00028   0.00000   0.01486   0.01492   3.08731
    D4        0.07495  -0.00053   0.00000  -0.02208  -0.02207   0.05288
    D5       -3.08776  -0.00060   0.00000  -0.02722  -0.02723  -3.11499
    D6        3.11372   0.00008   0.00000   0.00330   0.00325   3.11697
    D7       -0.01815  -0.00005   0.00000  -0.00152  -0.00149  -0.01964
    D8       -0.00612   0.00022   0.00000   0.00880   0.00884   0.00271
    D9       -3.13799   0.00008   0.00000   0.00398   0.00410  -3.13389
   D10       -3.12310   0.00017   0.00000   0.00937   0.00934  -3.11376
   D11        0.01644  -0.00011   0.00000  -0.00622  -0.00622   0.01022
   D12       -0.00195   0.00007   0.00000   0.00431   0.00422   0.00227
   D13        3.13759  -0.00021   0.00000  -0.01129  -0.01134   3.12625
   D14        0.00532  -0.00023   0.00000  -0.00993  -0.00988  -0.00456
   D15       -3.13414  -0.00030   0.00000  -0.01230  -0.01229   3.13676
   D16        3.13761  -0.00015   0.00000  -0.00559  -0.00548   3.13213
   D17       -0.00185  -0.00021   0.00000  -0.00795  -0.00790  -0.00974
   D18        0.00367  -0.00007   0.00000  -0.00235  -0.00235   0.00132
   D19       -3.13869  -0.00021   0.00000  -0.00813  -0.00823   3.13626
   D20       -3.14006  -0.00001   0.00000  -0.00001   0.00007  -3.13999
   D21        0.00076  -0.00015   0.00000  -0.00579  -0.00581  -0.00505
   D22       -0.01211   0.00037   0.00000   0.01595   0.01598   0.00387
   D23        3.12287  -0.00011   0.00000  -0.00467  -0.00495   3.11792
   D24        3.13026   0.00050   0.00000   0.02172   0.02181  -3.13112
   D25       -0.01796   0.00003   0.00000   0.00110   0.00089  -0.01707
   D26        0.01108  -0.00034   0.00000  -0.01665  -0.01669  -0.00560
   D27       -3.12856  -0.00007   0.00000  -0.00177  -0.00167  -3.13023
   D28       -3.12375   0.00012   0.00000   0.00421   0.00388  -3.11987
   D29        0.01979   0.00039   0.00000   0.01908   0.01890   0.03869
   D30       -2.38785   0.00002   0.00000  -0.00012  -0.00002  -2.38786
   D31        0.77532   0.00027   0.00000   0.01584   0.01576   0.79108
   D32        0.75167  -0.00027   0.00000  -0.01593  -0.01585   0.73582
   D33       -2.36835  -0.00002   0.00000   0.00003  -0.00007  -2.36842
   D34       -3.11869   0.00032   0.00000   0.01601   0.01596  -3.10273
   D35        0.02761   0.00067   0.00000   0.03134   0.03118   0.05880
   D36        0.00239   0.00003   0.00000   0.00068   0.00067   0.00306
   D37       -3.13449   0.00038   0.00000   0.01600   0.01589  -3.11860
   D38        3.13525  -0.00083   0.00000  -0.03639  -0.03652   3.09873
   D39       -0.00925  -0.00044   0.00000  -0.01999  -0.02025  -0.02950
   D40        0.01440  -0.00048   0.00000  -0.02063  -0.02062  -0.00622
   D41       -3.13011  -0.00008   0.00000  -0.00423  -0.00435  -3.13445
   D42       -0.01361   0.00030   0.00000   0.01315   0.01319  -0.00042
   D43        3.13079   0.00037   0.00000   0.01534   0.01536  -3.13704
   D44        3.12336  -0.00006   0.00000  -0.00196  -0.00208   3.12128
   D45       -0.01542   0.00001   0.00000   0.00023   0.00009  -0.01534
   D46        0.00801  -0.00016   0.00000  -0.00716  -0.00720   0.00081
   D47       -3.13112  -0.00015   0.00000  -0.00715  -0.00723  -3.13836
   D48       -3.13640  -0.00023   0.00000  -0.00936  -0.00940   3.13739
   D49        0.00766  -0.00022   0.00000  -0.00935  -0.00943  -0.00178
   D50        0.00850  -0.00027   0.00000  -0.01234  -0.01245  -0.00395
   D51       -3.13398  -0.00023   0.00000  -0.01033  -0.01046   3.13874
   D52       -3.13555  -0.00028   0.00000  -0.01235  -0.01243   3.13521
   D53        0.00515  -0.00024   0.00000  -0.01034  -0.01043  -0.00528
   D54       -0.02014   0.00065   0.00000   0.02700   0.02691   0.00677
   D55        3.12432   0.00027   0.00000   0.01091   0.01071   3.13503
   D56        3.12234   0.00061   0.00000   0.02499   0.02493  -3.13592
   D57       -0.01639   0.00023   0.00000   0.00890   0.00873  -0.00766
         Item               Value     Threshold  Converged?
 Maximum Force            0.008078     0.000450     NO 
 RMS     Force            0.002155     0.000300     NO 
 Maximum Displacement     0.108978     0.001800     NO 
 RMS     Displacement     0.027753     0.001200     NO 
 Predicted change in Energy=-1.303299D-03
 GradGradGradGradGradGradGradGradGradGradGradGradGradGradGradGradGradGrad

 Leave Link  103 at Thu Sep 30 12:33:46 2021, MaxMem= 1073741824 cpu:       5.0
 (Enter /sw/target/amd/app/gaussian/Gaussian09RevA.02_gcc-4.9.2/g09/l202.exe)
                          Input orientation:                          
 ---------------------------------------------------------------------
 Center     Atomic      Atomic             Coordinates (Angstroms)
 Number     Number       Type             X           Y           Z
 ---------------------------------------------------------------------
      1          6           0        2.404550    0.293575    1.652625
      2          8           0        3.164906   -0.051772    0.507415
      3          6           0        3.527453    0.947615   -0.353843
      4          6           0        3.236016    2.296183   -0.124641
      5          6           0        3.659824    3.272108   -1.029043
      6          6           0        4.380925    2.908082   -2.163377
      7          6           0        4.671330    1.561640   -2.383638
      8          6           0        4.256682    0.554980   -1.500621
      9          6           0        4.612156   -0.859469   -1.786959
     10          6           0        5.900212   -1.178594   -2.247454
     11          6           0        6.247781   -2.490448   -2.567976
     12          6           0        5.311845   -3.516921   -2.434319
     13          6           0        4.026569   -3.216704   -1.978246
     14          6           0        3.682619   -1.904992   -1.654886
     15          1           0        1.459436    0.780448    1.380666
     16          1           0        2.970224    0.938209    2.337353
     17          1           0        2.187188   -0.653385    2.152800
     18          1           0        2.683461    2.599546    0.757258
     19          1           0        3.421272    4.314911   -0.838586
     20          1           0        4.711043    3.659091   -2.875772
     21          1           0        5.214321    1.274119   -3.279051
     22          1           0        6.646252   -0.393188   -2.338803
     23          1           0        7.253660   -2.707329   -2.917838
     24          1           0        5.581554   -4.540980   -2.680787
     25          1           0        3.285760   -4.004713   -1.871394
     26          1           0        2.678348   -1.688115   -1.308006
 ---------------------------------------------------------------------
                    Distance matrix (angstroms):
                    1          2          3          4          5
     1  C    0.000000
     2  O    1.417361   0.000000
     3  C    2.390521   1.368203   0.000000
     4  C    2.803649   2.432580   1.398608   0.000000
[...]
   XY=              4.6250   XZ=              0.3899   YZ=             -0.3607
 Traceless Quadrupole moment (field-independent basis, Debye-Ang):
   XX=              0.1808   YY=              7.6494   ZZ=             -7.8302
   XY=              4.6250   XZ=              0.3899   YZ=             -0.3607
 Octapole moment (field-independent basis, Debye-Ang**2):
  XXX=             36.5579  YYY=             27.4355  ZZZ=              3.6899  XYY=             29.4005
  XXY=             13.4494  XXZ=              4.6331  XZZ=              2.8263  YZZ=              8.5493
  YYZ=              2.6772  XYZ=             11.4134
 Hexadecapole moment (field-independent basis, Debye-Ang**3):
 XXXX=          -2599.0143 YYYY=           -950.1019 ZZZZ=           -215.3176 XXXY=             14.9326
 XXXZ=             -7.6523 YYYX=             35.8287 YYYZ=             19.3399 ZZZX=              4.7635
 ZZZY=             -0.1392 XXYY=           -576.0485 XXZZ=           -514.8358 YYZZ=           -212.2502
 XXYZ=            -11.0258 YYXZ=              2.2412 ZZXY=             14.6367
 N-N= 8.136452412559D+02 E-N=-2.967857042637D+03  KE= 5.724067999043D+02
 No NMR shielding tensors so no spin-rotation constants.
 Leave Link  601 at Thu Sep 30 17:56:44 2021, MaxMem= 1073741824 cpu:       1.3
 (Enter /sw/target/amd/app/gaussian/Gaussian09RevA.02_gcc-4.9.2/g09/l604.exe)
 Evaluate density.
 Using the total density.
 Monte-Carlo method of calculating molar volume:
 based on  0.001 e/bohr**3 density envelope.
 Number of points per bohr**3 =   20 CutOff= 1.00D-04
 Using the CI density.
 There are       421 points.  Will hold       421 in memory.
 LenV=  1073586636 MDV=  1073741824.
 Box volume = 9349.738 fraction occupied=0.173
 Integrated density= 7.3902450968889454D+01 error=-2.4097549031110546D+01
 Molar volume = 1621.214 bohr**3/mol (144.675 cm**3/mol)
 Recommended a0 for SCRF calculation =  4.74 angstrom (  8.97 bohr)
 Leave Link  604 at Thu Sep 30 17:56:45 2021, MaxMem= 1073741824 cpu:       0.3
 (Enter /sw/target/amd/app/gaussian/Gaussian09RevA.02_gcc-4.9.2/g09/l607.exe)
 ******************************Gaussian NBO Version 3.1******************************
             N A T U R A L   A T O M I C   O R B I T A L   A N D
          N A T U R A L   B O N D   O R B I T A L   A N A L Y S I S
 ******************************Gaussian NBO Version 3.1******************************
       /RESON  / : Allow strongly delocalized NBO set

 Analyzing the CI density

 Job title: COc1ccccc1c1ccccc1_conf_0                                       

 Storage needed:    166556 in NPA (1073738184 available)


 NATURAL POPULATIONS:  Natural atomic orbital occupancies 
                                                          
   NAO  Atom  No  lang   Type(AO)    Occupancy
 --------------------------------------------
     1    C    1  S      Cor( 1S)     1.99941
     2    C    1  S      Val( 2S)     1.10599
     3    C    1  S      Ryd( 3S)     0.00149
     4    C    1  S      Ryd( 4S)     0.00003
     5    C    1  px     Val( 2p)     1.03950
     6    C    1  px     Ryd( 3p)     0.00341
     7    C    1  py     Val( 2p)     0.94741
     8    C    1  py     Ryd( 3p)     0.00255
     9    C    1  pz     Val( 2p)     1.22209
    10    C    1  pz     Ryd( 3p)     0.00034
    11    C    1  dxy    Ryd( 3d)     0.00197
    12    C    1  dxz    Ryd( 3d)     0.00155
    13    C    1  dyz    Ryd( 3d)     0.00081
    14    C    1  dx2y2  Ryd( 3d)     0.00107
    15    C    1  dz2    Ryd( 3d)     0.00105

    16    O    2  S      Cor( 1S)     1.99975
    17    O    2  S      Val( 2S)     1.59907
    18    O    2  S      Ryd( 3S)     0.00080
    19    O    2  S      Ryd( 4S)     0.00008
    20    O    2  px     Val( 2p)     1.72401
    21    O    2  px     Ryd( 3p)     0.00230
    22    O    2  py     Val( 2p)     1.39816
    23    O    2  py     Ryd( 3p)     0.00085
    24    O    2  pz     Val( 2p)     1.67520
    25    O    2  pz     Ryd( 3p)     0.00204
    26    O    2  dxy    Ryd( 3d)     0.00134
    27    O    2  dxz    Ryd( 3d)     0.00161
    28    O    2  dyz    Ryd( 3d)     0.00047
    29    O    2  dx2y2  Ryd( 3d)     0.00140
    30    O    2  dz2    Ryd( 3d)     0.00076

    31    C    3  S      Cor( 1S)     1.99873
    32    C    3  S      Val( 2S)     0.84017
    33    C    3  S      Ryd( 3S)     0.00169
    34    C    3  S      Ryd( 4S)     0.00013
    35    C    3  px     Val( 2p)     1.04993
    36    C    3  px     Ryd( 3p)     0.00612
    37    C    3  py     Val( 2p)     0.77879
    38    C    3  py     Ryd( 3p)     0.00561
    39    C    3  pz     Val( 2p)     0.93192
    40    C    3  pz     Ryd( 3p)     0.00130
    41    C    3  dxy    Ryd( 3d)     0.00162
    42    C    3  dxz    Ryd( 3d)     0.00127
    43    C    3  dyz    Ryd( 3d)     0.00152
    44    C    3  dx2y2  Ryd( 3d)     0.00160
    45    C    3  dz2    Ryd( 3d)     0.00052

    46    C    4  S      Cor( 1S)     1.99906
    47    C    4  S      Val( 2S)     0.96083
    48    C    4  S      Ryd( 3S)     0.00070
    49    C    4  S      Ryd( 4S)     0.00005
    50    C    4  px     Val( 2p)     1.11644
    51    C    4  px     Ryd( 3p)     0.00411
    52    C    4  py     Val( 2p)     1.15049
    53    C    4  py     Ryd( 3p)     0.00392
    54    C    4  pz     Val( 2p)     1.07130
    55    C    4  pz     Ryd( 3p)     0.00301
    56    C    4  dxy    Ryd( 3d)     0.00074
    57    C    4  dxz    Ryd( 3d)     0.00049
    58    C    4  dyz    Ryd( 3d)     0.00052
    59    C    4  dx2y2  Ryd( 3d)     0.00063
    60    C    4  dz2    Ryd( 3d)     0.00046

    61    C    5  S      Cor( 1S)     1.99913
    62    C    5  S      Val( 2S)     0.95836
    63    C    5  S      Ryd( 3S)     0.00069
    64    C    5  S      Ryd( 4S)     0.00003
    65    C    5  px     Val( 2p)     1.19097
    66    C    5  px     Ryd( 3p)     0.00506
    67    C    5  py     Val( 2p)     1.05347
    68    C    5  py     Ryd( 3p)     0.00514
    69    C    5  pz     Val( 2p)     1.05914
    70    C    5  pz     Ryd( 3p)     0.00400
    71    C    5  dxy    Ryd( 3d)     0.00065
    72    C    5  dxz    Ryd( 3d)     0.00037
    73    C    5  dyz    Ryd( 3d)     0.00050
    74    C    5  dx2y2  Ryd( 3d)     0.00081
    75    C    5  dz2    Ryd( 3d)     0.00044

    76    C    6  S      Cor( 1S)     1.99909
    77    C    6  S      Val( 2S)     0.97116
    78    C    6  S      Ryd( 3S)     0.00054
    79    C    6  S      Ryd( 4S)     0.00003
    80    C    6  px     Val( 2p)     1.07484
    81    C    6  px     Ryd( 3p)     0.00465
    82    C    6  py     Val( 2p)     1.17774
    83    C    6  py     Ryd( 3p)     0.00485
    84    C    6  pz     Val( 2p)     0.90395
    85    C    6  pz     Ryd( 3p)     0.00125
    86    C    6  dxy    Ryd( 3d)     0.00077
    87    C    6  dxz    Ryd( 3d)     0.00088
    88    C    6  dyz    Ryd( 3d)     0.00040
    89    C    6  dx2y2  Ryd( 3d)     0.00080
    90    C    6  dz2    Ryd( 3d)     0.00042

    91    C    7  S      Cor( 1S)     1.99908
    92    C    7  S      Val( 2S)     0.95100
    93    C    7  S      Ryd( 3S)     0.00077
    94    C    7  S      Ryd( 4S)     0.00006
    95    C    7  px     Val( 2p)     1.11985
    96    C    7  px     Ryd( 3p)     0.00401
    97    C    7  py     Val( 2p)     1.12908
    98    C    7  py     Ryd( 3p)     0.00497
    99    C    7  pz     Val( 2p)     1.07072
   100    C    7  pz     Ryd( 3p)     0.00381
   101    C    7  dxy    Ryd( 3d)     0.00081
   102    C    7  dxz    Ryd( 3d)     0.00044
   103    C    7  dyz    Ryd( 3d)     0.00044
   104    C    7  dx2y2  Ryd( 3d)     0.00063
   105    C    7  dz2    Ryd( 3d)     0.00042

   106    C    8  S      Cor( 1S)     1.99898
   107    C    8  S      Val( 2S)     0.87809
   108    C    8  S      Ryd( 3S)     0.00076
   109    C    8  S      Ryd( 4S)     0.00006
   110    C    8  px     Val( 2p)     1.07788
   111    C    8  px     Ryd( 3p)     0.00492
   112    C    8  py     Val( 2p)     1.07780
   113    C    8  py     Ryd( 3p)     0.00529
   114    C    8  pz     Val( 2p)     1.00309
   115    C    8  pz     Ryd( 3p)     0.00419
   116    C    8  dxy    Ryd( 3d)     0.00099
   117    C    8  dxz    Ryd( 3d)     0.00083
   118    C    8  dyz    Ryd( 3d)     0.00057
   119    C    8  dx2y2  Ryd( 3d)     0.00050
   120    C    8  dz2    Ryd( 3d)     0.00037

   121    C    9  S      Cor( 1S)     1.99901
   122    C    9  S      Val( 2S)     0.86384
   123    C    9  S      Ryd( 3S)     0.00069
   124    C    9  S      Ryd( 4S)     0.00006
   125    C    9  px     Val( 2p)     1.04828
   126    C    9  px     Ryd( 3p)     0.00516
   127    C    9  py     Val( 2p)     1.09740
   128    C    9  py     Ryd( 3p)     0.00548
   129    C    9  pz     Val( 2p)     1.08876
   130    C    9  pz     Ryd( 3p)     0.00309
   131    C    9  dxy    Ryd( 3d)     0.00058
   132    C    9  dxz    Ryd( 3d)     0.00077
   133    C    9  dyz    Ryd( 3d)     0.00042
   134    C    9  dx2y2  Ryd( 3d)     0.00062
   135    C    9  dz2    Ryd( 3d)     0.00051

   136    C   10  S      Cor( 1S)     1.99905
   137    C   10  S      Val( 2S)     0.94672
   138    C   10  S      Ryd( 3S)     0.00063
   139    C   10  S      Ryd( 4S)     0.00005
   140    C   10  px     Val( 2p)     1.08468
   141    C   10  px     Ryd( 3p)     0.00363
   142    C   10  py     Val( 2p)     1.11947
   143    C   10  py     Ryd( 3p)     0.00377
   144    C   10  pz     Val( 2p)     1.07553
   145    C   10  pz     Ryd( 3p)     0.00293
   146    C   10  dxy    Ryd( 3d)     0.00073
   147    C   10  dxz    Ryd( 3d)     0.00069
   148    C   10  dyz    Ryd( 3d)     0.00057
   149    C   10  dx2y2  Ryd( 3d)     0.00050
   150    C   10  dz2    Ryd( 3d)     0.00039

   151    C   11  S      Cor( 1S)     1.99910
   152    C   11  S      Val( 2S)     0.95732
   153    C   11  S      Ryd( 3S)     0.00059
   154    C   11  S      Ryd( 4S)     0.00003
   155    C   11  px     Val( 2p)     1.10500
   156    C   11  px     Ryd( 3p)     0.00478
   157    C   11  py     Val( 2p)     1.09119
   158    C   11  py     Ryd( 3p)     0.00344
   159    C   11  pz     Val( 2p)     1.06898
   160    C   11  pz     Ryd( 3p)     0.00271
   161    C   11  dxy    Ryd( 3d)     0.00072
   162    C   11  dxz    Ryd( 3d)     0.00071
   163    C   11  dyz    Ryd( 3d)     0.00055
   164    C   11  dx2y2  Ryd( 3d)     0.00057
   165    C   11  dz2    Ryd( 3d)     0.00041

   166    C   12  S      Cor( 1S)     1.99909
   167    C   12  S      Val( 2S)     0.95506
   168    C   12  S      Ryd( 3S)     0.00052
   169    C   12  S      Ryd( 4S)     0.00003
   170    C   12  px     Val( 2p)     1.18629
   171    C   12  px     Ryd( 3p)     0.00467
   172    C   12  py     Val( 2p)     1.06426
   173    C   12  py     Ryd( 3p)     0.00420
   174    C   12  pz     Val( 2p)     1.05994
   175    C   12  pz     Ryd( 3p)     0.00381
   176    C   12  dxy    Ryd( 3d)     0.00053
   177    C   12  dxz    Ryd( 3d)     0.00043
   178    C   12  dyz    Ryd( 3d)     0.00040
   179    C   12  dx2y2  Ryd( 3d)     0.00079
   180    C   12  dz2    Ryd( 3d)     0.00056

   181    C   13  S      Cor( 1S)     1.99910
   182    C   13  S      Val( 2S)     0.95709
   183    C   13  S      Ryd( 3S)     0.00059
   184    C   13  S      Ryd( 4S)     0.00004
   185    C   13  px     Val( 2p)     1.08499
   186    C   13  px     Ryd( 3p)     0.00467
   187    C   13  py     Val( 2p)     1.11555
   188    C   13  py     Ryd( 3p)     0.00357
   189    C   13  pz     Val( 2p)     1.07058
   190    C   13  pz     Ryd( 3p)     0.00264
   191    C   13  dxy    Ryd( 3d)     0.00074
   192    C   13  dxz    Ryd( 3d)     0.00067
   193    C   13  dyz    Ryd( 3d)     0.00059
   194    C   13  dx2y2  Ryd( 3d)     0.00053
   195    C   13  dz2    Ryd( 3d)     0.00043

   196    C   14  S      Cor( 1S)     1.99904
   197    C   14  S      Val( 2S)     0.94671
   198    C   14  S      Ryd( 3S)     0.00061
   199    C   14  S      Ryd( 4S)     0.00005
   200    C   14  px     Val( 2p)     1.11024
   201    C   14  px     Ryd( 3p)     0.00382
   202    C   14  py     Val( 2p)     1.08045
   203    C   14  py     Ryd( 3p)     0.00341
   204    C   14  pz     Val( 2p)     1.07343
   205    C   14  pz     Ryd( 3p)     0.00309
   206    C   14  dxy    Ryd( 3d)     0.00072
   207    C   14  dxz    Ryd( 3d)     0.00075
   208    C   14  dyz    Ryd( 3d)     0.00056
   209    C   14  dx2y2  Ryd( 3d)     0.00052
   210    C   14  dz2    Ryd( 3d)     0.00039

   211    H   15  S      Val( 1S)     0.77858
   212    H   15  S      Ryd( 2S)     0.00172

   213    H   16  S      Val( 1S)     0.77595
   214    H   16  S      Ryd( 2S)     0.00195

   215    H   17  S      Val( 1S)     0.75922
   216    H   17  S      Ryd( 2S)     0.00053

   217    H   18  S      Val( 1S)     0.76387
   218    H   18  S      Ryd( 2S)     0.00098

   219    H   19  S      Val( 1S)     0.76274
   220    H   19  S      Ryd( 2S)     0.00090

   221    H   20  S      Val( 1S)     0.76115
   222    H   20  S      Ryd( 2S)     0.00084

   223    H   21  S      Val( 1S)     0.75450
   224    H   21  S      Ryd( 2S)     0.00113

   225    H   22  S      Val( 1S)     0.77277
   226    H   22  S      Ryd( 2S)     0.00137

   227    H   23  S      Val( 1S)     0.77106
   228    H   23  S      Ryd( 2S)     0.00095

   229    H   24  S      Val( 1S)     0.77434
   230    H   24  S      Ryd( 2S)     0.00095

   231    H   25  S      Val( 1S)     0.77201
   232    H   25  S      Ryd( 2S)     0.00093

   233    H   26  S      Val( 1S)     0.77320
   234    H   26  S      Ryd( 2S)     0.00133

 WARNING:  1 low occupancy (<1.9990e) core orbital  found on  C    3
           1 low occupancy (<1.9990e) core orbital  found on  C    8


 Summary of Natural Population Analysis:                  
                                                          
                                       Natural Population 
                Natural  -----------------------------------------------
    Atom  No    Charge         Core      Valence    Rydberg      Total
 -----------------------------------------------------------------------
      C    1   -0.32866      1.99941     4.31499    0.01426     6.32866
      O    2   -0.40785      1.99975     6.39645    0.01166     8.40785
      C    3    0.37906      1.99873     3.60082    0.02139     5.62094
      C    4   -0.31274      1.99906     4.29906    0.01462     6.31274
      C    5   -0.27876      1.99913     4.26193    0.01770     6.27876
      C    6   -0.14139      1.99909     4.12770    0.01460     6.14139
      C    7   -0.28607      1.99908     4.27065    0.01634     6.28607
      C    8   -0.05432      1.99898     4.03686    0.01848     6.05432
      C    9   -0.11468      1.99901     4.09828    0.01739     6.11468
      C   10   -0.23934      1.99905     4.22639    0.01390     6.23934
      C   11   -0.23613      1.99910     4.22249    0.01454     6.23613
      C   12   -0.28059      1.99909     4.26556    0.01594     6.28059
      C   13   -0.24178      1.99910     4.22821    0.01447     6.24178
      C   14   -0.22379      1.99904     4.21083    0.01391     6.22379
      H   15    0.21970      0.00000     0.77858    0.00172     0.78030
      H   16    0.22210      0.00000     0.77595    0.00195     0.77790
      H   17    0.24026      0.00000     0.75922    0.00053     0.75974
      H   18    0.23515      0.00000     0.76387    0.00098     0.76485
      H   19    0.23637      0.00000     0.76274    0.00090     0.76363
      H   20    0.23801      0.00000     0.76115    0.00084     0.76199
      H   21    0.24437      0.00000     0.75450    0.00113     0.75563
      H   22    0.22586      0.00000     0.77277    0.00137     0.77414
      H   23    0.22799      0.00000     0.77106    0.00095     0.77201
      H   24    0.22471      0.00000     0.77434    0.00095     0.77529
      H   25    0.22706      0.00000     0.77201    0.00093     0.77294
      H   26    0.22547      0.00000     0.77320    0.00133     0.77453
 =======================================================================
   * Total *   -0.00000     27.98762    69.77962    0.23277    98.00000

                                 Natural Population      
 --------------------------------------------------------
   Core                      27.98762 ( 99.9558% of  28)
   Valence                   69.77962 ( 99.6852% of  70)
   Natural Minimal Basis     97.76723 ( 99.7625% of  98)
   Natural Rydberg Basis      0.23277 (  0.2375% of  98)
 --------------------------------------------------------

    Atom  No          Natural Electron Configuration
 ----------------------------------------------------------------------------
      C    1      [core]2S( 1.11)2p( 3.21)3p( 0.01)3d( 0.01)
      O    2      [core]2S( 1.60)2p( 4.80)3p( 0.01)3d( 0.01)
      C    3      [core]2S( 0.84)2p( 2.76)3p( 0.01)3d( 0.01)
      C    4      [core]2S( 0.96)2p( 3.34)3p( 0.01)
      C    5      [core]2S( 0.96)2p( 3.30)3p( 0.01)
      C    6      [core]2S( 0.97)2p( 3.16)3p( 0.01)
      C    7      [core]2S( 0.95)2p( 3.32)3p( 0.01)
      C    8      [core]2S( 0.88)2p( 3.16)3p( 0.01)
      C    9      [core]2S( 0.86)2p( 3.23)3p( 0.01)
      C   10      [core]2S( 0.95)2p( 3.28)3p( 0.01)
      C   11      [core]2S( 0.96)2p( 3.27)3p( 0.01)
      C   12      [core]2S( 0.96)2p( 3.31)3p( 0.01)
      C   13      [core]2S( 0.96)2p( 3.27)3p( 0.01)
      C   14      [core]2S( 0.95)2p( 3.26)3p( 0.01)
      H   15            1S( 0.78)
      H   16            1S( 0.78)
      H   17            1S( 0.76)
      H   18            1S( 0.76)
      H   19            1S( 0.76)
      H   20            1S( 0.76)
      H   21            1S( 0.75)
      H   22            1S( 0.77)
      H   23            1S( 0.77)
      H   24            1S( 0.77)
      H   25            1S( 0.77)
      H   26            1S( 0.77)


 NBO analysis skipped by request.
 Leave Link  607 at Thu Sep 30 17:57:02 2021, MaxMem= 1073741824 cpu:      14.6
 (Enter /sw/target/amd/app/gaussian/Gaussian09RevA.02_gcc-4.9.2/g09/l9999.exe)
 1\1\GINC-HERMITE\SP\RTD-B3LYP-FC\6-31G(d)\C13H12O1\JSCHLEINITZ\30-Sep-
 2021\0\\#p TD(NStates=10, Root=1) b3lyp/6-31G* volume pop=NPA density=
 current Geom=AllCheck Guess=Read\\COc1ccccc1c1ccccc1_conf_0\\0,1\C,0,2
 .4430422178,0.2896398062,1.6764224218\O,0,3.1245849121,-0.0533707497,0
 .4817863886\C,0,3.5056364664,0.9476412629,-0.3684140897\C,0,3.21333103
 25,2.2970709247,-0.1416062699\C,0,3.6478729514,3.2733935784,-1.0410562
 88\C,0,4.3768860689,2.9109736779,-2.1693014843\C,0,4.6656174929,1.5634
 581702,-2.3898650999\C,0,4.2455767025,0.5558567986,-1.5115981657\C,0,4
 .6018207441,-0.8621717755,-1.7922784812\C,0,5.9045821881,-1.1839646242
 ,-2.2092592359\C,0,6.2563586139,-2.4956902577,-2.526682259\C,0,5.31019
 03011,-3.5168580103,-2.4337967355\C,0,4.0119531708,-3.2127372703,-2.01
 87689427\C,0,3.661210172,-1.9022247586,-1.6994905367\H,0,1.478505908,0
 .7726548137,1.4702046359\H,0,3.0478934666,0.9505268451,2.311244853\H,0
 ,2.2688455231,-0.6524887048,2.1996435685\H,0,2.6510678323,2.5962891873
 ,0.7352394803\H,0,3.4081592554,4.3161709763,-0.8505621363\H,0,4.712686
 2686,3.6632539626,-2.8770412861\H,0,5.217005312,1.2715661557,-3.279357
 3793\H,0,6.6527699326,-0.3978666031,-2.265808167\H,0,7.2729088115,-2.7
 192223139,-2.8403124682\H,0,5.5817589878,-4.5401940018,-2.6793105752\H
 ,0,3.2656341748,-3.9999052345,-1.9463228883\H,0,2.6494885684,-1.677906
 0029,-1.380831839\\Version=AM64L-G09RevA.02\State=1-A\HF=-577.8251701\
 RMSD=9.291e-09\Dipole=-0.8805478,1.2288707,1.277541\Quadrupole=-0.7679
 976,-1.470641,2.2386386,0.3359784,-6.4100306,-0.1489926\PG=C01 [X(C13H
 12O1)]\\@


 Just remember, when you're over the hill, you begin to pick up speed.
 -- Charles Schulz
 Job cpu time:  0 days  2 hours 47 minutes  4.2 seconds.
 File lengths (MBytes):  RWF=    179 Int=      0 D2E=      0 Chk=     25 Scr=      1
 Normal termination of Gaussian 09 at Thu Sep 30 17:57:05 2021.
