 Entering Gaussian System, Link 0=g09
 Input=C13H18N2O_038e_conf_0.com
 Output=C13H18N2O_038e_conf_0.log
 Initial command:
 /sw/target/amd/app/gaussian/Gaussian09RevA.02_gcc-4.9.2/g09/l1.exe /home/jschleinitz/gaussian/Gau-2868607.inp -scrdir=/home/jschleinitz/gaussian/
 Entering Link 1 = /sw/target/amd/app/gaussian/Gaussian09RevA.02_gcc-4.9.2/g09/l1.exe PID=   2868611.
  
 Copyright (c) 1988,1990,1992,1993,1995,1998,2003,2009, Gaussian, Inc.
                  All Rights Reserved.
  
 This is part of the Gaussian(R) 09 program.  It is based on
 the Gaussian(R) 03 system (copyright 2003, Gaussian, Inc.),
 the Gaussian(R) 98 system (copyright 1998, Gaussian, Inc.),
 the Gaussian(R) 94 system (copyright 1995, Gaussian, Inc.),
 the Gaussian 92(TM) system (copyright 1992, Gaussian, Inc.),
 the Gaussian 90(TM) system (copyright 1990, Gaussian, Inc.),
 the Gaussian 88(TM) system (copyright 1988, Gaussian, Inc.),
 the Gaussian 86(TM) system (copyright 1986, Carnegie Mellon
 University), and the Gaussian 82(TM) system (copyright 1983,
 Carnegie Mellon University). Gaussian is a federally registered
 trademark of Gaussian, Inc.
  
 This software contains proprietary and confidential information,
 including trade secrets, belonging to Gaussian, Inc.
  
 This software is provided under written license and may be
 used, copied, transmitted, or stored only in accord with that
 written license.
  
 The following legend is applicable only to US Government
 contracts under FAR:
  
                    RESTRICTED RIGHTS LEGEND
  
 Use, reproduction and disclosure by the US Government is
 subject to restrictions as set forth in subparagraphs (a)
 and (c) of the Commercial Computer Software - Restricted
 Rights clause in FAR 52.227-19.
  
 Gaussian, Inc.
 340 Quinnipiac St., Bldg. 40, Wallingford CT 06492
  
  
 ---------------------------------------------------------------
 Warning -- This program may not be used in any manner that
 competes with the business of Gaussian, Inc. or will provide
 assistance to any competitor of Gaussian, Inc.  The licensee
 of this program is prohibited from giving any competitor of
 Gaussian, Inc. access to this program.  By using this program,
 the user acknowledges that Gaussian, Inc. is engaged in the
 business of creating and licensing software in the field of
 computational chemistry and represents and warrants to the
 licensee that it is not a competitor of Gaussian, Inc. and that
 it will not use this program in any manner prohibited above.
 ---------------------------------------------------------------
  

 Cite this work as:
 Gaussian 09, Revision A.02,
 M. J. Frisch, G. W. Trucks, H. B. Schlegel, G. E. Scuseria, 
 M. A. Robb, J. R. Cheeseman, G. Scalmani, V. Barone, B. Mennucci, 
 G. A. Petersson, H. Nakatsuji, M. Caricato, X. Li, H. P. Hratchian, 
 A. F. Izmaylov, J. Bloino, G. Zheng, J. L. Sonnenberg, M. Hada, 
 M. Ehara, K. Toyota, R. Fukuda, J. Hasegawa, M. Ishida, T. Nakajima, 
 Y. Honda, O. Kitao, H. Nakai, T. Vreven, J. A. Montgomery, Jr., 
 J. E. Peralta, F. Ogliaro, M. Bearpark, J. J. Heyd, E. Brothers, 
 K. N. Kudin, V. N. Staroverov, R. Kobayashi, J. Normand, 
 K. Raghavachari, A. Rendell, J. C. Burant, S. S. Iyengar, J. Tomasi, 
 M. Cossi, N. Rega, J. M. Millam, M. Klene, J. E. Knox, J. B. Cross, 
 V. Bakken, C. Adamo, J. Jaramillo, R. Gomperts, R. E. Stratmann, 
 O. Yazyev, A. J. Austin, R. Cammi, C. Pomelli, J. W. Ochterski, 
 R. L. Martin, K. Morokuma, V. G. Zakrzewski, G. A. Voth, 
 P. Salvador, J. J. Dannenberg, S. Dapprich, A. D. Daniels, 
 O. Farkas, J. B. Foresman, J. V. Ortiz, J. Cioslowski, 
 and D. J. Fox, Gaussian, Inc., Wallingford CT, 2009.
 
 ******************************************
 Gaussian 09:  AM64L-G09RevA.02 11-Jun-2009
                30-Sep-2021 
 ******************************************
 %nproc=5
 Will use up to    5 processors via shared memory.
 %mem=10gb
 %chk=C13H18N2O_038e_conf_0.chk
 -----------------------------------
 #p opt b3lyp/6-31G* scf=(xqc,tight)
 -----------------------------------
 1/14=-1,18=20,19=15,26=3,38=1/1,3;
 2/9=110,12=2,17=6,18=5,40=1/2;
 3/5=1,6=6,7=1,11=2,16=1,25=1,30=1,71=1,74=-5/1,2,3;
 4//1;
 5/5=2,8=3,13=1,32=2,38=5/2,8;
 6/7=2,8=2,9=2,10=2,28=1/1;
 7//1,2,3,16;
 1/14=-1,18=20,19=15/3(2);
 2/9=110/2;
 99//99;
 2/9=110/2;
 3/5=1,6=6,7=1,11=2,16=1,25=1,30=1,71=1,74=-5/1,2,3;
 4/5=5,16=3/1;
 5/5=2,8=3,13=1,32=2,38=5/2,8;
 7//1,2,3,16;
 1/14=-1,18=20,19=15/3(-5);
 2/9=110/2;
 6/7=2,8=2,9=2,10=2,19=2,28=1/1;
 99/9=1/99;
 Leave Link    1 at Thu Sep 30 10:32:52 2021, MaxMem= 1342177280 cpu:       0.1
 (Enter /sw/target/amd/app/gaussian/Gaussian09RevA.02_gcc-4.9.2/g09/l101.exe)
 -----------------------------
 COc1cccc2c1ccn2CCN(C)C_conf_0
 -----------------------------
 Symbolic Z-matrix:
 Charge =  0 Multiplicity = 1
 C                     1.87128   0.86169  -1.12759 
 O                     2.43393   0.02136  -0.127 
 C                     3.11439  -1.07965  -0.58366 
 C                     2.77302  -1.78089  -1.75013 
 C                     3.47104  -2.92456  -2.13203 
 C                     4.52382  -3.41977  -1.35946 
 C                     4.86176  -2.72588  -0.18685 
 C                     4.18078  -1.56922   0.20903 
 C                     4.78683  -1.12734   1.42099 
 C                     5.79652  -2.00582   1.73882 
 N                     5.82082  -2.97974   0.77513 
 C                     6.72534  -4.12279   0.78603 
 C                     6.07831  -5.34361   1.45809 
 N                     6.95111  -6.53572   1.52278 
 C                     6.30163  -7.57843   2.32628 
 C                     7.25658  -7.06695   0.19241 
 H                     1.45097   1.73911  -0.62598 
 H                     1.04844   0.36896  -1.65415 
 H                     2.63791   1.20776  -1.82854 
 H                     1.94254  -1.46466  -2.37227 
 H                     3.18427  -3.4517   -3.03986 
 H                     5.05148  -4.31812  -1.66147 
 H                     4.50447  -0.25161   1.99028 
 H                     6.48552  -2.02004   2.57338 
 H                     7.63573  -3.82061   1.31686 
 H                     7.0026   -4.31984  -0.25411 
 H                     5.13172  -5.59089   0.95902 
 H                     5.81651  -5.05016   2.48424 
 H                     6.11076  -7.22067   3.34415 
 H                     6.95323  -8.45439   2.42094 
 H                     5.34966  -7.90288   1.88964 
 H                     7.84992  -6.35599  -0.39051 
 H                     6.35047  -7.31255  -0.37296 
 H                     7.86833  -7.97309   0.27114 
 
 NAtoms=     34 NQM=     34 NQMF=      0 NMic=      0 NMicF=      0 NTot=     34.
                    Isotopes and Nuclear Properties:
 (Nuclear quadrupole moments (NQMom) in fm**2, nuclear magnetic moments (NMagM)
  in nuclear magnetons)

  Atom         1           2           3           4           5           6           7           8           9          10
 IAtWgt=          12          16          12          12          12          12          12          12          12          12
 AtmWgt=  12.0000000  15.9949146  12.0000000  12.0000000  12.0000000  12.0000000  12.0000000  12.0000000  12.0000000  12.0000000
 NucSpn=           0           0           0           0           0           0           0           0           0           0
 AtZEff=   0.0000000   0.0000000   0.0000000   0.0000000   0.0000000   0.0000000   0.0000000   0.0000000   0.0000000   0.0000000
 NQMom=    0.0000000   0.0000000   0.0000000   0.0000000   0.0000000   0.0000000   0.0000000   0.0000000   0.0000000   0.0000000
 NMagM=    0.0000000   0.0000000   0.0000000   0.0000000   0.0000000   0.0000000   0.0000000   0.0000000   0.0000000   0.0000000

  Atom        11          12          13          14          15          16          17          18          19          20
 IAtWgt=          14          12          12          14          12          12           1           1           1           1
 AtmWgt=  14.0030740  12.0000000  12.0000000  14.0030740  12.0000000  12.0000000   1.0078250   1.0078250   1.0078250   1.0078250
 NucSpn=           2           0           0           2           0           0           1           1           1           1
 AtZEff=   0.0000000   0.0000000   0.0000000   0.0000000   0.0000000   0.0000000   0.0000000   0.0000000   0.0000000   0.0000000
 NQMom=    2.0440000   0.0000000   0.0000000   2.0440000   0.0000000   0.0000000   0.0000000   0.0000000   0.0000000   0.0000000
 NMagM=    0.4037610   0.0000000   0.0000000   0.4037610   0.0000000   0.0000000   2.7928460   2.7928460   2.7928460   2.7928460

  Atom        21          22          23          24          25          26          27          28          29          30
 IAtWgt=           1           1           1           1           1           1           1           1           1           1
 AtmWgt=   1.0078250   1.0078250   1.0078250   1.0078250   1.0078250   1.0078250   1.0078250   1.0078250   1.0078250   1.0078250
 NucSpn=           1           1           1           1           1           1           1           1           1           1
 AtZEff=   0.0000000   0.0000000   0.0000000   0.0000000   0.0000000   0.0000000   0.0000000   0.0000000   0.0000000   0.0000000
 NQMom=    0.0000000   0.0000000   0.0000000   0.0000000   0.0000000   0.0000000   0.0000000   0.0000000   0.0000000   0.0000000
 NMagM=    2.7928460   2.7928460   2.7928460   2.7928460   2.7928460   2.7928460   2.7928460   2.7928460   2.7928460   2.7928460

  Atom        31          32          33          34
 IAtWgt=           1           1           1           1
 AtmWgt=   1.0078250   1.0078250   1.0078250   1.0078250
 NucSpn=           1           1           1           1
 AtZEff=   0.0000000   0.0000000   0.0000000   0.0000000
 NQMom=    0.0000000   0.0000000   0.0000000   0.0000000
 NMagM=    2.7928460   2.7928460   2.7928460   2.7928460
 Leave Link  101 at Thu Sep 30 10:32:52 2021, MaxMem= 1342177280 cpu:       0.2
 (Enter /sw/target/amd/app/gaussian/Gaussian09RevA.02_gcc-4.9.2/g09/l103.exe)

 GradGradGradGradGradGradGradGradGradGradGradGradGradGradGradGradGradGrad
 Berny optimization.
 Initialization pass.
                           ----------------------------
                           !    Initial Parameters    !
                           ! (Angstroms and Degrees)  !
 --------------------------                            --------------------------
 ! Name  Definition              Value          Derivative Info.                !
 --------------------------------------------------------------------------------
 ! R1    R(1,2)                  1.4226         estimate D2E/DX2                !
 ! R2    R(1,17)                 1.0946         estimate D2E/DX2                !
 ! R3    R(1,18)                 1.0941         estimate D2E/DX2                !
 ! R4    R(1,19)                 1.0949         estimate D2E/DX2                !
 ! R5    R(2,3)                  1.3725         estimate D2E/DX2                !
 ! R6    R(3,4)                  1.4032         estimate D2E/DX2                !
 ! R7    R(3,8)                  1.4161         estimate D2E/DX2                !
 ! R8    R(4,5)                  1.3932         estimate D2E/DX2                !
 ! R9    R(4,20)                 1.0848         estimate D2E/DX2                !
 ! R10   R(5,6)                  1.3966         estimate D2E/DX2                !
 ! R11   R(5,21)                 1.0882         estimate D2E/DX2                !
 ! R12   R(6,7)                  1.4038         estimate D2E/DX2                !
 ! R13   R(6,22)                 1.0847         estimate D2E/DX2                !
 ! R14   R(7,8)                  1.3994         estimate D2E/DX2                !
 ! R15   R(7,11)                 1.3819         estimate D2E/DX2                !
 ! R16   R(8,9)                  1.4253         estimate D2E/DX2                !
 ! R17   R(9,10)                 1.3756         estimate D2E/DX2                !
 ! R18   R(9,23)                 1.082          estimate D2E/DX2                !
 ! R19   R(10,11)                1.3703         estimate D2E/DX2                !
 ! R20   R(10,24)                1.0823         estimate D2E/DX2                !
 ! R21   R(11,12)                1.4577         estimate D2E/DX2                !
 ! R22   R(12,13)                1.5365         estimate D2E/DX2                !
 ! R23   R(12,25)                1.0963         estimate D2E/DX2                !
 ! R24   R(12,26)                1.0943         estimate D2E/DX2                !
 ! R25   R(13,14)                1.4789         estimate D2E/DX2                !
 ! R26   R(13,27)                1.0983         estimate D2E/DX2                !
 ! R27   R(13,28)                1.0989         estimate D2E/DX2                !
 ! R28   R(14,15)                1.4679         estimate D2E/DX2                !
 ! R29   R(14,16)                1.4647         estimate D2E/DX2                !
 ! R30   R(15,29)                1.0957         estimate D2E/DX2                !
 ! R31   R(15,30)                1.0958         estimate D2E/DX2                !
 ! R32   R(15,31)                1.0964         estimate D2E/DX2                !
 ! R33   R(16,32)                1.0942         estimate D2E/DX2                !
 ! R34   R(16,33)                1.0959         estimate D2E/DX2                !
 ! R35   R(16,34)                1.0961         estimate D2E/DX2                !
 ! A1    A(2,1,17)             107.6406         estimate D2E/DX2                !
 ! A2    A(2,1,18)             111.7101         estimate D2E/DX2                !
 ! A3    A(2,1,19)             111.103          estimate D2E/DX2                !
 ! A4    A(17,1,18)            107.0228         estimate D2E/DX2                !
 ! A5    A(17,1,19)            107.9912         estimate D2E/DX2                !
 ! A6    A(18,1,19)            111.1504         estimate D2E/DX2                !
 ! A7    A(1,2,3)              115.8434         estimate D2E/DX2                !
 ! A8    A(2,3,4)              123.8391         estimate D2E/DX2                !
 ! A9    A(2,3,8)              117.6745         estimate D2E/DX2                !
 ! A10   A(4,3,8)              118.4104         estimate D2E/DX2                !
 ! A11   A(3,4,5)              121.0787         estimate D2E/DX2                !
 ! A12   A(3,4,20)             121.1534         estimate D2E/DX2                !
 ! A13   A(5,4,20)             117.7526         estimate D2E/DX2                !
 ! A14   A(4,5,6)              121.1393         estimate D2E/DX2                !
 ! A15   A(4,5,21)             119.6218         estimate D2E/DX2                !
 ! A16   A(6,5,21)             119.233          estimate D2E/DX2                !
 ! A17   A(5,6,7)              117.9222         estimate D2E/DX2                !
 ! A18   A(5,6,22)             120.4197         estimate D2E/DX2                !
 ! A19   A(7,6,22)             121.6562         estimate D2E/DX2                !
 ! A20   A(6,7,8)              121.8508         estimate D2E/DX2                !
 ! A21   A(6,7,11)             131.1282         estimate D2E/DX2                !
 ! A22   A(8,7,11)             107.0153         estimate D2E/DX2                !
 ! A23   A(3,8,7)              119.5945         estimate D2E/DX2                !
 ! A24   A(3,8,9)              133.5537         estimate D2E/DX2                !
 ! A25   A(7,8,9)              106.8515         estimate D2E/DX2                !
 ! A26   A(8,9,10)             108.0947         estimate D2E/DX2                !
 ! A27   A(8,9,23)             125.9704         estimate D2E/DX2                !
 ! A28   A(10,9,23)            125.9345         estimate D2E/DX2                !
 ! A29   A(9,10,11)            107.7228         estimate D2E/DX2                !
 ! A30   A(9,10,24)            130.8303         estimate D2E/DX2                !
 ! A31   A(11,10,24)           121.4423         estimate D2E/DX2                !
 ! A32   A(7,11,10)            110.2848         estimate D2E/DX2                !
 ! A33   A(7,11,12)            125.4438         estimate D2E/DX2                !
 ! A34   A(10,11,12)           124.2678         estimate D2E/DX2                !
 ! A35   A(11,12,13)           111.4089         estimate D2E/DX2                !
 ! A36   A(11,12,25)           107.6235         estimate D2E/DX2                !
 ! A37   A(11,12,26)           106.9356         estimate D2E/DX2                !
 ! A38   A(13,12,25)           110.9111         estimate D2E/DX2                !
 ! A39   A(13,12,26)           112.2946         estimate D2E/DX2                !
 ! A40   A(25,12,26)           107.4249         estimate D2E/DX2                !
 ! A41   A(12,13,14)           114.2733         estimate D2E/DX2                !
 ! A42   A(12,13,27)           110.0651         estimate D2E/DX2                !
 ! A43   A(12,13,28)           107.2532         estimate D2E/DX2                !
 ! A44   A(14,13,27)           110.3064         estimate D2E/DX2                !
 ! A45   A(14,13,28)           108.361          estimate D2E/DX2                !
 ! A46   A(27,13,28)           106.2069         estimate D2E/DX2                !
 ! A47   A(13,14,15)           109.598          estimate D2E/DX2                !
 ! A48   A(13,14,16)           112.068          estimate D2E/DX2                !
 ! A49   A(15,14,16)           109.3799         estimate D2E/DX2                !
 ! A50   A(14,15,29)           110.7113         estimate D2E/DX2                !
 ! A51   A(14,15,30)           110.6099         estimate D2E/DX2                !
 ! A52   A(14,15,31)           112.1091         estimate D2E/DX2                !
 ! A53   A(29,15,30)           106.5198         estimate D2E/DX2                !
 ! A54   A(29,15,31)           108.3811         estimate D2E/DX2                !
 ! A55   A(30,15,31)           108.3084         estimate D2E/DX2                !
 ! A56   A(14,16,32)           111.1803         estimate D2E/DX2                !
 ! A57   A(14,16,33)           112.1743         estimate D2E/DX2                !
 ! A58   A(14,16,34)           110.5469         estimate D2E/DX2                !
 ! A59   A(32,16,33)           108.6102         estimate D2E/DX2                !
 ! A60   A(32,16,34)           105.8279         estimate D2E/DX2                !
 ! A61   A(33,16,34)           108.2537         estimate D2E/DX2                !
 ! D1    D(17,1,2,3)          -174.5343         estimate D2E/DX2                !
 ! D2    D(18,1,2,3)            68.255          estimate D2E/DX2                !
 ! D3    D(19,1,2,3)           -56.4912         estimate D2E/DX2                !
 ! D4    D(1,2,3,4)            -32.7862         estimate D2E/DX2                !
 ! D5    D(1,2,3,8)            150.4428         estimate D2E/DX2                !
 ! D6    D(2,3,4,5)           -177.377          estimate D2E/DX2                !
 ! D7    D(2,3,4,20)             1.1705         estimate D2E/DX2                !
 ! D8    D(8,3,4,5)             -0.6282         estimate D2E/DX2                !
 ! D9    D(8,3,4,20)           177.9193         estimate D2E/DX2                !
 ! D10   D(2,3,8,7)            177.0537         estimate D2E/DX2                !
 ! D11   D(2,3,8,9)             -3.1836         estimate D2E/DX2                !
 ! D12   D(4,3,8,7)              0.1028         estimate D2E/DX2                !
 ! D13   D(4,3,8,9)            179.8655         estimate D2E/DX2                !
 ! D14   D(3,4,5,6)              0.7156         estimate D2E/DX2                !
 ! D15   D(3,4,5,21)           179.8223         estimate D2E/DX2                !
 ! D16   D(20,4,5,6)          -177.8799         estimate D2E/DX2                !
 ! D17   D(20,4,5,21)            1.2269         estimate D2E/DX2                !
 ! D18   D(4,5,6,7)             -0.2532         estimate D2E/DX2                !
 ! D19   D(4,5,6,22)           179.2498         estimate D2E/DX2                !
 ! D20   D(21,5,6,7)          -179.3634         estimate D2E/DX2                !
 ! D21   D(21,5,6,22)            0.1396         estimate D2E/DX2                !
 ! D22   D(5,6,7,8)             -0.2778         estimate D2E/DX2                !
 ! D23   D(5,6,7,11)           178.7354         estimate D2E/DX2                !
 ! D24   D(22,6,7,8)          -179.7743         estimate D2E/DX2                !
 ! D25   D(22,6,7,11)           -0.761          estimate D2E/DX2                !
 ! D26   D(6,7,8,3)              0.351          estimate D2E/DX2                !
 ! D27   D(6,7,8,9)           -179.4693         estimate D2E/DX2                !
 ! D28   D(11,7,8,3)          -178.8718         estimate D2E/DX2                !
 ! D29   D(11,7,8,9)             1.308          estimate D2E/DX2                !
 ! D30   D(6,7,11,10)          179.0473         estimate D2E/DX2                !
 ! D31   D(6,7,11,12)           -1.62           estimate D2E/DX2                !
 ! D32   D(8,7,11,10)           -1.8291         estimate D2E/DX2                !
 ! D33   D(8,7,11,12)          177.5035         estimate D2E/DX2                !
 ! D34   D(3,8,9,10)           179.8608         estimate D2E/DX2                !
 ! D35   D(3,8,9,23)            -0.3349         estimate D2E/DX2                !
 ! D36   D(7,8,9,10)            -0.3548         estimate D2E/DX2                !
 ! D37   D(7,8,9,23)           179.4495         estimate D2E/DX2                !
 ! D38   D(8,9,10,11)           -0.7506         estimate D2E/DX2                !
 ! D39   D(8,9,10,24)         -179.962          estimate D2E/DX2                !
 ! D40   D(23,9,10,11)         179.445          estimate D2E/DX2                !
 ! D41   D(23,9,10,24)           0.2336         estimate D2E/DX2                !
 ! D42   D(9,10,11,7)            1.6155         estimate D2E/DX2                !
 ! D43   D(9,10,11,12)        -177.7266         estimate D2E/DX2                !
 ! D44   D(24,10,11,7)        -179.0839         estimate D2E/DX2                !
 ! D45   D(24,10,11,12)          1.574          estimate D2E/DX2                !
 ! D46   D(7,11,12,13)         -85.9561         estimate D2E/DX2                !
 ! D47   D(7,11,12,25)         152.2542         estimate D2E/DX2                !
 ! D48   D(7,11,12,26)          37.0923         estimate D2E/DX2                !
 ! D49   D(10,11,12,13)         93.2865         estimate D2E/DX2                !
 ! D50   D(10,11,12,25)        -28.5032         estimate D2E/DX2                !
 ! D51   D(10,11,12,26)       -143.6651         estimate D2E/DX2                !
 ! D52   D(11,12,13,14)       -179.0814         estimate D2E/DX2                !
 ! D53   D(11,12,13,27)         56.1676         estimate D2E/DX2                !
 ! D54   D(11,12,13,28)        -58.9565         estimate D2E/DX2                !
 ! D55   D(25,12,13,14)        -59.2178         estimate D2E/DX2                !
 ! D56   D(25,12,13,27)        176.0312         estimate D2E/DX2                !
 ! D57   D(25,12,13,28)         60.9071         estimate D2E/DX2                !
 ! D58   D(26,12,13,14)         60.9897         estimate D2E/DX2                !
 ! D59   D(26,12,13,27)        -63.7613         estimate D2E/DX2                !
 ! D60   D(26,12,13,28)       -178.8854         estimate D2E/DX2                !
 ! D61   D(12,13,14,15)        172.9489         estimate D2E/DX2                !
 ! D62   D(12,13,14,16)        -65.4216         estimate D2E/DX2                !
 ! D63   D(27,13,14,15)        -62.4282         estimate D2E/DX2                !
 ! D64   D(27,13,14,16)         59.2012         estimate D2E/DX2                !
 ! D65   D(28,13,14,15)         53.445          estimate D2E/DX2                !
 ! D66   D(28,13,14,16)        175.0745         estimate D2E/DX2                !
 ! D67   D(13,14,15,29)        -59.7438         estimate D2E/DX2                !
 ! D68   D(13,14,15,30)       -177.5815         estimate D2E/DX2                !
 ! D69   D(13,14,15,31)         61.4194         estimate D2E/DX2                !
 ! D70   D(16,14,15,29)        177.0258         estimate D2E/DX2                !
 ! D71   D(16,14,15,30)         59.1881         estimate D2E/DX2                !
 ! D72   D(16,14,15,31)        -61.8109         estimate D2E/DX2                !
 ! D73   D(13,14,16,32)         65.1776         estimate D2E/DX2                !
 ! D74   D(13,14,16,33)        -56.6596         estimate D2E/DX2                !
 ! D75   D(13,14,16,34)       -177.5892         estimate D2E/DX2                !
 ! D76   D(15,14,16,32)       -173.068          estimate D2E/DX2                !
 ! D77   D(15,14,16,33)         65.0949         estimate D2E/DX2                !
 ! D78   D(15,14,16,34)        -55.8348         estimate D2E/DX2                !
 --------------------------------------------------------------------------------
 Trust Radius=3.00D-01 FncErr=1.00D-07 GrdErr=1.00D-06
 Number of steps in this run= 184 maximum allowed number of steps= 204.
 GradGradGradGradGradGradGradGradGradGradGradGradGradGradGradGradGradGrad

 Leave Link  103 at Thu Sep 30 10:32:52 2021, MaxMem= 1342177280 cpu:       0.0
 (Enter /sw/target/amd/app/gaussian/Gaussian09RevA.02_gcc-4.9.2/g09/l202.exe)
                          Input orientation:                          
 ---------------------------------------------------------------------
 Center     Atomic      Atomic             Coordinates (Angstroms)
 Number     Number       Type             X           Y           Z
 ---------------------------------------------------------------------
      1          6           0        1.871281    0.861687   -1.127589
      2          8           0        2.433931    0.021357   -0.127004
      3          6           0        3.114392   -1.079654   -0.583655
      4          6           0        2.773023   -1.780891   -1.750134
      5          6           0        3.471040   -2.924559   -2.132027
      6          6           0        4.523825   -3.419770   -1.359462
      7          6           0        4.861758   -2.725883   -0.186854
      8          6           0        4.180781   -1.569224    0.209030
      9          6           0        4.786832   -1.127338    1.420987
     10          6           0        5.796524   -2.005821    1.738817
     11          7           0        5.820824   -2.979740    0.775132
     12          6           0        6.725341   -4.122793    0.786031
     13          6           0        6.078308   -5.343607    1.458087
     14          7           0        6.951109   -6.535724    1.522776
     15          6           0        6.301627   -7.578429    2.326283
     16          6           0        7.256580   -7.066948    0.192409
     17          1           0        1.450970    1.739109   -0.625977
     18          1           0        1.048438    0.368957   -1.654147
     19          1           0        2.637914    1.207759   -1.828538
     20          1           0        1.942536   -1.464662   -2.372273
     21          1           0        3.184266   -3.451700   -3.039865
     22          1           0        5.051478   -4.318125   -1.661472
     23          1           0        4.504474   -0.251611    1.990278
     24          1           0        6.485521   -2.020044    2.573375
     25          1           0        7.635726   -3.820612    1.316863
     26          1           0        7.002600   -4.319835   -0.254111
     27          1           0        5.131717   -5.590887    0.959016
     28          1           0        5.816506   -5.050163    2.484237
     29          1           0        6.110763   -7.220673    3.344146
     30          1           0        6.953233   -8.454390    2.420936
     31          1           0        5.349662   -7.902878    1.889643
     32          1           0        7.849922   -6.355995   -0.390505
     33          1           0        6.350472   -7.312554   -0.372964
     34          1           0        7.868327   -7.973085    0.271136
 ---------------------------------------------------------------------
                    Distance matrix (angstroms):
                    1          2          3          4          5
     1  C    0.000000
     2  O    1.422638   0.000000
     3  C    2.368543   1.372510   0.000000
     4  C    2.860755   2.449006   1.403188   0.000000
     5  C    4.231286   3.711351   2.434815   1.393214   0.000000
     6  C    5.041887   4.210458   2.839809   2.429784   1.396583
     7  C    4.764304   3.666777   2.433271   2.774827   2.399430
     8  C    3.609663   2.386283   1.416055   2.421756   2.796642
     9  C    4.353378   3.041697   2.611115   3.812947   4.193473
    10  C    5.643263   4.347157   3.666810   4.622221   4.608187
    11  N    5.828876   4.614269   3.575109   4.135613   3.738462
    12  C    7.215877   6.035214   4.916877   5.247613   4.532251
    13  C    7.930351   6.676588   5.579856   5.823274   5.053568
    14  N    9.356857   8.131542   6.994722   7.125782   6.205560
    15  C   10.138676   8.873242   7.801300   7.917049   7.038981
    16  C    9.675075   8.579279   7.321726   7.198482   6.073936
    17  H    1.094598   2.041044   3.273254   3.924532   5.300817
    18  H    1.094128   2.091072   2.740911   2.757763   4.116384
    19  H    1.094908   2.084317   2.647456   2.992730   4.226376
    20  H    2.639358   2.736960   2.172702   1.084790   2.127286
    21  H    4.897554   4.594549   3.415326   2.150379   1.088250
    22  H    6.101568   5.295020   3.924497   3.411271   2.158988
    23  H    4.230157   2.973977   3.040249   4.396282   5.020561
    24  H    6.579720   5.279654   4.713352   5.703733   5.660923
    25  H    7.818446   6.626020   5.618476   6.100230   5.481091
    26  H    7.344492   6.303557   5.072034   5.154962   4.236187
    27  H    7.524631   6.320978   5.176935   5.236315   4.407006
    28  H    7.972456   6.631795   5.698976   6.154740   5.597258
    29  H   10.163374   8.832609   7.881496   8.165992   7.444005
    30  H   11.189618   9.937523   8.840305   8.911092   7.964557
    31  H    9.900526   8.681120   7.594078   7.574019   6.669836
    32  H    9.401189   8.370961   7.092412   6.968146   5.829430
    33  H    9.351515   8.317815   7.026069   6.730084   5.535335
    34  H   10.769131   9.674827   8.417241   8.269880   7.113293
                    6          7          8          9         10
     6  C    0.000000
     7  C    1.403811   0.000000
     8  C    2.449972   1.399398   0.000000
     9  C    3.613213   2.268504   1.425272   0.000000
    10  C    3.635705   2.258426   2.267486   1.375582   0.000000
    11  N    2.536202   1.381907   2.236017   2.217580   1.370328
    12  C    3.153419   2.524045   3.650812   3.624049   2.500414
    13  C    3.749153   3.322394   4.405306   4.409785   3.361402
    14  N    4.889598   4.669379   5.836674   5.826241   4.679718
    15  C    5.834359   5.651219   6.715005   6.688104   5.626207
    16  C    4.814370   4.972308   6.299665   6.548894   5.489822
    17  H    6.049336   5.635820   4.369688   4.851243   6.204885
    18  H    5.149719   5.125661   4.127898   5.066650   6.300484
    19  H    5.019035   4.807718   3.774090   4.542020   5.747168
    20  H    3.392829   3.858575   3.418157   4.753171   5.661020
    21  H    2.149230   3.388283   3.884852   5.279211   5.634737
    22  H    1.084744   2.178469   3.437055   4.444402   4.178973
    23  H    4.610679   3.315054   2.239135   1.081997   2.193144
    24  H    4.612450   3.279281   3.332446   2.238407   1.082315
    25  H    4.123993   3.339834   4.269975   3.921831   2.618048
    26  H    2.859413   2.669908   3.967748   4.231739   3.283450
    27  H    3.233979   3.097441   4.200063   4.500625   3.728640
    28  H    4.370724   3.667226   4.468681   4.192766   3.134337
    29  H    6.252133   5.850736   6.744825   6.525340   5.465392
    30  H    6.748395   6.632543   7.744968   7.705769   6.586904
    31  H    5.597941   5.599211   6.656269   6.815010   5.915887
    32  H    4.541279   4.706198   6.060958   6.324782   5.260653
    33  H    4.411756   4.825812   6.167019   6.627226   5.738284
    34  H    5.880240   6.064844   7.389946   7.594868   6.484959
                   11         12         13         14         15
    11  N    0.000000
    12  C    1.457683   0.000000
    13  C    2.473983   1.536456   0.000000
    14  N    3.805461   2.532982   1.478887   0.000000
    15  C    4.877005   3.807011   2.407917   1.467884   0.000000
    16  C    4.371067   3.050025   2.441346   1.464715   2.393108
    17  H    6.582269   8.010908   8.713234  10.165703  10.911518
    18  H    6.315920   7.639209   8.223076   9.623356  10.324765
    19  H    5.869000   7.208177   8.096827   9.476101  10.386647
    20  H    5.219458   6.317893   6.842696   8.122369   8.857554
    21  H    4.661371   5.256144   5.673302   6.672181   7.452742
    22  H    2.884477   2.971572   3.440587   4.320391   5.300438
    23  H    3.263748   4.622609   5.356174   6.759782   7.551485
    24  H    2.143950   2.770139   3.529273   4.659603   5.566913
    25  H    2.072295   1.096311   2.182890   2.807656   4.113385
    26  H    2.061987   1.094346   2.198646   2.840799   4.215237
    27  H    2.706801   2.173674   1.098296   2.126200   2.681125
    28  H    2.684718   2.137733   1.098924   2.102051   2.579228
    29  H    4.966831   4.064298   2.661137   2.119605   1.095657
    30  H    5.827762   4.635470   3.371876   2.118484   1.095836
    31  H    5.069656   4.171270   2.695744   2.137366   1.096431
    32  H    4.107924   2.763351   2.753332   2.121512   3.357454
    33  H    4.513528   3.414436   2.702513   2.134962   2.712749
    34  H    5.420311   4.049233   3.395170   2.115160   2.614179
                   16         17         18         19         20
    16  C    0.000000
    17  H   10.579296   0.000000
    18  H    9.861211   1.759682   0.000000
    19  H    9.689534   1.771249   1.805668   0.000000
    20  H    8.136478   3.681757   2.162701   2.814433   0.000000
    21  H    6.332562   5.981277   4.591231   4.845242   2.436370
    22  H    3.981881   7.122218   6.163856   6.032296   4.279370
    23  H    7.566719   4.486830   5.060743   4.494126   5.202583
    24  H    5.633363   7.050801   7.289797   6.678296   6.738442
    25  H    3.456421   8.540277   8.352949   7.756042   7.181409
    26  H    2.794730   8.226159   7.706940   7.216897   6.184083
    27  H    2.698422   8.353978   7.682547   7.759581   6.188223
    28  H    3.375457   8.650177   8.320310   8.238026   7.172807
    29  H    3.357078  10.851417  10.402526  10.481212   9.120484
    30  H    2.642603  11.977729  11.372087  11.403383   9.845722
    31  H    2.686209  10.700283   9.974078  10.206966   8.439376
    32  H    1.094211  10.321470   9.647899   9.297491   7.921474
    33  H    1.095902  10.295715   9.421179   9.407312   7.591113
    34  H    1.096138  11.675359  10.945651  10.772825   9.190331
                   21         22         23         24         25
    21  H    0.000000
    22  H    2.477324   0.000000
    23  H    6.106215   5.492816   0.000000
    24  H    6.667563   5.027086   2.718806   0.000000
    25  H    6.239604   3.974461   4.795414   2.478677   0.000000
    26  H    4.805596   2.405732   5.275260   3.681181   1.765795
    27  H    4.935558   2.914330   5.474012   4.146066   3.087392
    28  H    6.324514   4.278791   4.999153   3.104376   2.486789
    29  H    7.970266   5.882439   7.278802   5.270776   4.242146
    30  H    8.309775   6.114853   8.571317   6.453124   4.812138
    31  H    6.985840   5.054680   7.698465   6.030374   4.713710
    32  H    6.101014   3.687758   7.356878   5.426477   3.064172
    33  H    5.660690   3.509166   7.671346   6.058864   4.086693
    34  H    7.303839   5.002834   8.596053   6.530786   4.288436
                   26         27         28         29         30
    26  H    0.000000
    27  H    2.566603   0.000000
    28  H    3.072254   1.757162   0.000000
    29  H    4.707195   3.050177   2.353114   0.000000
    30  H    4.924719   3.695238   3.589556   1.756169   0.000000
    31  H    4.490666   2.501773   2.951181   1.777712   1.777042
    32  H    2.209639   3.129734   3.755545   4.209508   3.620983
    33  H    3.065251   2.494729   3.683359   3.725965   3.077822
    34  H    3.790990   3.692842   4.201340   3.619192   2.385517
                   31         32         33         34
    31  H    0.000000
    32  H    3.720648   0.000000
    33  H    2.543520   1.778669   0.000000
    34  H    2.994690   1.747309   1.776246   0.000000
 Stoichiometry    C13H18N2O
 Framework group  C1[X(C13H18N2O)]
 Deg. of freedom    96
 Full point group                 C1      NOp   1
 Largest Abelian subgroup         C1      NOp   1
 Largest concise Abelian subgroup C1      NOp   1
                         Standard orientation:                         
 ---------------------------------------------------------------------
 Center     Atomic      Atomic             Coordinates (Angstroms)
 Number     Number       Type             X           Y           Z
 ---------------------------------------------------------------------
      1          6           0        5.205425    0.027484    0.289118
      2          8           0        3.953339   -0.560875    0.620802
      3          6           0        2.840407    0.148625    0.244270
      4          6           0        2.785124    1.550027    0.200094
      5          6           0        1.607666    2.212998   -0.139182
      6          6           0        0.439456    1.505968   -0.432168
      7          6           0        0.488916    0.104011   -0.379675
      8          6           0        1.663916   -0.581715   -0.051846
      9          6           0        1.359105   -1.972968   -0.105739
     10          6           0        0.033825   -2.106998   -0.449098
     11          7           0       -0.489603   -0.848576   -0.591208
     12          6           0       -1.885649   -0.571000   -0.905607
     13          6           0       -2.715317   -0.354450    0.369326
     14          7           0       -4.149248   -0.088697    0.123714
     15          6           0       -4.871629   -0.065771    1.401338
     16          6           0       -4.361636    1.179575   -0.577547
     17          1           0        5.989506   -0.687285    0.558314
     18          1           0        5.390276    0.938257    0.866560
     19          1           0        5.278004    0.219980   -0.786289
     20          1           0        3.650486    2.153996    0.451368
     21          1           0        1.590666    3.300848   -0.163262
     22          1           0       -0.474026    2.034393   -0.683139
     23          1           0        2.050303   -2.782919    0.086467
     24          1           0       -0.574526   -2.990843   -0.590991
     25          1           0       -2.270695   -1.419225   -1.483665
     26          1           0       -1.896604    0.304719   -1.561800
     27          1           0       -2.276113    0.451609    0.972336
     28          1           0       -2.631133   -1.269315    0.972294
     29          1           0       -4.770733   -1.025171    1.920794
     30          1           0       -5.943941    0.087503    1.235472
     31          1           0       -4.509147    0.727169    2.066179
     32          1           0       -3.938277    1.149400   -1.586087
     33          1           0       -3.923682    2.028021   -0.039648
     34          1           0       -5.432758    1.372060   -0.708569
 ---------------------------------------------------------------------
 Rotational constants (GHZ):      1.3000209      0.2405640      0.2171653
 Leave Link  202 at Thu Sep 30 10:32:53 2021, MaxMem= 1342177280 cpu:       0.1
 (Enter /sw/target/amd/app/gaussian/Gaussian09RevA.02_gcc-4.9.2/g09/l301.exe)
 Standard basis: 6-31G(d) (6D, 7F)
 Ernie: Thresh=  0.10000D-02 Tol=  0.10000D-05 Strict=F.
 There are   276 symmetry adapted basis functions of A   symmetry.
 Integral buffers will be    131072 words long.
 Raffenetti 2 integral format.
 Two-electron integral symmetry is turned on.
   276 basis functions,   520 primitive gaussians,   276 cartesian basis functions
    59 alpha electrons       59 beta electrons
       nuclear repulsion energy      1076.2057986486 Hartrees.
 IExCor=  402 DFT=T Ex+Corr=B3LYP ExCW=0 ScaHFX=  0.200000
 ScaDFX=  0.800000  0.720000  1.000000  0.810000 ScalE2=  1.000000  1.000000
 IRadAn=      0 IRanWt=     -1 IRanGd=            0 ICorTp=0
 NAtoms=   34 NActive=   34 NUniq=   34 SFac= 7.50D-01 NAtFMM=   80 NAOKFM=F Big=F
 Leave Link  301 at Thu Sep 30 10:32:53 2021, MaxMem= 1342177280 cpu:       0.1
 (Enter /sw/target/amd/app/gaussian/Gaussian09RevA.02_gcc-4.9.2/g09/l302.exe)
 NPDir=0 NMtPBC=     1 NCelOv=     1 NCel=       1 NClECP=     1 NCelD=      1
         NCelK=      1 NCelE2=     1 NClLst=     1 CellRange=     0.0.
 One-electron integrals computed using PRISM.
 NBasis=   276 RedAO= T  NBF=   276
 NBsUse=   276 1.00D-06 NBFU=   276
 Precomputing XC quadrature grid using
 IXCGrd= 2 IRadAn=           0 IRanWt=          -1 IRanGd=           0 AccXCQ= 1.00D-10.
 NRdTot=    2167 NPtTot=      276052 NUsed=      291676 NTot=      291708
 NSgBfM=   273   273   273   273   273 NAtAll=    34    34.
 Leave Link  302 at Thu Sep 30 10:32:57 2021, MaxMem= 1342177280 cpu:       3.0
 (Enter /sw/target/amd/app/gaussian/Gaussian09RevA.02_gcc-4.9.2/g09/l303.exe)
 DipDrv:  MaxL=1.
 Leave Link  303 at Thu Sep 30 10:32:58 2021, MaxMem= 1342177280 cpu:       0.2
 (Enter /sw/target/amd/app/gaussian/Gaussian09RevA.02_gcc-4.9.2/g09/l401.exe)
 Harris functional with IExCor=  402 diagonalized for initial guess.
 ExpMin= 1.61D-01 ExpMax= 5.48D+03 ExpMxC= 8.25D+02 IAcc=1 IRadAn=         1 AccDes= 0.00D+00
 HarFok:  IExCor=  402 AccDes= 0.00D+00 IRadAn=         1 IDoV= 1
 ScaDFX=  1.000000  1.000000  1.000000  1.000000
 FoFCou: FMM=F IPFlag=           0 FMFlag=      100000 FMFlg1=           0
         NFxFlg=           0 DoJE=T BraDBF=F KetDBF=T FulRan=T
         Omega=  0.000000  0.000000  1.000000  0.000000  0.000000 ICntrl=     500 IOpCl=  0
         NMat0=    1 NMatS0=    1 NMatT0=    0 NMatD0=    1 NMtDS0=    0 NMtDT0=    0
         I1Cent=           4 NGrid=           0.
 Petite list used in FoFCou.
 Harris En= -691.002959711919    
 Initial guess orbital symmetries:
       Occupied  (A) (A) (A) (A) (A) (A) (A) (A) (A) (A) (A) (A)
                 (A) (A) (A) (A) (A) (A) (A) (A) (A) (A) (A) (A)
                 (A) (A) (A) (A) (A) (A) (A) (A) (A) (A) (A) (A)
                 (A) (A) (A) (A) (A) (A) (A) (A) (A) (A) (A) (A)
                 (A) (A) (A) (A) (A) (A) (A) (A) (A) (A) (A)
       Virtual   (A) (A) (A) (A) (A) (A) (A) (A) (A) (A) (A) (A)
                 (A) (A) (A) (A) (A) (A) (A) (A) (A) (A) (A) (A)
                 (A) (A) (A) (A) (A) (A) (A) (A) (A) (A) (A) (A)
                 (A) (A) (A) (A) (A) (A) (A) (A) (A) (A) (A) (A)
                 (A) (A) (A) (A) (A) (A) (A) (A) (A) (A) (A) (A)
                 (A) (A) (A) (A) (A) (A) (A) (A) (A) (A) (A) (A)
                 (A) (A) (A) (A) (A) (A) (A) (A) (A) (A) (A) (A)
                 (A) (A) (A) (A) (A) (A) (A) (A) (A) (A) (A) (A)
                 (A) (A) (A) (A) (A) (A) (A) (A) (A) (A) (A) (A)
                 (A) (A) (A) (A) (A) (A) (A) (A) (A) (A) (A) (A)
                 (A) (A) (A) (A) (A) (A) (A) (A) (A) (A) (A) (A)
                 (A) (A) (A) (A) (A) (A) (A) (A) (A) (A) (A) (A)
                 (A) (A) (A) (A) (A) (A) (A) (A) (A) (A) (A) (A)
                 (A) (A) (A) (A) (A) (A) (A) (A) (A) (A) (A) (A)
                 (A) (A) (A) (A) (A) (A) (A) (A) (A) (A) (A) (A)
                 (A) (A) (A) (A) (A) (A) (A) (A) (A) (A) (A) (A)
                 (A) (A) (A) (A) (A) (A) (A) (A) (A) (A) (A) (A)
                 (A) (A) (A) (A) (A) (A) (A) (A) (A) (A) (A) (A)
                 (A)
 The electronic state of the initial guess is 1-A.
 Leave Link  401 at Thu Sep 30 10:33:13 2021, MaxMem= 1342177280 cpu:      13.4
 (Enter /sw/target/amd/app/gaussian/Gaussian09RevA.02_gcc-4.9.2/g09/l502.exe)
 Closed shell SCF:
 Requested convergence on RMS density matrix=1.00D-08 within  64 cycles.
 Requested convergence on MAX density matrix=1.00D-06.
 Requested convergence on             energy=1.00D-06.
 No special actions if energy rises.
 Using DIIS extrapolation, IDIIS=  1040.
 Integral symmetry usage will be decided dynamically.
       291357 words used for storage of precomputed grid.
 Keep R1 ints in memory in canonical form, NReq=741788672.
 IEnd=      529179 IEndB=      529179 NGot=  1342177280 MDV=   611096099
 LenX=   611096099 LenY=   611019482
 Symmetry not used in FoFDir.
 MinBra= 0 MaxBra= 2 Meth= 1.
 IRaf=       0 NMat=   1 IRICut=       1 DoRegI=T DoRafI=F ISym2E= 0 JSym2E=0.
 Integral accuracy reduced to 1.0D-05 until final iterations.

 Cycle   1  Pass 0  IDiag  1:
 E= -690.513767253886    
 DIIS: error= 2.94D-02 at cycle   1 NSaved=   1.
 NSaved= 1 IEnMin= 1 EnMin= -690.513767253886     IErMin= 1 ErrMin= 2.94D-02
 ErrMax= 2.94D-02 EMaxC= 1.00D-01 BMatC= 3.69D-01 BMatP= 3.69D-01
 IDIUse=3 WtCom= 7.06D-01 WtEn= 2.94D-01
 Coeff-Com:  0.100D+01
 Coeff-En:   0.100D+01
 Coeff:      0.100D+01
 Gap=     0.181 Goal=   None    Shift=    0.000
 GapD=    0.181 DampG=1.000 DampE=0.500 DampFc=0.5000 IDamp=-1.
 Damping current iteration by 5.00D-01
 RMSDP=5.38D-03 MaxDP=1.47D-01              OVMax= 2.17D-01

 Cycle   2  Pass 0  IDiag  1:
 E= -690.697758997255     Delta-E=       -0.183991743369 Rises=F Damp=T
 DIIS: error= 7.54D-03 at cycle   2 NSaved=   2.
 NSaved= 2 IEnMin= 2 EnMin= -690.697758997255     IErMin= 2 ErrMin= 7.54D-03
 ErrMax= 7.54D-03 EMaxC= 1.00D-01 BMatC= 2.27D-02 BMatP= 3.69D-01
 IDIUse=3 WtCom= 9.25D-01 WtEn= 7.54D-02
 Coeff-Com:  0.494D-01 0.951D+00
 Coeff-En:   0.745D-01 0.926D+00
 Coeff:      0.512D-01 0.949D+00
 Gap=     0.183 Goal=   None    Shift=    0.000
 RMSDP=1.48D-03 MaxDP=4.60D-02 DE=-1.84D-01 OVMax= 1.69D-01

 Cycle   3  Pass 0  IDiag  1:
 E= -690.900010710568     Delta-E=       -0.202251713313 Rises=F Damp=F
 DIIS: error= 6.05D-03 at cycle   3 NSaved=   3.
 NSaved= 3 IEnMin= 3 EnMin= -690.900010710568     IErMin= 3 ErrMin= 6.05D-03
 ErrMax= 6.05D-03 EMaxC= 1.00D-01 BMatC= 1.88D-02 BMatP= 2.27D-02
 IDIUse=3 WtCom= 9.40D-01 WtEn= 6.05D-02
 Coeff-Com: -0.146D-01 0.476D+00 0.538D+00
 Coeff-En:   0.000D+00 0.000D+00 0.100D+01
 Coeff:     -0.137D-01 0.447D+00 0.566D+00
 Gap=     0.185 Goal=   None    Shift=    0.000
 RMSDP=7.85D-04 MaxDP=3.92D-02 DE=-2.02D-01 OVMax= 7.21D-02

 Cycle   4  Pass 0  IDiag  1:
 E= -690.912568635499     Delta-E=       -0.012557924932 Rises=F Damp=F
 DIIS: error= 4.26D-03 at cycle   4 NSaved=   4.
 NSaved= 4 IEnMin= 4 EnMin= -690.912568635499     IErMin= 4 ErrMin= 4.26D-03
 ErrMax= 4.26D-03 EMaxC= 1.00D-01 BMatC= 5.88D-03 BMatP= 1.88D-02
 IDIUse=3 WtCom= 9.57D-01 WtEn= 4.26D-02
 Coeff-Com: -0.124D-01 0.102D+00 0.367D+00 0.544D+00
 Coeff-En:   0.000D+00 0.000D+00 0.275D+00 0.725D+00
 Coeff:     -0.119D-01 0.977D-01 0.363D+00 0.551D+00
 Gap=     0.183 Goal=   None    Shift=    0.000
 RMSDP=3.43D-04 MaxDP=1.73D-02 DE=-1.26D-02 OVMax= 3.46D-02

 Cycle   5  Pass 0  IDiag  1:
 E= -690.917988958287     Delta-E=       -0.005420322788 Rises=F Damp=F
 DIIS: error= 9.71D-04 at cycle   5 NSaved=   5.
 NSaved= 5 IEnMin= 5 EnMin= -690.917988958287     IErMin= 5 ErrMin= 9.71D-04
 ErrMax= 9.71D-04 EMaxC= 1.00D-01 BMatC= 3.44D-04 BMatP= 5.88D-03
 IDIUse=3 WtCom= 9.90D-01 WtEn= 9.71D-03
 Coeff-Com: -0.503D-02 0.281D-01 0.171D+00 0.312D+00 0.494D+00
 Coeff-En:   0.000D+00 0.000D+00 0.000D+00 0.000D+00 0.100D+01
 Coeff:     -0.498D-02 0.279D-01 0.169D+00 0.309D+00 0.499D+00
 Gap=     0.183 Goal=   None    Shift=    0.000
 RMSDP=9.52D-05 MaxDP=4.55D-03 DE=-5.42D-03 OVMax= 1.06D-02

 Cycle   6  Pass 0  IDiag  1:
 E= -690.918293135001     Delta-E=       -0.000304176714 Rises=F Damp=F
 DIIS: error= 3.12D-04 at cycle   6 NSaved=   6.
 NSaved= 6 IEnMin= 6 EnMin= -690.918293135001     IErMin= 6 ErrMin= 3.12D-04
 ErrMax= 3.12D-04 EMaxC= 1.00D-01 BMatC= 4.22D-05 BMatP= 3.44D-04
 IDIUse=3 WtCom= 9.97D-01 WtEn= 3.12D-03
 Coeff-Com: -0.107D-02 0.246D-02 0.515D-01 0.109D+00 0.299D+00 0.539D+00
 Coeff-En:   0.000D+00 0.000D+00 0.000D+00 0.000D+00 0.106D+00 0.894D+00
 Coeff:     -0.107D-02 0.245D-02 0.513D-01 0.109D+00 0.299D+00 0.540D+00
 Gap=     0.183 Goal=   None    Shift=    0.000
 RMSDP=3.30D-05 MaxDP=1.35D-03 DE=-3.04D-04 OVMax= 3.89D-03

 Cycle   7  Pass 0  IDiag  1:
 E= -690.918333748625     Delta-E=       -0.000040613624 Rises=F Damp=F
 DIIS: error= 9.36D-05 at cycle   7 NSaved=   7.
 NSaved= 7 IEnMin= 7 EnMin= -690.918333748625     IErMin= 7 ErrMin= 9.36D-05
 ErrMax= 9.36D-05 EMaxC= 1.00D-01 BMatC= 4.55D-06 BMatP= 4.22D-05
 IDIUse=1 WtCom= 1.00D+00 WtEn= 0.00D+00
 Coeff-Com: -0.287D-03-0.467D-03 0.207D-01 0.467D-01 0.154D+00 0.339D+00
 Coeff-Com:  0.440D+00
 Coeff:     -0.287D-03-0.467D-03 0.207D-01 0.467D-01 0.154D+00 0.339D+00
 Coeff:      0.440D+00
 Gap=     0.183 Goal=   None    Shift=    0.000
 RMSDP=9.60D-06 MaxDP=4.29D-04 DE=-4.06D-05 OVMax= 9.13D-04

 Initial convergence to 1.0D-05 achieved.  Increase integral accuracy.
 Cycle   8  Pass 1  IDiag  1:
 E= -690.918363963430     Delta-E=       -0.000030214805 Rises=F Damp=F
 DIIS: error= 1.50D-05 at cycle   1 NSaved=   1.
 NSaved= 1 IEnMin= 1 EnMin= -690.918363963430     IErMin= 1 ErrMin= 1.50D-05
 ErrMax= 1.50D-05 EMaxC= 1.00D-01 BMatC= 2.69D-07 BMatP= 2.69D-07
 IDIUse=1 WtCom= 1.00D+00 WtEn= 0.00D+00
 Coeff-Com:  0.100D+01
 Coeff:      0.100D+01
 Gap=     0.183 Goal=   None    Shift=    0.000
 RMSDP=9.60D-06 MaxDP=4.29D-04 DE=-3.02D-05 OVMax= 3.98D-04

 Cycle   9  Pass 1  IDiag  1:
 E= -690.918363801064     Delta-E=        0.000000162366 Rises=F Damp=F
 DIIS: error= 3.02D-05 at cycle   2 NSaved=   2.
 NSaved= 2 IEnMin= 1 EnMin= -690.918363963430     IErMin= 1 ErrMin= 1.50D-05
 ErrMax= 3.02D-05 EMaxC= 1.00D-01 BMatC= 4.90D-07 BMatP= 2.69D-07
 IDIUse=1 WtCom= 1.00D+00 WtEn= 0.00D+00
 Coeff-Com:  0.587D+00 0.413D+00
 Coeff:      0.587D+00 0.413D+00
 Gap=     0.183 Goal=   None    Shift=    0.000
 RMSDP=3.44D-06 MaxDP=1.15D-04 DE= 1.62D-07 OVMax= 3.32D-04

 Cycle  10  Pass 1  IDiag  1:
 E= -690.918364243448     Delta-E=       -0.000000442385 Rises=F Damp=F
 DIIS: error= 8.98D-06 at cycle   3 NSaved=   3.
 NSaved= 3 IEnMin= 3 EnMin= -690.918364243448     IErMin= 3 ErrMin= 8.98D-06
 ErrMax= 8.98D-06 EMaxC= 1.00D-01 BMatC= 3.23D-08 BMatP= 2.69D-07
 IDIUse=1 WtCom= 1.00D+00 WtEn= 0.00D+00
 Coeff-Com:  0.752D-01 0.205D+00 0.720D+00
 Coeff:      0.752D-01 0.205D+00 0.720D+00
 Gap=     0.183 Goal=   None    Shift=    0.000
 RMSDP=1.09D-06 MaxDP=4.00D-05 DE=-4.42D-07 OVMax= 1.24D-04

 Cycle  11  Pass 1  IDiag  1:
 E= -690.918364266653     Delta-E=       -0.000000023205 Rises=F Damp=F
 DIIS: error= 4.21D-06 at cycle   4 NSaved=   4.
 NSaved= 4 IEnMin= 4 EnMin= -690.918364266653     IErMin= 4 ErrMin= 4.21D-06
 ErrMax= 4.21D-06 EMaxC= 1.00D-01 BMatC= 1.13D-08 BMatP= 3.23D-08
 IDIUse=1 WtCom= 1.00D+00 WtEn= 0.00D+00
 Coeff-Com: -0.116D-01 0.911D-01 0.478D+00 0.442D+00
 Coeff:     -0.116D-01 0.911D-01 0.478D+00 0.442D+00
 Gap=     0.183 Goal=   None    Shift=    0.000
 RMSDP=4.39D-07 MaxDP=1.79D-05 DE=-2.32D-08 OVMax= 4.46D-05

 Cycle  12  Pass 1  IDiag  1:
 E= -690.918364277706     Delta-E=       -0.000000011053 Rises=F Damp=F
 DIIS: error= 1.07D-06 at cycle   5 NSaved=   5.
 NSaved= 5 IEnMin= 5 EnMin= -690.918364277706     IErMin= 5 ErrMin= 1.07D-06
 ErrMax= 1.07D-06 EMaxC= 1.00D-01 BMatC= 2.36D-10 BMatP= 1.13D-08
 IDIUse=1 WtCom= 1.00D+00 WtEn= 0.00D+00
 Coeff-Com: -0.938D-02 0.373D-01 0.214D+00 0.226D+00 0.532D+00
 Coeff:     -0.938D-02 0.373D-01 0.214D+00 0.226D+00 0.532D+00
 Gap=     0.183 Goal=   None    Shift=    0.000
 RMSDP=8.24D-08 MaxDP=2.58D-06 DE=-1.11D-08 OVMax= 8.06D-06

 Cycle  13  Pass 1  IDiag  1:
 E= -690.918364277908     Delta-E=       -0.000000000203 Rises=F Damp=F
 DIIS: error= 3.61D-07 at cycle   6 NSaved=   6.
 NSaved= 6 IEnMin= 6 EnMin= -690.918364277908     IErMin= 6 ErrMin= 3.61D-07
 ErrMax= 3.61D-07 EMaxC= 1.00D-01 BMatC= 3.56D-11 BMatP= 2.36D-10
 IDIUse=1 WtCom= 1.00D+00 WtEn= 0.00D+00
 Coeff-Com: -0.460D-02 0.144D-01 0.878D-01 0.964D-01 0.320D+00 0.486D+00
 Coeff:     -0.460D-02 0.144D-01 0.878D-01 0.964D-01 0.320D+00 0.486D+00
 Gap=     0.183 Goal=   None    Shift=    0.000
 RMSDP=2.65D-08 MaxDP=9.69D-07 DE=-2.03D-10 OVMax= 2.75D-06

 Cycle  14  Pass 1  IDiag  1:
 E= -690.918364277942     Delta-E=       -0.000000000033 Rises=F Damp=F
 DIIS: error= 6.10D-08 at cycle   7 NSaved=   7.
 NSaved= 7 IEnMin= 7 EnMin= -690.918364277942     IErMin= 7 ErrMin= 6.10D-08
 ErrMax= 6.10D-08 EMaxC= 1.00D-01 BMatC= 2.10D-12 BMatP= 3.56D-11
 IDIUse=1 WtCom= 1.00D+00 WtEn= 0.00D+00
 Coeff-Com: -0.118D-02 0.253D-02 0.177D-01 0.200D-01 0.920D-01 0.235D+00
 Coeff-Com:  0.634D+00
 Coeff:     -0.118D-02 0.253D-02 0.177D-01 0.200D-01 0.920D-01 0.235D+00
 Coeff:      0.634D+00
 Gap=     0.183 Goal=   None    Shift=    0.000
 RMSDP=8.55D-09 MaxDP=2.07D-07 DE=-3.32D-11 OVMax= 5.40D-07

 SCF Done:  E(RB3LYP) =  -690.918364278     A.U. after   14 cycles
             Convg  =    0.8546D-08             -V/T =  2.0095
 KE= 6.843952311162D+02 PE=-3.756140727502D+03 EE= 1.304621333460D+03
 Leave Link  502 at Thu Sep 30 10:42:19 2021, MaxMem= 1342177280 cpu:     312.5
 (Enter /sw/target/amd/app/gaussian/Gaussian09RevA.02_gcc-4.9.2/g09/l508.exe)
 QCSCF skips out because SCF is already converged.
 Leave Link  508 at Thu Sep 30 10:42:20 2021, MaxMem= 1342177280 cpu:       0.0
 (Enter /sw/target/amd/app/gaussian/Gaussian09RevA.02_gcc-4.9.2/g09/l601.exe)
 Copying SCF densities to generalized density rwf, IOpCl= 0 IROHF=0.

 **********************************************************************

            Population analysis using the SCF density.

 **********************************************************************

 Orbital symmetries:
       Occupied  (A) (A) (A) (A) (A) (A) (A) (A) (A) (A) (A) (A)
                 (A) (A) (A) (A) (A) (A) (A) (A) (A) (A) (A) (A)
                 (A) (A) (A) (A) (A) (A) (A) (A) (A) (A) (A) (A)
                 (A) (A) (A) (A) (A) (A) (A) (A) (A) (A) (A) (A)
                 (A) (A) (A) (A) (A) (A) (A) (A) (A) (A) (A)
       Virtual   (A) (A) (A) (A) (A) (A) (A) (A) (A) (A) (A) (A)
                 (A) (A) (A) (A) (A) (A) (A) (A) (A) (A) (A) (A)
                 (A) (A) (A) (A) (A) (A) (A) (A) (A) (A) (A) (A)
                 (A) (A) (A) (A) (A) (A) (A) (A) (A) (A) (A) (A)
                 (A) (A) (A) (A) (A) (A) (A) (A) (A) (A) (A) (A)
                 (A) (A) (A) (A) (A) (A) (A) (A) (A) (A) (A) (A)
                 (A) (A) (A) (A) (A) (A) (A) (A) (A) (A) (A) (A)
                 (A) (A) (A) (A) (A) (A) (A) (A) (A) (A) (A) (A)
                 (A) (A) (A) (A) (A) (A) (A) (A) (A) (A) (A) (A)
                 (A) (A) (A) (A) (A) (A) (A) (A) (A) (A) (A) (A)
                 (A) (A) (A) (A) (A) (A) (A) (A) (A) (A) (A) (A)
                 (A) (A) (A) (A) (A) (A) (A) (A) (A) (A) (A) (A)
                 (A) (A) (A) (A) (A) (A) (A) (A) (A) (A) (A) (A)
                 (A) (A) (A) (A) (A) (A) (A) (A) (A) (A) (A) (A)
                 (A) (A) (A) (A) (A) (A) (A) (A) (A) (A) (A) (A)
                 (A) (A) (A) (A) (A) (A) (A) (A) (A) (A) (A) (A)
                 (A) (A) (A) (A) (A) (A) (A) (A) (A) (A) (A) (A)
                 (A) (A) (A) (A) (A) (A) (A) (A) (A) (A) (A) (A)
                 (A)
 The electronic state is 1-A.
 Alpha  occ. eigenvalues --  -19.16432 -14.37262 -14.33138 -10.23454 -10.23079
 Alpha  occ. eigenvalues --  -10.22960 -10.21366 -10.20657 -10.20596 -10.20491
 Alpha  occ. eigenvalues --  -10.20356 -10.17739 -10.17588 -10.16943 -10.16920
 Alpha  occ. eigenvalues --  -10.16254  -1.04776  -0.98221  -0.91904  -0.83402
 Alpha  occ. eigenvalues --   -0.79520  -0.74705  -0.72422  -0.71357  -0.70640
 Alpha  occ. eigenvalues --   -0.67953  -0.65505  -0.60657  -0.59047  -0.57894
 Alpha  occ. eigenvalues --   -0.55620  -0.51994  -0.49371  -0.48468  -0.47539
 Alpha  occ. eigenvalues --   -0.46915  -0.46106  -0.45771  -0.45386  -0.44496
 Alpha  occ. eigenvalues --   -0.42885  -0.41869  -0.40159  -0.39506  -0.39101
 Alpha  occ. eigenvalues --   -0.38861  -0.37634  -0.36901  -0.36421  -0.36118
 Alpha  occ. eigenvalues --   -0.35080  -0.35007  -0.33469  -0.31530  -0.29262
 Alpha  occ. eigenvalues --   -0.24273  -0.22140  -0.21438  -0.18059
 Alpha virt. eigenvalues --    0.00243   0.03777   0.07336   0.07967   0.09894
 Alpha virt. eigenvalues --    0.10805   0.11066   0.11905   0.13279   0.13850
 Alpha virt. eigenvalues --    0.14239   0.14783   0.15116   0.15991   0.16220
 Alpha virt. eigenvalues --    0.16440   0.16722   0.17909   0.18423   0.18923
 Alpha virt. eigenvalues --    0.19962   0.20206   0.20870   0.22119   0.23622
 Alpha virt. eigenvalues --    0.24023   0.24767   0.25794   0.27078   0.27982
 Alpha virt. eigenvalues --    0.28457   0.31183   0.32011   0.38204   0.38571
 Alpha virt. eigenvalues --    0.40431   0.45943   0.48644   0.49089   0.50599
 Alpha virt. eigenvalues --    0.50957   0.51918   0.52669   0.53536   0.54126
 Alpha virt. eigenvalues --    0.54532   0.55515   0.56566   0.56735   0.57475
 Alpha virt. eigenvalues --    0.58064   0.59300   0.60576   0.61325   0.62149
 Alpha virt. eigenvalues --    0.62503   0.63186   0.63693   0.64759   0.64859
 Alpha virt. eigenvalues --    0.66793   0.69679   0.70215   0.72090   0.72769
 Alpha virt. eigenvalues --    0.73565   0.75698   0.77784   0.79790   0.81159
 Alpha virt. eigenvalues --    0.81557   0.82190   0.83107   0.83652   0.84215
 Alpha virt. eigenvalues --    0.85447   0.85586   0.86312   0.86424   0.87239
 Alpha virt. eigenvalues --    0.88666   0.89995   0.90455   0.90855   0.91763
 Alpha virt. eigenvalues --    0.91882   0.93318   0.93728   0.94170   0.95598
 Alpha virt. eigenvalues --    0.97125   0.97859   0.99043   0.99877   1.00899
 Alpha virt. eigenvalues --    1.02801   1.03986   1.04917   1.06479   1.08373
 Alpha virt. eigenvalues --    1.08651   1.10525   1.12912   1.16494   1.20338
 Alpha virt. eigenvalues --    1.21010   1.24053   1.25769   1.29083   1.31047
 Alpha virt. eigenvalues --    1.31992   1.34181   1.36456   1.36837   1.37996
 Alpha virt. eigenvalues --    1.40064   1.40590   1.43181   1.46010   1.47282
 Alpha virt. eigenvalues --    1.47789   1.48577   1.50826   1.51031   1.52418
 Alpha virt. eigenvalues --    1.54599   1.58967   1.63268   1.65327   1.69295
 Alpha virt. eigenvalues --    1.73054   1.74279   1.79357   1.80336   1.82361
 Alpha virt. eigenvalues --    1.82415   1.85980   1.87250   1.88625   1.89920
 Alpha virt. eigenvalues --    1.90741   1.92235   1.93963   1.95479   1.96571
 Alpha virt. eigenvalues --    1.97735   1.99437   2.01007   2.02104   2.03949
 Alpha virt. eigenvalues --    2.04554   2.05930   2.06888   2.10085   2.10423
 Alpha virt. eigenvalues --    2.12238   2.13417   2.13613   2.16543   2.17923
 Alpha virt. eigenvalues --    2.18666   2.21481   2.22509   2.23516   2.24423
 Alpha virt. eigenvalues --    2.25763   2.27290   2.29215   2.29502   2.31003
 Alpha virt. eigenvalues --    2.32683   2.34663   2.37048   2.39438   2.42162
 Alpha virt. eigenvalues --    2.44185   2.46108   2.50414   2.52298   2.54958
 Alpha virt. eigenvalues --    2.55963   2.60473   2.61125   2.64217   2.67219
 Alpha virt. eigenvalues --    2.68853   2.69908   2.72578   2.76844   2.78157
 Alpha virt. eigenvalues --    2.79500   2.82757   2.86150   2.86785   2.89190
 Alpha virt. eigenvalues --    2.96038   3.01947   3.06236   3.17524   3.32523
 Alpha virt. eigenvalues --    3.46597   3.99912   4.06946   4.11165   4.12066
 Alpha virt. eigenvalues --    4.15335   4.21141   4.23109   4.25838   4.28946
 Alpha virt. eigenvalues --    4.31110   4.33088   4.41739   4.47591   4.54204
 Alpha virt. eigenvalues --    4.56253   4.84893
          Condensed to atoms (all electrons):
              1          2          3          4          5          6
     1  C    4.893537   0.253650  -0.043523  -0.008075   0.000340  -0.000016
     2  O    0.253650   8.218351   0.281950  -0.070791   0.003865   0.000107
     3  C   -0.043523   0.281950   4.814585   0.420001   0.013479  -0.066878
     4  C   -0.008075  -0.070791   0.420001   5.155777   0.480667  -0.027094
     5  C    0.000340   0.003865   0.013479   0.480667   4.872464   0.527981
     6  C   -0.000016   0.000107  -0.066878  -0.027094   0.527981   5.105728
     7  C   -0.000083   0.003154  -0.015462  -0.052326   0.009628   0.456476
     8  C    0.003333  -0.068091   0.439694  -0.041241  -0.035723  -0.061716
     9  C   -0.000340   0.001106  -0.103513   0.012642  -0.001319   0.017489
    10  C    0.000004   0.000227   0.010619  -0.000358   0.000056   0.004895
    11  N    0.000002  -0.000039   0.012310  -0.000235   0.005219  -0.097662
    12  C   -0.000000   0.000000  -0.000089   0.000003  -0.000016  -0.004846
    13  C    0.000000  -0.000000   0.000006   0.000000   0.000009  -0.000379
    14  N   -0.000000   0.000000   0.000000  -0.000000   0.000000  -0.000017
    15  C    0.000000  -0.000000   0.000000  -0.000000   0.000000   0.000002
    16  C    0.000000   0.000000  -0.000000   0.000000  -0.000000  -0.000046
    17  H    0.380728  -0.031548   0.003584   0.000042   0.000001   0.000000
    18  H    0.365728  -0.036305  -0.007830   0.003700  -0.000165   0.000003
    19  H    0.363335  -0.037086  -0.000876   0.004954  -0.000143  -0.000016
    20  H    0.003578  -0.006420  -0.042389   0.352182  -0.038839   0.004962
    21  H   -0.000007  -0.000049   0.003159  -0.036970   0.355625  -0.038065
    22  H   -0.000000   0.000002   0.000694   0.004745  -0.040547   0.345743
    23  H   -0.000111   0.003009  -0.007487   0.000016  -0.000004  -0.000156
    24  H   -0.000000  -0.000001  -0.000155   0.000005   0.000001  -0.000117
    25  H    0.000000  -0.000000   0.000004   0.000000  -0.000001   0.000132
    26  H   -0.000000   0.000000  -0.000019   0.000003   0.000014   0.004815
    27  H   -0.000000   0.000000  -0.000011   0.000003  -0.000029   0.002281
    28  H   -0.000000   0.000000  -0.000001   0.000000   0.000001  -0.000008
    29  H    0.000000  -0.000000   0.000000  -0.000000   0.000000   0.000000
    30  H   -0.000000   0.000000   0.000000   0.000000  -0.000000  -0.000000
    31  H   -0.000000   0.000000  -0.000000   0.000000  -0.000000  -0.000002
    32  H    0.000000  -0.000000  -0.000000   0.000000  -0.000000  -0.000013
    33  H   -0.000000   0.000000  -0.000000   0.000000   0.000000  -0.000111
    34  H   -0.000000   0.000000   0.000000  -0.000000  -0.000000   0.000001
              7          8          9         10         11         12
     1  C   -0.000083   0.003333  -0.000340   0.000004   0.000002  -0.000000
     2  O    0.003154  -0.068091   0.001106   0.000227  -0.000039   0.000000
     3  C   -0.015462   0.439694  -0.103513   0.010619   0.012310  -0.000089
     4  C   -0.052326  -0.041241   0.012642  -0.000358  -0.000235   0.000003
     5  C    0.009628  -0.035723  -0.001319   0.000056   0.005219  -0.000016
     6  C    0.456476  -0.061716   0.017489   0.004895  -0.097662  -0.004846
     7  C    4.739265   0.476227  -0.052893  -0.097717   0.285515  -0.040767
     8  C    0.476227   4.852965   0.425696  -0.017606  -0.030975   0.007712
     9  C   -0.052893   0.425696   5.159296   0.527254  -0.082834   0.005751
    10  C   -0.097717  -0.017606   0.527254   4.896306   0.372379  -0.046199
    11  N    0.285515  -0.030975  -0.082834   0.372379   6.939539   0.277713
    12  C   -0.040767   0.007712   0.005751  -0.046199   0.277713   5.002375
    13  C   -0.001360  -0.000137  -0.000166  -0.001367  -0.054938   0.356995
    14  N   -0.000009   0.000001  -0.000000  -0.000047   0.002727  -0.037800
    15  C   -0.000002  -0.000000   0.000000  -0.000002  -0.000120   0.004516
    16  C   -0.000006  -0.000000   0.000000   0.000002   0.000026  -0.004753
    17  H    0.000005   0.000078  -0.000048  -0.000000  -0.000000   0.000000
    18  H   -0.000000  -0.000545   0.000042   0.000000  -0.000000   0.000000
    19  H   -0.000036   0.000694   0.000016  -0.000001   0.000000  -0.000000
    20  H    0.000851   0.003049  -0.000125   0.000004   0.000003  -0.000000
    21  H    0.002506   0.001082   0.000012   0.000002  -0.000110   0.000002
    22  H   -0.040410   0.004262  -0.000238  -0.000100  -0.006977   0.002466
    23  H    0.007739  -0.031745   0.365330  -0.050751   0.004110  -0.000122
    24  H    0.005732   0.001190  -0.030215   0.364922  -0.047783  -0.001763
    25  H    0.003422  -0.000168   0.000076  -0.001810  -0.033604   0.365047
    26  H   -0.003601  -0.000205  -0.000157   0.003361  -0.035811   0.369128
    27  H    0.003111  -0.000200   0.000016  -0.000043   0.001072  -0.051757
    28  H   -0.000248  -0.000027  -0.000166   0.003543  -0.001046  -0.031802
    29  H   -0.000000   0.000000   0.000000  -0.000001  -0.000008   0.000095
    30  H    0.000000   0.000000  -0.000000   0.000000   0.000001  -0.000159
    31  H   -0.000000  -0.000000  -0.000000   0.000000   0.000016  -0.000245
    32  H   -0.000000  -0.000000   0.000000  -0.000000  -0.000037   0.001478
    33  H   -0.000012   0.000000  -0.000000   0.000000   0.000046  -0.000895
    34  H   -0.000000   0.000000  -0.000000   0.000000  -0.000002   0.000147
             13         14         15         16         17         18
     1  C    0.000000  -0.000000   0.000000   0.000000   0.380728   0.365728
     2  O   -0.000000   0.000000  -0.000000   0.000000  -0.031548  -0.036305
     3  C    0.000006   0.000000   0.000000  -0.000000   0.003584  -0.007830
     4  C    0.000000  -0.000000  -0.000000   0.000000   0.000042   0.003700
     5  C    0.000009   0.000000   0.000000  -0.000000   0.000001  -0.000165
     6  C   -0.000379  -0.000017   0.000002  -0.000046   0.000000   0.000003
     7  C   -0.001360  -0.000009  -0.000002  -0.000006   0.000005  -0.000000
     8  C   -0.000137   0.000001  -0.000000  -0.000000   0.000078  -0.000545
     9  C   -0.000166  -0.000000   0.000000   0.000000  -0.000048   0.000042
    10  C   -0.001367  -0.000047  -0.000002   0.000002  -0.000000   0.000000
    11  N   -0.054938   0.002727  -0.000120   0.000026  -0.000000  -0.000000
    12  C    0.356995  -0.037800   0.004516  -0.004753   0.000000   0.000000
    13  C    4.996880   0.293304  -0.049787  -0.052749   0.000000   0.000000
    14  N    0.293304   6.799088   0.323915   0.321992  -0.000000   0.000000
    15  C   -0.049787   0.323915   4.990494  -0.063509   0.000000  -0.000000
    16  C   -0.052749   0.321992  -0.063509   5.005380   0.000000  -0.000000
    17  H    0.000000  -0.000000   0.000000   0.000000   0.555901  -0.037984
    18  H    0.000000   0.000000  -0.000000  -0.000000  -0.037984   0.607707
    19  H   -0.000000   0.000000   0.000000   0.000000  -0.031676  -0.046107
    20  H    0.000000  -0.000000  -0.000000  -0.000000  -0.000086   0.002879
    21  H   -0.000000   0.000000  -0.000000  -0.000000  -0.000000   0.000011
    22  H   -0.000313  -0.000075  -0.000003   0.000184  -0.000000   0.000000
    23  H    0.000001  -0.000000   0.000000   0.000000   0.000007   0.000006
    24  H   -0.000096  -0.000009   0.000000   0.000000   0.000000  -0.000000
    25  H   -0.040040   0.006124  -0.000037  -0.000470  -0.000000   0.000000
    26  H   -0.044837  -0.001429  -0.000062   0.002599  -0.000000   0.000000
    27  H    0.351211  -0.050356  -0.006004  -0.009697   0.000000  -0.000000
    28  H    0.372654  -0.036857  -0.004599   0.006151  -0.000000  -0.000000
    29  H   -0.002803  -0.036012   0.379331   0.006091   0.000000  -0.000000
    30  H    0.005438  -0.035032   0.378658  -0.003335  -0.000000   0.000000
    31  H   -0.010332  -0.049525   0.351286  -0.007877  -0.000000   0.000000
    32  H   -0.003929  -0.036973   0.005987   0.379923   0.000000  -0.000000
    33  H   -0.009613  -0.050892  -0.007241   0.347859  -0.000000   0.000000
    34  H    0.005624  -0.034141  -0.004348   0.379906  -0.000000   0.000000
             19         20         21         22         23         24
     1  C    0.363335   0.003578  -0.000007  -0.000000  -0.000111  -0.000000
     2  O   -0.037086  -0.006420  -0.000049   0.000002   0.003009  -0.000001
     3  C   -0.000876  -0.042389   0.003159   0.000694  -0.007487  -0.000155
     4  C    0.004954   0.352182  -0.036970   0.004745   0.000016   0.000005
     5  C   -0.000143  -0.038839   0.355625  -0.040547  -0.000004   0.000001
     6  C   -0.000016   0.004962  -0.038065   0.345743  -0.000156  -0.000117
     7  C   -0.000036   0.000851   0.002506  -0.040410   0.007739   0.005732
     8  C    0.000694   0.003049   0.001082   0.004262  -0.031745   0.001190
     9  C    0.000016  -0.000125   0.000012  -0.000238   0.365330  -0.030215
    10  C   -0.000001   0.000004   0.000002  -0.000100  -0.050751   0.364922
    11  N    0.000000   0.000003  -0.000110  -0.006977   0.004110  -0.047783
    12  C   -0.000000  -0.000000   0.000002   0.002466  -0.000122  -0.001763
    13  C   -0.000000   0.000000  -0.000000  -0.000313   0.000001  -0.000096
    14  N    0.000000  -0.000000   0.000000  -0.000075  -0.000000  -0.000009
    15  C    0.000000  -0.000000  -0.000000  -0.000003   0.000000   0.000000
    16  C    0.000000  -0.000000  -0.000000   0.000184   0.000000   0.000000
    17  H   -0.031676  -0.000086  -0.000000  -0.000000   0.000007   0.000000
    18  H   -0.046107   0.002879   0.000011   0.000000   0.000006  -0.000000
    19  H    0.593407   0.000713  -0.000002  -0.000000  -0.000007  -0.000000
    20  H    0.000713   0.606466  -0.005925  -0.000190  -0.000000  -0.000000
    21  H   -0.000002  -0.005925   0.601716  -0.005031   0.000000  -0.000000
    22  H   -0.000000  -0.000190  -0.005031   0.614955   0.000003   0.000000
    23  H   -0.000007  -0.000000   0.000000   0.000003   0.581637  -0.000899
    24  H   -0.000000  -0.000000  -0.000000   0.000000  -0.000899   0.554201
    25  H   -0.000000  -0.000000  -0.000000  -0.000012  -0.000009   0.003681
    26  H   -0.000000  -0.000000   0.000002   0.002736   0.000005   0.000037
    27  H    0.000000  -0.000000  -0.000003   0.001455  -0.000000   0.000006
    28  H    0.000000  -0.000000   0.000000  -0.000017   0.000002   0.000525
    29  H    0.000000  -0.000000   0.000000  -0.000000   0.000000  -0.000000
    30  H   -0.000000   0.000000   0.000000  -0.000000  -0.000000  -0.000000
    31  H   -0.000000   0.000000  -0.000000   0.000004  -0.000000   0.000000
    32  H    0.000000   0.000000  -0.000000  -0.000006   0.000000   0.000000
    33  H   -0.000000   0.000000  -0.000000   0.000576   0.000000  -0.000000
    34  H    0.000000  -0.000000   0.000000  -0.000004   0.000000  -0.000000
             25         26         27         28         29         30
     1  C    0.000000  -0.000000  -0.000000  -0.000000   0.000000  -0.000000
     2  O   -0.000000   0.000000   0.000000   0.000000  -0.000000   0.000000
     3  C    0.000004  -0.000019  -0.000011  -0.000001   0.000000   0.000000
     4  C    0.000000   0.000003   0.000003   0.000000  -0.000000   0.000000
     5  C   -0.000001   0.000014  -0.000029   0.000001   0.000000  -0.000000
     6  C    0.000132   0.004815   0.002281  -0.000008   0.000000  -0.000000
     7  C    0.003422  -0.003601   0.003111  -0.000248  -0.000000   0.000000
     8  C   -0.000168  -0.000205  -0.000200  -0.000027   0.000000   0.000000
     9  C    0.000076  -0.000157   0.000016  -0.000166   0.000000  -0.000000
    10  C   -0.001810   0.003361  -0.000043   0.003543  -0.000001   0.000000
    11  N   -0.033604  -0.035811   0.001072  -0.001046  -0.000008   0.000001
    12  C    0.365047   0.369128  -0.051757  -0.031802   0.000095  -0.000159
    13  C   -0.040040  -0.044837   0.351211   0.372654  -0.002803   0.005438
    14  N    0.006124  -0.001429  -0.050356  -0.036857  -0.036012  -0.035032
    15  C   -0.000037  -0.000062  -0.006004  -0.004599   0.379331   0.378658
    16  C   -0.000470   0.002599  -0.009697   0.006151   0.006091  -0.003335
    17  H   -0.000000  -0.000000   0.000000  -0.000000   0.000000  -0.000000
    18  H    0.000000   0.000000  -0.000000  -0.000000  -0.000000   0.000000
    19  H   -0.000000  -0.000000   0.000000   0.000000   0.000000  -0.000000
    20  H   -0.000000  -0.000000  -0.000000  -0.000000  -0.000000   0.000000
    21  H   -0.000000   0.000002  -0.000003   0.000000   0.000000   0.000000
    22  H   -0.000012   0.002736   0.001455  -0.000017  -0.000000  -0.000000
    23  H   -0.000009   0.000005  -0.000000   0.000002   0.000000  -0.000000
    24  H    0.003681   0.000037   0.000006   0.000525  -0.000000  -0.000000
    25  H    0.564971  -0.031682   0.006050  -0.006501  -0.000034  -0.000002
    26  H   -0.031682   0.571455  -0.005970   0.005254  -0.000001   0.000008
    27  H    0.006050  -0.005970   0.645447  -0.044974  -0.001418  -0.000394
    28  H   -0.006501   0.005254  -0.044974   0.586009   0.005969   0.000179
    29  H   -0.000034  -0.000001  -0.001418   0.005969   0.566017  -0.027172
    30  H   -0.000002   0.000008  -0.000394   0.000179  -0.027172   0.568281
    31  H    0.000036  -0.000014   0.014272  -0.001657  -0.041051  -0.041375
    32  H   -0.000004   0.003128  -0.001152  -0.000001  -0.000219   0.000146
    33  H    0.000233  -0.000238   0.015607  -0.000332  -0.000388  -0.001422
    34  H   -0.000044  -0.000074  -0.000323  -0.000181   0.000146   0.005487
             31         32         33         34
     1  C   -0.000000   0.000000  -0.000000  -0.000000
     2  O    0.000000  -0.000000   0.000000   0.000000
     3  C   -0.000000  -0.000000  -0.000000   0.000000
     4  C    0.000000   0.000000   0.000000  -0.000000
     5  C   -0.000000  -0.000000   0.000000  -0.000000
     6  C   -0.000002  -0.000013  -0.000111   0.000001
     7  C   -0.000000  -0.000000  -0.000012  -0.000000
     8  C   -0.000000  -0.000000   0.000000   0.000000
     9  C   -0.000000   0.000000  -0.000000  -0.000000
    10  C    0.000000  -0.000000   0.000000   0.000000
    11  N    0.000016  -0.000037   0.000046  -0.000002
    12  C   -0.000245   0.001478  -0.000895   0.000147
    13  C   -0.010332  -0.003929  -0.009613   0.005624
    14  N   -0.049525  -0.036973  -0.050892  -0.034141
    15  C    0.351286   0.005987  -0.007241  -0.004348
    16  C   -0.007877   0.379923   0.347859   0.379906
    17  H   -0.000000   0.000000  -0.000000  -0.000000
    18  H    0.000000  -0.000000   0.000000   0.000000
    19  H   -0.000000   0.000000  -0.000000   0.000000
    20  H    0.000000   0.000000   0.000000  -0.000000
    21  H   -0.000000  -0.000000  -0.000000   0.000000
    22  H    0.000004  -0.000006   0.000576  -0.000004
    23  H   -0.000000   0.000000   0.000000   0.000000
    24  H    0.000000   0.000000  -0.000000  -0.000000
    25  H    0.000036  -0.000004   0.000233  -0.000044
    26  H   -0.000014   0.003128  -0.000238  -0.000074
    27  H    0.014272  -0.001152   0.015607  -0.000323
    28  H   -0.001657  -0.000001  -0.000332  -0.000181
    29  H   -0.041051  -0.000219  -0.000388   0.000146
    30  H   -0.041375   0.000146  -0.001422   0.005487
    31  H    0.649053  -0.000400   0.014362  -0.001494
    32  H   -0.000400   0.569729  -0.042694  -0.027520
    33  H    0.014362  -0.042694   0.650928  -0.039856
    34  H   -0.001494  -0.027520  -0.039856   0.563407
 Mulliken atomic charges:
              1
     1  C   -0.212080
     2  O   -0.515093
     3  C    0.288148
     4  C   -0.197650
     5  C   -0.152565
     6  C   -0.173475
     7  C    0.311300
     8  C    0.072397
     9  C   -0.242711
    10  C    0.032431
    11  N   -0.508495
    12  C   -0.172215
    13  C   -0.109278
    14  N   -0.377975
    15  C   -0.298475
    16  C   -0.307671
    17  H    0.160996
    18  H    0.148860
    19  H    0.152831
    20  H    0.119287
    21  H    0.122047
    22  H    0.116097
    23  H    0.129424
    24  H    0.150736
    25  H    0.164643
    26  H    0.161552
    27  H    0.131800
    28  H    0.148131
    29  H    0.151456
    30  H    0.150693
    31  H    0.124942
    32  H    0.152558
    33  H    0.124083
    34  H    0.153270
 Sum of Mulliken atomic charges =  -0.00000
 Mulliken charges with hydrogens summed into heavy atoms:
              1
     1  C    0.250607
     2  O   -0.515093
     3  C    0.288148
     4  C   -0.078363
     5  C   -0.030518
     6  C   -0.057378
     7  C    0.311300
     8  C    0.072397
     9  C   -0.113287
    10  C    0.183167
    11  N   -0.508495
    12  C    0.153980
    13  C    0.170654
    14  N   -0.377975
    15  C    0.128617
    16  C    0.122240
 Sum of Mulliken charges with hydrogens summed into heavy atoms =  -0.00000
 Electronic spatial extent (au):  <R**2>=           5115.8510
 Charge=              0.0000 electrons
 Dipole moment (field-independent basis, Debye):
    X=             -1.1133    Y=              0.7538    Z=             -0.3949  Tot=              1.4013
 Quadrupole moment (field-independent basis, Debye-Ang):
   XX=            -81.5499   YY=            -91.5912   ZZ=            -98.1165
   XY=              1.2308   XZ=             -1.2537   YZ=              0.0469
 Traceless Quadrupole moment (field-independent basis, Debye-Ang):
   XX=              8.8693   YY=             -1.1720   ZZ=             -7.6973
   XY=              1.2308   XZ=             -1.2537   YZ=              0.0469
 Octapole moment (field-independent basis, Debye-Ang**2):
  XXX=             68.3985  YYY=             -9.0498  ZZZ=              1.5383  XYY=              0.2723
  XXY=             25.3327  XXZ=             11.4259  XZZ=            -10.9128  YZZ=             -2.3722
  YYZ=             -0.9522  XYZ=              7.2688
 Hexadecapole moment (field-independent basis, Debye-Ang**3):
 XXXX=          -4898.4051 YYYY=           -899.7754 ZZZZ=           -346.2096 XXXY=            -48.7761
 XXXZ=            -34.9276 YYYX=             13.8872 YYYZ=              3.0183 ZZZX=             11.8811
 ZZZY=             -3.2251 XXYY=          -1070.0012 XXZZ=           -972.7708 YYZZ=           -228.5609
 XXYZ=             -8.2155 YYXZ=             13.4348 ZZXY=              1.4860
 N-N= 1.076205798649D+03 E-N=-3.756140719662D+03  KE= 6.843952311162D+02
 No NMR shielding tensors so no spin-rotation constants.
 Leave Link  601 at Thu Sep 30 10:42:24 2021, MaxMem= 1342177280 cpu:       1.8
 (Enter /sw/target/amd/app/gaussian/Gaussian09RevA.02_gcc-4.9.2/g09/l701.exe)
 Compute integral first derivatives.
 ... and contract with generalized density number  0.
 Leave Link  701 at Thu Sep 30 10:42:27 2021, MaxMem= 1342177280 cpu:       1.6
 (Enter /sw/target/amd/app/gaussian/Gaussian09RevA.02_gcc-4.9.2/g09/l702.exe)
 L702 exits ... SP integral derivatives will be done elsewhere.
 Leave Link  702 at Thu Sep 30 10:42:27 2021, MaxMem= 1342177280 cpu:       0.1
 (Enter /sw/target/amd/app/gaussian/Gaussian09RevA.02_gcc-4.9.2/g09/l703.exe)
 Compute integral first derivatives, UseDBF=F ICtDFT=           0.
 Integral derivatives from FoFDir, PRISM(SPDF).
 Calling FoFJK, ICntrl=      2127 FMM=F ISym2X=0 I1Cent= 0 IOpClX= 0 NMat=1 NMatS=1 NMatT=0.
 FoFCou: FMM=F IPFlag=           0 FMFlag=      100000 FMFlg1=         800
         NFxFlg=           0 DoJE=F BraDBF=F KetDBF=F FulRan=T
         Omega=  0.000000  0.000000  1.000000  0.000000  0.000000 ICntrl=    2127 IOpCl=  0
         NMat0=    1 NMatS0=    1 NMatT0=    0 NMatD0=    1 NMtDS0=    0 NMtDT0=    0
         I1Cent=           0 NGrid=           0.
 Symmetry not used in FoFCou.
 Leave Link  703 at Thu Sep 30 10:44:35 2021, MaxMem= 1342177280 cpu:     130.8
 (Enter /sw/target/amd/app/gaussian/Gaussian09RevA.02_gcc-4.9.2/g09/l716.exe)
 Dipole        =-4.38023964D-01 2.96553799D-01-1.55377232D-01
 ***** Axes restored to original set *****
 -------------------------------------------------------------------
 Center     Atomic                   Forces (Hartrees/Bohr)
 Number     Number              X              Y              Z
[...]
    10    C    1  pz     Ryd( 3p)     0.00046
    11    C    1  dxy    Ryd( 3d)     0.00188
    12    C    1  dxz    Ryd( 3d)     0.00119
    13    C    1  dyz    Ryd( 3d)     0.00140
    14    C    1  dx2y2  Ryd( 3d)     0.00108
    15    C    1  dz2    Ryd( 3d)     0.00102

    16    O    2  S      Cor( 1S)     1.99975
    17    O    2  S      Val( 2S)     1.59227
    18    O    2  S      Ryd( 3S)     0.00083
    19    O    2  S      Ryd( 4S)     0.00007
    20    O    2  px     Val( 2p)     1.38380
    21    O    2  px     Ryd( 3p)     0.00086
    22    O    2  py     Val( 2p)     1.73018
    23    O    2  py     Ryd( 3p)     0.00236
    24    O    2  pz     Val( 2p)     1.77136
    25    O    2  pz     Ryd( 3p)     0.00250
    26    O    2  dxy    Ryd( 3d)     0.00130
    27    O    2  dxz    Ryd( 3d)     0.00035
    28    O    2  dyz    Ryd( 3d)     0.00167
    29    O    2  dx2y2  Ryd( 3d)     0.00124
    30    O    2  dz2    Ryd( 3d)     0.00071

    31    C    3  S      Cor( 1S)     1.99872
    32    C    3  S      Val( 2S)     0.81808
    33    C    3  S      Ryd( 3S)     0.00156
    34    C    3  S      Ryd( 4S)     0.00016
    35    C    3  px     Val( 2p)     0.84285
    36    C    3  px     Ryd( 3p)     0.00471
    37    C    3  py     Val( 2p)     0.99208
    38    C    3  py     Ryd( 3p)     0.00766
    39    C    3  pz     Val( 2p)     1.02318
    40    C    3  pz     Ryd( 3p)     0.00345
    41    C    3  dxy    Ryd( 3d)     0.00176
    42    C    3  dxz    Ryd( 3d)     0.00138
    43    C    3  dyz    Ryd( 3d)     0.00121
    44    C    3  dx2y2  Ryd( 3d)     0.00125
    45    C    3  dz2    Ryd( 3d)     0.00060

    46    C    4  S      Cor( 1S)     1.99906
    47    C    4  S      Val( 2S)     0.96339
    48    C    4  S      Ryd( 3S)     0.00055
    49    C    4  S      Ryd( 4S)     0.00005
    50    C    4  px     Val( 2p)     1.16229
    51    C    4  px     Ryd( 3p)     0.00360
    52    C    4  py     Val( 2p)     1.09485
    53    C    4  py     Ryd( 3p)     0.00386
    54    C    4  pz     Val( 2p)     1.03231
    55    C    4  pz     Ryd( 3p)     0.00185
    56    C    4  dxy    Ryd( 3d)     0.00063
    57    C    4  dxz    Ryd( 3d)     0.00048
    58    C    4  dyz    Ryd( 3d)     0.00088
    59    C    4  dx2y2  Ryd( 3d)     0.00076
    60    C    4  dz2    Ryd( 3d)     0.00046

    61    C    5  S      Cor( 1S)     1.99915
    62    C    5  S      Val( 2S)     0.94506
    63    C    5  S      Ryd( 3S)     0.00074
    64    C    5  S      Ryd( 4S)     0.00003
    65    C    5  px     Val( 2p)     1.04634
    66    C    5  px     Ryd( 3p)     0.00557
    67    C    5  py     Val( 2p)     1.18300
    68    C    5  py     Ryd( 3p)     0.00500
    69    C    5  pz     Val( 2p)     1.12379
    70    C    5  pz     Ryd( 3p)     0.00557
    71    C    5  dxy    Ryd( 3d)     0.00058
    72    C    5  dxz    Ryd( 3d)     0.00063
    73    C    5  dyz    Ryd( 3d)     0.00034
    74    C    5  dx2y2  Ryd( 3d)     0.00080
    75    C    5  dz2    Ryd( 3d)     0.00050

    76    C    6  S      Cor( 1S)     1.99901
    77    C    6  S      Val( 2S)     0.94259
    78    C    6  S      Ryd( 3S)     0.00074
    79    C    6  S      Ryd( 4S)     0.00004
    80    C    6  px     Val( 2p)     1.16774
    81    C    6  px     Ryd( 3p)     0.00352
    82    C    6  py     Val( 2p)     1.07480
    83    C    6  py     Ryd( 3p)     0.00452
    84    C    6  pz     Val( 2p)     1.10015
    85    C    6  pz     Ryd( 3p)     0.00551
    86    C    6  dxy    Ryd( 3d)     0.00065
    87    C    6  dxz    Ryd( 3d)     0.00052
    88    C    6  dyz    Ryd( 3d)     0.00069
    89    C    6  dx2y2  Ryd( 3d)     0.00072
    90    C    6  dz2    Ryd( 3d)     0.00044

    91    C    7  S      Cor( 1S)     1.99902
    92    C    7  S      Val( 2S)     0.82034
    93    C    7  S      Ryd( 3S)     0.00162
    94    C    7  S      Ryd( 4S)     0.00008
    95    C    7  px     Val( 2p)     0.93142
    96    C    7  px     Ryd( 3p)     0.00614
    97    C    7  py     Val( 2p)     1.03633
    98    C    7  py     Ryd( 3p)     0.00481
    99    C    7  pz     Val( 2p)     1.04304
   100    C    7  pz     Ryd( 3p)     0.00247
   101    C    7  dxy    Ryd( 3d)     0.00125
   102    C    7  dxz    Ryd( 3d)     0.00078
   103    C    7  dyz    Ryd( 3d)     0.00154
   104    C    7  dx2y2  Ryd( 3d)     0.00075
   105    C    7  dz2    Ryd( 3d)     0.00047

   106    C    8  S      Cor( 1S)     1.99898
   107    C    8  S      Val( 2S)     0.86612
   108    C    8  S      Ryd( 3S)     0.00094
   109    C    8  S      Ryd( 4S)     0.00007
   110    C    8  px     Val( 2p)     1.08316
   111    C    8  px     Ryd( 3p)     0.00602
   112    C    8  py     Val( 2p)     1.07905
   113    C    8  py     Ryd( 3p)     0.00497
   114    C    8  pz     Val( 2p)     1.12323
   115    C    8  pz     Ryd( 3p)     0.00292
   116    C    8  dxy    Ryd( 3d)     0.00080
   117    C    8  dxz    Ryd( 3d)     0.00061
   118    C    8  dyz    Ryd( 3d)     0.00082
   119    C    8  dx2y2  Ryd( 3d)     0.00050
   120    C    8  dz2    Ryd( 3d)     0.00041

   121    C    9  S      Cor( 1S)     1.99904
   122    C    9  S      Val( 2S)     0.96537
   123    C    9  S      Ryd( 3S)     0.00064
   124    C    9  S      Ryd( 4S)     0.00004
   125    C    9  px     Val( 2p)     1.10557
   126    C    9  px     Ryd( 3p)     0.00444
   127    C    9  py     Val( 2p)     1.12354
   128    C    9  py     Ryd( 3p)     0.00389
   129    C    9  pz     Val( 2p)     1.00743
   130    C    9  pz     Ryd( 3p)     0.00261
   131    C    9  dxy    Ryd( 3d)     0.00074
   132    C    9  dxz    Ryd( 3d)     0.00074
   133    C    9  dyz    Ryd( 3d)     0.00062
   134    C    9  dx2y2  Ryd( 3d)     0.00074
   135    C    9  dz2    Ryd( 3d)     0.00049

   136    C   10  S      Cor( 1S)     1.99916
   137    C   10  S      Val( 2S)     0.92715
   138    C   10  S      Ryd( 3S)     0.00123
   139    C   10  S      Ryd( 4S)     0.00008
   140    C   10  px     Val( 2p)     1.07172
   141    C   10  px     Ryd( 3p)     0.00529
   142    C   10  py     Val( 2p)     0.94531
   143    C   10  py     Ryd( 3p)     0.00461
   144    C   10  pz     Val( 2p)     1.14436
   145    C   10  pz     Ryd( 3p)     0.00629
   146    C   10  dxy    Ryd( 3d)     0.00130
   147    C   10  dxz    Ryd( 3d)     0.00075
   148    C   10  dyz    Ryd( 3d)     0.00088
   149    C   10  dx2y2  Ryd( 3d)     0.00086
   150    C   10  dz2    Ryd( 3d)     0.00056

   151    N   11  S      Cor( 1S)     1.99929
   152    N   11  S      Val( 2S)     1.17808
   153    N   11  S      Ryd( 3S)     0.00069
   154    N   11  S      Ryd( 4S)     0.00002
   155    N   11  px     Val( 2p)     1.30900
   156    N   11  px     Ryd( 3p)     0.00225
   157    N   11  py     Val( 2p)     1.31876
   158    N   11  py     Ryd( 3p)     0.00193
   159    N   11  pz     Val( 2p)     1.49870
   160    N   11  pz     Ryd( 3p)     0.00402
   161    N   11  dxy    Ryd( 3d)     0.00081
   162    N   11  dxz    Ryd( 3d)     0.00068
   163    N   11  dyz    Ryd( 3d)     0.00102
   164    N   11  dx2y2  Ryd( 3d)     0.00076
   165    N   11  dz2    Ryd( 3d)     0.00054

   166    C   12  S      Cor( 1S)     1.99932
   167    C   12  S      Val( 2S)     1.01284
   168    C   12  S      Ryd( 3S)     0.00164
   169    C   12  S      Ryd( 4S)     0.00003
   170    C   12  px     Val( 2p)     0.85582
   171    C   12  px     Ryd( 3p)     0.00362
   172    C   12  py     Val( 2p)     1.24313
   173    C   12  py     Ryd( 3p)     0.00634
   174    C   12  pz     Val( 2p)     1.12640
   175    C   12  pz     Ryd( 3p)     0.00140
   176    C   12  dxy    Ryd( 3d)     0.00058
   177    C   12  dxz    Ryd( 3d)     0.00110
   178    C   12  dyz    Ryd( 3d)     0.00130
   179    C   12  dx2y2  Ryd( 3d)     0.00123
   180    C   12  dz2    Ryd( 3d)     0.00058

   181    C   13  S      Cor( 1S)     1.99932
   182    C   13  S      Val( 2S)     1.02041
   183    C   13  S      Ryd( 3S)     0.00208
   184    C   13  S      Ryd( 4S)     0.00004
   185    C   13  px     Val( 2p)     0.88676
   186    C   13  px     Ryd( 3p)     0.00229
   187    C   13  py     Val( 2p)     1.23577
   188    C   13  py     Ryd( 3p)     0.00489
   189    C   13  pz     Val( 2p)     1.10729
   190    C   13  pz     Ryd( 3p)     0.00195
   191    C   13  dxy    Ryd( 3d)     0.00102
   192    C   13  dxz    Ryd( 3d)     0.00124
   193    C   13  dyz    Ryd( 3d)     0.00119
   194    C   13  dx2y2  Ryd( 3d)     0.00126
   195    C   13  dz2    Ryd( 3d)     0.00052

   196    N   14  S      Cor( 1S)     1.99947
   197    N   14  S      Val( 2S)     1.27802
   198    N   14  S      Ryd( 3S)     0.00093
   199    N   14  S      Ryd( 4S)     0.00002
   200    N   14  px     Val( 2p)     1.26264
   201    N   14  px     Ryd( 3p)     0.00140
   202    N   14  py     Val( 2p)     1.45743
   203    N   14  py     Ryd( 3p)     0.00375
   204    N   14  pz     Val( 2p)     1.48818
   205    N   14  pz     Ryd( 3p)     0.00383
   206    N   14  dxy    Ryd( 3d)     0.00054
   207    N   14  dxz    Ryd( 3d)     0.00086
   208    N   14  dyz    Ryd( 3d)     0.00094
   209    N   14  dx2y2  Ryd( 3d)     0.00112
   210    N   14  dz2    Ryd( 3d)     0.00101

   211    C   15  S      Cor( 1S)     1.99949
   212    C   15  S      Val( 2S)     1.08441
   213    C   15  S      Ryd( 3S)     0.00107
   214    C   15  S      Ryd( 4S)     0.00003
   215    C   15  px     Val( 2p)     1.13482
   216    C   15  px     Ryd( 3p)     0.00214
   217    C   15  py     Val( 2p)     1.22531
   218    C   15  py     Ryd( 3p)     0.00228
   219    C   15  pz     Val( 2p)     1.01248
   220    C   15  pz     Ryd( 3p)     0.00221
   221    C   15  dxy    Ryd( 3d)     0.00037
   222    C   15  dxz    Ryd( 3d)     0.00091
   223    C   15  dyz    Ryd( 3d)     0.00129
   224    C   15  dx2y2  Ryd( 3d)     0.00129
   225    C   15  dz2    Ryd( 3d)     0.00131

   226    C   16  S      Cor( 1S)     1.99948
   227    C   16  S      Val( 2S)     1.08269
   228    C   16  S      Ryd( 3S)     0.00113
   229    C   16  S      Ryd( 4S)     0.00003
   230    C   16  px     Val( 2p)     1.23200
   231    C   16  px     Ryd( 3p)     0.00270
   232    C   16  py     Val( 2p)     0.95505
   233    C   16  py     Ryd( 3p)     0.00218
   234    C   16  pz     Val( 2p)     1.19154
   235    C   16  pz     Ryd( 3p)     0.00188
   236    C   16  dxy    Ryd( 3d)     0.00054
   237    C   16  dxz    Ryd( 3d)     0.00073
   238    C   16  dyz    Ryd( 3d)     0.00136
   239    C   16  dx2y2  Ryd( 3d)     0.00161
   240    C   16  dz2    Ryd( 3d)     0.00089

   241    H   17  S      Val( 1S)     0.77359
   242    H   17  S      Ryd( 2S)     0.00058

   243    H   18  S      Val( 1S)     0.79425
   244    H   18  S      Ryd( 2S)     0.00272

   245    H   19  S      Val( 1S)     0.79410
   246    H   19  S      Ryd( 2S)     0.00273

   247    H   20  S      Val( 1S)     0.76862
   248    H   20  S      Ryd( 2S)     0.00087

   249    H   21  S      Val( 1S)     0.77254
   250    H   21  S      Ryd( 2S)     0.00082

   251    H   22  S      Val( 1S)     0.77299
   252    H   22  S      Ryd( 2S)     0.00103

   253    H   23  S      Val( 1S)     0.75264
   254    H   23  S      Ryd( 2S)     0.00065

   255    H   24  S      Val( 1S)     0.77296
   256    H   24  S      Ryd( 2S)     0.00058

   257    H   25  S      Val( 1S)     0.74929
   258    H   25  S      Ryd( 2S)     0.00255

   259    H   26  S      Val( 1S)     0.75989
   260    H   26  S      Ryd( 2S)     0.00241

   261    H   27  S      Val( 1S)     0.78560
   262    H   27  S      Ryd( 2S)     0.00421

   263    H   28  S      Val( 1S)     0.76217
   264    H   28  S      Ryd( 2S)     0.00205

   265    H   29  S      Val( 1S)     0.77229
   266    H   29  S      Ryd( 2S)     0.00082

   267    H   30  S      Val( 1S)     0.77159
   268    H   30  S      Ryd( 2S)     0.00091

   269    H   31  S      Val( 1S)     0.80320
   270    H   31  S      Ryd( 2S)     0.00326

   271    H   32  S      Val( 1S)     0.77618
   272    H   32  S      Ryd( 2S)     0.00088

   273    H   33  S      Val( 1S)     0.80312
   274    H   33  S      Ryd( 2S)     0.00338

   275    H   34  S      Val( 1S)     0.76938
   276    H   34  S      Ryd( 2S)     0.00086

 WARNING:  1 low occupancy (<1.9990e) core orbital  found on  C    3
           1 low occupancy (<1.9990e) core orbital  found on  C    8


 Summary of Natural Population Analysis:                  
                                                          
                                       Natural Population 
                Natural  -----------------------------------------------
    Atom  No    Charge         Core      Valence    Rydberg      Total
 -----------------------------------------------------------------------
      C    1   -0.31727      1.99943     4.30371    0.01413     6.31727
      O    2   -0.48925      1.99975     6.47761    0.01188     8.48925
      C    3    0.30135      1.99872     3.67618    0.02375     5.69865
      C    4   -0.26503      1.99906     4.25283    0.01313     6.26503
      C    5   -0.31712      1.99915     4.29820    0.01977     6.31712
      C    6   -0.30163      1.99901     4.28528    0.01735     6.30163
      C    7    0.14996      1.99902     3.83114    0.01989     5.85004
      C    8   -0.16859      1.99898     4.15155    0.01806     6.16859
      C    9   -0.21587      1.99904     4.20190    0.01493     6.21587
      C   10   -0.10955      1.99916     4.08854    0.02185     6.10955
      N   11   -0.31656      1.99929     5.30454    0.01273     7.31656
      C   12   -0.25533      1.99932     4.23819    0.01782     6.25533
      C   13   -0.26603      1.99932     4.25024    0.01647     6.26603
      N   14   -0.50014      1.99947     5.48627    0.01439     7.50014
      C   15   -0.46942      1.99949     4.45703    0.01290     6.46942
      C   16   -0.47381      1.99948     4.46128    0.01305     6.47381
      H   17    0.22582      0.00000     0.77359    0.00058     0.77418
      H   18    0.20303      0.00000     0.79425    0.00272     0.79697
      H   19    0.20317      0.00000     0.79410    0.00273     0.79683
      H   20    0.23052      0.00000     0.76862    0.00087     0.76948
      H   21    0.22664      0.00000     0.77254    0.00082     0.77336
      H   22    0.22598      0.00000     0.77299    0.00103     0.77402
      H   23    0.24672      0.00000     0.75264    0.00065     0.75328
      H   24    0.22646      0.00000     0.77296    0.00058     0.77354
      H   25    0.24817      0.00000     0.74929    0.00255     0.75183
      H   26    0.23770      0.00000     0.75989    0.00241     0.76230
      H   27    0.21018      0.00000     0.78560    0.00421     0.78982
      H   28    0.23577      0.00000     0.76217    0.00205     0.76423
      H   29    0.22689      0.00000     0.77229    0.00082     0.77311
      H   30    0.22750      0.00000     0.77159    0.00091     0.77250
      H   31    0.19354      0.00000     0.80320    0.00326     0.80646
      H   32    0.22293      0.00000     0.77618    0.00088     0.77707
      H   33    0.19350      0.00000     0.80312    0.00338     0.80650
      H   34    0.22976      0.00000     0.76938    0.00086     0.77024
 =======================================================================
   * Total *   -0.00000     31.98770    85.71891    0.29339   118.00000

                                 Natural Population      
 --------------------------------------------------------
   Core                      31.98770 ( 99.9616% of  32)
   Valence                   85.71891 ( 99.6732% of  86)
   Natural Minimal Basis    117.70661 ( 99.7514% of 118)
   Natural Rydberg Basis      0.29339 (  0.2486% of 118)
 --------------------------------------------------------

    Atom  No          Natural Electron Configuration
 ----------------------------------------------------------------------------
      C    1      [core]2S( 1.10)2p( 3.20)3p( 0.01)3d( 0.01)
      O    2      [core]2S( 1.59)2p( 4.89)3p( 0.01)3d( 0.01)
      C    3      [core]2S( 0.82)2p( 2.86)3p( 0.02)3d( 0.01)
      C    4      [core]2S( 0.96)2p( 3.29)3p( 0.01)
      C    5      [core]2S( 0.95)2p( 3.35)3p( 0.02)
      C    6      [core]2S( 0.94)2p( 3.34)3p( 0.01)
      C    7      [core]2S( 0.82)2p( 3.01)3p( 0.01)
      C    8      [core]2S( 0.87)2p( 3.29)3p( 0.01)
      C    9      [core]2S( 0.97)2p( 3.24)3p( 0.01)
      C   10      [core]2S( 0.93)2p( 3.16)3p( 0.02)
      N   11      [core]2S( 1.18)2p( 4.13)3p( 0.01)
      C   12      [core]2S( 1.01)2p( 3.23)3p( 0.01)
      C   13      [core]2S( 1.02)2p( 3.23)3p( 0.01)3d( 0.01)
      N   14      [core]2S( 1.28)2p( 4.21)3p( 0.01)
      C   15      [core]2S( 1.08)2p( 3.37)3p( 0.01)3d( 0.01)
      C   16      [core]2S( 1.08)2p( 3.38)3p( 0.01)3d( 0.01)
      H   17            1S( 0.77)
      H   18            1S( 0.79)
      H   19            1S( 0.79)
      H   20            1S( 0.77)
      H   21            1S( 0.77)
      H   22            1S( 0.77)
      H   23            1S( 0.75)
      H   24            1S( 0.77)
      H   25            1S( 0.75)
      H   26            1S( 0.76)
      H   27            1S( 0.79)
      H   28            1S( 0.76)
      H   29            1S( 0.77)
      H   30            1S( 0.77)
      H   31            1S( 0.80)
      H   32            1S( 0.78)
      H   33            1S( 0.80)
      H   34            1S( 0.77)


 NBO analysis skipped by request.
 Leave Link  607 at Thu Sep 30 19:13:40 2021, MaxMem= 1342177280 cpu:      21.8
 (Enter /sw/target/amd/app/gaussian/Gaussian09RevA.02_gcc-4.9.2/g09/l9999.exe)
 1\1\GINC-HERMITE\SP\RTD-B3LYP-FC\6-31G(d)\C13H18N2O1\JSCHLEINITZ\30-Se
 p-2021\0\\#p TD(NStates=10, Root=1) b3lyp/6-31G* volume pop=NPA densit
 y=current Geom=AllCheck Guess=Read\\COc1cccc2c1ccn2CCN(C)C_conf_0\\0,1
 \C,0,1.6630324325,0.7735190893,-1.0193877642\O,0,2.6759638128,0.188958
 3813,-0.2192019796\C,0,3.2707654967,-0.9548870859,-0.6728513818\C,0,2.
 966292314,-1.6007950237,-1.8680001799\C,0,3.6476365225,-2.7824602343,-
 2.2355906777\C,0,4.6329570004,-3.3450263839,-1.4390671179\C,0,4.934337
 9306,-2.6835037644,-0.2370328227\C,0,4.268634608,-1.4974980152,0.16495
 07302\C,0,4.8203947662,-1.1026753823,1.4266746767\C,0,5.7760750592,-2.
 0311136471,1.7427553045\N,0,5.8630804268,-2.9890814997,0.7434306133\C,
 0,6.7123253285,-4.1675349039,0.7810312771\C,0,5.9929142782,-5.39409063
 75,1.36961198\N,0,6.8792726964,-6.5502310889,1.4846966411\C,0,6.374760
 9701,-7.5211937388,2.4488869353\C,0,7.138785027,-7.1895085219,0.199498
 8243\H,0,1.3276346605,1.6615250145,-0.4797686402\H,0,0.8140225828,0.09
 06444043,-1.1582567267\H,0,2.0475927789,1.0707962325,-2.0043289982\H,0
 ,2.2043922213,-1.208306293,-2.5313912259\H,0,3.3832214152,-3.261661660
 5,-3.1744551225\H,0,5.1410129197,-4.2571646666,-1.7362786061\H,0,4.546
 9725219,-0.2356478488,2.0098763738\H,0,6.4284668652,-2.0948956177,2.60
 35201613\H,0,7.5922406044,-3.9435522594,1.3916245814\H,0,7.0682537788,
 -4.3633184342,-0.2355116929\H,0,5.0859574937,-5.6135481227,0.773498535
 1\H,0,5.6501979616,-5.1248309784,2.3749743374\H,0,6.2515575708,-7.0440
 748617,3.4268359513\H,0,7.0976964879,-8.3370757648,2.5581410883\H,0,5.
 4026225362,-7.9653349831,2.1576706303\H,0,7.5942961181,-6.4825275119,-
 0.500326252\H,0,6.223132139,-7.5979547458,-0.2727091441\H,0,7.84520299
 69,-8.0146762468,0.3390822902\\Version=AM64L-G09RevA.02\State=1-A\HF=-
 690.9251854\RMSD=4.529e-09\Dipole=0.0711179,-0.4518834,0.2475915\Quadr
 upole=-0.7990544,3.5597046,-2.7606502,-7.2211595,3.0173904,-1.8836228\
 PG=C01 [X(C13H18N2O1)]\\@


 THERE'S NOTHING WRONG WITH FOLLOWING A TRAIN OF THOUGHT...
 AS LONG AS IT ULTIMATELY PULLS INTO THE STATION.
 Job cpu time:  0 days  4 hours 51 minutes 46.0 seconds.
 File lengths (MBytes):  RWF=    255 Int=      0 D2E=      0 Chk=     35 Scr=      1
 Normal termination of Gaussian 09 at Thu Sep 30 19:13:45 2021.
