 Entering Gaussian System, Link 0=g09
 Input=C13H13N3O4_0f4f_conf_0.com
 Output=C13H13N3O4_0f4f_conf_0.log
 Initial command:
 /sw/target/amd/app/gaussian/Gaussian09RevA.02_gcc-4.9.2/g09/l1.exe /home/jschleinitz/gaussian/Gau-3299365.inp -scrdir=/home/jschleinitz/gaussian/
 Entering Link 1 = /sw/target/amd/app/gaussian/Gaussian09RevA.02_gcc-4.9.2/g09/l1.exe PID=   3299374.
  
 Copyright (c) 1988,1990,1992,1993,1995,1998,2003,2009, Gaussian, Inc.
                  All Rights Reserved.
  
 This is part of the Gaussian(R) 09 program.  It is based on
 the Gaussian(R) 03 system (copyright 2003, Gaussian, Inc.),
 the Gaussian(R) 98 system (copyright 1998, Gaussian, Inc.),
 the Gaussian(R) 94 system (copyright 1995, Gaussian, Inc.),
 the Gaussian 92(TM) system (copyright 1992, Gaussian, Inc.),
 the Gaussian 90(TM) system (copyright 1990, Gaussian, Inc.),
 the Gaussian 88(TM) system (copyright 1988, Gaussian, Inc.),
 the Gaussian 86(TM) system (copyright 1986, Carnegie Mellon
 University), and the Gaussian 82(TM) system (copyright 1983,
 Carnegie Mellon University). Gaussian is a federally registered
 trademark of Gaussian, Inc.
  
 This software contains proprietary and confidential information,
 including trade secrets, belonging to Gaussian, Inc.
  
 This software is provided under written license and may be
 used, copied, transmitted, or stored only in accord with that
 written license.
  
 The following legend is applicable only to US Government
 contracts under FAR:
  
                    RESTRICTED RIGHTS LEGEND
  
 Use, reproduction and disclosure by the US Government is
 subject to restrictions as set forth in subparagraphs (a)
 and (c) of the Commercial Computer Software - Restricted
 Rights clause in FAR 52.227-19.
  
 Gaussian, Inc.
 340 Quinnipiac St., Bldg. 40, Wallingford CT 06492
  
  
 ---------------------------------------------------------------
 Warning -- This program may not be used in any manner that
 competes with the business of Gaussian, Inc. or will provide
 assistance to any competitor of Gaussian, Inc.  The licensee
 of this program is prohibited from giving any competitor of
 Gaussian, Inc. access to this program.  By using this program,
 the user acknowledges that Gaussian, Inc. is engaged in the
 business of creating and licensing software in the field of
 computational chemistry and represents and warrants to the
 licensee that it is not a competitor of Gaussian, Inc. and that
 it will not use this program in any manner prohibited above.
 ---------------------------------------------------------------
  

 Cite this work as:
 Gaussian 09, Revision A.02,
 M. J. Frisch, G. W. Trucks, H. B. Schlegel, G. E. Scuseria, 
 M. A. Robb, J. R. Cheeseman, G. Scalmani, V. Barone, B. Mennucci, 
 G. A. Petersson, H. Nakatsuji, M. Caricato, X. Li, H. P. Hratchian, 
 A. F. Izmaylov, J. Bloino, G. Zheng, J. L. Sonnenberg, M. Hada, 
 M. Ehara, K. Toyota, R. Fukuda, J. Hasegawa, M. Ishida, T. Nakajima, 
 Y. Honda, O. Kitao, H. Nakai, T. Vreven, J. A. Montgomery, Jr., 
 J. E. Peralta, F. Ogliaro, M. Bearpark, J. J. Heyd, E. Brothers, 
 K. N. Kudin, V. N. Staroverov, R. Kobayashi, J. Normand, 
 K. Raghavachari, A. Rendell, J. C. Burant, S. S. Iyengar, J. Tomasi, 
 M. Cossi, N. Rega, J. M. Millam, M. Klene, J. E. Knox, J. B. Cross, 
 V. Bakken, C. Adamo, J. Jaramillo, R. Gomperts, R. E. Stratmann, 
 O. Yazyev, A. J. Austin, R. Cammi, C. Pomelli, J. W. Ochterski, 
 R. L. Martin, K. Morokuma, V. G. Zakrzewski, G. A. Voth, 
 P. Salvador, J. J. Dannenberg, S. Dapprich, A. D. Daniels, 
 O. Farkas, J. B. Foresman, J. V. Ortiz, J. Cioslowski, 
 and D. J. Fox, Gaussian, Inc., Wallingford CT, 2009.
 
 ******************************************
 Gaussian 09:  AM64L-G09RevA.02 11-Jun-2009
                28-Sep-2021 
 ******************************************
 %nproc=5
 Will use up to    5 processors via shared memory.
 %mem=10gb
 %chk=C13H13N3O4_0f4f_conf_0.chk
 -----------------------------------
 #p opt b3lyp/6-31G* scf=(xqc,tight)
 -----------------------------------
 1/14=-1,18=20,19=15,26=3,38=1/1,3;
 2/9=110,12=2,17=6,18=5,40=1/2;
 3/5=1,6=6,7=1,11=2,16=1,25=1,30=1,71=1,74=-5/1,2,3;
 4//1;
 5/5=2,8=3,13=1,32=2,38=5/2,8;
 6/7=2,8=2,9=2,10=2,28=1/1;
 7//1,2,3,16;
 1/14=-1,18=20,19=15/3(2);
 2/9=110/2;
 99//99;
 2/9=110/2;
 3/5=1,6=6,7=1,11=2,16=1,25=1,30=1,71=1,74=-5/1,2,3;
 4/5=5,16=3/1;
 5/5=2,8=3,13=1,32=2,38=5/2,8;
 7//1,2,3,16;
 1/14=-1,18=20,19=15/3(-5);
 2/9=110/2;
 6/7=2,8=2,9=2,10=2,19=2,28=1/1;
 99/9=1/99;
 Leave Link    1 at Tue Sep 28 15:18:17 2021, MaxMem= 1342177280 cpu:       0.1
 (Enter /sw/target/amd/app/gaussian/Gaussian09RevA.02_gcc-4.9.2/g09/l101.exe)
 --------------------------------------
 COc1nc(nc(n1)OC)Oc1ccc(cc1C)C=O_conf_0
 --------------------------------------
 Symbolic Z-matrix:
 Charge =  0 Multiplicity = 1
 C                     6.83087   3.91868  -5.39584 
 O                     5.53601   4.15128  -4.85513 
 C                     5.17194   3.23278  -3.89153 
 N                     3.9165    3.34827  -3.47477 
 C                     3.55904   2.43599  -2.58045 
 N                     4.35371   1.50287  -2.06599 
 C                     5.57494   1.48101  -2.58006 
 N                     6.04627   2.31865  -3.49222 
 O                     6.45051   0.48531  -2.20189 
 C                     5.85798  -0.46881  -1.32717 
 O                     2.22911   2.47926  -2.17695 
 C                     1.61287   1.2792   -1.87216 
 C                     1.84761   0.11017  -2.61212 
 C                     1.19307  -1.07799  -2.28941 
 C                     0.26048  -1.09151  -1.25445 
 C                    -0.01796   0.07631  -0.53796 
 C                     0.66316   1.27282  -0.83413 
 C                     0.31217   2.52279  -0.07693 
 C                    -0.45194  -2.34152  -0.92055 
 O                    -0.23051  -3.39425  -1.50584 
 H                     6.98133   4.62575  -6.21768 
 H                     6.92123   2.90904  -5.81224 
 H                     7.60861   4.10598  -4.6473 
 H                     6.60885  -1.23327  -1.10528 
 H                     5.00464  -0.97017  -1.79735 
 H                     5.56609  -0.0045   -0.37874 
 H                     2.54618   0.10363  -3.44505 
 H                     1.40561  -1.98356  -2.85446 
 H                    -0.7658    0.06637   0.25185 
 H                    -0.12385   2.28083   0.89913 
 H                    -0.41705   3.11054  -0.64365 
 H                     1.19894   3.13527   0.11529 
 H                    -1.19832  -2.28252  -0.11098 
 
 NAtoms=     33 NQM=     33 NQMF=      0 NMic=      0 NMicF=      0 NTot=     33.
                    Isotopes and Nuclear Properties:
 (Nuclear quadrupole moments (NQMom) in fm**2, nuclear magnetic moments (NMagM)
  in nuclear magnetons)

  Atom         1           2           3           4           5           6           7           8           9          10
 IAtWgt=          12          16          12          14          12          14          12          14          16          12
 AtmWgt=  12.0000000  15.9949146  12.0000000  14.0030740  12.0000000  14.0030740  12.0000000  14.0030740  15.9949146  12.0000000
 NucSpn=           0           0           0           2           0           2           0           2           0           0
 AtZEff=   0.0000000   0.0000000   0.0000000   0.0000000   0.0000000   0.0000000   0.0000000   0.0000000   0.0000000   0.0000000
 NQMom=    0.0000000   0.0000000   0.0000000   2.0440000   0.0000000   2.0440000   0.0000000   2.0440000   0.0000000   0.0000000
 NMagM=    0.0000000   0.0000000   0.0000000   0.4037610   0.0000000   0.4037610   0.0000000   0.4037610   0.0000000   0.0000000

  Atom        11          12          13          14          15          16          17          18          19          20
 IAtWgt=          16          12          12          12          12          12          12          12          12          16
 AtmWgt=  15.9949146  12.0000000  12.0000000  12.0000000  12.0000000  12.0000000  12.0000000  12.0000000  12.0000000  15.9949146
 NucSpn=           0           0           0           0           0           0           0           0           0           0
 AtZEff=   0.0000000   0.0000000   0.0000000   0.0000000   0.0000000   0.0000000   0.0000000   0.0000000   0.0000000   0.0000000
 NQMom=    0.0000000   0.0000000   0.0000000   0.0000000   0.0000000   0.0000000   0.0000000   0.0000000   0.0000000   0.0000000
 NMagM=    0.0000000   0.0000000   0.0000000   0.0000000   0.0000000   0.0000000   0.0000000   0.0000000   0.0000000   0.0000000

  Atom        21          22          23          24          25          26          27          28          29          30
 IAtWgt=           1           1           1           1           1           1           1           1           1           1
 AtmWgt=   1.0078250   1.0078250   1.0078250   1.0078250   1.0078250   1.0078250   1.0078250   1.0078250   1.0078250   1.0078250
 NucSpn=           1           1           1           1           1           1           1           1           1           1
 AtZEff=   0.0000000   0.0000000   0.0000000   0.0000000   0.0000000   0.0000000   0.0000000   0.0000000   0.0000000   0.0000000
 NQMom=    0.0000000   0.0000000   0.0000000   0.0000000   0.0000000   0.0000000   0.0000000   0.0000000   0.0000000   0.0000000
 NMagM=    2.7928460   2.7928460   2.7928460   2.7928460   2.7928460   2.7928460   2.7928460   2.7928460   2.7928460   2.7928460

  Atom        31          32          33
 IAtWgt=           1           1           1
 AtmWgt=   1.0078250   1.0078250   1.0078250
 NucSpn=           1           1           1
 AtZEff=   0.0000000   0.0000000   0.0000000
 NQMom=    0.0000000   0.0000000   0.0000000
 NMagM=    2.7928460   2.7928460   2.7928460
 Leave Link  101 at Tue Sep 28 15:18:17 2021, MaxMem= 1342177280 cpu:       0.2
 (Enter /sw/target/amd/app/gaussian/Gaussian09RevA.02_gcc-4.9.2/g09/l103.exe)

 GradGradGradGradGradGradGradGradGradGradGradGradGradGradGradGradGradGrad
 Berny optimization.
 Initialization pass.
                           ----------------------------
                           !    Initial Parameters    !
                           ! (Angstroms and Degrees)  !
 --------------------------                            --------------------------
 ! Name  Definition              Value          Derivative Info.                !
 --------------------------------------------------------------------------------
 ! R1    R(1,2)                  1.4224         estimate D2E/DX2                !
 ! R2    R(1,21)                 1.0945         estimate D2E/DX2                !
 ! R3    R(1,22)                 1.0959         estimate D2E/DX2                !
 ! R4    R(1,23)                 1.0956         estimate D2E/DX2                !
 ! R5    R(2,3)                  1.3801         estimate D2E/DX2                !
 ! R6    R(3,4)                  1.3278         estimate D2E/DX2                !
 ! R7    R(3,8)                  1.3265         estimate D2E/DX2                !
 ! R8    R(4,5)                  1.3266         estimate D2E/DX2                !
 ! R9    R(5,6)                  1.3292         estimate D2E/DX2                !
 ! R10   R(5,11)                 1.3905         estimate D2E/DX2                !
 ! R11   R(6,7)                  1.3252         estimate D2E/DX2                !
 ! R12   R(7,8)                  1.3251         estimate D2E/DX2                !
 ! R13   R(7,9)                  1.3788         estimate D2E/DX2                !
 ! R14   R(9,10)                 1.4236         estimate D2E/DX2                !
 ! R15   R(10,24)                1.0943         estimate D2E/DX2                !
 ! R16   R(10,25)                1.0957         estimate D2E/DX2                !
 ! R17   R(10,26)                1.0956         estimate D2E/DX2                !
 ! R18   R(11,12)                1.383          estimate D2E/DX2                !
 ! R19   R(12,13)                1.4033         estimate D2E/DX2                !
 ! R20   R(12,17)                1.407          estimate D2E/DX2                !
 ! R21   R(13,14)                1.3944         estimate D2E/DX2                !
 ! R22   R(13,27)                1.0871         estimate D2E/DX2                !
 ! R23   R(14,15)                1.3932         estimate D2E/DX2                !
 ! R24   R(14,28)                1.0884         estimate D2E/DX2                !
 ! R25   R(15,16)                1.3981         estimate D2E/DX2                !
 ! R26   R(15,19)                1.477          estimate D2E/DX2                !
 ! R27   R(16,17)                1.4083         estimate D2E/DX2                !
 ! R28   R(16,29)                1.0877         estimate D2E/DX2                !
 ! R29   R(17,18)                1.503          estimate D2E/DX2                !
 ! R30   R(18,30)                1.0961         estimate D2E/DX2                !
 ! R31   R(18,31)                1.0947         estimate D2E/DX2                !
 ! R32   R(18,32)                1.0947         estimate D2E/DX2                !
 ! R33   R(19,20)                1.2247         estimate D2E/DX2                !
 ! R34   R(19,33)                1.1027         estimate D2E/DX2                !
 ! A1    A(2,1,21)             107.7551         estimate D2E/DX2                !
 ! A2    A(2,1,22)             111.7265         estimate D2E/DX2                !
 ! A3    A(2,1,23)             111.0119         estimate D2E/DX2                !
 ! A4    A(21,1,22)            107.369          estimate D2E/DX2                !
 ! A5    A(21,1,23)            107.7574         estimate D2E/DX2                !
 ! A6    A(22,1,23)            111.0135         estimate D2E/DX2                !
 ! A7    A(1,2,3)              113.3745         estimate D2E/DX2                !
 ! A8    A(2,3,4)              114.247          estimate D2E/DX2                !
 ! A9    A(2,3,8)              119.6659         estimate D2E/DX2                !
 ! A10   A(4,3,8)              126.0617         estimate D2E/DX2                !
 ! A11   A(3,4,5)              113.988          estimate D2E/DX2                !
 ! A12   A(4,5,6)              125.6321         estimate D2E/DX2                !
 ! A13   A(4,5,11)             115.5919         estimate D2E/DX2                !
 ! A14   A(6,5,11)             118.7731         estimate D2E/DX2                !
 ! A15   A(5,6,7)              114.3544         estimate D2E/DX2                !
 ! A16   A(6,7,8)              125.7605         estimate D2E/DX2                !
 ! A17   A(6,7,9)              119.3884         estimate D2E/DX2                !
 ! A18   A(8,7,9)              114.799          estimate D2E/DX2                !
 ! A19   A(3,8,7)              114.105          estimate D2E/DX2                !
 ! A20   A(7,9,10)             112.8436         estimate D2E/DX2                !
 ! A21   A(9,10,24)            107.8906         estimate D2E/DX2                !
 ! A22   A(9,10,25)            111.5402         estimate D2E/DX2                !
 ! A23   A(9,10,26)            111.0254         estimate D2E/DX2                !
 ! A24   A(24,10,25)           107.5621         estimate D2E/DX2                !
 ! A25   A(24,10,26)           107.6588         estimate D2E/DX2                !
 ! A26   A(25,10,26)           110.9711         estimate D2E/DX2                !
 ! A27   A(5,11,12)            117.5884         estimate D2E/DX2                !
 ! A28   A(11,12,13)           122.1479         estimate D2E/DX2                !
 ! A29   A(11,12,17)           117.8584         estimate D2E/DX2                !
 ! A30   A(13,12,17)           119.879          estimate D2E/DX2                !
 ! A31   A(12,13,14)           120.6171         estimate D2E/DX2                !
 ! A32   A(12,13,27)           121.0979         estimate D2E/DX2                !
 ! A33   A(14,13,27)           118.284          estimate D2E/DX2                !
 ! A34   A(13,14,15)           119.6308         estimate D2E/DX2                !
 ! A35   A(13,14,28)           119.8131         estimate D2E/DX2                !
 ! A36   A(15,14,28)           120.5522         estimate D2E/DX2                !
 ! A37   A(14,15,16)           120.3907         estimate D2E/DX2                !
 ! A38   A(14,15,19)           119.9349         estimate D2E/DX2                !
 ! A39   A(16,15,19)           119.6702         estimate D2E/DX2                !
 ! A40   A(15,16,17)           120.3705         estimate D2E/DX2                !
 ! A41   A(15,16,29)           120.0926         estimate D2E/DX2                !
 ! A42   A(17,16,29)           119.5367         estimate D2E/DX2                !
 ! A43   A(12,17,16)           119.0438         estimate D2E/DX2                !
 ! A44   A(12,17,18)           121.7061         estimate D2E/DX2                !
 ! A45   A(16,17,18)           119.1895         estimate D2E/DX2                !
 ! A46   A(17,18,30)           110.9738         estimate D2E/DX2                !
 ! A47   A(17,18,31)           109.954          estimate D2E/DX2                !
 ! A48   A(17,18,32)           111.3819         estimate D2E/DX2                !
 ! A49   A(30,18,31)           108.3337         estimate D2E/DX2                !
 ! A50   A(30,18,32)           106.8213         estimate D2E/DX2                !
 ! A51   A(31,18,32)           109.2751         estimate D2E/DX2                !
 ! A52   A(15,19,20)           122.157          estimate D2E/DX2                !
 ! A53   A(15,19,33)           116.5616         estimate D2E/DX2                !
 ! A54   A(20,19,33)           121.2814         estimate D2E/DX2                !
 ! D1    D(21,1,2,3)           174.0242         estimate D2E/DX2                !
 ! D2    D(22,1,2,3)            56.3127         estimate D2E/DX2                !
 ! D3    D(23,1,2,3)           -68.1982         estimate D2E/DX2                !
 ! D4    D(1,2,3,4)           -173.3517         estimate D2E/DX2                !
 ! D5    D(1,2,3,8)              4.9249         estimate D2E/DX2                !
 ! D6    D(2,3,4,5)            177.9353         estimate D2E/DX2                !
 ! D7    D(8,3,4,5)             -0.2122         estimate D2E/DX2                !
 ! D8    D(2,3,8,7)           -178.9964         estimate D2E/DX2                !
 ! D9    D(4,3,8,7)             -0.9404         estimate D2E/DX2                !
 ! D10   D(3,4,5,6)              2.8361         estimate D2E/DX2                !
 ! D11   D(3,4,5,11)          -176.5323         estimate D2E/DX2                !
 ! D12   D(4,5,6,7)             -3.903          estimate D2E/DX2                !
 ! D13   D(11,5,6,7)           175.4472         estimate D2E/DX2                !
 ! D14   D(4,5,11,12)          146.3351         estimate D2E/DX2                !
 ! D15   D(6,5,11,12)          -33.0793         estimate D2E/DX2                !
 ! D16   D(5,6,7,8)              2.5335         estimate D2E/DX2                !
 ! D17   D(5,6,7,9)           -174.699          estimate D2E/DX2                !
 ! D18   D(6,7,8,3)             -0.3231         estimate D2E/DX2                !
 ! D19   D(9,7,8,3)            177.0207         estimate D2E/DX2                !
 ! D20   D(6,7,9,10)             3.607          estimate D2E/DX2                !
 ! D21   D(8,7,9,10)          -173.9194         estimate D2E/DX2                !
 ! D22   D(7,9,10,24)          178.2516         estimate D2E/DX2                !
 ! D23   D(7,9,10,25)           60.3276         estimate D2E/DX2                !
 ! D24   D(7,9,10,26)          -64.0008         estimate D2E/DX2                !
 ! D25   D(5,11,12,13)         -38.7342         estimate D2E/DX2                !
 ! D26   D(5,11,12,17)         145.1668         estimate D2E/DX2                !
 ! D27   D(11,12,13,14)       -179.0038         estimate D2E/DX2                !
 ! D28   D(11,12,13,27)          1.3884         estimate D2E/DX2                !
 ! D29   D(17,12,13,14)         -2.9815         estimate D2E/DX2                !
 ! D30   D(17,12,13,27)        177.4107         estimate D2E/DX2                !
 ! D31   D(11,12,17,16)        177.5178         estimate D2E/DX2                !
 ! D32   D(11,12,17,18)          0.3723         estimate D2E/DX2                !
 ! D33   D(13,12,17,16)          1.3269         estimate D2E/DX2                !
 ! D34   D(13,12,17,18)       -175.8186         estimate D2E/DX2                !
 ! D35   D(12,13,14,15)          2.4064         estimate D2E/DX2                !
 ! D36   D(12,13,14,28)       -178.3026         estimate D2E/DX2                !
 ! D37   D(27,13,14,15)       -177.975          estimate D2E/DX2                !
 ! D38   D(27,13,14,28)          1.316          estimate D2E/DX2                !
 ! D39   D(13,14,15,16)         -0.1894         estimate D2E/DX2                !
 ! D40   D(13,14,15,19)        179.0634         estimate D2E/DX2                !
 ! D41   D(28,14,15,16)       -179.4751         estimate D2E/DX2                !
 ! D42   D(28,14,15,19)         -0.2222         estimate D2E/DX2                !
 ! D43   D(14,15,16,17)         -1.4448         estimate D2E/DX2                !
 ! D44   D(14,15,16,29)        178.3987         estimate D2E/DX2                !
 ! D45   D(19,15,16,17)        179.3003         estimate D2E/DX2                !
 ! D46   D(19,15,16,29)         -0.8561         estimate D2E/DX2                !
 ! D47   D(14,15,19,20)          1.7729         estimate D2E/DX2                !
 ! D48   D(14,15,19,33)       -178.325          estimate D2E/DX2                !
 ! D49   D(16,15,19,20)       -178.9688         estimate D2E/DX2                !
 ! D50   D(16,15,19,33)          0.9333         estimate D2E/DX2                !
 ! D51   D(15,16,17,12)          0.8622         estimate D2E/DX2                !
 ! D52   D(15,16,17,18)        178.0805         estimate D2E/DX2                !
 ! D53   D(29,16,17,12)       -178.9823         estimate D2E/DX2                !
 ! D54   D(29,16,17,18)         -1.764          estimate D2E/DX2                !
 ! D55   D(12,17,18,30)       -158.3637         estimate D2E/DX2                !
 ! D56   D(12,17,18,31)         81.7975         estimate D2E/DX2                !
 ! D57   D(12,17,18,32)        -39.4875         estimate D2E/DX2                !
 ! D58   D(16,17,18,30)         24.4949         estimate D2E/DX2                !
 ! D59   D(16,17,18,31)        -95.344          estimate D2E/DX2                !
 ! D60   D(16,17,18,32)        143.3711         estimate D2E/DX2                !
 --------------------------------------------------------------------------------
 Trust Radius=3.00D-01 FncErr=1.00D-07 GrdErr=1.00D-06
 Number of steps in this run= 158 maximum allowed number of steps= 198.
 GradGradGradGradGradGradGradGradGradGradGradGradGradGradGradGradGradGrad

 Leave Link  103 at Tue Sep 28 15:18:17 2021, MaxMem= 1342177280 cpu:       0.0
 (Enter /sw/target/amd/app/gaussian/Gaussian09RevA.02_gcc-4.9.2/g09/l202.exe)
                          Input orientation:                          
 ---------------------------------------------------------------------
 Center     Atomic      Atomic             Coordinates (Angstroms)
 Number     Number       Type             X           Y           Z
 ---------------------------------------------------------------------
      1          6           0        6.830866    3.918680   -5.395843
      2          8           0        5.536007    4.151281   -4.855125
      3          6           0        5.171936    3.232783   -3.891529
      4          7           0        3.916497    3.348273   -3.474768
      5          6           0        3.559036    2.435990   -2.580454
      6          7           0        4.353709    1.502874   -2.065990
      7          6           0        5.574939    1.481007   -2.580064
      8          7           0        6.046267    2.318653   -3.492218
      9          8           0        6.450514    0.485307   -2.201892
     10          6           0        5.857978   -0.468805   -1.327169
     11          8           0        2.229111    2.479262   -2.176953
     12          6           0        1.612872    1.279196   -1.872165
     13          6           0        1.847608    0.110167   -2.612119
     14          6           0        1.193065   -1.077992   -2.289414
     15          6           0        0.260478   -1.091515   -1.254452
     16          6           0       -0.017959    0.076310   -0.537965
     17          6           0        0.663157    1.272819   -0.834127
     18          6           0        0.312165    2.522791   -0.076926
     19          6           0       -0.451940   -2.341522   -0.920554
     20          8           0       -0.230515   -3.394250   -1.505842
     21          1           0        6.981334    4.625745   -6.217681
     22          1           0        6.921229    2.909043   -5.812243
     23          1           0        7.608609    4.105982   -4.647300
     24          1           0        6.608852   -1.233273   -1.105284
     25          1           0        5.004640   -0.970171   -1.797355
     26          1           0        5.566086   -0.004502   -0.378740
     27          1           0        2.546176    0.103633   -3.445047
     28          1           0        1.405615   -1.983561   -2.854457
     29          1           0       -0.765798    0.066371    0.251851
     30          1           0       -0.123850    2.280828    0.899126
     31          1           0       -0.417055    3.110544   -0.643653
     32          1           0        1.198940    3.135268    0.115289
     33          1           0       -1.198324   -2.282518   -0.110979
 ---------------------------------------------------------------------
                    Distance matrix (angstroms):
                    1          2          3          4          5
     1  C    0.000000
     2  O    1.422371   0.000000
     3  C    2.342107   1.380110   0.000000
     4  N    3.536869   2.274427   1.327838   0.000000
     5  C    4.563952   3.467675   2.226037   1.326588   0.000000
     6  N    4.802120   4.023825   2.644745   2.362479   1.329242
     7  C    3.930422   3.508245   2.225100   2.652849   2.230663
     8  N    2.607579   2.340172   1.326475   2.365659   2.651679
     9  O    4.704683   4.616853   3.469619   4.029643   3.508435
    10  C    6.062232   5.821970   4.555036   4.790785   3.910716
    11  O    5.797355   4.572069   3.488235   2.299299   1.390462
    12  C    6.827199   5.704201   4.534453   3.486561   2.372214
    13  C    6.861979   5.913203   4.736958   3.938248   2.887808
    14  C    8.148707   7.265625   6.081197   5.330475   4.246243
    15  C    9.242466   8.263351   7.055221   6.165063   5.008199
    16  C    9.234132   8.129564   6.938640   5.900043   4.747077
    17  C    8.114830   6.942524   5.789495   4.675972   3.576135
    18  C    8.528355   7.264412   6.218734   5.021748   4.100897
    19  C   10.595169   9.669170   8.457396   7.614527   6.455061
    20  O   10.884583  10.070030   8.876685   8.156960   7.036133
    21  H    1.094532   2.042215   3.259639   4.306824   5.453125
    22  H    1.095866   2.092383   2.618010   3.832117   4.687492
    23  H    1.095574   2.083488   2.696487   3.947233   4.843529
    24  H    6.708264   6.648739   5.456514   5.818401   4.994096
    25  H    6.339170   5.988453   4.698763   4.758858   3.782188
    26  H    6.493255   6.108148   4.793231   4.852591   3.851208
    27  H    6.059601   5.225980   4.109202   3.522266   2.685757
    28  H    8.410021   7.661533   6.516972   5.926025   4.923893
    29  H   10.219885   9.081874   7.902559   6.825134   5.686935
    30  H    9.522461   8.285166   7.204300   6.049363   5.069043
    31  H    8.704525   7.366042   6.465327   5.181834   4.473871
    32  H    7.918643   6.674388   5.643474   4.507660   3.650490
    33  H   11.439080  10.452364   9.235329   8.317589   7.141085
                    6          7          8          9         10
     6  N    0.000000
     7  C    1.325199   0.000000
     8  N    2.358893   1.325076   0.000000
     9  O    2.334631   1.378790   2.278050   0.000000
    10  C    2.587702   2.334872   3.534518   1.423577   0.000000
    11  O    2.340846   3.514765   4.040593   4.668695   4.752043
    12  C    2.756771   4.029866   4.833222   4.913426   4.623144
    13  C    2.918635   3.971552   4.825010   4.636352   4.250809
    14  C    4.086619   5.082693   6.044626   5.485647   4.801920
    15  C    4.913653   6.051331   7.078997   6.457597   5.632501
    16  C    4.845764   6.117504   7.108485   6.691567   5.953707
    17  C    3.897510   5.217015   6.094021   5.998705   5.501138
    18  C    4.618515   5.920118   6.677261   6.807800   6.424079
    19  C    6.259845   7.327276   8.399844   7.568134   6.594503
    20  O    6.731321   7.656721   8.716704   7.757035   6.757210
    21  H    5.821794   5.009949   3.691229   5.792371   7.150768
    22  H    4.754354   3.781371   2.548849   4.373866   5.714565
    23  H    4.902419   3.911493   2.640014   4.520010   5.917488
    24  H    3.673571   3.257494   4.316264   2.044783   1.094283
    25  H    2.571347   2.635554   3.843684   2.091080   1.095731
    26  H    2.566877   2.655682   3.914253   2.084708   1.095580
    27  H    2.669616   3.437842   4.142364   4.115211   3.972547
    28  H    4.633375   5.427871   6.360144   5.654392   4.944758
    29  H    5.800455   7.087022   8.092901   7.633578   6.830383
    30  H    5.426385   6.724631   7.573353   7.487487   6.949758
    31  H    5.231427   6.504542   7.107457   7.515549   7.256375
    32  H    4.168363   5.399155   6.097339   6.322234   6.064377
    33  H    6.998309   8.132502   9.224297   8.398660   7.386479
                   11         12         13         14         15
    11  O    0.000000
    12  C    1.383042   0.000000
    13  C    2.438755   1.403304   0.000000
    14  C    3.706763   2.430364   1.394377   0.000000
    15  C    4.180547   2.798358   2.409623   1.393216   0.000000
    16  C    3.675566   2.426239   2.789911   2.422099   1.398104
    17  C    2.389749   1.406955   2.432271   2.815133   2.434933
    18  C    2.843710   2.541899   3.821720   4.317027   3.801637
    19  C    5.657432   4.275349   3.762990   2.485222   1.477006
    20  O    6.402991   5.037198   4.221775   2.829420   2.367881
    21  H    6.596855   7.674848   7.729532   9.025960  10.123765
    22  H    5.951135   6.808764   6.619375   7.817840   9.007970
    23  H    6.139042   7.186165   7.300523   8.578602   9.618754
    24  H    5.840678   5.644504   5.171540   5.545901   6.351708
    25  H    4.443674   4.070545   3.434797   3.844718   4.776667
    26  H    4.531894   4.416572   4.339150   4.891459   5.486160
    27  H    2.711495   2.174158   1.087110   2.136032   3.384007
    28  H    4.588458   3.413713   2.153551   1.088350   2.160348
    29  H    4.548693   3.411812   3.877387   3.406573   2.159372
    30  H    3.877894   3.420456   4.574632   4.814844   4.019738
    31  H    3.122775   2.997279   4.243327   4.779629   4.299933
    32  H    2.597301   2.750694   4.124410   4.851205   4.541211
    33  H    6.220137   4.867279   4.610677   3.451841   2.203207
                   16         17         18         19         20
    16  C    0.000000
    17  C    1.408285   0.000000
    18  C    2.511337   1.502990   0.000000
    19  C    2.486087   3.783435   4.995710   0.000000
    20  O    3.609259   4.799102   6.111275   1.224673   0.000000
    21  H   10.096863   8.952325   9.306400  11.482853  11.769983
    22  H    9.164863   8.162250   8.759153  10.288861  10.460594
    23  H    9.554551   8.414654   8.754022  10.974124  11.294871
    24  H    6.778752   6.457965   7.403634   7.149623   7.183815
    25  H    5.282773   4.980692   6.097539   5.694177   5.776503
    26  H    5.586900   5.087008   5.837979   6.478570   6.808916
    27  H    3.876424   3.424859   4.710347   4.619582   4.868851
    28  H    3.411124   3.903458   5.405323   2.705296   2.546709
    29  H    1.087737   2.162586   2.702610   2.696478   3.918151
    30  H    2.633694   2.153979   1.096054   4.978454   6.164556
    31  H    3.062193   2.140180   1.094712   5.459205   6.564336
    32  H    3.356309   2.158048   1.094734   5.813227   6.877936
    33  H    2.672012   4.077803   5.037235   1.102716   2.029346
                   21         22         23         24         25
    21  H    0.000000
    22  H    1.764953   0.000000
    23  H    1.769103   1.806169   0.000000
    24  H    7.784821   6.277884   6.484831   0.000000
    25  H    7.400059   5.902621   6.377317   1.766827   0.000000
    26  H    7.585206   6.312536   6.268061   1.767796   1.805604
    27  H    6.914306   5.710957   6.564484   4.875156   3.148331
    28  H    9.278084   7.944059   8.875469   5.540416   3.885539
    29  H   11.075233  10.195312  10.509559   7.610279   6.210606
    30  H   10.326239   9.750398   9.689425   7.854670   6.643900
    31  H    9.386255   8.978047   9.023933   8.273163   6.883171
    32  H    8.704258   8.242051   8.044153   7.059823   5.915758
    33  H   12.325693  11.197493  11.787842   7.939871   6.560708
                   26         27         28         29         30
    26  H    0.000000
    27  H    4.305089   0.000000
    28  H    5.230237   2.450725   0.000000
    29  H    6.363602   4.963629   4.308875   0.000000
    30  H    6.263469   5.544461   5.883337   2.394761   0.000000
    31  H    6.750680   5.066563   5.844629   3.192262   1.776109
    32  H    5.401314   4.866400   5.921530   3.646501   1.759045
    33  H    7.142710   5.552567   3.794278   2.415782   4.795720
                   31         32         33
    31  H    0.000000
    32  H    1.785509   0.000000
    33  H    5.475330   5.928784   0.000000
 Stoichiometry    C13H13N3O4
 Framework group  C1[X(C13H13N3O4)]
 Deg. of freedom    93
 Full point group                 C1      NOp   1
 Largest Abelian subgroup         C1      NOp   1
 Largest concise Abelian subgroup C1      NOp   1
                         Standard orientation:                         
 ---------------------------------------------------------------------
 Center     Atomic      Atomic             Coordinates (Angstroms)
 Number     Number       Type             X           Y           Z
 ---------------------------------------------------------------------
      1          6           0       -5.476191   -0.161954   -1.089166
      2          8           0       -4.407808   -1.092279   -0.961925
      3          6           0       -3.280766   -0.554731   -0.374112
      4          7           0       -2.228010   -1.363961   -0.372274
      5          6           0       -1.135663   -0.826637    0.154887
      6          7           0       -1.053229    0.382915    0.699933
      7          6           0       -2.166287    1.097194    0.615914
      8          7           0       -3.312771    0.685946    0.094113
      9          8           0       -2.164398    2.406341    1.048572
     10          6           0       -0.878761    2.846256    1.473052
     11          8           0        0.006660   -1.617884    0.105795
     12          6           0        1.222485   -0.978269   -0.053786
     13          6           0        1.376774    0.132626   -0.897213
     14          6           0        2.622292    0.740535   -1.050241
     15          6           0        3.732953    0.209015   -0.398345
     16          6           0        3.603587   -0.925079    0.408990
     17          6           0        2.343584   -1.525388    0.596844
     18          6           0        2.241707   -2.768904    1.434858
     19          6           0        5.059270    0.835267   -0.572232
     20          8           0        5.221458    1.839903   -1.253573
     21          1           0       -6.275598   -0.647443   -1.657716
     22          1           0       -5.172643    0.730402   -1.648165
     23          1           0       -5.880876    0.108159   -0.107559
     24          1           0       -0.963195    3.896815    1.767417
     25          1           0       -0.145367    2.788346    0.661013
     26          1           0       -0.539555    2.281977    2.348737
     27          1           0        0.531604    0.545531   -1.442195
     28          1           0        2.721558    1.618220   -1.686104
     29          1           0        4.478459   -1.351362    0.894842
     30          1           0        3.072437   -2.831135    2.147142
     31          1           0        2.271200   -3.655317    0.793144
     32          1           0        1.318535   -2.779217    2.023153
     33          1           0        5.904310    0.352489   -0.053758
 ---------------------------------------------------------------------
 Rotational constants (GHZ):      0.6400313      0.1745283      0.1540752
 Leave Link  202 at Tue Sep 28 15:18:17 2021, MaxMem= 1342177280 cpu:       0.1
 (Enter /sw/target/amd/app/gaussian/Gaussian09RevA.02_gcc-4.9.2/g09/l301.exe)
 Standard basis: 6-31G(d) (6D, 7F)
 Ernie: Thresh=  0.10000D-02 Tol=  0.10000D-05 Strict=F.
 There are   326 symmetry adapted basis functions of A   symmetry.
 Integral buffers will be    131072 words long.
 Raffenetti 2 integral format.
 Two-electron integral symmetry is turned on.
   326 basis functions,   612 primitive gaussians,   326 cartesian basis functions
    72 alpha electrons       72 beta electrons
       nuclear repulsion energy      1502.4542799083 Hartrees.
 IExCor=  402 DFT=T Ex+Corr=B3LYP ExCW=0 ScaHFX=  0.200000
 ScaDFX=  0.800000  0.720000  1.000000  0.810000 ScalE2=  1.000000  1.000000
 IRadAn=      0 IRanWt=     -1 IRanGd=            0 ICorTp=0
 NAtoms=   33 NActive=   33 NUniq=   33 SFac= 7.50D-01 NAtFMM=   80 NAOKFM=F Big=F
 Leave Link  301 at Tue Sep 28 15:18:17 2021, MaxMem= 1342177280 cpu:       0.1
 (Enter /sw/target/amd/app/gaussian/Gaussian09RevA.02_gcc-4.9.2/g09/l302.exe)
 NPDir=0 NMtPBC=     1 NCelOv=     1 NCel=       1 NClECP=     1 NCelD=      1
         NCelK=      1 NCelE2=     1 NClLst=     1 CellRange=     0.0.
 One-electron integrals computed using PRISM.
 NBasis=   326 RedAO= T  NBF=   326
 NBsUse=   326 1.00D-06 NBFU=   326
 Precomputing XC quadrature grid using
 IXCGrd= 2 IRadAn=           0 IRanWt=          -1 IRanGd=           0 AccXCQ= 1.00D-10.
 NRdTot=    2104 NPtTot=      268272 NUsed=      283442 NTot=      283474
 NSgBfM=   322   322   322   322   323 NAtAll=    33    33.
 Leave Link  302 at Tue Sep 28 15:18:20 2021, MaxMem= 1342177280 cpu:       3.1
 (Enter /sw/target/amd/app/gaussian/Gaussian09RevA.02_gcc-4.9.2/g09/l303.exe)
 DipDrv:  MaxL=1.
 Leave Link  303 at Tue Sep 28 15:18:21 2021, MaxMem= 1342177280 cpu:       0.2
 (Enter /sw/target/amd/app/gaussian/Gaussian09RevA.02_gcc-4.9.2/g09/l401.exe)
 Harris functional with IExCor=  402 diagonalized for initial guess.
 ExpMin= 1.61D-01 ExpMax= 5.48D+03 ExpMxC= 8.25D+02 IAcc=1 IRadAn=         1 AccDes= 0.00D+00
 HarFok:  IExCor=  402 AccDes= 0.00D+00 IRadAn=         1 IDoV= 1
 ScaDFX=  1.000000  1.000000  1.000000  1.000000
 FoFCou: FMM=F IPFlag=           0 FMFlag=      100000 FMFlg1=           0
         NFxFlg=           0 DoJE=T BraDBF=F KetDBF=T FulRan=T
         Omega=  0.000000  0.000000  1.000000  0.000000  0.000000 ICntrl=     500 IOpCl=  0
         NMat0=    1 NMatS0=    1 NMatT0=    0 NMatD0=    1 NMtDS0=    0 NMtDT0=    0
         I1Cent=           4 NGrid=           0.
 Petite list used in FoFCou.
 Harris En= -968.434340917546    
 Initial guess orbital symmetries:
       Occupied  (A) (A) (A) (A) (A) (A) (A) (A) (A) (A) (A) (A)
                 (A) (A) (A) (A) (A) (A) (A) (A) (A) (A) (A) (A)
                 (A) (A) (A) (A) (A) (A) (A) (A) (A) (A) (A) (A)
                 (A) (A) (A) (A) (A) (A) (A) (A) (A) (A) (A) (A)
                 (A) (A) (A) (A) (A) (A) (A) (A) (A) (A) (A) (A)
                 (A) (A) (A) (A) (A) (A) (A) (A) (A) (A) (A) (A)
       Virtual   (A) (A) (A) (A) (A) (A) (A) (A) (A) (A) (A) (A)
                 (A) (A) (A) (A) (A) (A) (A) (A) (A) (A) (A) (A)
                 (A) (A) (A) (A) (A) (A) (A) (A) (A) (A) (A) (A)
                 (A) (A) (A) (A) (A) (A) (A) (A) (A) (A) (A) (A)
                 (A) (A) (A) (A) (A) (A) (A) (A) (A) (A) (A) (A)
                 (A) (A) (A) (A) (A) (A) (A) (A) (A) (A) (A) (A)
                 (A) (A) (A) (A) (A) (A) (A) (A) (A) (A) (A) (A)
                 (A) (A) (A) (A) (A) (A) (A) (A) (A) (A) (A) (A)
                 (A) (A) (A) (A) (A) (A) (A) (A) (A) (A) (A) (A)
                 (A) (A) (A) (A) (A) (A) (A) (A) (A) (A) (A) (A)
                 (A) (A) (A) (A) (A) (A) (A) (A) (A) (A) (A) (A)
                 (A) (A) (A) (A) (A) (A) (A) (A) (A) (A) (A) (A)
                 (A) (A) (A) (A) (A) (A) (A) (A) (A) (A) (A) (A)
                 (A) (A) (A) (A) (A) (A) (A) (A) (A) (A) (A) (A)
                 (A) (A) (A) (A) (A) (A) (A) (A) (A) (A) (A) (A)
                 (A) (A) (A) (A) (A) (A) (A) (A) (A) (A) (A) (A)
                 (A) (A) (A) (A) (A) (A) (A) (A) (A) (A) (A) (A)
                 (A) (A) (A) (A) (A) (A) (A) (A) (A) (A) (A) (A)
                 (A) (A) (A) (A) (A) (A) (A) (A) (A) (A) (A) (A)
                 (A) (A) (A) (A) (A) (A) (A) (A) (A) (A) (A) (A)
                 (A) (A) (A) (A) (A) (A) (A) (A) (A) (A) (A) (A)
                 (A) (A)
 The electronic state of the initial guess is 1-A.
 Leave Link  401 at Tue Sep 28 15:18:31 2021, MaxMem= 1342177280 cpu:      13.2
 (Enter /sw/target/amd/app/gaussian/Gaussian09RevA.02_gcc-4.9.2/g09/l502.exe)
 Closed shell SCF:
 Requested convergence on RMS density matrix=1.00D-08 within  64 cycles.
 Requested convergence on MAX density matrix=1.00D-06.
 Requested convergence on             energy=1.00D-06.
 No special actions if energy rises.
 Using DIIS extrapolation, IDIIS=  1040.
 Integral symmetry usage will be decided dynamically.
       283132 words used for storage of precomputed grid.
 IEnd=      611908 IEndB=      611908 NGot=  1342177280 MDV=  1341676199
 LenX=  1341676199 LenY=  1341569482
 Fock matrices will be formed incrementally for  20 cycles.
 Integral accuracy reduced to 1.0D-05 until final iterations.

 Cycle   1  Pass 0  IDiag  1:
 FoFCou: FMM=F IPFlag=           0 FMFlag=      100000 FMFlg1=           0
         NFxFlg=           0 DoJE=F BraDBF=F KetDBF=F FulRan=T
         Omega=  0.000000  0.000000  1.000000  0.000000  0.000000 ICntrl=       0 IOpCl=  0
         NMat0=    1 NMatS0=    1 NMatT0=    0 NMatD0=    1 NMtDS0=    0 NMtDT0=    0
         I1Cent=           0 NGrid=           0.
 Symmetry not used in FoFCou.
 E= -967.905160782980    
 DIIS: error= 3.03D-02 at cycle   1 NSaved=   1.
 NSaved= 1 IEnMin= 1 EnMin= -967.905160782980     IErMin= 1 ErrMin= 3.03D-02
 ErrMax= 3.03D-02 EMaxC= 1.00D-01 BMatC= 4.99D-01 BMatP= 4.99D-01
 IDIUse=3 WtCom= 6.97D-01 WtEn= 3.03D-01
 Coeff-Com:  0.100D+01
 Coeff-En:   0.100D+01
 Coeff:      0.100D+01
 Gap=     0.191 Goal=   None    Shift=    0.000
 GapD=    0.191 DampG=1.000 DampE=0.500 DampFc=0.5000 IDamp=-1.
 Damping current iteration by 5.00D-01
 RMSDP=4.83D-03 MaxDP=1.79D-01              OVMax= 2.46D-01

 Cycle   2  Pass 0  IDiag  1:
 RMSU=  1.69D-03    CP:  9.83D-01
 E= -968.061716458413     Delta-E=       -0.156555675433 Rises=F Damp=T
 DIIS: error= 8.53D-03 at cycle   2 NSaved=   2.
 NSaved= 2 IEnMin= 2 EnMin= -968.061716458413     IErMin= 2 ErrMin= 8.53D-03
 ErrMax= 8.53D-03 EMaxC= 1.00D-01 BMatC= 5.67D-02 BMatP= 4.99D-01
 IDIUse=3 WtCom= 9.15D-01 WtEn= 8.53D-02
 Coeff-Com:  0.169D+00 0.831D+00
 Coeff-En:   0.269D+00 0.731D+00
 Coeff:      0.178D+00 0.822D+00
 Gap=     0.244 Goal=   None    Shift=    0.000
 RMSDP=1.44D-03 MaxDP=6.71D-02 DE=-1.57D-01 OVMax= 2.21D-01

 Cycle   3  Pass 0  IDiag  1:
 RMSU=  9.16D-04    CP:  9.77D-01  7.47D-01
 E= -968.308648406278     Delta-E=       -0.246931947866 Rises=F Damp=F
 DIIS: error= 1.25D-02 at cycle   3 NSaved=   3.
 NSaved= 3 IEnMin= 3 EnMin= -968.308648406278     IErMin= 2 ErrMin= 8.53D-03
 ErrMax= 1.25D-02 EMaxC= 1.00D-01 BMatC= 5.19D-02 BMatP= 5.67D-02
 IDIUse=3 WtCom= 8.75D-01 WtEn= 1.25D-01
 Coeff-Com:  0.456D-01 0.485D+00 0.470D+00
 Coeff-En:   0.000D+00 0.000D+00 0.100D+01
 Coeff:      0.399D-01 0.424D+00 0.536D+00
 Gap=     0.193 Goal=   None    Shift=    0.000
 RMSDP=1.08D-03 MaxDP=6.32D-02 DE=-2.47D-01 OVMax= 1.14D-01

 Cycle   4  Pass 0  IDiag  1:
 RMSU=  4.71D-04    CP:  9.80D-01  8.86D-01  4.01D-01
 E= -968.340832317165     Delta-E=       -0.032183910887 Rises=F Damp=F
 DIIS: error= 7.62D-03 at cycle   4 NSaved=   4.
 NSaved= 4 IEnMin= 4 EnMin= -968.340832317165     IErMin= 4 ErrMin= 7.62D-03
 ErrMax= 7.62D-03 EMaxC= 1.00D-01 BMatC= 1.74D-02 BMatP= 5.19D-02
 IDIUse=3 WtCom= 9.24D-01 WtEn= 7.62D-02
 Coeff-Com:  0.780D-02 0.123D+00 0.366D+00 0.503D+00
 Coeff-En:   0.000D+00 0.000D+00 0.281D+00 0.719D+00
 Coeff:      0.721D-02 0.113D+00 0.360D+00 0.520D+00
 Gap=     0.193 Goal=   None    Shift=    0.000
 RMSDP=4.59D-04 MaxDP=2.94D-02 DE=-3.22D-02 OVMax= 3.65D-02

 Cycle   5  Pass 0  IDiag  1:
 RMSU=  1.22D-04    CP:  9.80D-01  8.16D-01  6.00D-01  5.57D-01
 E= -968.354881389941     Delta-E=       -0.014049072776 Rises=F Damp=F
 DIIS: error= 1.21D-03 at cycle   5 NSaved=   5.
 NSaved= 5 IEnMin= 5 EnMin= -968.354881389941     IErMin= 5 ErrMin= 1.21D-03
 ErrMax= 1.21D-03 EMaxC= 1.00D-01 BMatC= 7.61D-04 BMatP= 1.74D-02
 IDIUse=3 WtCom= 9.88D-01 WtEn= 1.21D-02
 Coeff-Com:  0.128D-02 0.148D-01 0.141D+00 0.279D+00 0.563D+00
 Coeff-En:   0.000D+00 0.000D+00 0.000D+00 0.000D+00 0.100D+01
 Coeff:      0.127D-02 0.146D-01 0.139D+00 0.276D+00 0.569D+00
 Gap=     0.182 Goal=   None    Shift=    0.000
 RMSDP=9.53D-05 MaxDP=4.41D-03 DE=-1.40D-02 OVMax= 5.97D-03

 Cycle   6  Pass 0  IDiag  1:
 RMSU=  4.01D-05    CP:  9.80D-01  8.25D-01  5.98D-01  5.95D-01  5.97D-01
 E= -968.355458658913     Delta-E=       -0.000577268972 Rises=F Damp=F
 DIIS: error= 2.85D-04 at cycle   6 NSaved=   6.
 NSaved= 6 IEnMin= 6 EnMin= -968.355458658913     IErMin= 6 ErrMin= 2.85D-04
 ErrMax= 2.85D-04 EMaxC= 1.00D-01 BMatC= 7.56D-05 BMatP= 7.61D-04
 IDIUse=3 WtCom= 9.97D-01 WtEn= 2.85D-03
 Coeff-Com:  0.402D-03-0.994D-04 0.536D-01 0.119D+00 0.325D+00 0.502D+00
 Coeff-En:   0.000D+00 0.000D+00 0.000D+00 0.000D+00 0.157D-01 0.984D+00
 Coeff:      0.401D-03-0.991D-04 0.535D-01 0.118D+00 0.324D+00 0.504D+00
 Gap=     0.182 Goal=   None    Shift=    0.000
 RMSDP=3.56D-05 MaxDP=1.28D-03 DE=-5.77D-04 OVMax= 3.63D-03

 Cycle   7  Pass 0  IDiag  1:
 RMSU=  1.59D-05    CP:  9.80D-01  8.25D-01  5.96D-01  5.97D-01  6.52D-01
                    CP:  5.45D-01
 E= -968.355516632950     Delta-E=       -0.000057974038 Rises=F Damp=F
 DIIS: error= 1.51D-04 at cycle   7 NSaved=   7.
 NSaved= 7 IEnMin= 7 EnMin= -968.355516632950     IErMin= 7 ErrMin= 1.51D-04
 ErrMax= 1.51D-04 EMaxC= 1.00D-01 BMatC= 1.24D-05 BMatP= 7.56D-05
 IDIUse=3 WtCom= 9.98D-01 WtEn= 1.51D-03
 Coeff-Com:  0.116D-03-0.192D-02 0.158D-01 0.383D-01 0.136D+00 0.328D+00
 Coeff-Com:  0.484D+00
 Coeff-En:   0.000D+00 0.000D+00 0.000D+00 0.000D+00 0.000D+00 0.150D+00
 Coeff-En:   0.850D+00
 Coeff:      0.116D-03-0.191D-02 0.158D-01 0.383D-01 0.135D+00 0.328D+00
 Coeff:      0.484D+00
 Gap=     0.182 Goal=   None    Shift=    0.000
 RMSDP=1.30D-05 MaxDP=4.20D-04 DE=-5.80D-05 OVMax= 1.34D-03

 Cycle   8  Pass 0  IDiag  1:
 RMSU=  3.91D-06    CP:  9.80D-01  8.24D-01  5.98D-01  5.99D-01  6.48D-01
                    CP:  6.37D-01  5.53D-01
 E= -968.355528538289     Delta-E=       -0.000011905338 Rises=F Damp=F
 DIIS: error= 3.02D-05 at cycle   8 NSaved=   8.
 NSaved= 8 IEnMin= 8 EnMin= -968.355528538289     IErMin= 8 ErrMin= 3.02D-05
 ErrMax= 3.02D-05 EMaxC= 1.00D-01 BMatC= 7.63D-07 BMatP= 1.24D-05
 IDIUse=1 WtCom= 1.00D+00 WtEn= 0.00D+00
 Coeff-Com:  0.645D-04-0.108D-02 0.396D-02 0.998D-02 0.466D-01 0.139D+00
 Coeff-Com:  0.268D+00 0.533D+00
 Coeff:      0.645D-04-0.108D-02 0.396D-02 0.998D-02 0.466D-01 0.139D+00
 Coeff:      0.268D+00 0.533D+00
 Gap=     0.182 Goal=   None    Shift=    0.000
 RMSDP=3.48D-06 MaxDP=1.78D-04 DE=-1.19D-05 OVMax= 3.18D-04

 Initial convergence to 1.0D-05 achieved.  Increase integral accuracy.
 Cycle   9  Pass 1  IDiag  1:
 E= -968.355595659598     Delta-E=       -0.000067121309 Rises=F Damp=F
 DIIS: error= 2.42D-05 at cycle   1 NSaved=   1.
 NSaved= 1 IEnMin= 1 EnMin= -968.355595659598     IErMin= 1 ErrMin= 2.42D-05
 ErrMax= 2.42D-05 EMaxC= 1.00D-01 BMatC= 2.82D-07 BMatP= 2.82D-07
 IDIUse=1 WtCom= 1.00D+00 WtEn= 0.00D+00
 Coeff-Com:  0.100D+01
 Coeff:      0.100D+01
 Gap=     0.182 Goal=   None    Shift=    0.000
 RMSDP=3.48D-06 MaxDP=1.78D-04 DE=-6.71D-05 OVMax= 2.49D-04

 Cycle  10  Pass 1  IDiag  1:
 RMSU=  8.51D-06    CP:  1.00D+00
 E= -968.355595654095     Delta-E=        0.000000005503 Rises=F Damp=F
 DIIS: error= 1.90D-05 at cycle   2 NSaved=   2.
 NSaved= 2 IEnMin= 1 EnMin= -968.355595659598     IErMin= 2 ErrMin= 1.90D-05
 ErrMax= 1.90D-05 EMaxC= 1.00D-01 BMatC= 3.13D-07 BMatP= 2.82D-07
 IDIUse=1 WtCom= 1.00D+00 WtEn= 0.00D+00
 Coeff-Com:  0.517D+00 0.483D+00
 Coeff:      0.517D+00 0.483D+00
 Gap=     0.182 Goal=   None    Shift=    0.000
 RMSDP=2.58D-06 MaxDP=9.42D-05 DE= 5.50D-09 OVMax= 2.51D-04

 Cycle  11  Pass 1  IDiag  1:
 RMSU=  1.81D-06    CP:  1.00D+00  9.70D-01
 E= -968.355595886281     Delta-E=       -0.000000232186 Rises=F Damp=F
 DIIS: error= 1.00D-05 at cycle   3 NSaved=   3.
 NSaved= 3 IEnMin= 3 EnMin= -968.355595886281     IErMin= 3 ErrMin= 1.00D-05
 ErrMax= 1.00D-05 EMaxC= 1.00D-01 BMatC= 7.72D-08 BMatP= 2.82D-07
 IDIUse=1 WtCom= 1.00D+00 WtEn= 0.00D+00
 Coeff-Com:  0.783D-02 0.329D+00 0.663D+00
 Coeff:      0.783D-02 0.329D+00 0.663D+00
 Gap=     0.182 Goal=   None    Shift=    0.000
 RMSDP=9.93D-07 MaxDP=3.24D-05 DE=-2.32D-07 OVMax= 1.03D-04

 Cycle  12  Pass 1  IDiag  1:
 RMSU=  2.83D-07    CP:  1.00D+00  9.92D-01  6.60D-01
 E= -968.355595960571     Delta-E=       -0.000000074290 Rises=F Damp=F
 DIIS: error= 2.84D-06 at cycle   4 NSaved=   4.
 NSaved= 4 IEnMin= 4 EnMin= -968.355595960571     IErMin= 4 ErrMin= 2.84D-06
 ErrMax= 2.84D-06 EMaxC= 1.00D-01 BMatC= 5.04D-09 BMatP= 7.72D-08
 IDIUse=1 WtCom= 1.00D+00 WtEn= 0.00D+00
 Coeff-Com: -0.102D-01 0.191D+00 0.412D+00 0.406D+00
 Coeff:     -0.102D-01 0.191D+00 0.412D+00 0.406D+00
 Gap=     0.182 Goal=   None    Shift=    0.000
 RMSDP=2.50D-07 MaxDP=1.23D-05 DE=-7.43D-08 OVMax= 2.69D-05

 Cycle  13  Pass 1  IDiag  1:
 RMSU=  8.86D-08    CP:  1.00D+00  9.93D-01  6.87D-01  4.89D-01
 E= -968.355595965205     Delta-E=       -0.000000004633 Rises=F Damp=F
 DIIS: error= 5.40D-07 at cycle   5 NSaved=   5.
 NSaved= 5 IEnMin= 5 EnMin= -968.355595965205     IErMin= 5 ErrMin= 5.40D-07
 ErrMax= 5.40D-07 EMaxC= 1.00D-01 BMatC= 1.73D-10 BMatP= 5.04D-09
 IDIUse=1 WtCom= 1.00D+00 WtEn= 0.00D+00
 Coeff-Com: -0.592D-02 0.830D-01 0.181D+00 0.222D+00 0.521D+00
 Coeff:     -0.592D-02 0.830D-01 0.181D+00 0.222D+00 0.521D+00
 Gap=     0.182 Goal=   None    Shift=    0.000
 RMSDP=5.10D-08 MaxDP=2.37D-06 DE=-4.63D-09 OVMax= 5.62D-06

 Cycle  14  Pass 1  IDiag  1:
 RMSU=  2.69D-08    CP:  1.00D+00  9.93D-01  6.84D-01  5.26D-01  7.67D-01
 E= -968.355595965406     Delta-E=       -0.000000000201 Rises=F Damp=F
 DIIS: error= 1.00D-07 at cycle   6 NSaved=   6.
 NSaved= 6 IEnMin= 6 EnMin= -968.355595965406     IErMin= 6 ErrMin= 1.00D-07
 ErrMax= 1.00D-07 EMaxC= 1.00D-01 BMatC= 1.16D-11 BMatP= 1.73D-10
 IDIUse=1 WtCom= 1.00D+00 WtEn= 0.00D+00
 Coeff-Com: -0.175D-02 0.193D-01 0.420D-01 0.622D-01 0.250D+00 0.629D+00
 Coeff:     -0.175D-02 0.193D-01 0.420D-01 0.622D-01 0.250D+00 0.629D+00
 Gap=     0.182 Goal=   None    Shift=    0.000
 RMSDP=1.51D-08 MaxDP=6.81D-07 DE=-2.01D-10 OVMax= 1.48D-06

 Cycle  15  Pass 1  IDiag  1:
 RMSU=  7.41D-09    CP:  1.00D+00  9.93D-01  6.84D-01  5.28D-01  8.25D-01
                    CP:  7.91D-01
 E= -968.355595965423     Delta-E=       -0.000000000017 Rises=F Damp=F
 DIIS: error= 6.22D-08 at cycle   7 NSaved=   7.
 NSaved= 7 IEnMin= 7 EnMin= -968.355595965423     IErMin= 7 ErrMin= 6.22D-08
 ErrMax= 6.22D-08 EMaxC= 1.00D-01 BMatC= 2.10D-12 BMatP= 1.16D-11
 IDIUse=1 WtCom= 1.00D+00 WtEn= 0.00D+00
 Coeff-Com: -0.276D-03 0.117D-02 0.248D-02 0.927D-02 0.787D-01 0.357D+00
 Coeff-Com:  0.551D+00
 Coeff:     -0.276D-03 0.117D-02 0.248D-02 0.927D-02 0.787D-01 0.357D+00
 Coeff:      0.551D+00
 Gap=     0.182 Goal=   None    Shift=    0.000
 RMSDP=5.92D-09 MaxDP=2.84D-07 DE=-1.73D-11 OVMax= 5.35D-07

 SCF Done:  E(RB3LYP) =  -968.355595965     A.U. after   15 cycles
             Convg  =    0.5922D-08             -V/T =  2.0093
 KE= 9.594412515976D+02 PE=-5.261258489610D+03 EE= 1.831007362139D+03
 Leave Link  502 at Tue Sep 28 15:36:23 2021, MaxMem= 1342177280 cpu:     676.9
 (Enter /sw/target/amd/app/gaussian/Gaussian09RevA.02_gcc-4.9.2/g09/l508.exe)
 QCSCF skips out because SCF is already converged.
 Leave Link  508 at Tue Sep 28 15:36:24 2021, MaxMem= 1342177280 cpu:       0.0
 (Enter /sw/target/amd/app/gaussian/Gaussian09RevA.02_gcc-4.9.2/g09/l601.exe)
 Copying SCF densities to generalized density rwf, IOpCl= 0 IROHF=0.

 **********************************************************************

            Population analysis using the SCF density.

 **********************************************************************

 Orbital symmetries:
       Occupied  (A) (A) (A) (A) (A) (A) (A) (A) (A) (A) (A) (A)
                 (A) (A) (A) (A) (A) (A) (A) (A) (A) (A) (A) (A)
                 (A) (A) (A) (A) (A) (A) (A) (A) (A) (A) (A) (A)
                 (A) (A) (A) (A) (A) (A) (A) (A) (A) (A) (A) (A)
                 (A) (A) (A) (A) (A) (A) (A) (A) (A) (A) (A) (A)
                 (A) (A) (A) (A) (A) (A) (A) (A) (A) (A) (A) (A)
       Virtual   (A) (A) (A) (A) (A) (A) (A) (A) (A) (A) (A) (A)
                 (A) (A) (A) (A) (A) (A) (A) (A) (A) (A) (A) (A)
                 (A) (A) (A) (A) (A) (A) (A) (A) (A) (A) (A) (A)
                 (A) (A) (A) (A) (A) (A) (A) (A) (A) (A) (A) (A)
                 (A) (A) (A) (A) (A) (A) (A) (A) (A) (A) (A) (A)
                 (A) (A) (A) (A) (A) (A) (A) (A) (A) (A) (A) (A)
                 (A) (A) (A) (A) (A) (A) (A) (A) (A) (A) (A) (A)
                 (A) (A) (A) (A) (A) (A) (A) (A) (A) (A) (A) (A)
                 (A) (A) (A) (A) (A) (A) (A) (A) (A) (A) (A) (A)
                 (A) (A) (A) (A) (A) (A) (A) (A) (A) (A) (A) (A)
                 (A) (A) (A) (A) (A) (A) (A) (A) (A) (A) (A) (A)
                 (A) (A) (A) (A) (A) (A) (A) (A) (A) (A) (A) (A)
                 (A) (A) (A) (A) (A) (A) (A) (A) (A) (A) (A) (A)
                 (A) (A) (A) (A) (A) (A) (A) (A) (A) (A) (A) (A)
                 (A) (A) (A) (A) (A) (A) (A) (A) (A) (A) (A) (A)
                 (A) (A) (A) (A) (A) (A) (A) (A) (A) (A) (A) (A)
                 (A) (A) (A) (A) (A) (A) (A) (A) (A) (A) (A) (A)
                 (A) (A) (A) (A) (A) (A) (A) (A) (A) (A) (A) (A)
                 (A) (A) (A) (A) (A) (A) (A) (A) (A) (A) (A) (A)
                 (A) (A) (A) (A) (A) (A) (A) (A) (A) (A) (A) (A)
                 (A) (A) (A) (A) (A) (A) (A) (A) (A) (A) (A) (A)
                 (A) (A)
 The electronic state is 1-A.
 Alpha  occ. eigenvalues --  -19.22240 -19.20875 -19.20504 -19.14318 -14.35785
 Alpha  occ. eigenvalues --  -14.35336 -14.35237 -10.34876 -10.34273 -10.33962
 Alpha  occ. eigenvalues --  -10.27406 -10.27393 -10.24611 -10.24313 -10.21703
 Alpha  occ. eigenvalues --  -10.21187 -10.21003 -10.20676 -10.20375 -10.19278
 Alpha  occ. eigenvalues --   -1.12204  -1.10310  -1.09269  -1.03492  -1.01943
 Alpha  occ. eigenvalues --   -0.92211  -0.91855  -0.87368  -0.79297  -0.77612
 Alpha  occ. eigenvalues --   -0.74305  -0.73371  -0.70490  -0.68833  -0.65604
 Alpha  occ. eigenvalues --   -0.63934  -0.62578  -0.60096  -0.57666  -0.56154
 Alpha  occ. eigenvalues --   -0.53618  -0.51910  -0.51419  -0.50686  -0.48735
 Alpha  occ. eigenvalues --   -0.48201  -0.46362  -0.45792  -0.44789  -0.44592
 Alpha  occ. eigenvalues --   -0.43761  -0.43445  -0.42249  -0.41849  -0.40678
 Alpha  occ. eigenvalues --   -0.40341  -0.40057  -0.39942  -0.37867  -0.37669
 Alpha  occ. eigenvalues --   -0.36848  -0.36380  -0.36282  -0.35108  -0.32528
 Alpha  occ. eigenvalues --   -0.29736  -0.29652  -0.29130  -0.28674  -0.26120
 Alpha  occ. eigenvalues --   -0.25497  -0.24713
 Alpha virt. eigenvalues --   -0.06484  -0.03834  -0.03365  -0.01647   0.03843
 Alpha virt. eigenvalues --    0.08651   0.09917   0.10362   0.11376   0.11793
 Alpha virt. eigenvalues --    0.12046   0.12715   0.12909   0.14063   0.14699
 Alpha virt. eigenvalues --    0.15086   0.15108   0.15756   0.16742   0.17113
 Alpha virt. eigenvalues --    0.17354   0.17533   0.19833   0.20646   0.21937
 Alpha virt. eigenvalues --    0.23335   0.25172   0.26593   0.27629   0.28698
 Alpha virt. eigenvalues --    0.28732   0.29977   0.32366   0.33736   0.34731
 Alpha virt. eigenvalues --    0.38588   0.39214   0.40976   0.47040   0.47373
 Alpha virt. eigenvalues --    0.48540   0.49166   0.50323   0.50941   0.51368
 Alpha virt. eigenvalues --    0.52814   0.53153   0.53596   0.53907   0.54166
 Alpha virt. eigenvalues --    0.54295   0.54871   0.55658   0.56207   0.56876
 Alpha virt. eigenvalues --    0.57802   0.58256   0.59419   0.60221   0.61178
 Alpha virt. eigenvalues --    0.62085   0.62591   0.63142   0.64019   0.64759
 Alpha virt. eigenvalues --    0.65135   0.66643   0.67891   0.69353   0.69425
 Alpha virt. eigenvalues --    0.70684   0.73297   0.74344   0.75338   0.76742
 Alpha virt. eigenvalues --    0.78857   0.79715   0.80777   0.81478   0.82037
 Alpha virt. eigenvalues --    0.82907   0.83055   0.83890   0.84488   0.85122
 Alpha virt. eigenvalues --    0.85253   0.86503   0.87504   0.88329   0.89286
 Alpha virt. eigenvalues --    0.89940   0.91054   0.92383   0.93274   0.93769
 Alpha virt. eigenvalues --    0.94676   0.95255   0.96024   0.96986   0.98853
 Alpha virt. eigenvalues --    0.99578   1.00431   1.01933   1.02281   1.02522
 Alpha virt. eigenvalues --    1.03190   1.05902   1.06517   1.08950   1.09289
 Alpha virt. eigenvalues --    1.11618   1.12768   1.14012   1.16352   1.19112
 Alpha virt. eigenvalues --    1.20605   1.21831   1.23068   1.25205   1.26887
 Alpha virt. eigenvalues --    1.30526   1.31417   1.31836   1.32456   1.34420
 Alpha virt. eigenvalues --    1.35764   1.36558   1.37613   1.39065   1.40622
 Alpha virt. eigenvalues --    1.43005   1.43678   1.45398   1.46759   1.48065
 Alpha virt. eigenvalues --    1.48830   1.49663   1.50337   1.50607   1.51371
 Alpha virt. eigenvalues --    1.53387   1.53989   1.57828   1.59494   1.60064
 Alpha virt. eigenvalues --    1.65439   1.68572   1.72261   1.74160   1.75139
 Alpha virt. eigenvalues --    1.75237   1.75640   1.76722   1.79170   1.80238
 Alpha virt. eigenvalues --    1.81867   1.82196   1.83403   1.84185   1.85105
 Alpha virt. eigenvalues --    1.87203   1.88740   1.89853   1.91538   1.95560
 Alpha virt. eigenvalues --    1.96443   1.96993   1.98099   2.00727   2.01526
 Alpha virt. eigenvalues --    2.03130   2.03340   2.03901   2.05293   2.06440
 Alpha virt. eigenvalues --    2.07029   2.07394   2.10225   2.11532   2.13318
 Alpha virt. eigenvalues --    2.16340   2.17910   2.19887   2.20599   2.23686
 Alpha virt. eigenvalues --    2.24265   2.25213   2.26472   2.26818   2.27342
 Alpha virt. eigenvalues --    2.29049   2.30391   2.31492   2.32745   2.35448
 Alpha virt. eigenvalues --    2.36248   2.36761   2.37726   2.39462   2.42660
 Alpha virt. eigenvalues --    2.43804   2.45520   2.48977   2.50293   2.51658
 Alpha virt. eigenvalues --    2.54319   2.56724   2.57073   2.57891   2.60734
 Alpha virt. eigenvalues --    2.62113   2.64898   2.65621   2.66996   2.69623
 Alpha virt. eigenvalues --    2.70282   2.74422   2.75259   2.76729   2.78359
 Alpha virt. eigenvalues --    2.81459   2.83852   2.86132   2.90864   2.92992
 Alpha virt. eigenvalues --    2.96134   2.98593   3.02963   3.14471   3.18646
 Alpha virt. eigenvalues --    3.22884   3.30234   3.40594   3.46470   3.89540
 Alpha virt. eigenvalues --    4.00803   4.05870   4.07735   4.08876   4.10680
 Alpha virt. eigenvalues --    4.12589   4.13364   4.20667   4.22733   4.22965
 Alpha virt. eigenvalues --    4.27400   4.28309   4.32213   4.41727   4.45163
 Alpha virt. eigenvalues --    4.53979   4.64228   4.71700   4.83906
          Condensed to atoms (all electrons):
              1          2          3          4          5          6
     1  C    4.899402   0.226317  -0.031453   0.004521  -0.000101   0.000088
     2  O    0.226317   8.169844   0.313437  -0.078649   0.001214  -0.000202
     3  C   -0.031453   0.313437   4.337221   0.440485  -0.043958  -0.030765
     4  N    0.004521  -0.078649   0.440485   6.907015   0.453464  -0.076560
     5  C   -0.000101   0.001214  -0.043958   0.453464   4.359444   0.407309
     6  N    0.000088  -0.000202  -0.030765  -0.076560   0.407309   7.024986
     7  C    0.000593   0.001727  -0.041859  -0.032228  -0.041513   0.390051
     8  N   -0.008451  -0.080021   0.384308  -0.072729  -0.032507  -0.074974
     9  O   -0.000016  -0.000010   0.001222  -0.000196   0.001193  -0.082272
    10  C    0.000000   0.000001  -0.000072   0.000082   0.000587  -0.007667
    11  O    0.000000  -0.000006   0.002061  -0.078281   0.276480  -0.077789
    12  C    0.000000  -0.000001   0.000046   0.000661  -0.019314  -0.002520
    13  C   -0.000000   0.000000   0.000110  -0.000047  -0.002957  -0.000629
    14  C    0.000000   0.000000  -0.000001  -0.000008  -0.000223  -0.000656
    15  C   -0.000000  -0.000000   0.000000   0.000000   0.000035   0.000028
    16  C   -0.000000   0.000000  -0.000000   0.000003   0.000057  -0.000041
    17  C    0.000000  -0.000000   0.000002  -0.000196  -0.000020  -0.000966
    18  C    0.000000   0.000000   0.000000  -0.000025  -0.000044   0.000031
    19  C    0.000000  -0.000000  -0.000000  -0.000000   0.000000   0.000000
    20  O   -0.000000   0.000000   0.000000  -0.000000   0.000000  -0.000000
    21  H    0.375004  -0.030292   0.004162  -0.000006   0.000002   0.000001
    22  H    0.372625  -0.030551  -0.008335  -0.000060   0.000059  -0.000016
    23  H    0.375320  -0.031701  -0.007403  -0.000186   0.000042  -0.000006
    24  H   -0.000000  -0.000000   0.000003   0.000001  -0.000005   0.001010
    25  H   -0.000000   0.000000   0.000050  -0.000023  -0.000084   0.005134
    26  H   -0.000000   0.000000   0.000046  -0.000009  -0.000088   0.006434
    27  H    0.000000  -0.000000   0.000146  -0.000327   0.006279   0.001190
    28  H    0.000000   0.000000   0.000000  -0.000000  -0.000010  -0.000008
    29  H    0.000000  -0.000000   0.000000  -0.000000   0.000000  -0.000000
    30  H   -0.000000   0.000000   0.000000  -0.000000  -0.000001   0.000001
    31  H    0.000000   0.000000   0.000000   0.000000  -0.000034   0.000003
    32  H   -0.000000   0.000000  -0.000001   0.000011   0.000621  -0.000062
    33  H    0.000000  -0.000000   0.000000  -0.000000   0.000000  -0.000000
              7          8          9         10         11         12
     1  C    0.000593  -0.008451  -0.000016   0.000000   0.000000   0.000000
     2  O    0.001727  -0.080021  -0.000010   0.000001  -0.000006  -0.000001
     3  C   -0.041859   0.384308   0.001222  -0.000072   0.002061   0.000046
     4  N   -0.032228  -0.072729  -0.000196   0.000082  -0.078281   0.000661
     5  C   -0.041513  -0.032507   0.001193   0.000587   0.276480  -0.019314
     6  N    0.390051  -0.074974  -0.082272  -0.007667  -0.077789  -0.002520
     7  C    4.305167   0.466418   0.309380  -0.031502   0.001275   0.000518
     8  N    0.466418   6.972545  -0.080569   0.004517  -0.000179   0.000061
     9  O    0.309380  -0.080569   8.182377   0.224131  -0.000014   0.000005
    10  C   -0.031502   0.004517   0.224131   4.905355  -0.000010  -0.000046
    11  O    0.001275  -0.000179  -0.000014  -0.000010   8.290682   0.240860
    12  C    0.000518   0.000061   0.000005  -0.000046   0.240860   4.624086
    13  C   -0.000420  -0.000048   0.000030  -0.000505  -0.059805   0.455764
    14  C   -0.000001  -0.000000   0.000001  -0.000120   0.004067  -0.010412
    15  C   -0.000000   0.000000  -0.000000  -0.000002  -0.000103  -0.037935
    16  C    0.000001  -0.000000  -0.000000   0.000001   0.003833  -0.010360
    17  C   -0.000006  -0.000000   0.000000   0.000005  -0.061408   0.525022
    18  C   -0.000002   0.000000   0.000000   0.000000  -0.006460  -0.059351
    19  C   -0.000000   0.000000  -0.000000   0.000000   0.000000   0.000422
    20  O   -0.000000  -0.000000   0.000000   0.000000  -0.000000  -0.000013
    21  H   -0.000004   0.000953  -0.000000   0.000000  -0.000000  -0.000000
    22  H    0.000059   0.007974  -0.000003  -0.000000   0.000000   0.000000
    23  H   -0.000031   0.005799   0.000002  -0.000000   0.000000   0.000000
    24  H    0.004091  -0.000011  -0.029685   0.374616  -0.000000  -0.000000
    25  H   -0.007209  -0.000061  -0.031044   0.371912  -0.000002   0.000035
    26  H   -0.009045  -0.000190  -0.030673   0.375082  -0.000004   0.000052
    27  H    0.000085  -0.000050  -0.000034  -0.000026  -0.006627  -0.036315
    28  H   -0.000002  -0.000000   0.000000  -0.000003  -0.000040   0.002907
    29  H   -0.000000  -0.000000  -0.000000  -0.000000  -0.000042   0.004633
    30  H   -0.000000   0.000000   0.000000  -0.000000   0.000258   0.003869
    31  H    0.000000  -0.000000   0.000000   0.000000   0.000817  -0.003802
    32  H    0.000002   0.000000  -0.000000  -0.000000   0.006018  -0.004785
    33  H   -0.000000  -0.000000   0.000000  -0.000000  -0.000000  -0.000052
             13         14         15         16         17         18
     1  C   -0.000000   0.000000  -0.000000  -0.000000   0.000000   0.000000
     2  O    0.000000   0.000000  -0.000000   0.000000  -0.000000   0.000000
     3  C    0.000110  -0.000001   0.000000  -0.000000   0.000002   0.000000
     4  N   -0.000047  -0.000008   0.000000   0.000003  -0.000196  -0.000025
     5  C   -0.002957  -0.000223   0.000035   0.000057  -0.000020  -0.000044
     6  N   -0.000629  -0.000656   0.000028  -0.000041  -0.000966   0.000031
     7  C   -0.000420  -0.000001  -0.000000   0.000001  -0.000006  -0.000002
     8  N   -0.000048  -0.000000   0.000000  -0.000000  -0.000000   0.000000
     9  O    0.000030   0.000001  -0.000000  -0.000000   0.000000   0.000000
    10  C   -0.000505  -0.000120  -0.000002   0.000001   0.000005   0.000000
    11  O   -0.059805   0.004067  -0.000103   0.003833  -0.061408  -0.006460
    12  C    0.455764  -0.010412  -0.037935  -0.010360   0.525022  -0.059351
    13  C    5.088939   0.459702  -0.017757  -0.053282  -0.054703   0.009129
    14  C    0.459702   5.024960   0.493651  -0.066616  -0.029589   0.000123
    15  C   -0.017757   0.493651   5.021511   0.459397  -0.012373   0.006328
    16  C   -0.053282  -0.066616   0.459397   5.125864   0.507377  -0.062562
    17  C   -0.054703  -0.029589  -0.012373   0.507377   4.785680   0.342585
    18  C    0.009129   0.000123   0.006328  -0.062562   0.342585   5.202082
    19  C    0.007507  -0.037436   0.270978  -0.026833   0.003887  -0.000161
    20  O    0.001050   0.004221  -0.084680   0.003363  -0.000088   0.000000
    21  H    0.000000   0.000000  -0.000000   0.000000  -0.000000  -0.000000
    22  H   -0.000000  -0.000000   0.000000  -0.000000  -0.000000   0.000000
    23  H    0.000000   0.000000  -0.000000   0.000000   0.000000   0.000000
    24  H    0.000006   0.000000   0.000000  -0.000000  -0.000000  -0.000000
    25  H    0.001692   0.000590   0.000007  -0.000005  -0.000012  -0.000000
    26  H    0.000041  -0.000001  -0.000000  -0.000001   0.000004  -0.000000
    27  H    0.349632  -0.036166   0.003141   0.000966   0.003860  -0.000147
    28  H   -0.038440   0.351675  -0.036934   0.006151   0.000466   0.000009
    29  H   -0.000031   0.006276  -0.046959   0.352392  -0.041770  -0.008945
    30  H   -0.000144   0.000009   0.000165  -0.004134  -0.029128   0.363591
    31  H   -0.000209   0.000046  -0.000181  -0.001692  -0.025970   0.367275
    32  H    0.000198  -0.000017  -0.000117   0.002807  -0.027545   0.365782
    33  H    0.000022   0.008991  -0.120012   0.000378  -0.000023   0.000009
             19         20         21         22         23         24
     1  C    0.000000  -0.000000   0.375004   0.372625   0.375320  -0.000000
     2  O   -0.000000   0.000000  -0.030292  -0.030551  -0.031701  -0.000000
     3  C   -0.000000   0.000000   0.004162  -0.008335  -0.007403   0.000003
     4  N   -0.000000  -0.000000  -0.000006  -0.000060  -0.000186   0.000001
     5  C    0.000000   0.000000   0.000002   0.000059   0.000042  -0.000005
     6  N    0.000000  -0.000000   0.000001  -0.000016  -0.000006   0.001010
     7  C   -0.000000  -0.000000  -0.000004   0.000059  -0.000031   0.004091
     8  N    0.000000  -0.000000   0.000953   0.007974   0.005799  -0.000011
     9  O   -0.000000   0.000000  -0.000000  -0.000003   0.000002  -0.029685
    10  C    0.000000   0.000000   0.000000  -0.000000  -0.000000   0.374616
    11  O    0.000000  -0.000000  -0.000000   0.000000   0.000000  -0.000000
    12  C    0.000422  -0.000013  -0.000000   0.000000   0.000000  -0.000000
    13  C    0.007507   0.001050   0.000000  -0.000000   0.000000   0.000006
    14  C   -0.037436   0.004221   0.000000  -0.000000   0.000000   0.000000
    15  C    0.270978  -0.084680  -0.000000   0.000000  -0.000000   0.000000
    16  C   -0.026833   0.003363   0.000000  -0.000000   0.000000  -0.000000
    17  C    0.003887  -0.000088  -0.000000  -0.000000   0.000000  -0.000000
    18  C   -0.000161   0.000000  -0.000000   0.000000   0.000000  -0.000000
    19  C    4.714431   0.544840  -0.000000   0.000000   0.000000  -0.000000
    20  O    0.544840   7.987733   0.000000  -0.000000  -0.000000  -0.000000
    21  H   -0.000000   0.000000   0.550598  -0.033420  -0.034612  -0.000000
    22  H    0.000000  -0.000000  -0.033420   0.556456  -0.035247  -0.000000
    23  H    0.000000  -0.000000  -0.034612  -0.035247   0.558328   0.000000
    24  H   -0.000000  -0.000000  -0.000000  -0.000000   0.000000   0.548252
    25  H   -0.000001  -0.000000  -0.000000   0.000000  -0.000000  -0.033553
    26  H   -0.000000   0.000000  -0.000000  -0.000000   0.000000  -0.033667
    27  H   -0.000145   0.000004  -0.000000   0.000000  -0.000000  -0.000001
    28  H   -0.008961   0.014489   0.000000  -0.000000   0.000000  -0.000000
    29  H   -0.006082   0.000075   0.000000   0.000000  -0.000000  -0.000000
    30  H   -0.000004   0.000000  -0.000000  -0.000000  -0.000000   0.000000
    31  H    0.000002  -0.000000   0.000000  -0.000000   0.000000  -0.000000
    32  H    0.000002  -0.000000  -0.000000   0.000000  -0.000000   0.000000
    33  H    0.346153  -0.056118  -0.000000   0.000000   0.000000  -0.000000
             25         26         27         28         29         30
     1  C   -0.000000  -0.000000   0.000000   0.000000   0.000000  -0.000000
     2  O    0.000000   0.000000  -0.000000   0.000000  -0.000000   0.000000
     3  C    0.000050   0.000046   0.000146   0.000000   0.000000   0.000000
     4  N   -0.000023  -0.000009  -0.000327  -0.000000  -0.000000  -0.000000
     5  C   -0.000084  -0.000088   0.006279  -0.000010   0.000000  -0.000001
     6  N    0.005134   0.006434   0.001190  -0.000008  -0.000000   0.000001
     7  C   -0.007209  -0.009045   0.000085  -0.000002  -0.000000  -0.000000
     8  N   -0.000061  -0.000190  -0.000050  -0.000000  -0.000000   0.000000
     9  O   -0.031044  -0.030673  -0.000034   0.000000  -0.000000   0.000000
    10  C    0.371912   0.375082  -0.000026  -0.000003  -0.000000  -0.000000
    11  O   -0.000002  -0.000004  -0.006627  -0.000040  -0.000042   0.000258
    12  C    0.000035   0.000052  -0.036315   0.002907   0.004633   0.003869
    13  C    0.001692   0.000041   0.349632  -0.038440  -0.000031  -0.000144
    14  C    0.000590  -0.000001  -0.036166   0.351675   0.006276   0.000009
    15  C    0.000007  -0.000000   0.003141  -0.036934  -0.046959   0.000165
    16  C   -0.000005  -0.000001   0.000966   0.006151   0.352392  -0.004134
    17  C   -0.000012   0.000004   0.003860   0.000466  -0.041770  -0.029128
    18  C   -0.000000  -0.000000  -0.000147   0.000009  -0.008945   0.363591
    19  C   -0.000001  -0.000000  -0.000145  -0.008961  -0.006082  -0.000004
    20  O   -0.000000   0.000000   0.000004   0.014489   0.000075   0.000000
    21  H   -0.000000  -0.000000  -0.000000   0.000000   0.000000  -0.000000
    22  H    0.000000  -0.000000   0.000000  -0.000000   0.000000  -0.000000
    23  H   -0.000000   0.000000  -0.000000   0.000000  -0.000000  -0.000000
    24  H   -0.033553  -0.033667  -0.000001  -0.000000  -0.000000   0.000000
    25  H    0.557603  -0.035225   0.000421   0.000037   0.000000   0.000000
    26  H   -0.035225   0.555806  -0.000001  -0.000000   0.000000  -0.000000
    27  H    0.000421  -0.000001   0.571726  -0.004491   0.000016   0.000002
    28  H    0.000037  -0.000000  -0.004491   0.545628  -0.000140   0.000000
    29  H    0.000000   0.000000   0.000016  -0.000140   0.585937   0.005655
    30  H    0.000000  -0.000000   0.000002   0.000000   0.005655   0.560334
    31  H   -0.000000   0.000000   0.000002  -0.000000   0.000452  -0.028501
    32  H    0.000000   0.000000  -0.000001  -0.000000   0.000008  -0.028522
    33  H   -0.000000   0.000000   0.000003   0.000583   0.008995   0.000001
             31         32         33
     1  C    0.000000  -0.000000   0.000000
     2  O    0.000000   0.000000  -0.000000
     3  C    0.000000  -0.000001   0.000000
     4  N    0.000000   0.000011  -0.000000
     5  C   -0.000034   0.000621   0.000000
     6  N    0.000003  -0.000062  -0.000000
     7  C    0.000000   0.000002  -0.000000
     8  N   -0.000000   0.000000  -0.000000
     9  O    0.000000  -0.000000   0.000000
    10  C    0.000000  -0.000000  -0.000000
    11  O    0.000817   0.006018  -0.000000
    12  C   -0.003802  -0.004785  -0.000052
    13  C   -0.000209   0.000198   0.000022
    14  C    0.000046  -0.000017   0.008991
    15  C   -0.000181  -0.000117  -0.120012
    16  C   -0.001692   0.002807   0.000378
    17  C   -0.025970  -0.027545  -0.000023
    18  C    0.367275   0.365782   0.000009
    19  C    0.000002   0.000002   0.346153
    20  O   -0.000000  -0.000000  -0.056118
    21  H    0.000000  -0.000000  -0.000000
    22  H   -0.000000   0.000000   0.000000
    23  H    0.000000  -0.000000   0.000000
    24  H   -0.000000   0.000000  -0.000000
    25  H   -0.000000   0.000000  -0.000000
    26  H    0.000000   0.000000   0.000000
    27  H    0.000002  -0.000001   0.000003
    28  H   -0.000000  -0.000000   0.000583
    29  H    0.000452   0.000008   0.008995
    30  H   -0.028501  -0.028522   0.000001
    31  H    0.540328  -0.026642  -0.000000
    32  H   -0.026642   0.539988  -0.000000
    33  H   -0.000000  -0.000000   0.702069
 Mulliken atomic charges:
              1
     1  C   -0.213850
     2  O   -0.461107
     3  C    0.680547
     4  N   -0.466713
     5  C    0.634074
     6  N   -0.481134
     7  C    0.684453
     8  N   -0.492783
     9  O   -0.463827
    10  C   -0.216338
    11  O   -0.535583
    12  C    0.325965
    13  C   -0.144844
    14  C   -0.173067
    15  C    0.101811
    16  C   -0.237062
    17  C    0.114909
    18  C   -0.519245
    19  C    0.191399
    20  O   -0.414876
    21  H    0.167614
    22  H    0.170459
    23  H    0.169694
    24  H    0.168944
    25  H    0.169736
    26  H    0.171440
    27  H    0.146858
    28  H    0.167084
    29  H    0.139532
    30  H    0.156548
    31  H    0.178108
    32  H    0.172254
    33  H    0.109000
 Sum of Mulliken atomic charges =  -0.00000
 Mulliken charges with hydrogens summed into heavy atoms:
              1
     1  C    0.293918
     2  O   -0.461107
     3  C    0.680547
     4  N   -0.466713
     5  C    0.634074
     6  N   -0.481134
     7  C    0.684453
     8  N   -0.492783
     9  O   -0.463827
    10  C    0.293781
    11  O   -0.535583
    12  C    0.325965
    13  C    0.002014
    14  C   -0.005984
    15  C    0.101811
    16  C   -0.097530
    17  C    0.114909
    18  C   -0.012335
    19  C    0.300399
    20  O   -0.414876
 Sum of Mulliken charges with hydrogens summed into heavy atoms =  -0.00000
 Electronic spatial extent (au):  <R**2>=           6959.6913
 Charge=              0.0000 electrons
 Dipole moment (field-independent basis, Debye):
    X=             -1.1735    Y=             -0.1682    Z=              1.8999  Tot=              2.2395
 Quadrupole moment (field-independent basis, Debye-Ang):
   XX=           -114.2494   YY=           -118.3335   ZZ=           -111.5729
   XY=            -15.1286   XZ=             11.6588   YZ=             -0.4499
 Traceless Quadrupole moment (field-independent basis, Debye-Ang):
   XX=              0.4692   YY=             -3.6149   ZZ=              3.1457
   XY=            -15.1286   XZ=             11.6588   YZ=             -0.4499
 Octapole moment (field-independent basis, Debye-Ang**2):
  XXX=           -145.9540  YYY=             17.7250  ZZZ=              3.6026  XYY=             -0.7642
  XXY=            -71.2290  XXZ=             28.2869  XZZ=            -23.1978  YZZ=              5.4763
  YYZ=             21.5998  XYZ=             20.0218
 Hexadecapole moment (field-independent basis, Debye-Ang**3):
 XXXX=          -6434.8378 YYYY=          -1545.4707 ZZZZ=           -628.7103 XXXY=           -331.5360
 XXXZ=            405.5551 YYYX=            -53.8538 YYYZ=             37.4868 ZZZX=             12.8030
 ZZZY=             11.6273 XXYY=          -1606.2555 XXZZ=          -1253.5676 YYZZ=           -357.4538
 XXYZ=             44.7837 YYXZ=             33.6256 ZZXY=            -22.6883
 N-N= 1.502454279908D+03 E-N=-5.261258502956D+03  KE= 9.594412515976D+02
 No NMR shielding tensors so no spin-rotation constants.
 Leave Link  601 at Tue Sep 28 15:36:29 2021, MaxMem= 1342177280 cpu:       2.0
 (Enter /sw/target/amd/app/gaussian/Gaussian09RevA.02_gcc-4.9.2/g09/l701.exe)
 Compute integral first derivatives.
 ... and contract with generalized density number  0.
 Leave Link  701 at Tue Sep 28 15:36:30 2021, MaxMem= 1342177280 cpu:       1.8
 (Enter /sw/target/amd/app/gaussian/Gaussian09RevA.02_gcc-4.9.2/g09/l702.exe)
 L702 exits ... SP integral derivatives will be done elsewhere.
 Leave Link  702 at Tue Sep 28 15:36:30 2021, MaxMem= 1342177280 cpu:       0.1
 (Enter /sw/target/amd/app/gaussian/Gaussian09RevA.02_gcc-4.9.2/g09/l703.exe)
 Compute integral first derivatives, UseDBF=F ICtDFT=           0.
 Integral derivatives from FoFDir, PRISM(SPDF).
 Calling FoFJK, ICntrl=      2127 FMM=F ISym2X=0 I1Cent= 0 IOpClX= 0 NMat=1 NMatS=1 NMatT=0.
 FoFCou: FMM=F IPFlag=           0 FMFlag=      100000 FMFlg1=         800
         NFxFlg=           0 DoJE=F BraDBF=F KetDBF=F FulRan=T
         Omega=  0.000000  0.000000  1.000000  0.000000  0.000000 ICntrl=    2127 IOpCl=  0
         NMat0=    1 NMatS0=    1 NMatT0=    0 NMatD0=    1 NMtDS0=    0 NMtDT0=    0
         I1Cent=           0 NGrid=           0.
 Symmetry not used in FoFCou.
 Leave Link  703 at Tue Sep 28 15:38:50 2021, MaxMem= 1342177280 cpu:     262.3
 (Enter /sw/target/amd/app/gaussian/Gaussian09RevA.02_gcc-4.9.2/g09/l716.exe)
 Dipole        =-4.61708586D-01-6.61923480D-02 7.47483027D-01
 ***** Axes restored to original set *****
 -------------------------------------------------------------------
 Center     Atomic                   Forces (Hartrees/Bohr)
 Number     Number              X              Y              Z
 -------------------------------------------------------------------
      1        6           0.013713450    0.005390595   -0.010829638
      2        8          -0.009935549   -0.026739478    0.025434592
      3        6           0.007526924    0.021319005   -0.018742554
      4        7          -0.018781057    0.002702103    0.004583550
      5        6          -0.008934126    0.006484561   -0.003780141
[...]
    63    C    5  S      Ryd( 3S)     0.00203
    64    C    5  S      Ryd( 4S)     0.00041
    65    C    5  px     Val( 2p)     0.77978
    66    C    5  px     Ryd( 3p)     0.00650
    67    C    5  py     Val( 2p)     0.81673
    68    C    5  py     Ryd( 3p)     0.01646
    69    C    5  pz     Val( 2p)     0.85318
    70    C    5  pz     Ryd( 3p)     0.00199
    71    C    5  dxy    Ryd( 3d)     0.00279
    72    C    5  dxz    Ryd( 3d)     0.00237
    73    C    5  dyz    Ryd( 3d)     0.00176
    74    C    5  dx2y2  Ryd( 3d)     0.00199
    75    C    5  dz2    Ryd( 3d)     0.00055

    76    N    6  S      Cor( 1S)     1.99925
    77    N    6  S      Val( 2S)     1.39396
    78    N    6  S      Ryd( 3S)     0.00084
    79    N    6  S      Ryd( 4S)     0.00008
    80    N    6  px     Val( 2p)     1.57528
    81    N    6  px     Ryd( 3p)     0.00193
    82    N    6  py     Val( 2p)     1.31048
    83    N    6  py     Ryd( 3p)     0.00194
    84    N    6  pz     Val( 2p)     1.34158
    85    N    6  pz     Ryd( 3p)     0.00078
    86    N    6  dxy    Ryd( 3d)     0.00340
    87    N    6  dxz    Ryd( 3d)     0.00316
    88    N    6  dyz    Ryd( 3d)     0.00093
    89    N    6  dx2y2  Ryd( 3d)     0.00360
    90    N    6  dz2    Ryd( 3d)     0.00226

    91    C    7  S      Cor( 1S)     1.99922
    92    C    7  S      Val( 2S)     0.74028
    93    C    7  S      Ryd( 3S)     0.00218
    94    C    7  S      Ryd( 4S)     0.00039
    95    C    7  px     Val( 2p)     0.86593
    96    C    7  px     Ryd( 3p)     0.01625
    97    C    7  py     Val( 2p)     0.73786
    98    C    7  py     Ryd( 3p)     0.00644
    99    C    7  pz     Val( 2p)     0.84371
   100    C    7  pz     Ryd( 3p)     0.00110
   101    C    7  dxy    Ryd( 3d)     0.00192
   102    C    7  dxz    Ryd( 3d)     0.00165
   103    C    7  dyz    Ryd( 3d)     0.00250
   104    C    7  dx2y2  Ryd( 3d)     0.00292
   105    C    7  dz2    Ryd( 3d)     0.00057

   106    N    8  S      Cor( 1S)     1.99926
   107    N    8  S      Val( 2S)     1.39111
   108    N    8  S      Ryd( 3S)     0.00087
   109    N    8  S      Ryd( 4S)     0.00005
   110    N    8  px     Val( 2p)     1.51880
   111    N    8  px     Ryd( 3p)     0.00293
   112    N    8  py     Val( 2p)     1.35765
   113    N    8  py     Ryd( 3p)     0.00248
   114    N    8  pz     Val( 2p)     1.32434
   115    N    8  pz     Ryd( 3p)     0.00089
   116    N    8  dxy    Ryd( 3d)     0.00340
   117    N    8  dxz    Ryd( 3d)     0.00265
   118    N    8  dyz    Ryd( 3d)     0.00156
   119    N    8  dx2y2  Ryd( 3d)     0.00370
   120    N    8  dz2    Ryd( 3d)     0.00226

   121    O    9  S      Cor( 1S)     1.99972
   122    O    9  S      Val( 2S)     1.59608
   123    O    9  S      Ryd( 3S)     0.00140
   124    O    9  S      Ryd( 4S)     0.00007
   125    O    9  px     Val( 2p)     1.61551
   126    O    9  px     Ryd( 3p)     0.00138
   127    O    9  py     Val( 2p)     1.50028
   128    O    9  py     Ryd( 3p)     0.00127
   129    O    9  pz     Val( 2p)     1.77718
   130    O    9  pz     Ryd( 3p)     0.00203
   131    O    9  dxy    Ryd( 3d)     0.00129
   132    O    9  dxz    Ryd( 3d)     0.00109
   133    O    9  dyz    Ryd( 3d)     0.00118
   134    O    9  dx2y2  Ryd( 3d)     0.00143
   135    O    9  dz2    Ryd( 3d)     0.00081

   136    C   10  S      Cor( 1S)     1.99941
   137    C   10  S      Val( 2S)     1.11113
   138    C   10  S      Ryd( 3S)     0.00145
   139    C   10  S      Ryd( 4S)     0.00003
   140    C   10  px     Val( 2p)     0.82796
   141    C   10  px     Ryd( 3p)     0.00306
   142    C   10  py     Val( 2p)     1.13157
   143    C   10  py     Ryd( 3p)     0.00253
   144    C   10  pz     Val( 2p)     1.23721
   145    C   10  pz     Ryd( 3p)     0.00032
   146    C   10  dxy    Ryd( 3d)     0.00136
   147    C   10  dxz    Ryd( 3d)     0.00170
   148    C   10  dyz    Ryd( 3d)     0.00056
   149    C   10  dx2y2  Ryd( 3d)     0.00158
   150    C   10  dz2    Ryd( 3d)     0.00107

   151    O   11  S      Cor( 1S)     1.99968
   152    O   11  S      Val( 2S)     1.57057
   153    O   11  S      Ryd( 3S)     0.00108
   154    O   11  S      Ryd( 4S)     0.00011
   155    O   11  px     Val( 2p)     1.38246
   156    O   11  px     Ryd( 3p)     0.00074
   157    O   11  py     Val( 2p)     1.72905
   158    O   11  py     Ryd( 3p)     0.00175
   159    O   11  pz     Val( 2p)     1.80674
   160    O   11  pz     Ryd( 3p)     0.00247
   161    O   11  dxy    Ryd( 3d)     0.00140
   162    O   11  dxz    Ryd( 3d)     0.00033
   163    O   11  dyz    Ryd( 3d)     0.00182
   164    O   11  dx2y2  Ryd( 3d)     0.00141
   165    O   11  dz2    Ryd( 3d)     0.00088

   166    C   12  S      Cor( 1S)     1.99863
   167    C   12  S      Val( 2S)     0.82780
   168    C   12  S      Ryd( 3S)     0.00148
   169    C   12  S      Ryd( 4S)     0.00012
   170    C   12  px     Val( 2p)     0.78048
   171    C   12  px     Ryd( 3p)     0.00737
   172    C   12  py     Val( 2p)     1.01881
   173    C   12  py     Ryd( 3p)     0.00429
   174    C   12  pz     Val( 2p)     1.07978
   175    C   12  pz     Ryd( 3p)     0.00396
   176    C   12  dxy    Ryd( 3d)     0.00121
   177    C   12  dxz    Ryd( 3d)     0.00133
   178    C   12  dyz    Ryd( 3d)     0.00071
   179    C   12  dx2y2  Ryd( 3d)     0.00117
   180    C   12  dz2    Ryd( 3d)     0.00102

   181    C   13  S      Cor( 1S)     1.99899
   182    C   13  S      Val( 2S)     0.96064
   183    C   13  S      Ryd( 3S)     0.00084
   184    C   13  S      Ryd( 4S)     0.00006
   185    C   13  px     Val( 2p)     1.09157
   186    C   13  px     Ryd( 3p)     0.00443
   187    C   13  py     Val( 2p)     1.00541
   188    C   13  py     Ryd( 3p)     0.00106
   189    C   13  pz     Val( 2p)     1.16971
   190    C   13  pz     Ryd( 3p)     0.00462
   191    C   13  dxy    Ryd( 3d)     0.00052
   192    C   13  dxz    Ryd( 3d)     0.00079
   193    C   13  dyz    Ryd( 3d)     0.00047
   194    C   13  dx2y2  Ryd( 3d)     0.00054
   195    C   13  dz2    Ryd( 3d)     0.00063

   196    C   14  S      Cor( 1S)     1.99903
   197    C   14  S      Val( 2S)     0.94379
   198    C   14  S      Ryd( 3S)     0.00056
   199    C   14  S      Ryd( 4S)     0.00004
   200    C   14  px     Val( 2p)     1.08834
   201    C   14  px     Ryd( 3p)     0.00402
   202    C   14  py     Val( 2p)     1.05084
   203    C   14  py     Ryd( 3p)     0.00257
   204    C   14  pz     Val( 2p)     1.13920
   205    C   14  pz     Ryd( 3p)     0.00450
   206    C   14  dxy    Ryd( 3d)     0.00052
   207    C   14  dxz    Ryd( 3d)     0.00076
   208    C   14  dyz    Ryd( 3d)     0.00044
   209    C   14  dx2y2  Ryd( 3d)     0.00046
   210    C   14  dz2    Ryd( 3d)     0.00059

   211    C   15  S      Cor( 1S)     1.99891
   212    C   15  S      Val( 2S)     0.89043
   213    C   15  S      Ryd( 3S)     0.00039
   214    C   15  S      Ryd( 4S)     0.00004
   215    C   15  px     Val( 2p)     1.03566
   216    C   15  px     Ryd( 3p)     0.00463
   217    C   15  py     Val( 2p)     1.11342
   218    C   15  py     Ryd( 3p)     0.00198
   219    C   15  pz     Val( 2p)     1.11514
   220    C   15  pz     Ryd( 3p)     0.00574
   221    C   15  dxy    Ryd( 3d)     0.00076
   222    C   15  dxz    Ryd( 3d)     0.00058
   223    C   15  dyz    Ryd( 3d)     0.00063
   224    C   15  dx2y2  Ryd( 3d)     0.00067
   225    C   15  dz2    Ryd( 3d)     0.00064

   226    C   16  S      Cor( 1S)     1.99898
   227    C   16  S      Val( 2S)     0.93349
   228    C   16  S      Ryd( 3S)     0.00052
   229    C   16  S      Ryd( 4S)     0.00005
   230    C   16  px     Val( 2p)     1.08356
   231    C   16  px     Ryd( 3p)     0.00290
   232    C   16  py     Val( 2p)     1.03558
   233    C   16  py     Ryd( 3p)     0.00123
   234    C   16  pz     Val( 2p)     1.15132
   235    C   16  pz     Ryd( 3p)     0.00411
   236    C   16  dxy    Ryd( 3d)     0.00051
   237    C   16  dxz    Ryd( 3d)     0.00082
   238    C   16  dyz    Ryd( 3d)     0.00035
   239    C   16  dx2y2  Ryd( 3d)     0.00052
   240    C   16  dz2    Ryd( 3d)     0.00061

   241    C   17  S      Cor( 1S)     1.99893
   242    C   17  S      Val( 2S)     0.88324
   243    C   17  S      Ryd( 3S)     0.00063
   244    C   17  S      Ryd( 4S)     0.00006
   245    C   17  px     Val( 2p)     1.07266
   246    C   17  px     Ryd( 3p)     0.00402
   247    C   17  py     Val( 2p)     1.00522
   248    C   17  py     Ryd( 3p)     0.00209
   249    C   17  pz     Val( 2p)     1.07630
   250    C   17  pz     Ryd( 3p)     0.00468
   251    C   17  dxy    Ryd( 3d)     0.00064
   252    C   17  dxz    Ryd( 3d)     0.00066
   253    C   17  dyz    Ryd( 3d)     0.00061
   254    C   17  dx2y2  Ryd( 3d)     0.00053
   255    C   17  dz2    Ryd( 3d)     0.00069

   256    C   18  S      Cor( 1S)     1.99939
   257    C   18  S      Val( 2S)     1.09454
   258    C   18  S      Ryd( 3S)     0.00025
   259    C   18  S      Ryd( 4S)     0.00001
   260    C   18  px     Val( 2p)     1.21585
   261    C   18  px     Ryd( 3p)     0.00196
   262    C   18  py     Val( 2p)     1.24141
   263    C   18  py     Ryd( 3p)     0.00045
   264    C   18  pz     Val( 2p)     1.13055
   265    C   18  pz     Ryd( 3p)     0.00189
   266    C   18  dxy    Ryd( 3d)     0.00093
   267    C   18  dxz    Ryd( 3d)     0.00092
   268    C   18  dyz    Ryd( 3d)     0.00032
   269    C   18  dx2y2  Ryd( 3d)     0.00042
   270    C   18  dz2    Ryd( 3d)     0.00067

   271    C   19  S      Cor( 1S)     1.99936
   272    C   19  S      Val( 2S)     0.92367
   273    C   19  S      Ryd( 3S)     0.00628
   274    C   19  S      Ryd( 4S)     0.00018
   275    C   19  px     Val( 2p)     0.95438
   276    C   19  px     Ryd( 3p)     0.00580
   277    C   19  py     Val( 2p)     0.97030
   278    C   19  py     Ryd( 3p)     0.00537
   279    C   19  pz     Val( 2p)     0.95762
   280    C   19  pz     Ryd( 3p)     0.00938
   281    C   19  dxy    Ryd( 3d)     0.00097
   282    C   19  dxz    Ryd( 3d)     0.00139
   283    C   19  dyz    Ryd( 3d)     0.00093
   284    C   19  dx2y2  Ryd( 3d)     0.00101
   285    C   19  dz2    Ryd( 3d)     0.00113

   286    O   20  S      Cor( 1S)     1.99983
   287    O   20  S      Val( 2S)     1.71074
   288    O   20  S      Ryd( 3S)     0.00042
   289    O   20  S      Ryd( 4S)     0.00003
   290    O   20  px     Val( 2p)     1.35197
   291    O   20  px     Ryd( 3p)     0.00153
   292    O   20  py     Val( 2p)     1.73717
   293    O   20  py     Ryd( 3p)     0.00315
   294    O   20  pz     Val( 2p)     1.42247
   295    O   20  pz     Ryd( 3p)     0.00100
   296    O   20  dxy    Ryd( 3d)     0.00161
   297    O   20  dxz    Ryd( 3d)     0.00403
   298    O   20  dyz    Ryd( 3d)     0.00329
   299    O   20  dx2y2  Ryd( 3d)     0.00155
   300    O   20  dz2    Ryd( 3d)     0.00288

   301    H   21  S      Val( 1S)     0.77437
   302    H   21  S      Ryd( 2S)     0.00060

   303    H   22  S      Val( 1S)     0.77768
   304    H   22  S      Ryd( 2S)     0.00134

   305    H   23  S      Val( 1S)     0.77802
   306    H   23  S      Ryd( 2S)     0.00135

   307    H   24  S      Val( 1S)     0.77430
   308    H   24  S      Ryd( 2S)     0.00060

   309    H   25  S      Val( 1S)     0.77616
   310    H   25  S      Ryd( 2S)     0.00136

   311    H   26  S      Val( 1S)     0.77868
   312    H   26  S      Ryd( 2S)     0.00138

   313    H   27  S      Val( 1S)     0.74749
   314    H   27  S      Ryd( 2S)     0.00099

   315    H   28  S      Val( 1S)     0.75647
   316    H   28  S      Ryd( 2S)     0.00079

   317    H   29  S      Val( 1S)     0.77094
   318    H   29  S      Ryd( 2S)     0.00100

   319    H   30  S      Val( 1S)     0.76218
   320    H   30  S      Ryd( 2S)     0.00079

   321    H   31  S      Val( 1S)     0.74468
   322    H   31  S      Ryd( 2S)     0.00114

   323    H   32  S      Val( 1S)     0.75215
   324    H   32  S      Ryd( 2S)     0.00134

   325    H   33  S      Val( 1S)     0.73885
   326    H   33  S      Ryd( 2S)     0.00084

 WARNING:  1 low occupancy (<1.9990e) core orbital  found on  C   12
           1 low occupancy (<1.9990e) core orbital  found on  C   13
           1 low occupancy (<1.9990e) core orbital  found on  C   15
           1 low occupancy (<1.9990e) core orbital  found on  C   16
           1 low occupancy (<1.9990e) core orbital  found on  C   17


 Summary of Natural Population Analysis:                  
                                                          
                                       Natural Population 
                Natural  -----------------------------------------------
    Atom  No    Charge         Core      Valence    Rydberg      Total
 -----------------------------------------------------------------------
      C    1   -0.32084      1.99941     4.30774    0.01369     6.32084
      O    2   -0.49871      1.99972     6.48669    0.01230     8.49871
      C    3    0.76402      1.99921     3.19982    0.03696     5.23598
      N    4   -0.56210      1.99926     5.54071    0.02212     7.56210
      C    5    0.76779      1.99916     3.19620    0.03685     5.23221
      N    6   -0.63947      1.99925     5.62130    0.01893     7.63947
      C    7    0.77708      1.99922     3.18778    0.03592     5.22292
      N    8   -0.61195      1.99926     5.59190    0.02079     7.61195
      O    9   -0.50071      1.99972     6.48904    0.01195     8.50071
      C   10   -0.32091      1.99941     4.30787    0.01364     6.32091
      O   11   -0.50050      1.99968     6.48883    0.01199     8.50050
      C   12    0.27186      1.99863     3.70686    0.02265     5.72814
      C   13   -0.24028      1.99899     4.22733    0.01396     6.24028
      C   14   -0.23567      1.99903     4.22217    0.01447     6.23567
      C   15   -0.16962      1.99891     4.15465    0.01605     6.16962
      C   16   -0.21454      1.99898     4.20395    0.01161     6.21454
      C   17   -0.05097      1.99893     4.03742    0.01462     6.05097
      C   18   -0.68956      1.99939     4.68235    0.00782     6.68956
      C   19    0.16223      1.99936     3.80597    0.03244     5.83777
      O   20   -0.24167      1.99983     6.22236    0.01949     8.24167
      H   21    0.22503      0.00000     0.77437    0.00060     0.77497
      H   22    0.22097      0.00000     0.77768    0.00134     0.77903
      H   23    0.22063      0.00000     0.77802    0.00135     0.77937
      H   24    0.22511      0.00000     0.77430    0.00060     0.77489
      H   25    0.22249      0.00000     0.77616    0.00136     0.77751
      H   26    0.21994      0.00000     0.77868    0.00138     0.78006
      H   27    0.25152      0.00000     0.74749    0.00099     0.74848
      H   28    0.24274      0.00000     0.75647    0.00079     0.75726
      H   29    0.22807      0.00000     0.77094    0.00100     0.77193
      H   30    0.23703      0.00000     0.76218    0.00079     0.76297
      H   31    0.25418      0.00000     0.74468    0.00114     0.74582
      H   32    0.24651      0.00000     0.75215    0.00134     0.75349
      H   33    0.26031      0.00000     0.73885    0.00084     0.73969
 =======================================================================
   * Total *   -0.00000     39.98534   103.61291    0.40175   144.00000

                                 Natural Population      
 --------------------------------------------------------
   Core                      39.98534 ( 99.9634% of  40)
   Valence                  103.61291 ( 99.6278% of 104)
   Natural Minimal Basis    143.59825 ( 99.7210% of 144)
   Natural Rydberg Basis      0.40175 (  0.2790% of 144)
 --------------------------------------------------------

    Atom  No          Natural Electron Configuration
 ----------------------------------------------------------------------------
      C    1      [core]2S( 1.11)2p( 3.20)3p( 0.01)3d( 0.01)
      O    2      [core]2S( 1.60)2p( 4.89)3d( 0.01)
      C    3      [core]2S( 0.75)2p( 2.45)3p( 0.02)3d( 0.01)
      N    4      [core]2S( 1.39)2p( 4.15)3p( 0.01)3d( 0.01)
      C    5      [core]2S( 0.75)2p( 2.45)3p( 0.02)3d( 0.01)
      N    6      [core]2S( 1.39)2p( 4.23)3d( 0.01)
      C    7      [core]2S( 0.74)2p( 2.45)3p( 0.02)3d( 0.01)
      N    8      [core]2S( 1.39)2p( 4.20)3p( 0.01)3d( 0.01)
      O    9      [core]2S( 1.60)2p( 4.89)3d( 0.01)
      C   10      [core]2S( 1.11)2p( 3.20)3p( 0.01)3d( 0.01)
      O   11      [core]2S( 1.57)2p( 4.92)3d( 0.01)
      C   12      [core]2S( 0.83)2p( 2.88)3p( 0.02)3d( 0.01)
      C   13      [core]2S( 0.96)2p( 3.27)3p( 0.01)
      C   14      [core]2S( 0.94)2p( 3.28)3p( 0.01)
      C   15      [core]2S( 0.89)2p( 3.26)3p( 0.01)
      C   16      [core]2S( 0.93)2p( 3.27)3p( 0.01)
      C   17      [core]2S( 0.88)2p( 3.15)3p( 0.01)
      C   18      [core]2S( 1.09)2p( 3.59)
      C   19      [core]2S( 0.92)2p( 2.88)3S( 0.01)3p( 0.02)3d( 0.01)
      O   20      [core]2S( 1.71)2p( 4.51)3p( 0.01)3d( 0.01)
      H   21            1S( 0.77)
      H   22            1S( 0.78)
      H   23            1S( 0.78)
      H   24            1S( 0.77)
      H   25            1S( 0.78)
      H   26            1S( 0.78)
      H   27            1S( 0.75)
      H   28            1S( 0.76)
      H   29            1S( 0.77)
      H   30            1S( 0.76)
      H   31            1S( 0.74)
      H   32            1S( 0.75)
      H   33            1S( 0.74)


 NBO analysis skipped by request.
 Leave Link  607 at Wed Sep 29 03:28:56 2021, MaxMem= 1342177280 cpu:      24.2
 (Enter /sw/target/amd/app/gaussian/Gaussian09RevA.02_gcc-4.9.2/g09/l9999.exe)
 1\1\GINC-HERMITE\SP\RTD-B3LYP-FC\6-31G(d)\C13H13N3O4\JSCHLEINITZ\29-Se
 p-2021\0\\#p TD(NStates=10, Root=1) b3lyp/6-31G* volume pop=NPA densit
 y=current Geom=AllCheck Guess=Read\\COc1nc(nc(n1)OC)Oc1ccc(cc1C)C=O_co
 nf_0\\0,1\C,0,6.8870278005,4.4680326671,-4.8027734215\O,0,5.472451806,
 4.2259291385,-4.7574618488\C,0,5.0419923635,3.2256892192,-3.9924902048
 \N,0,3.7111238468,3.0597134905,-4.0052288203\C,0,3.3091229607,2.059687
 6256,-3.2370860152\N,0,4.071184545,1.2515094594,-2.4910033096\C,0,5.37
 53094267,1.5296635732,-2.5770528898\N,0,5.9298304291,2.5020025175,-3.3
 08015881\O,0,6.2434305182,0.7943137162,-1.8854364623\C,0,5.7207226393,
 -0.2787999616,-1.0867596319\O,0,1.9728437699,1.8677808399,-3.232106590
 8\C,0,1.4216244778,0.8294580629,-2.4784060476\C,0,1.1898169767,-0.3919
 21551,-3.111482136\C,0,0.5507796899,-1.4093757291,-2.4158107802\C,0,0.
 1413153405,-1.1915477544,-1.0925431645\C,0,0.3765215711,0.0485539539,-
 0.4856329436\C,0,1.0209576476,1.0882256348,-1.1608716506\C,0,1.2821021
 214,2.4251079015,-0.5156854333\C,0,-0.5425823865,-2.262508734,-0.33578
 07675\O,0,-0.7861818914,-3.3719348685,-0.7710822713\H,0,7.0048326747,5
 .314530736,-5.4799969154\H,0,7.4186847339,3.5926108524,-5.1841857214\H
 ,0,7.271302251,4.7130870005,-3.8093799249\H,0,6.5962619867,-0.74049730
 4,-0.6294147066\H,0,5.1853284589,-1.0007126141,-1.7084394834\H,0,5.042
 6966761,0.102682895,-0.3189620748\H,0,1.5092211269,-0.5206264829,-4.14
 07330124\H,0,0.3548353415,-2.3732447471,-2.8745826386\H,0,0.0464497711
 ,0.208780596,0.5394459522\H,0,0.7788941516,2.4945071215,0.4529736043\H
 ,0,0.9322181318,3.2482042424,-1.14776669\H,0,2.3555226347,2.5790549917
 ,-0.3501009509\H,0,-0.8333991475,-1.9832560317,0.7018115543\\Version=A
 M64L-G09RevA.02\State=1-A\HF=-968.3696654\RMSD=6.796e-09\Dipole=0.2806
 399,-0.546674,1.2186435\Quadrupole=0.2413324,-3.9272779,3.6859455,3.20
 72676,-8.0290452,-0.6331986\PG=C01 [X(C13H13N3O4)]\\@


 Spring appears, and we are once more children.
                                  -- Anonymous
 Job cpu time:  0 days  5 hours 30 minutes 50.1 seconds.
 File lengths (MBytes):  RWF=    353 Int=      0 D2E=      0 Chk=     48 Scr=      1
 Normal termination of Gaussian 09 at Wed Sep 29 03:29:00 2021.
