 Entering Gaussian System, Link 0=g09
 Input=C13H12O2_7ba9_conf_0.com
 Output=C13H12O2_7ba9_conf_0.log
 Initial command:
 /sw/target/amd/app/gaussian/Gaussian09RevA.02_gcc-4.9.2/g09/l1.exe /home/jschleinitz/gaussian/Gau-397245.inp -scrdir=/home/jschleinitz/gaussian/
 Entering Link 1 = /sw/target/amd/app/gaussian/Gaussian09RevA.02_gcc-4.9.2/g09/l1.exe PID=    397253.
  
 Copyright (c) 1988,1990,1992,1993,1995,1998,2003,2009, Gaussian, Inc.
                  All Rights Reserved.
  
 This is part of the Gaussian(R) 09 program.  It is based on
 the Gaussian(R) 03 system (copyright 2003, Gaussian, Inc.),
 the Gaussian(R) 98 system (copyright 1998, Gaussian, Inc.),
 the Gaussian(R) 94 system (copyright 1995, Gaussian, Inc.),
 the Gaussian 92(TM) system (copyright 1992, Gaussian, Inc.),
 the Gaussian 90(TM) system (copyright 1990, Gaussian, Inc.),
 the Gaussian 88(TM) system (copyright 1988, Gaussian, Inc.),
 the Gaussian 86(TM) system (copyright 1986, Carnegie Mellon
 University), and the Gaussian 82(TM) system (copyright 1983,
 Carnegie Mellon University). Gaussian is a federally registered
 trademark of Gaussian, Inc.
  
 This software contains proprietary and confidential information,
 including trade secrets, belonging to Gaussian, Inc.
  
 This software is provided under written license and may be
 used, copied, transmitted, or stored only in accord with that
 written license.
  
 The following legend is applicable only to US Government
 contracts under FAR:
  
                    RESTRICTED RIGHTS LEGEND
  
 Use, reproduction and disclosure by the US Government is
 subject to restrictions as set forth in subparagraphs (a)
 and (c) of the Commercial Computer Software - Restricted
 Rights clause in FAR 52.227-19.
  
 Gaussian, Inc.
 340 Quinnipiac St., Bldg. 40, Wallingford CT 06492
  
  
 ---------------------------------------------------------------
 Warning -- This program may not be used in any manner that
 competes with the business of Gaussian, Inc. or will provide
 assistance to any competitor of Gaussian, Inc.  The licensee
 of this program is prohibited from giving any competitor of
 Gaussian, Inc. access to this program.  By using this program,
 the user acknowledges that Gaussian, Inc. is engaged in the
 business of creating and licensing software in the field of
 computational chemistry and represents and warrants to the
 licensee that it is not a competitor of Gaussian, Inc. and that
 it will not use this program in any manner prohibited above.
 ---------------------------------------------------------------
  

 Cite this work as:
 Gaussian 09, Revision A.02,
 M. J. Frisch, G. W. Trucks, H. B. Schlegel, G. E. Scuseria, 
 M. A. Robb, J. R. Cheeseman, G. Scalmani, V. Barone, B. Mennucci, 
 G. A. Petersson, H. Nakatsuji, M. Caricato, X. Li, H. P. Hratchian, 
 A. F. Izmaylov, J. Bloino, G. Zheng, J. L. Sonnenberg, M. Hada, 
 M. Ehara, K. Toyota, R. Fukuda, J. Hasegawa, M. Ishida, T. Nakajima, 
 Y. Honda, O. Kitao, H. Nakai, T. Vreven, J. A. Montgomery, Jr., 
 J. E. Peralta, F. Ogliaro, M. Bearpark, J. J. Heyd, E. Brothers, 
 K. N. Kudin, V. N. Staroverov, R. Kobayashi, J. Normand, 
 K. Raghavachari, A. Rendell, J. C. Burant, S. S. Iyengar, J. Tomasi, 
 M. Cossi, N. Rega, J. M. Millam, M. Klene, J. E. Knox, J. B. Cross, 
 V. Bakken, C. Adamo, J. Jaramillo, R. Gomperts, R. E. Stratmann, 
 O. Yazyev, A. J. Austin, R. Cammi, C. Pomelli, J. W. Ochterski, 
 R. L. Martin, K. Morokuma, V. G. Zakrzewski, G. A. Voth, 
 P. Salvador, J. J. Dannenberg, S. Dapprich, A. D. Daniels, 
 O. Farkas, J. B. Foresman, J. V. Ortiz, J. Cioslowski, 
 and D. J. Fox, Gaussian, Inc., Wallingford CT, 2009.
 
 ******************************************
 Gaussian 09:  AM64L-G09RevA.02 11-Jun-2009
                28-Sep-2021 
 ******************************************
 %nproc=4
 Will use up to    4 processors via shared memory.
 %mem=8gb
 %chk=C13H12O2_7ba9_conf_0.chk
 -----------------------------------
 #p opt b3lyp/6-31G* scf=(xqc,tight)
 -----------------------------------
 1/14=-1,18=20,19=15,26=3,38=1/1,3;
 2/9=110,12=2,17=6,18=5,40=1/2;
 3/5=1,6=6,7=1,11=2,16=1,25=1,30=1,71=1,74=-5/1,2,3;
 4//1;
 5/5=2,8=3,13=1,32=2,38=5/2,8;
 6/7=2,8=2,9=2,10=2,28=1/1;
 7//1,2,3,16;
 1/14=-1,18=20,19=15/3(2);
 2/9=110/2;
 99//99;
 2/9=110/2;
 3/5=1,6=6,7=1,11=2,16=1,25=1,30=1,71=1,74=-5/1,2,3;
 4/5=5,16=3/1;
 5/5=2,8=3,13=1,32=2,38=5/2,8;
 7//1,2,3,16;
 1/14=-1,18=20,19=15/3(-5);
 2/9=110/2;
 6/7=2,8=2,9=2,10=2,19=2,28=1/1;
 99/9=1/99;
 Leave Link    1 at Tue Sep 28 23:12:58 2021, MaxMem= 1073741824 cpu:       0.1
 (Enter /sw/target/amd/app/gaussian/Gaussian09RevA.02_gcc-4.9.2/g09/l101.exe)
 ---------------------------------
 COc1ccc2c(c1)ccc(c2)C(=O)C_conf_0
 ---------------------------------
 Symbolic Z-matrix:
 Charge =  0 Multiplicity = 1
 C                     3.01053   1.03127   0.57975 
 O                     2.59045  -0.24647   0.1157 
 C                     3.32072  -1.32204   0.54218 
 C                     2.88108  -2.5575    0.06768 
 C                     3.54025  -3.73319   0.4288 
 C                     4.65709  -3.69077   1.27597 
 C                     5.10996  -2.4413    1.75826 
 C                     4.43245  -1.26984   1.38514 
 C                     6.23364  -2.39174   2.59773 
 C                     6.90644  -3.55982   2.9556 
 C                     6.45376  -4.79648   2.48976 
 C                     5.33543  -4.86123   1.65086 
 C                     7.1859   -6.02295   2.89878 
 O                     8.37908  -5.95653   3.18869 
 C                     6.42504  -7.32076   2.95396 
 H                     2.33696   1.78213   0.15707 
 H                     4.02452   1.26121   0.23517 
 H                     2.93974   1.09605   1.67089 
 H                     2.01695  -2.60477  -0.59187 
 H                     3.17295  -4.68042   0.04002 
 H                     4.79738  -0.3209    1.76589 
 H                     6.59771  -1.43907   2.97779 
 H                     7.77888  -3.50184   3.604 
 H                     4.99113  -5.81741   1.26516 
 H                     5.45888  -7.17126   3.44466 
 H                     6.99037  -8.04391   3.54932 
 H                     6.28683  -7.72092   1.94687 
 
 NAtoms=     27 NQM=     27 NQMF=      0 NMic=      0 NMicF=      0 NTot=     27.
                    Isotopes and Nuclear Properties:
 (Nuclear quadrupole moments (NQMom) in fm**2, nuclear magnetic moments (NMagM)
  in nuclear magnetons)

  Atom         1           2           3           4           5           6           7           8           9          10
 IAtWgt=          12          16          12          12          12          12          12          12          12          12
 AtmWgt=  12.0000000  15.9949146  12.0000000  12.0000000  12.0000000  12.0000000  12.0000000  12.0000000  12.0000000  12.0000000
 NucSpn=           0           0           0           0           0           0           0           0           0           0
 AtZEff=   0.0000000   0.0000000   0.0000000   0.0000000   0.0000000   0.0000000   0.0000000   0.0000000   0.0000000   0.0000000
 NQMom=    0.0000000   0.0000000   0.0000000   0.0000000   0.0000000   0.0000000   0.0000000   0.0000000   0.0000000   0.0000000
 NMagM=    0.0000000   0.0000000   0.0000000   0.0000000   0.0000000   0.0000000   0.0000000   0.0000000   0.0000000   0.0000000

  Atom        11          12          13          14          15          16          17          18          19          20
 IAtWgt=          12          12          12          16          12           1           1           1           1           1
 AtmWgt=  12.0000000  12.0000000  12.0000000  15.9949146  12.0000000   1.0078250   1.0078250   1.0078250   1.0078250   1.0078250
 NucSpn=           0           0           0           0           0           1           1           1           1           1
 AtZEff=   0.0000000   0.0000000   0.0000000   0.0000000   0.0000000   0.0000000   0.0000000   0.0000000   0.0000000   0.0000000
 NQMom=    0.0000000   0.0000000   0.0000000   0.0000000   0.0000000   0.0000000   0.0000000   0.0000000   0.0000000   0.0000000
 NMagM=    0.0000000   0.0000000   0.0000000   0.0000000   0.0000000   2.7928460   2.7928460   2.7928460   2.7928460   2.7928460

  Atom        21          22          23          24          25          26          27
 IAtWgt=           1           1           1           1           1           1           1
 AtmWgt=   1.0078250   1.0078250   1.0078250   1.0078250   1.0078250   1.0078250   1.0078250
 NucSpn=           1           1           1           1           1           1           1
 AtZEff=   0.0000000   0.0000000   0.0000000   0.0000000   0.0000000   0.0000000   0.0000000
 NQMom=    0.0000000   0.0000000   0.0000000   0.0000000   0.0000000   0.0000000   0.0000000
 NMagM=    2.7928460   2.7928460   2.7928460   2.7928460   2.7928460   2.7928460   2.7928460
 Leave Link  101 at Tue Sep 28 23:12:59 2021, MaxMem= 1073741824 cpu:       0.1
 (Enter /sw/target/amd/app/gaussian/Gaussian09RevA.02_gcc-4.9.2/g09/l103.exe)

 GradGradGradGradGradGradGradGradGradGradGradGradGradGradGradGradGradGrad
 Berny optimization.
 Initialization pass.
                           ----------------------------
                           !    Initial Parameters    !
                           ! (Angstroms and Degrees)  !
 --------------------------                            --------------------------
 ! Name  Definition              Value          Derivative Info.                !
 --------------------------------------------------------------------------------
 ! R1    R(1,2)                  1.4228         estimate D2E/DX2                !
 ! R2    R(1,16)                 1.0937         estimate D2E/DX2                !
 ! R3    R(1,17)                 1.0953         estimate D2E/DX2                !
 ! R4    R(1,18)                 1.0954         estimate D2E/DX2                !
 ! R5    R(2,3)                  1.3682         estimate D2E/DX2                !
 ! R6    R(3,4)                  1.3946         estimate D2E/DX2                !
 ! R7    R(3,8)                  1.3962         estimate D2E/DX2                !
 ! R8    R(4,5)                  1.3954         estimate D2E/DX2                !
 ! R9    R(4,19)                 1.0881         estimate D2E/DX2                !
 ! R10   R(5,6)                  1.4024         estimate D2E/DX2                !
 ! R11   R(5,20)                 1.0878         estimate D2E/DX2                !
 ! R12   R(6,7)                  1.4138         estimate D2E/DX2                !
 ! R13   R(6,12)                 1.4038         estimate D2E/DX2                !
 ! R14   R(7,8)                  1.4038         estimate D2E/DX2                !
 ! R15   R(7,9)                  1.4035         estimate D2E/DX2                !
 ! R16   R(8,21)                 1.0856         estimate D2E/DX2                !
 ! R17   R(9,10)                 1.3947         estimate D2E/DX2                !
 ! R18   R(9,22)                 1.0884         estimate D2E/DX2                !
 ! R19   R(10,11)                1.3969         estimate D2E/DX2                !
 ! R20   R(10,23)                1.0885         estimate D2E/DX2                !
 ! R21   R(11,12)                1.3995         estimate D2E/DX2                !
 ! R22   R(11,13)                1.4858         estimate D2E/DX2                !
 ! R23   R(12,24)                1.087          estimate D2E/DX2                !
 ! R24   R(13,14)                1.2297         estimate D2E/DX2                !
 ! R25   R(13,15)                1.5054         estimate D2E/DX2                !
 ! R26   R(15,25)                1.0939         estimate D2E/DX2                !
 ! R27   R(15,26)                1.0941         estimate D2E/DX2                !
 ! R28   R(15,27)                1.0925         estimate D2E/DX2                !
 ! A1    A(2,1,16)             107.9786         estimate D2E/DX2                !
 ! A2    A(2,1,17)             111.0536         estimate D2E/DX2                !
 ! A3    A(2,1,18)             111.0338         estimate D2E/DX2                !
 ! A4    A(16,1,17)            107.7236         estimate D2E/DX2                !
 ! A5    A(16,1,18)            107.7326         estimate D2E/DX2                !
 ! A6    A(17,1,18)            111.1486         estimate D2E/DX2                !
 ! A7    A(1,2,3)              116.5325         estimate D2E/DX2                !
 ! A8    A(2,3,4)              114.9672         estimate D2E/DX2                !
 ! A9    A(2,3,8)              125.7194         estimate D2E/DX2                !
 ! A10   A(4,3,8)              119.3134         estimate D2E/DX2                !
 ! A11   A(3,4,5)              120.6268         estimate D2E/DX2                !
 ! A12   A(3,4,19)             119.6762         estimate D2E/DX2                !
 ! A13   A(5,4,19)             119.6969         estimate D2E/DX2                !
 ! A14   A(4,5,6)              120.4664         estimate D2E/DX2                !
 ! A15   A(4,5,20)             118.7951         estimate D2E/DX2                !
 ! A16   A(6,5,20)             120.7385         estimate D2E/DX2                !
 ! A17   A(5,6,7)              119.2012         estimate D2E/DX2                !
 ! A18   A(5,6,12)             121.3935         estimate D2E/DX2                !
 ! A19   A(7,6,12)             119.405          estimate D2E/DX2                !
 ! A20   A(6,7,8)              119.4878         estimate D2E/DX2                !
 ! A21   A(6,7,9)              119.4521         estimate D2E/DX2                !
 ! A22   A(8,7,9)              121.0595         estimate D2E/DX2                !
 ! A23   A(3,8,7)              120.904          estimate D2E/DX2                !
 ! A24   A(3,8,21)             120.8033         estimate D2E/DX2                !
 ! A25   A(7,8,21)             118.2923         estimate D2E/DX2                !
 ! A26   A(7,9,10)             120.672          estimate D2E/DX2                !
 ! A27   A(7,9,22)             120.5035         estimate D2E/DX2                !
 ! A28   A(10,9,22)            118.8241         estimate D2E/DX2                !
 ! A29   A(9,10,11)            119.9709         estimate D2E/DX2                !
 ! A30   A(9,10,23)            119.6609         estimate D2E/DX2                !
 ! A31   A(11,10,23)           120.3666         estimate D2E/DX2                !
 ! A32   A(10,11,12)           119.9886         estimate D2E/DX2                !
 ! A33   A(10,11,13)           118.6393         estimate D2E/DX2                !
 ! A34   A(12,11,13)           121.3716         estimate D2E/DX2                !
 ! A35   A(6,12,11)            120.5062         estimate D2E/DX2                !
 ! A36   A(6,12,24)            119.0529         estimate D2E/DX2                !
 ! A37   A(11,12,24)           120.4309         estimate D2E/DX2                !
 ! A38   A(11,13,14)           119.8974         estimate D2E/DX2                !
 ! A39   A(11,13,15)           118.208          estimate D2E/DX2                !
 ! A40   A(14,13,15)           121.8929         estimate D2E/DX2                !
 ! A41   A(13,15,25)           110.1829         estimate D2E/DX2                !
 ! A42   A(13,15,26)           109.1843         estimate D2E/DX2                !
 ! A43   A(13,15,27)           110.239          estimate D2E/DX2                !
 ! A44   A(25,15,26)           107.6143         estimate D2E/DX2                !
 ! A45   A(25,15,27)           110.6003         estimate D2E/DX2                !
 ! A46   A(26,15,27)           108.9602         estimate D2E/DX2                !
 ! D1    D(16,1,2,3)           179.9343         estimate D2E/DX2                !
 ! D2    D(17,1,2,3)            62.0388         estimate D2E/DX2                !
 ! D3    D(18,1,2,3)           -62.1704         estimate D2E/DX2                !
 ! D4    D(1,2,3,4)           -179.9787         estimate D2E/DX2                !
 ! D5    D(1,2,3,8)             -0.046          estimate D2E/DX2                !
 ! D6    D(2,3,4,5)            179.9945         estimate D2E/DX2                !
 ! D7    D(2,3,4,19)             0.1085         estimate D2E/DX2                !
 ! D8    D(8,3,4,5)              0.0572         estimate D2E/DX2                !
 ! D9    D(8,3,4,19)          -179.8288         estimate D2E/DX2                !
 ! D10   D(2,3,8,7)           -179.9003         estimate D2E/DX2                !
 ! D11   D(2,3,8,21)            -0.1358         estimate D2E/DX2                !
 ! D12   D(4,3,8,7)              0.0297         estimate D2E/DX2                !
 ! D13   D(4,3,8,21)           179.7942         estimate D2E/DX2                !
 ! D14   D(3,4,5,6)             -0.0012         estimate D2E/DX2                !
 ! D15   D(3,4,5,20)          -179.8955         estimate D2E/DX2                !
 ! D16   D(19,4,5,6)           179.8847         estimate D2E/DX2                !
 ! D17   D(19,4,5,20)           -0.0096         estimate D2E/DX2                !
 ! D18   D(4,5,6,7)             -0.1394         estimate D2E/DX2                !
 ! D19   D(4,5,6,12)          -179.951          estimate D2E/DX2                !
 ! D20   D(20,5,6,7)           179.7528         estimate D2E/DX2                !
 ! D21   D(20,5,6,12)           -0.0588         estimate D2E/DX2                !
 ! D22   D(5,6,7,8)              0.2231         estimate D2E/DX2                !
 ! D23   D(5,6,7,9)           -179.4905         estimate D2E/DX2                !
 ! D24   D(12,6,7,8)          -179.9615         estimate D2E/DX2                !
 ! D25   D(12,6,7,9)             0.3249         estimate D2E/DX2                !
 ! D26   D(5,6,12,11)          179.5463         estimate D2E/DX2                !
 ! D27   D(5,6,12,24)            0.6914         estimate D2E/DX2                !
 ! D28   D(7,6,12,11)           -0.265          estimate D2E/DX2                !
 ! D29   D(7,6,12,24)         -179.1199         estimate D2E/DX2                !
 ! D30   D(6,7,8,3)             -0.1703         estimate D2E/DX2                !
 ! D31   D(6,7,8,21)          -179.9406         estimate D2E/DX2                !
 ! D32   D(9,7,8,3)            179.5385         estimate D2E/DX2                !
 ! D33   D(9,7,8,21)            -0.2317         estimate D2E/DX2                !
 ! D34   D(6,7,9,10)             0.1723         estimate D2E/DX2                !
 ! D35   D(6,7,9,22)           179.9218         estimate D2E/DX2                !
 ! D36   D(8,7,9,10)          -179.5367         estimate D2E/DX2                !
 ! D37   D(8,7,9,22)             0.2128         estimate D2E/DX2                !
 ! D38   D(7,9,10,11)           -0.7337         estimate D2E/DX2                !
 ! D39   D(7,9,10,23)          179.7219         estimate D2E/DX2                !
 ! D40   D(22,9,10,11)         179.5127         estimate D2E/DX2                !
 ! D41   D(22,9,10,23)          -0.0317         estimate D2E/DX2                !
 ! D42   D(9,10,11,12)           0.7921         estimate D2E/DX2                !
 ! D43   D(9,10,11,13)        -179.482          estimate D2E/DX2                !
 ! D44   D(23,10,11,12)       -179.6667         estimate D2E/DX2                !
 ! D45   D(23,10,11,13)          0.0591         estimate D2E/DX2                !
 ! D46   D(10,11,12,6)          -0.2935         estimate D2E/DX2                !
 ! D47   D(10,11,12,24)        178.5455         estimate D2E/DX2                !
 ! D48   D(13,11,12,6)         179.9883         estimate D2E/DX2                !
 ! D49   D(13,11,12,24)         -1.1727         estimate D2E/DX2                !
 ! D50   D(10,11,13,14)        -26.6893         estimate D2E/DX2                !
 ! D51   D(10,11,13,15)        152.8552         estimate D2E/DX2                !
 ! D52   D(12,11,13,14)        153.0326         estimate D2E/DX2                !
 ! D53   D(12,11,13,15)        -27.4229         estimate D2E/DX2                !
 ! D54   D(11,13,15,25)        -44.7289         estimate D2E/DX2                !
 ! D55   D(11,13,15,26)       -162.715          estimate D2E/DX2                !
 ! D56   D(11,13,15,27)         77.6194         estimate D2E/DX2                !
 ! D57   D(14,13,15,25)        134.8059         estimate D2E/DX2                !
 ! D58   D(14,13,15,26)         16.8198         estimate D2E/DX2                !
 ! D59   D(14,13,15,27)       -102.8458         estimate D2E/DX2                !
 --------------------------------------------------------------------------------
 Trust Radius=3.00D-01 FncErr=1.00D-07 GrdErr=1.00D-06
 Number of steps in this run= 143 maximum allowed number of steps= 162.
 GradGradGradGradGradGradGradGradGradGradGradGradGradGradGradGradGradGrad

 Leave Link  103 at Tue Sep 28 23:12:59 2021, MaxMem= 1073741824 cpu:       0.0
 (Enter /sw/target/amd/app/gaussian/Gaussian09RevA.02_gcc-4.9.2/g09/l202.exe)
                          Input orientation:                          
 ---------------------------------------------------------------------
 Center     Atomic      Atomic             Coordinates (Angstroms)
 Number     Number       Type             X           Y           Z
 ---------------------------------------------------------------------
      1          6           0        3.010529    1.031269    0.579746
      2          8           0        2.590448   -0.246475    0.115705
      3          6           0        3.320721   -1.322036    0.542181
      4          6           0        2.881078   -2.557498    0.067679
      5          6           0        3.540248   -3.733187    0.428796
      6          6           0        4.657093   -3.690771    1.275974
      7          6           0        5.109961   -2.441297    1.758262
      8          6           0        4.432449   -1.269840    1.385136
      9          6           0        6.233640   -2.391736    2.597732
     10          6           0        6.906436   -3.559822    2.955604
     11          6           0        6.453756   -4.796475    2.489756
     12          6           0        5.335429   -4.861230    1.650863
     13          6           0        7.185897   -6.022948    2.898783
     14          8           0        8.379080   -5.956528    3.188692
     15          6           0        6.425040   -7.320757    2.953957
     16          1           0        2.336958    1.782132    0.157068
     17          1           0        4.024517    1.261214    0.235168
     18          1           0        2.939736    1.096053    1.670888
     19          1           0        2.016948   -2.604773   -0.591868
     20          1           0        3.172954   -4.680419    0.040017
     21          1           0        4.797377   -0.320904    1.765892
     22          1           0        6.597714   -1.439074    2.977788
     23          1           0        7.778882   -3.501844    3.603999
     24          1           0        4.991128   -5.817413    1.265161
     25          1           0        5.458882   -7.171258    3.444658
     26          1           0        6.990371   -8.043912    3.549321
     27          1           0        6.286827   -7.720916    1.946866
 ---------------------------------------------------------------------
                    Distance matrix (angstroms):
                    1          2          3          4          5
     1  C    0.000000
     2  O    1.422825   0.000000
     3  C    2.373958   1.368215   0.000000
     4  C    3.627426   2.329721   1.394562   0.000000
     5  C    4.796188   3.627300   2.423777   1.395405   0.000000
     6  C    5.049115   4.180960   2.816957   2.428686   1.402446
     7  C    4.225545   3.723330   2.435771   2.799910   2.429086
     8  C    2.822342   2.460021   1.396151   2.408425   2.789030
     9  C    5.116413   4.902597   3.722183   4.203370   3.709196
    10  C    6.473091   6.137675   4.867201   5.054530   4.212605
    11  C    7.033246   6.423689   5.067611   4.862459   3.723798
    12  C    6.424484   5.584586   4.220677   3.719878   2.447163
    13  C    8.519014   7.888683   6.526234   6.209345   4.963326
    14  O    9.190062   8.692308   7.353199   7.177894   5.997881
    15  C    9.330172   8.532599   7.172037   6.601432   5.250631
    16  H    1.093686   2.044802   3.279019   4.374523   5.651591
    17  H    1.095345   2.084215   2.694952   3.989745   5.021559
    18  H    1.095354   2.083981   2.695605   3.990257   5.022446
    19  H    3.947237   2.528069   2.152046   1.088098   2.153024
    20  H    5.739431   4.472684   3.398932   2.143070   1.087797
    21  H    2.535377   2.756664   2.163388   3.399777   3.874516
    22  H    4.972032   5.066754   4.084674   4.851082   4.594390
    23  H    7.241023   7.048793   5.831080   6.114396   5.301081
    24  H    7.162193   6.174129   4.849884   4.063658   2.673679
    25  H    9.026827   8.201370   6.870918   6.271830   4.959528
    26  H   10.344874   9.589008   8.227566   7.688229   6.342191
    27  H    9.444781   8.537192   7.191425   6.464624   5.074468
                    6          7          8          9         10
     6  C    0.000000
     7  C    1.413816   0.000000
     8  C    2.433780   1.403765   0.000000
     9  C    2.433112   1.403503   2.444039   0.000000
    10  C    2.810311   2.431470   3.719004   1.394687   0.000000
    11  C    2.433895   2.808510   4.212246   2.417205   1.396870
    12  C    1.403800   2.432785   3.712689   2.793160   2.421585
    13  C    3.803605   4.294010   5.697774   3.766049   2.479580
    14  O    4.758711   5.009003   6.386998   4.202367   2.822625
    15  C    4.372421   5.193096   6.560885   4.945581   3.791619
    16  H    6.048772   5.300068   3.900484   6.209843   7.566268
    17  H    5.099567   4.148084   2.809817   4.879138   6.240883
    18  H    5.100877   4.150946   2.811991   4.886053   6.249989
    19  H    3.411538   3.888003   3.394884   5.291448   6.115862
    20  H    2.170176   3.423161   3.876561   4.598670   4.867779
    21  H    3.408182   2.143324   1.085646   2.653895   4.044025
    22  H    3.425247   2.169125   2.693242   1.088374   2.143216
    23  H    3.898841   3.413890   4.593888   2.152367   1.088549
    24  H    2.152743   3.414005   4.583332   3.880057   3.409211
    25  H    4.178499   5.033708   6.334187   4.915421   3.921360
    26  H    5.437107   6.175203   7.557427   5.781458   4.524004
    27  H    4.398659   5.412482   6.735773   5.369042   4.326219
                   11         12         13         14         15
    11  C    0.000000
    12  C    1.399496   0.000000
    13  C    1.485789   2.516172   0.000000
    14  O    2.353956   3.581676   1.229693   0.000000
    15  C    2.566769   2.989077   1.505409   2.394680   0.000000
    16  H    8.103551   7.440196   9.588977  10.275449  10.363281
    17  H    6.905069   6.419268   8.375452   8.932040   9.316896
    18  H    6.909469   6.420978   8.379605   9.034881   9.199799
    19  H    5.829685   4.597147   7.112426   8.124261   7.365097
    20  H    4.096138   2.702557   5.106725   6.216619   5.102793
    21  H    4.826833   4.573543   6.285044   6.827388   7.284143
    22  H    3.395739   3.881397   4.622132   4.860570   5.884265
    23  H    2.161843   3.410737   2.684199   2.560897   4.103601
    24  H    2.163614   1.087012   2.743716   3.898403   2.677346
    25  H    2.746126   2.927315   2.144569   3.173113   1.093892
    26  H    3.457814   4.058626   2.132071   2.532931   1.094080
    27  H    2.979085   3.028297   2.144194   3.005449   1.092456
                   16         17         18         19         20
    16  H    0.000000
    17  H    1.767855   0.000000
    18  H    1.767964   1.807020   0.000000
    19  H    4.461866   4.433980   4.434830   0.000000
    20  H    6.517450   6.005518   6.006809   2.458442   0.000000
    21  H    3.614517   2.333137   2.338294   4.301845   4.962133
    22  H    6.040420   4.629781   4.638497   5.923235   5.555699
    23  H    8.331643   6.937651   6.949453   7.184004   5.941850
    24  H    8.125612   7.218184   7.222799   4.755561   2.469714
    25  H   10.035829   9.135909   8.822743   6.999517   4.798055
    26  H   11.389152  10.313354  10.172271   8.453911   6.180693
    27  H   10.445706   9.419481   9.434941   7.131056   4.751515
                   21         22         23         24         25
    21  H    0.000000
    22  H    2.441355   0.000000
    23  H    4.731426   2.458113   0.000000
    24  H    5.522670   4.968306   4.313189   0.000000
    25  H    7.084011   5.862836   4.344237   2.608045   0.000000
    26  H    8.224032   6.641138   4.610328   3.764526   1.765768
    27  H    7.550589   6.373460   4.772095   2.401433   1.797497
                   26         27
    26  H    0.000000
    27  H    1.779652   0.000000
 Stoichiometry    C13H12O2
 Framework group  C1[X(C13H12O2)]
 Deg. of freedom    75
 Full point group                 C1      NOp   1
 Largest Abelian subgroup         C1      NOp   1
 Largest concise Abelian subgroup C1      NOp   1
                         Standard orientation:                         
 ---------------------------------------------------------------------
 Center     Atomic      Atomic             Coordinates (Angstroms)
 Number     Number       Type             X           Y           Z
 ---------------------------------------------------------------------
      1          6           0        4.776073   -0.967682    0.100130
      2          8           0        4.180844    0.320177   -0.007343
      3          6           0        2.813344    0.362232   -0.021098
      4          6           0        2.264759    1.639909   -0.127874
      5          6           0        0.881211    1.819688   -0.152928
      6          6           0        0.019196    0.716476   -0.071013
      7          6           0        0.568688   -0.581916    0.034394
      8          6           0        1.963045   -0.742161    0.059809
      9          6           0       -0.289014   -1.690546    0.105860
     10          6           0       -1.673109   -1.522717    0.070274
     11          6           0       -2.218358   -0.239975   -0.022028
     12          6           0       -1.375436    0.874781   -0.095456
     13          6           0       -3.696829   -0.094661   -0.046041
     14          8           0       -4.396155   -1.012844   -0.470337
     15          6           0       -4.294193    1.188046    0.467842
     16          1           0        5.862151   -0.838941    0.096897
     17          1           0        4.512206   -1.595934   -0.757456
     18          1           0        4.500194   -1.450793    1.043685
     19          1           0        2.921987    2.504559   -0.194125
     20          1           0        0.485498    2.829315   -0.238757
     21          1           0        2.364040   -1.747826    0.140228
     22          1           0        0.115540   -2.697753    0.186040
     23          1           0       -2.322957   -2.394460    0.122266
     24          1           0       -1.791635    1.874385   -0.191188
     25          1           0       -3.814215    1.478270    1.406986
     26          1           0       -5.357396    1.032378    0.673699
     27          1           0       -4.189202    1.979299   -0.278051
 ---------------------------------------------------------------------
 Rotational constants (GHZ):      1.8969834      0.2884150      0.2532612
 Leave Link  202 at Tue Sep 28 23:12:59 2021, MaxMem= 1073741824 cpu:       0.1
 (Enter /sw/target/amd/app/gaussian/Gaussian09RevA.02_gcc-4.9.2/g09/l301.exe)
 Standard basis: 6-31G(d) (6D, 7F)
 Ernie: Thresh=  0.10000D-02 Tol=  0.10000D-05 Strict=F.
 There are   249 symmetry adapted basis functions of A   symmetry.
 Integral buffers will be    131072 words long.
 Raffenetti 2 integral format.
 Two-electron integral symmetry is turned on.
   249 basis functions,   468 primitive gaussians,   249 cartesian basis functions
    53 alpha electrons       53 beta electrons
       nuclear repulsion energy       902.6802094644 Hartrees.
 IExCor=  402 DFT=T Ex+Corr=B3LYP ExCW=0 ScaHFX=  0.200000
 ScaDFX=  0.800000  0.720000  1.000000  0.810000 ScalE2=  1.000000  1.000000
 IRadAn=      0 IRanWt=     -1 IRanGd=            0 ICorTp=0
 NAtoms=   27 NActive=   27 NUniq=   27 SFac= 7.50D-01 NAtFMM=   80 NAOKFM=F Big=F
 Leave Link  301 at Tue Sep 28 23:13:00 2021, MaxMem= 1073741824 cpu:       0.1
 (Enter /sw/target/amd/app/gaussian/Gaussian09RevA.02_gcc-4.9.2/g09/l302.exe)
 NPDir=0 NMtPBC=     1 NCelOv=     1 NCel=       1 NClECP=     1 NCelD=      1
         NCelK=      1 NCelE2=     1 NClLst=     1 CellRange=     0.0.
 One-electron integrals computed using PRISM.
 NBasis=   249 RedAO= T  NBF=   249
 NBsUse=   249 1.00D-06 NBFU=   249
 Precomputing XC quadrature grid using
 IXCGrd= 2 IRadAn=           0 IRanWt=          -1 IRanGd=           0 AccXCQ= 1.00D-10.
 NRdTot=    1713 NPtTot=      218122 NUsed=      230477 NTot=      230509
 NSgBfM=   246   246   246   246   246 NAtAll=    27    27.
 Leave Link  302 at Tue Sep 28 23:13:03 2021, MaxMem= 1073741824 cpu:       1.9
 (Enter /sw/target/amd/app/gaussian/Gaussian09RevA.02_gcc-4.9.2/g09/l303.exe)
 DipDrv:  MaxL=1.
 Leave Link  303 at Tue Sep 28 23:13:03 2021, MaxMem= 1073741824 cpu:       0.2
 (Enter /sw/target/amd/app/gaussian/Gaussian09RevA.02_gcc-4.9.2/g09/l401.exe)
 Harris functional with IExCor=  402 diagonalized for initial guess.
 ExpMin= 1.61D-01 ExpMax= 5.48D+03 ExpMxC= 8.25D+02 IAcc=1 IRadAn=         1 AccDes= 0.00D+00
 HarFok:  IExCor=  402 AccDes= 0.00D+00 IRadAn=         1 IDoV= 1
 ScaDFX=  1.000000  1.000000  1.000000  1.000000
 FoFCou: FMM=F IPFlag=           0 FMFlag=      100000 FMFlg1=           0
         NFxFlg=           0 DoJE=T BraDBF=F KetDBF=T FulRan=T
         Omega=  0.000000  0.000000  1.000000  0.000000  0.000000 ICntrl=     500 IOpCl=  0
         NMat0=    1 NMatS0=    1 NMatT0=    0 NMatD0=    1 NMtDS0=    0 NMtDT0=    0
         I1Cent=           4 NGrid=           0.
 Petite list used in FoFCou.
 Harris En= -653.135348084700    
 Initial guess orbital symmetries:
       Occupied  (A) (A) (A) (A) (A) (A) (A) (A) (A) (A) (A) (A)
                 (A) (A) (A) (A) (A) (A) (A) (A) (A) (A) (A) (A)
                 (A) (A) (A) (A) (A) (A) (A) (A) (A) (A) (A) (A)
                 (A) (A) (A) (A) (A) (A) (A) (A) (A) (A) (A) (A)
                 (A) (A) (A) (A) (A)
       Virtual   (A) (A) (A) (A) (A) (A) (A) (A) (A) (A) (A) (A)
                 (A) (A) (A) (A) (A) (A) (A) (A) (A) (A) (A) (A)
                 (A) (A) (A) (A) (A) (A) (A) (A) (A) (A) (A) (A)
                 (A) (A) (A) (A) (A) (A) (A) (A) (A) (A) (A) (A)
                 (A) (A) (A) (A) (A) (A) (A) (A) (A) (A) (A) (A)
                 (A) (A) (A) (A) (A) (A) (A) (A) (A) (A) (A) (A)
                 (A) (A) (A) (A) (A) (A) (A) (A) (A) (A) (A) (A)
                 (A) (A) (A) (A) (A) (A) (A) (A) (A) (A) (A) (A)
                 (A) (A) (A) (A) (A) (A) (A) (A) (A) (A) (A) (A)
                 (A) (A) (A) (A) (A) (A) (A) (A) (A) (A) (A) (A)
                 (A) (A) (A) (A) (A) (A) (A) (A) (A) (A) (A) (A)
                 (A) (A) (A) (A) (A) (A) (A) (A) (A) (A) (A) (A)
                 (A) (A) (A) (A) (A) (A) (A) (A) (A) (A) (A) (A)
                 (A) (A) (A) (A) (A) (A) (A) (A) (A) (A) (A) (A)
                 (A) (A) (A) (A) (A) (A) (A) (A) (A) (A) (A) (A)
                 (A) (A) (A) (A) (A) (A) (A) (A) (A) (A) (A) (A)
                 (A) (A) (A) (A)
 The electronic state of the initial guess is 1-A.
 Leave Link  401 at Tue Sep 28 23:13:13 2021, MaxMem= 1073741824 cpu:       9.0
 (Enter /sw/target/amd/app/gaussian/Gaussian09RevA.02_gcc-4.9.2/g09/l502.exe)
 Closed shell SCF:
 Requested convergence on RMS density matrix=1.00D-08 within  64 cycles.
 Requested convergence on MAX density matrix=1.00D-06.
 Requested convergence on             energy=1.00D-06.
 No special actions if energy rises.
 Using DIIS extrapolation, IDIIS=  1040.
 Integral symmetry usage will be decided dynamically.
       230221 words used for storage of precomputed grid.
 Keep R1 ints in memory in canonical form, NReq=492635901.
 IEnd=      425137 IEndB=      425137 NGot=  1073741824 MDV=   588984759
 LenX=   588984759 LenY=   588922317
 Symmetry not used in FoFDir.
 MinBra= 0 MaxBra= 2 Meth= 1.
 IRaf=       0 NMat=   1 IRICut=       1 DoRegI=T DoRafI=F ISym2E= 0 JSym2E=0.
 Integral accuracy reduced to 1.0D-05 until final iterations.

 Cycle   1  Pass 0  IDiag  1:
 E= -652.712924459425    
 DIIS: error= 3.56D-02 at cycle   1 NSaved=   1.
 NSaved= 1 IEnMin= 1 EnMin= -652.712924459425     IErMin= 1 ErrMin= 3.56D-02
 ErrMax= 3.56D-02 EMaxC= 1.00D-01 BMatC= 3.39D-01 BMatP= 3.39D-01
 IDIUse=3 WtCom= 6.44D-01 WtEn= 3.56D-01
 Coeff-Com:  0.100D+01
 Coeff-En:   0.100D+01
 Coeff:      0.100D+01
 Gap=     0.160 Goal=   None    Shift=    0.000
 GapD=    0.160 DampG=1.000 DampE=0.500 DampFc=0.5000 IDamp=-1.
 Damping current iteration by 5.00D-01
 RMSDP=5.84D-03 MaxDP=1.80D-01              OVMax= 1.83D-01

 Cycle   2  Pass 0  IDiag  1:
 E= -652.858977998342     Delta-E=       -0.146053538917 Rises=F Damp=T
 DIIS: error= 8.85D-03 at cycle   2 NSaved=   2.
 NSaved= 2 IEnMin= 2 EnMin= -652.858977998342     IErMin= 2 ErrMin= 8.85D-03
 ErrMax= 8.85D-03 EMaxC= 1.00D-01 BMatC= 3.28D-02 BMatP= 3.39D-01
 IDIUse=3 WtCom= 9.12D-01 WtEn= 8.85D-02
 Coeff-Com:  0.103D+00 0.897D+00
 Coeff-En:   0.130D+00 0.870D+00
 Coeff:      0.105D+00 0.895D+00
 Gap=     0.210 Goal=   None    Shift=    0.000
 RMSDP=1.99D-03 MaxDP=6.35D-02 DE=-1.46D-01 OVMax= 1.71D-01

 Cycle   3  Pass 0  IDiag  1:
 E= -653.012928156864     Delta-E=       -0.153950158522 Rises=F Damp=F
 DIIS: error= 1.75D-02 at cycle   3 NSaved=   3.
 NSaved= 3 IEnMin= 3 EnMin= -653.012928156864     IErMin= 2 ErrMin= 8.85D-03
 ErrMax= 1.75D-02 EMaxC= 1.00D-01 BMatC= 5.28D-02 BMatP= 3.28D-02
 IDIUse=2 WtCom= 0.00D+00 WtEn= 1.00D+00
 Coeff-En:   0.000D+00 0.000D+00 0.100D+01
 Coeff:      0.000D+00 0.000D+00 0.100D+01
 Gap=     0.156 Goal=   None    Shift=    0.000
 RMSDP=3.05D-03 MaxDP=1.57D-01 DE=-1.54D-01 OVMax= 1.72D-01

 Cycle   4  Pass 0  IDiag  1:
 E= -652.798792579143     Delta-E=        0.214135577721 Rises=F Damp=F
 DIIS: error= 4.28D-02 at cycle   4 NSaved=   4.
 NSaved= 4 IEnMin= 3 EnMin= -653.012928156864     IErMin= 2 ErrMin= 8.85D-03
 ErrMax= 4.28D-02 EMaxC= 1.00D-01 BMatC= 3.13D-01 BMatP= 3.28D-02
 IDIUse=2 WtCom= 0.00D+00 WtEn= 1.00D+00
 Coeff-En:   0.000D+00 0.000D+00 0.797D+00 0.203D+00
 Coeff:      0.000D+00 0.000D+00 0.797D+00 0.203D+00
 Gap=     0.164 Goal=   None    Shift=    0.000
 RMSDP=1.70D-03 MaxDP=7.93D-02 DE= 2.14D-01 OVMax= 1.04D-01

 Cycle   5  Pass 0  IDiag  1:
 E= -653.037894439875     Delta-E=       -0.239101860732 Rises=F Damp=F
 DIIS: error= 1.18D-02 at cycle   5 NSaved=   5.
 NSaved= 5 IEnMin= 5 EnMin= -653.037894439875     IErMin= 2 ErrMin= 8.85D-03
 ErrMax= 1.18D-02 EMaxC= 1.00D-01 BMatC= 2.38D-02 BMatP= 3.28D-02
 IDIUse=3 WtCom= 8.82D-01 WtEn= 1.18D-01
 Coeff-Com:  0.316D-02 0.157D-01 0.344D+00-0.528D-01 0.690D+00
 Coeff-En:   0.000D+00 0.000D+00 0.351D+00 0.000D+00 0.649D+00
 Coeff:      0.279D-02 0.139D-01 0.345D+00-0.466D-01 0.685D+00
 Gap=     0.157 Goal=   None    Shift=    0.000
 RMSDP=5.92D-04 MaxDP=2.99D-02 DE=-2.39D-01 OVMax= 3.95D-02

 Cycle   6  Pass 0  IDiag  1:
 E= -653.057319249417     Delta-E=       -0.019424809542 Rises=F Damp=F
 DIIS: error= 8.40D-04 at cycle   6 NSaved=   6.
 NSaved= 6 IEnMin= 6 EnMin= -653.057319249417     IErMin= 6 ErrMin= 8.40D-04
 ErrMax= 8.40D-04 EMaxC= 1.00D-01 BMatC= 2.12D-04 BMatP= 2.38D-02
 IDIUse=3 WtCom= 9.92D-01 WtEn= 8.40D-03
 Coeff-Com: -0.116D-02 0.891D-02 0.166D+00-0.593D-01 0.458D+00 0.428D+00
 Coeff-En:   0.000D+00 0.000D+00 0.000D+00 0.000D+00 0.000D+00 0.100D+01
 Coeff:     -0.115D-02 0.883D-02 0.164D+00-0.588D-01 0.454D+00 0.433D+00
 Gap=     0.156 Goal=   None    Shift=    0.000
 RMSDP=7.30D-05 MaxDP=2.42D-03 DE=-1.94D-02 OVMax= 5.53D-03

 Cycle   7  Pass 0  IDiag  1:
 E= -653.057546776940     Delta-E=       -0.000227527523 Rises=F Damp=F
 DIIS: error= 1.49D-04 at cycle   7 NSaved=   7.
 NSaved= 7 IEnMin= 7 EnMin= -653.057546776940     IErMin= 7 ErrMin= 1.49D-04
 ErrMax= 1.49D-04 EMaxC= 1.00D-01 BMatC= 9.64D-06 BMatP= 2.12D-04
 IDIUse=3 WtCom= 9.99D-01 WtEn= 1.49D-03
 Coeff-Com: -0.173D-03 0.183D-02 0.548D-01-0.232D-01 0.158D+00 0.195D+00
 Coeff-Com:  0.614D+00
 Coeff-En:   0.000D+00 0.000D+00 0.000D+00 0.000D+00 0.000D+00 0.000D+00
 Coeff-En:   0.100D+01
 Coeff:     -0.173D-03 0.183D-02 0.547D-01-0.232D-01 0.157D+00 0.194D+00
 Coeff:      0.615D+00
 Gap=     0.157 Goal=   None    Shift=    0.000
 RMSDP=1.39D-05 MaxDP=4.92D-04 DE=-2.28D-04 OVMax= 7.58D-04

 Cycle   8  Pass 0  IDiag  1:
 E= -653.057554520077     Delta-E=       -0.000007743137 Rises=F Damp=F
 DIIS: error= 5.24D-05 at cycle   8 NSaved=   8.
 NSaved= 8 IEnMin= 8 EnMin= -653.057554520077     IErMin= 8 ErrMin= 5.24D-05
 ErrMax= 5.24D-05 EMaxC= 1.00D-01 BMatC= 1.39D-06 BMatP= 9.64D-06
 IDIUse=1 WtCom= 1.00D+00 WtEn= 0.00D+00
 Coeff-Com:  0.363D-03-0.944D-03 0.113D-01-0.454D-02 0.279D-01 0.507D-01
 Coeff-Com:  0.340D+00 0.575D+00
 Coeff:      0.363D-03-0.944D-03 0.113D-01-0.454D-02 0.279D-01 0.507D-01
 Coeff:      0.340D+00 0.575D+00
 Gap=     0.156 Goal=   None    Shift=    0.000
 RMSDP=5.44D-06 MaxDP=1.72D-04 DE=-7.74D-06 OVMax= 3.29D-04

 Initial convergence to 1.0D-05 achieved.  Increase integral accuracy.
 Cycle   9  Pass 1  IDiag  1:
 E= -653.057595400894     Delta-E=       -0.000040880817 Rises=F Damp=F
 DIIS: error= 2.89D-05 at cycle   1 NSaved=   1.
 NSaved= 1 IEnMin= 1 EnMin= -653.057595400894     IErMin= 1 ErrMin= 2.89D-05
 ErrMax= 2.89D-05 EMaxC= 1.00D-01 BMatC= 1.88D-07 BMatP= 1.88D-07
 IDIUse=1 WtCom= 1.00D+00 WtEn= 0.00D+00
 Coeff-Com:  0.100D+01
 Coeff:      0.100D+01
 Gap=     0.156 Goal=   None    Shift=    0.000
 RMSDP=5.44D-06 MaxDP=1.72D-04 DE=-4.09D-05 OVMax= 3.47D-04

 Cycle  10  Pass 1  IDiag  1:
 E= -653.057595339347     Delta-E=        0.000000061547 Rises=F Damp=F
 DIIS: error= 3.31D-05 at cycle   2 NSaved=   2.
 NSaved= 2 IEnMin= 1 EnMin= -653.057595400894     IErMin= 1 ErrMin= 2.89D-05
 ErrMax= 3.31D-05 EMaxC= 1.00D-01 BMatC= 2.86D-07 BMatP= 1.88D-07
 IDIUse=1 WtCom= 1.00D+00 WtEn= 0.00D+00
 Coeff-Com:  0.566D+00 0.434D+00
 Coeff:      0.566D+00 0.434D+00
 Gap=     0.156 Goal=   None    Shift=    0.000
 RMSDP=3.13D-06 MaxDP=1.23D-04 DE= 6.15D-08 OVMax= 3.19D-04

 Cycle  11  Pass 1  IDiag  1:
 E= -653.057595591702     Delta-E=       -0.000000252355 Rises=F Damp=F
 DIIS: error= 1.38D-05 at cycle   3 NSaved=   3.
 NSaved= 3 IEnMin= 3 EnMin= -653.057595591702     IErMin= 3 ErrMin= 1.38D-05
 ErrMax= 1.38D-05 EMaxC= 1.00D-01 BMatC= 3.89D-08 BMatP= 1.88D-07
 IDIUse=1 WtCom= 1.00D+00 WtEn= 0.00D+00
 Coeff-Com:  0.296D-01 0.265D+00 0.705D+00
 Coeff:      0.296D-01 0.265D+00 0.705D+00
 Gap=     0.156 Goal=   None    Shift=    0.000
 RMSDP=1.13D-06 MaxDP=3.21D-05 DE=-2.52D-07 OVMax= 1.04D-04

 Cycle  12  Pass 1  IDiag  1:
 E= -653.057595626371     Delta-E=       -0.000000034669 Rises=F Damp=F
 DIIS: error= 3.90D-06 at cycle   4 NSaved=   4.
 NSaved= 4 IEnMin= 4 EnMin= -653.057595626371     IErMin= 4 ErrMin= 3.90D-06
 ErrMax= 3.90D-06 EMaxC= 1.00D-01 BMatC= 6.69D-09 BMatP= 3.89D-08
 IDIUse=1 WtCom= 1.00D+00 WtEn= 0.00D+00
 Coeff-Com: -0.145D-01 0.144D+00 0.457D+00 0.414D+00
 Coeff:     -0.145D-01 0.144D+00 0.457D+00 0.414D+00
 Gap=     0.156 Goal=   None    Shift=    0.000
 RMSDP=3.90D-07 MaxDP=1.50D-05 DE=-3.47D-08 OVMax= 2.42D-05

 Cycle  13  Pass 1  IDiag  1:
 E= -653.057595632463     Delta-E=       -0.000000006091 Rises=F Damp=F
 DIIS: error= 1.21D-06 at cycle   5 NSaved=   5.
 NSaved= 5 IEnMin= 5 EnMin= -653.057595632463     IErMin= 5 ErrMin= 1.21D-06
 ErrMax= 1.21D-06 EMaxC= 1.00D-01 BMatC= 3.43D-10 BMatP= 6.69D-09
 IDIUse=1 WtCom= 1.00D+00 WtEn= 0.00D+00
 Coeff-Com: -0.109D-01 0.714D-01 0.236D+00 0.250D+00 0.454D+00
 Coeff:     -0.109D-01 0.714D-01 0.236D+00 0.250D+00 0.454D+00
 Gap=     0.156 Goal=   None    Shift=    0.000
 RMSDP=7.49D-08 MaxDP=3.67D-06 DE=-6.09D-09 OVMax= 4.21D-06

 Cycle  14  Pass 1  IDiag  1:
 E= -653.057595632753     Delta-E=       -0.000000000290 Rises=F Damp=F
 DIIS: error= 2.57D-07 at cycle   6 NSaved=   6.
 NSaved= 6 IEnMin= 6 EnMin= -653.057595632753     IErMin= 6 ErrMin= 2.57D-07
 ErrMax= 2.57D-07 EMaxC= 1.00D-01 BMatC= 1.92D-11 BMatP= 3.43D-10
 IDIUse=1 WtCom= 1.00D+00 WtEn= 0.00D+00
 Coeff-Com: -0.423D-02 0.237D-01 0.800D-01 0.900D-01 0.244D+00 0.566D+00
 Coeff:     -0.423D-02 0.237D-01 0.800D-01 0.900D-01 0.244D+00 0.566D+00
 Gap=     0.156 Goal=   None    Shift=    0.000
 RMSDP=2.52D-08 MaxDP=9.11D-07 DE=-2.90D-10 OVMax= 1.45D-06

 Cycle  15  Pass 1  IDiag  1:
 E= -653.057595632753     Delta-E=       -0.000000000001 Rises=F Damp=F
 DIIS: error= 9.36D-08 at cycle   7 NSaved=   7.
 NSaved= 7 IEnMin= 7 EnMin= -653.057595632753     IErMin= 7 ErrMin= 9.36D-08
 ErrMax= 9.36D-08 EMaxC= 1.00D-01 BMatC= 2.99D-12 BMatP= 1.92D-11
 IDIUse=1 WtCom= 1.00D+00 WtEn= 0.00D+00
 Coeff-Com: -0.117D-02 0.532D-02 0.187D-01 0.225D-01 0.894D-01 0.337D+00
 Coeff-Com:  0.528D+00
 Coeff:     -0.117D-02 0.532D-02 0.187D-01 0.225D-01 0.894D-01 0.337D+00
 Coeff:      0.528D+00
 Gap=     0.156 Goal=   None    Shift=    0.000
 RMSDP=9.15D-09 MaxDP=3.17D-07 DE=-6.82D-13 OVMax= 6.51D-07

 SCF Done:  E(RB3LYP) =  -653.057595633     A.U. after   15 cycles
             Convg  =    0.9148D-08             -V/T =  2.0092
 KE= 6.470979852021D+02 PE=-3.323454456019D+03 EE= 1.120618665720D+03
 Leave Link  502 at Tue Sep 28 23:19:45 2021, MaxMem= 1073741824 cpu:     223.2
 (Enter /sw/target/amd/app/gaussian/Gaussian09RevA.02_gcc-4.9.2/g09/l508.exe)
 QCSCF skips out because SCF is already converged.
 Leave Link  508 at Tue Sep 28 23:19:46 2021, MaxMem= 1073741824 cpu:       0.0
 (Enter /sw/target/amd/app/gaussian/Gaussian09RevA.02_gcc-4.9.2/g09/l601.exe)
 Copying SCF densities to generalized density rwf, IOpCl= 0 IROHF=0.

 **********************************************************************

            Population analysis using the SCF density.

 **********************************************************************

 Orbital symmetries:
       Occupied  (A) (A) (A) (A) (A) (A) (A) (A) (A) (A) (A) (A)
                 (A) (A) (A) (A) (A) (A) (A) (A) (A) (A) (A) (A)
                 (A) (A) (A) (A) (A) (A) (A) (A) (A) (A) (A) (A)
                 (A) (A) (A) (A) (A) (A) (A) (A) (A) (A) (A) (A)
                 (A) (A) (A) (A) (A)
       Virtual   (A) (A) (A) (A) (A) (A) (A) (A) (A) (A) (A) (A)
                 (A) (A) (A) (A) (A) (A) (A) (A) (A) (A) (A) (A)
                 (A) (A) (A) (A) (A) (A) (A) (A) (A) (A) (A) (A)
                 (A) (A) (A) (A) (A) (A) (A) (A) (A) (A) (A) (A)
                 (A) (A) (A) (A) (A) (A) (A) (A) (A) (A) (A) (A)
                 (A) (A) (A) (A) (A) (A) (A) (A) (A) (A) (A) (A)
                 (A) (A) (A) (A) (A) (A) (A) (A) (A) (A) (A) (A)
                 (A) (A) (A) (A) (A) (A) (A) (A) (A) (A) (A) (A)
                 (A) (A) (A) (A) (A) (A) (A) (A) (A) (A) (A) (A)
                 (A) (A) (A) (A) (A) (A) (A) (A) (A) (A) (A) (A)
                 (A) (A) (A) (A) (A) (A) (A) (A) (A) (A) (A) (A)
                 (A) (A) (A) (A) (A) (A) (A) (A) (A) (A) (A) (A)
                 (A) (A) (A) (A) (A) (A) (A) (A) (A) (A) (A) (A)
                 (A) (A) (A) (A) (A) (A) (A) (A) (A) (A) (A) (A)
                 (A) (A) (A) (A) (A) (A) (A) (A) (A) (A) (A) (A)
                 (A) (A) (A) (A) (A) (A) (A) (A) (A) (A) (A) (A)
                 (A) (A) (A) (A)
 The electronic state is 1-A.
 Alpha  occ. eigenvalues --  -19.18815 -19.12814 -10.26884 -10.25655 -10.24690
 Alpha  occ. eigenvalues --  -10.20304 -10.20183 -10.20109 -10.19824 -10.19538
 Alpha  occ. eigenvalues --  -10.19481 -10.19301 -10.19241 -10.19226 -10.18605
 Alpha  occ. eigenvalues --   -1.07154  -1.02393  -0.88335  -0.82924  -0.78406
 Alpha  occ. eigenvalues --   -0.76689  -0.74406  -0.71900  -0.70596  -0.63420
 Alpha  occ. eigenvalues --   -0.62301  -0.60645  -0.55662  -0.53464  -0.51653
 Alpha  occ. eigenvalues --   -0.49317  -0.47753  -0.47162  -0.46285  -0.45544
 Alpha  occ. eigenvalues --   -0.44434  -0.43777  -0.42638  -0.41463  -0.40574
 Alpha  occ. eigenvalues --   -0.40072  -0.38993  -0.38183  -0.36510  -0.36032
 Alpha  occ. eigenvalues --   -0.35188  -0.34476  -0.33325  -0.30299  -0.28679
 Alpha  occ. eigenvalues --   -0.24316  -0.23468  -0.21205
 Alpha virt. eigenvalues --   -0.05559  -0.03007   0.02237   0.03321   0.08892
 Alpha virt. eigenvalues --    0.09506   0.10548   0.11040   0.11692   0.13248
 Alpha virt. eigenvalues --    0.14426   0.14787   0.15378   0.16318   0.17492
 Alpha virt. eigenvalues --    0.18047   0.19286   0.20025   0.20326   0.23221
 Alpha virt. eigenvalues --    0.24273   0.25469   0.27059   0.30841   0.31494
 Alpha virt. eigenvalues --    0.31954   0.33988   0.36910   0.37543   0.40202
 Alpha virt. eigenvalues --    0.48001   0.49292   0.49808   0.50260   0.50568
 Alpha virt. eigenvalues --    0.52393   0.53006   0.53796   0.54597   0.55116
 Alpha virt. eigenvalues --    0.55536   0.56726   0.57623   0.57933   0.58952
 Alpha virt. eigenvalues --    0.59329   0.60237   0.60810   0.61431   0.62708
 Alpha virt. eigenvalues --    0.63042   0.63647   0.65675   0.66108   0.68103
 Alpha virt. eigenvalues --    0.69607   0.70469   0.74389   0.74864   0.76726
 Alpha virt. eigenvalues --    0.78540   0.81127   0.81836   0.82243   0.82700
 Alpha virt. eigenvalues --    0.83449   0.84337   0.85533   0.85651   0.86477
 Alpha virt. eigenvalues --    0.87194   0.88517   0.90694   0.90873   0.92300
 Alpha virt. eigenvalues --    0.93941   0.94696   0.95671   0.97256   0.98443
 Alpha virt. eigenvalues --    1.00141   1.01142   1.03983   1.04033   1.05604
 Alpha virt. eigenvalues --    1.07017   1.08898   1.10900   1.12706   1.16652
 Alpha virt. eigenvalues --    1.18453   1.19802   1.21352   1.23609   1.24039
 Alpha virt. eigenvalues --    1.24948   1.27543   1.33390   1.35547   1.36421
 Alpha virt. eigenvalues --    1.38851   1.41469   1.41887   1.44495   1.45658
 Alpha virt. eigenvalues --    1.46504   1.47716   1.48902   1.49837   1.51068
 Alpha virt. eigenvalues --    1.51835   1.52626   1.54184   1.66136   1.68566
 Alpha virt. eigenvalues --    1.71887   1.75992   1.77208   1.78421   1.79429
 Alpha virt. eigenvalues --    1.83615   1.84148   1.85463   1.86342   1.87306
 Alpha virt. eigenvalues --    1.90030   1.91316   1.93064   1.93462   1.94227
 Alpha virt. eigenvalues --    1.96088   1.96872   1.98379   2.01695   2.03466
 Alpha virt. eigenvalues --    2.04151   2.06238   2.08161   2.10327   2.10630
 Alpha virt. eigenvalues --    2.11998   2.15608   2.18178   2.20698   2.22474
 Alpha virt. eigenvalues --    2.23451   2.24676   2.27340   2.27446   2.29191
 Alpha virt. eigenvalues --    2.32424   2.32690   2.33774   2.35439   2.38972
 Alpha virt. eigenvalues --    2.41016   2.43237   2.45157   2.52380   2.53556
 Alpha virt. eigenvalues --    2.57506   2.58549   2.63538   2.64320   2.68629
 Alpha virt. eigenvalues --    2.69370   2.70143   2.71911   2.78281   2.80049
 Alpha virt. eigenvalues --    2.83028   2.87306   2.89069   2.94967   2.98539
 Alpha virt. eigenvalues --    3.00776   3.04787   3.13065   3.15273   3.40913
 Alpha virt. eigenvalues --    3.49864   3.96813   4.04472   4.08997   4.10520
 Alpha virt. eigenvalues --    4.12074   4.13044   4.19361   4.22034   4.26009
 Alpha virt. eigenvalues --    4.33698   4.36497   4.42304   4.50180   4.64768
 Alpha virt. eigenvalues --    4.85261
          Condensed to atoms (all electrons):
              1          2          3          4          5          6
     1  C    4.899095   0.247285  -0.045415   0.004294  -0.000135   0.000007
     2  O    0.247285   8.193580   0.279895  -0.052558   0.002930   0.000346
     3  C   -0.045415   0.279895   4.555702   0.502196  -0.003613  -0.036948
     4  C    0.004294  -0.052558   0.502196   5.009761   0.499278  -0.007197
     5  C   -0.000135   0.002930  -0.003613   0.499278   5.135970   0.433819
     6  C    0.000007   0.000346  -0.036948  -0.007197   0.433819   4.711640
     7  C    0.000641   0.002986   0.024712  -0.034854  -0.027391   0.489093
     8  C   -0.007179  -0.056629   0.415975  -0.056702  -0.079466  -0.034141
     9  C   -0.000024  -0.000054   0.007372  -0.000564   0.016875  -0.020466
    10  C   -0.000000   0.000000  -0.000287   0.000046  -0.000300  -0.040472
    11  C    0.000000  -0.000000   0.000046  -0.000290   0.008444   0.003100
    12  C   -0.000000   0.000001  -0.000756   0.008365  -0.097394   0.411556
    13  C    0.000000   0.000000  -0.000000   0.000002  -0.000192   0.002803
    14  O   -0.000000   0.000000   0.000000  -0.000000   0.000000  -0.000070
    15  C   -0.000000   0.000000   0.000000  -0.000000   0.000004  -0.000151
    16  H    0.383535  -0.030464   0.003115  -0.000111   0.000004  -0.000000
    17  H    0.365021  -0.035370  -0.005046   0.000015  -0.000000   0.000001
    18  H    0.364926  -0.035513  -0.004992   0.000021  -0.000003   0.000006
    19  H   -0.000179   0.000028  -0.034929   0.343902  -0.036717   0.003321
    20  H    0.000003  -0.000061   0.003901  -0.041277   0.355820  -0.039975
    21  H    0.006432  -0.007291  -0.049124   0.004452   0.000528   0.004879
    22  H   -0.000005  -0.000000   0.000216   0.000012  -0.000187   0.004629
    23  H   -0.000000  -0.000000   0.000003  -0.000000   0.000011   0.000770
    24  H    0.000000   0.000000   0.000016   0.000157  -0.007936  -0.040239
    25  H    0.000000  -0.000000  -0.000000   0.000000  -0.000007  -0.000151
    26  H   -0.000000  -0.000000   0.000000   0.000000   0.000000   0.000004
    27  H   -0.000000   0.000000   0.000000  -0.000000  -0.000011   0.000168
              7          8          9         10         11         12
     1  C    0.000641  -0.007179  -0.000024  -0.000000   0.000000  -0.000000
     2  O    0.002986  -0.056629  -0.000054   0.000000  -0.000000   0.000001
     3  C    0.024712   0.415975   0.007372  -0.000287   0.000046  -0.000756
     4  C   -0.034854  -0.056702  -0.000564   0.000046  -0.000290   0.008365
     5  C   -0.027391  -0.079466   0.016875  -0.000300   0.008444  -0.097394
     6  C    0.489093  -0.034141  -0.020466  -0.040472   0.003100   0.411556
     7  C    4.671353   0.394177   0.443517  -0.007472  -0.031926  -0.032314
     8  C    0.394177   5.424518  -0.095019   0.008436  -0.000729   0.019345
     9  C    0.443517  -0.095019   5.179665   0.459913  -0.012541  -0.080710
    10  C   -0.007472   0.008436   0.459913   5.030451   0.467791  -0.052622
    11  C   -0.031926  -0.000729  -0.012541   0.467791   5.023351   0.463278
    12  C   -0.032314   0.019345  -0.080710  -0.052622   0.463278   5.313372
    13  C    0.000590   0.000001   0.006900  -0.034181   0.289010  -0.033422
    14  O   -0.000022   0.000000   0.000990   0.004347  -0.093701   0.002696
    15  C   -0.000018   0.000000  -0.000094   0.009623  -0.128738  -0.008446
    16  H    0.000006   0.000204   0.000000   0.000000   0.000000  -0.000000
    17  H   -0.000165   0.005254  -0.000013  -0.000000   0.000000   0.000000
    18  H   -0.000191   0.005337  -0.000012  -0.000000   0.000000   0.000000
    19  H    0.000403   0.007274   0.000007  -0.000000   0.000003  -0.000169
    20  H    0.004579   0.000352  -0.000191   0.000013   0.000171  -0.008807
    21  H   -0.036397   0.347689  -0.008730   0.000147   0.000021  -0.000211
    22  H   -0.040435  -0.009059   0.353542  -0.041481   0.003449   0.000777
    23  H    0.002586  -0.000176  -0.037387   0.355809  -0.041429   0.005184
    24  H    0.004454  -0.000202   0.000330   0.005271  -0.042355   0.346939
    25  H    0.000016   0.000000  -0.000042  -0.000623   0.006652   0.000687
    26  H   -0.000000  -0.000000   0.000002  -0.000159   0.005431   0.000153
    27  H    0.000004   0.000000   0.000003  -0.000102  -0.000387   0.000401
             13         14         15         16         17         18
     1  C    0.000000  -0.000000  -0.000000   0.383535   0.365021   0.364926
     2  O    0.000000   0.000000   0.000000  -0.030464  -0.035370  -0.035513
     3  C   -0.000000   0.000000   0.000000   0.003115  -0.005046  -0.004992
     4  C    0.000002  -0.000000  -0.000000  -0.000111   0.000015   0.000021
     5  C   -0.000192   0.000000   0.000004   0.000004  -0.000000  -0.000003
     6  C    0.002803  -0.000070  -0.000151  -0.000000   0.000001   0.000006
     7  C    0.000590  -0.000022  -0.000018   0.000006  -0.000165  -0.000191
     8  C    0.000001   0.000000   0.000000   0.000204   0.005254   0.005337
     9  C    0.006900   0.000990  -0.000094   0.000000  -0.000013  -0.000012
    10  C   -0.034181   0.004347   0.009623   0.000000  -0.000000  -0.000000
    11  C    0.289010  -0.093701  -0.128738   0.000000   0.000000   0.000000
    12  C   -0.033422   0.002696  -0.008446  -0.000000   0.000000   0.000000
    13  C    4.574802   0.574038   0.312610   0.000000  -0.000000   0.000000
    14  O    0.574038   8.034654  -0.087218  -0.000000  -0.000000   0.000000
    15  C    0.312610  -0.087218   5.379372  -0.000000   0.000000  -0.000000
    16  H    0.000000  -0.000000  -0.000000   0.539266  -0.033397  -0.033437
    17  H   -0.000000  -0.000000   0.000000  -0.033397   0.590188  -0.045672
    18  H    0.000000   0.000000  -0.000000  -0.033437  -0.045672   0.590902
    19  H   -0.000000   0.000000   0.000000  -0.000027   0.000029   0.000030
    20  H   -0.000003  -0.000000  -0.000003  -0.000000  -0.000000  -0.000000
    21  H    0.000000   0.000000   0.000000  -0.000151   0.002022   0.001992
    22  H   -0.000147   0.000003   0.000003   0.000000  -0.000005  -0.000005
    23  H   -0.006712   0.011357   0.000706  -0.000000   0.000000   0.000000
    24  H   -0.010256   0.000049   0.007324   0.000000  -0.000000  -0.000000
    25  H   -0.023099   0.002385   0.347918   0.000000  -0.000000   0.000000
    26  H   -0.019731   0.004933   0.350836   0.000000  -0.000000   0.000000
    27  H   -0.015736   0.000386   0.351514  -0.000000  -0.000000   0.000000
             19         20         21         22         23         24
     1  C   -0.000179   0.000003   0.006432  -0.000005  -0.000000   0.000000
     2  O    0.000028  -0.000061  -0.007291  -0.000000  -0.000000   0.000000
     3  C   -0.034929   0.003901  -0.049124   0.000216   0.000003   0.000016
     4  C    0.343902  -0.041277   0.004452   0.000012  -0.000000   0.000157
     5  C   -0.036717   0.355820   0.000528  -0.000187   0.000011  -0.007936
     6  C    0.003321  -0.039975   0.004879   0.004629   0.000770  -0.040239
     7  C    0.000403   0.004579  -0.036397  -0.040435   0.002586   0.004454
     8  C    0.007274   0.000352   0.347689  -0.009059  -0.000176  -0.000202
     9  C    0.000007  -0.000191  -0.008730   0.353542  -0.037387   0.000330
    10  C   -0.000000   0.000013   0.000147  -0.041481   0.355809   0.005271
    11  C    0.000003   0.000171   0.000021   0.003449  -0.041429  -0.042355
    12  C   -0.000169  -0.008807  -0.000211   0.000777   0.005184   0.346939
    13  C   -0.000000  -0.000003   0.000000  -0.000147  -0.006712  -0.010256
    14  O    0.000000  -0.000000   0.000000   0.000003   0.011357   0.000049
    15  C    0.000000  -0.000003   0.000000   0.000003   0.000706   0.007324
    16  H   -0.000027  -0.000000  -0.000151   0.000000  -0.000000   0.000000
    17  H    0.000029  -0.000000   0.002022  -0.000005   0.000000  -0.000000
    18  H    0.000030  -0.000000   0.001992  -0.000005   0.000000  -0.000000
    19  H    0.579805  -0.005761  -0.000166  -0.000000   0.000000  -0.000012
    20  H   -0.005761   0.588412   0.000019   0.000002  -0.000000   0.006478
    21  H   -0.000166   0.000019   0.594026   0.006800  -0.000012   0.000003
    22  H   -0.000000   0.000002   0.006800   0.594860  -0.004414   0.000021
    23  H    0.000000  -0.000000  -0.000012  -0.004414   0.557555  -0.000159
    24  H   -0.000012   0.006478   0.000003   0.000021  -0.000159   0.594061
    25  H   -0.000000  -0.000002  -0.000000   0.000000  -0.000044   0.000536
    26  H   -0.000000   0.000000   0.000000  -0.000000  -0.000021  -0.000125
    27  H   -0.000000  -0.000002  -0.000000  -0.000000  -0.000007   0.001854
             25         26         27
     1  C    0.000000  -0.000000  -0.000000
     2  O   -0.000000  -0.000000   0.000000
     3  C   -0.000000   0.000000   0.000000
     4  C    0.000000   0.000000  -0.000000
     5  C   -0.000007   0.000000  -0.000011
     6  C   -0.000151   0.000004   0.000168
     7  C    0.000016  -0.000000   0.000004
     8  C    0.000000  -0.000000   0.000000
     9  C   -0.000042   0.000002   0.000003
    10  C   -0.000623  -0.000159  -0.000102
    11  C    0.006652   0.005431  -0.000387
    12  C    0.000687   0.000153   0.000401
    13  C   -0.023099  -0.019731  -0.015736
    14  O    0.002385   0.004933   0.000386
    15  C    0.347918   0.350836   0.351514
    16  H    0.000000   0.000000  -0.000000
    17  H   -0.000000  -0.000000  -0.000000
    18  H    0.000000   0.000000   0.000000
    19  H   -0.000000  -0.000000  -0.000000
    20  H   -0.000002   0.000000  -0.000002
    21  H   -0.000000   0.000000  -0.000000
    22  H    0.000000  -0.000000  -0.000000
    23  H   -0.000044  -0.000021  -0.000007
    24  H    0.000536  -0.000125   0.001854
    25  H    0.546965  -0.024892  -0.024732
    26  H   -0.024892   0.523412  -0.019969
    27  H   -0.024732  -0.019969   0.530959
 Mulliken atomic charges:
              1
     1  C   -0.218302
     2  O   -0.509112
     3  C    0.387961
     4  C   -0.178946
     5  C   -0.200330
     6  C    0.153670
     7  C    0.172068
     8  C   -0.289261
     9  C   -0.213268
    10  C   -0.164148
    11  C    0.081350
    12  C   -0.257904
    13  C    0.382723
    14  O   -0.454829
    15  C   -0.535243
    16  H    0.171457
    17  H    0.157138
    18  H    0.156610
    19  H    0.143158
    20  H    0.136329
    21  H    0.133073
    22  H    0.131422
    23  H    0.156382
    24  H    0.133790
    25  H    0.168431
    26  H    0.180124
    27  H    0.175658
 Sum of Mulliken atomic charges =  -0.00000
 Mulliken charges with hydrogens summed into heavy atoms:
              1
     1  C    0.266903
     2  O   -0.509112
     3  C    0.387961
     4  C   -0.035788
     5  C   -0.064001
     6  C    0.153670
     7  C    0.172068
     8  C   -0.156188
     9  C   -0.081846
    10  C   -0.007766
    11  C    0.081350
    12  C   -0.124114
    13  C    0.382723
    14  O   -0.454829
    15  C   -0.011030
 Sum of Mulliken charges with hydrogens summed into heavy atoms =  -0.00000
 Electronic spatial extent (au):  <R**2>=           4146.4990
 Charge=             -0.0000 electrons
 Dipole moment (field-independent basis, Debye):
    X=              3.2294    Y=              0.9444    Z=              1.0276  Tot=              3.5181
 Quadrupole moment (field-independent basis, Debye-Ang):
   XX=            -89.0228   YY=            -78.7918   ZZ=            -89.2545
   XY=            -15.7934   XZ=             -3.8829   YZ=             -2.1107
 Traceless Quadrupole moment (field-independent basis, Debye-Ang):
   XX=             -3.3331   YY=              6.8979   ZZ=             -3.5648
   XY=            -15.7934   XZ=             -3.8829   YZ=             -2.1107
 Octapole moment (field-independent basis, Debye-Ang**2):
  XXX=            111.2973  YYY=              0.8281  ZZZ=             -0.4748  XYY=             12.0835
  XXY=             10.9633  XXZ=             22.6821  XZZ=             -0.7871  YZZ=             -0.6642
  YYZ=             -0.4151  XYZ=              4.4270
 Hexadecapole moment (field-independent basis, Debye-Ang**3):
 XXXX=          -4479.8354 YYYY=           -744.7375 ZZZZ=           -122.7433 XXXY=           -330.1362
 XXXZ=            -75.6546 YYYX=             17.6261 YYYZ=             -9.3261 ZZZX=              6.5260
 ZZZY=              3.8016 XXYY=           -859.3059 XXZZ=           -769.8114 YYZZ=           -163.1094
 XXYZ=            -26.8017 YYXZ=             -1.6086 ZZXY=             -4.8520
 N-N= 9.026802094644D+02 E-N=-3.323454456710D+03  KE= 6.470979852021D+02
 No NMR shielding tensors so no spin-rotation constants.
 Leave Link  601 at Tue Sep 28 23:19:48 2021, MaxMem= 1073741824 cpu:       1.3
 (Enter /sw/target/amd/app/gaussian/Gaussian09RevA.02_gcc-4.9.2/g09/l701.exe)
 Compute integral first derivatives.
 ... and contract with generalized density number  0.
 Leave Link  701 at Tue Sep 28 23:19:50 2021, MaxMem= 1073741824 cpu:       1.2
 (Enter /sw/target/amd/app/gaussian/Gaussian09RevA.02_gcc-4.9.2/g09/l702.exe)
 L702 exits ... SP integral derivatives will be done elsewhere.
 Leave Link  702 at Tue Sep 28 23:19:50 2021, MaxMem= 1073741824 cpu:       0.0
 (Enter /sw/target/amd/app/gaussian/Gaussian09RevA.02_gcc-4.9.2/g09/l703.exe)
 Compute integral first derivatives, UseDBF=F ICtDFT=           0.
 Integral derivatives from FoFDir, PRISM(SPDF).
 Calling FoFJK, ICntrl=      2127 FMM=F ISym2X=0 I1Cent= 0 IOpClX= 0 NMat=1 NMatS=1 NMatT=0.
 FoFCou: FMM=F IPFlag=           0 FMFlag=      100000 FMFlg1=         800
         NFxFlg=           0 DoJE=F BraDBF=F KetDBF=F FulRan=T
         Omega=  0.000000  0.000000  1.000000  0.000000  0.000000 ICntrl=    2127 IOpCl=  0
         NMat0=    1 NMatS0=    1 NMatT0=    0 NMatD0=    1 NMtDS0=    0 NMtDT0=    0
         I1Cent=           0 NGrid=           0.
 Symmetry not used in FoFCou.
 Leave Link  703 at Tue Sep 28 23:21:12 2021, MaxMem= 1073741824 cpu:      83.3
 (Enter /sw/target/amd/app/gaussian/Gaussian09RevA.02_gcc-4.9.2/g09/l716.exe)
 Dipole        = 1.27055597D+00 3.71564287D-01 4.04292303D-01
 ***** Axes restored to original set *****
 -------------------------------------------------------------------
 Center     Atomic                   Forces (Hartrees/Bohr)
 Number     Number              X              Y              Z
 -------------------------------------------------------------------
      1        6          -0.003712740    0.003097898   -0.002450562
      2        8           0.004140241    0.001351976    0.003251466
      3        6           0.010281242    0.014239658    0.009466970
      4        6          -0.001069326   -0.035197620   -0.004779531
      5        6          -0.021273351    0.020062053   -0.014179946
      6        6           0.001913786   -0.014430069   -0.001860024
      7        6          -0.000820003    0.010713856    0.000492778
      8        6          -0.013383770    0.015407138   -0.008127817
      9        6           0.021149438   -0.015766798    0.013788423
     10        6          -0.002647694    0.031853063   -0.000330575
     11        6          -0.014205754   -0.015838739   -0.010288685
     12        6           0.013275535   -0.003401385    0.011469841
     13        6           0.017740355    0.005606065    0.000612185
     14        8          -0.009843505   -0.002923199    0.001214011
     15        6           0.001929058   -0.005768522    0.009206498
     16        1          -0.002122509   -0.004245110   -0.002080991
     17        1           0.002296403   -0.000484138    0.002693591
     18        1           0.003298063   -0.000355238    0.001416933
     19        1           0.001096447    0.002417886    0.001251721
     20        1           0.001747004   -0.000194568    0.001351376
     21        1          -0.000342955   -0.000816168   -0.000288923
     22        1          -0.002366170    0.000368381   -0.001413786
     23        1          -0.001594421   -0.003135922   -0.002125988
     24        1          -0.000619426    0.000583587    0.000896099
     25        1          -0.003206044   -0.001230035   -0.004517183
     26        1           0.001987150    0.000069188   -0.003262811
     27        1          -0.003647055   -0.001983238   -0.001405068
 -------------------------------------------------------------------
 Cartesian Forces:  Max     0.035197620 RMS     0.009368741
 Leave Link  716 at Tue Sep 28 23:21:12 2021, MaxMem= 1073741824 cpu:       0.1
 (Enter /sw/target/amd/app/gaussian/Gaussian09RevA.02_gcc-4.9.2/g09/l103.exe)

 GradGradGradGradGradGradGradGradGradGradGradGradGradGradGradGradGradGrad
 Berny optimization.
 Internal  Forces:  Max     0.020718740 RMS     0.004859886
 Search for a local minimum.
 Step number   1 out of a maximum of  143
 All quantities printed in internal units (Hartrees-Bohrs-Radians)
 RMS Force = .48599D-02 SwitMx=.10000D-02 MixMth= 1
 Mixed Optimization -- RFO/linear search
 Second derivative matrix not updated -- first step.
     Eigenvalues ---    0.00694   0.00796   0.00954   0.01390   0.01755
     Eigenvalues ---    0.01993   0.02008   0.02015   0.02068   0.02081
     Eigenvalues ---    0.02089   0.02093   0.02097   0.02101   0.02112
     Eigenvalues ---    0.02125   0.02141   0.02145   0.02147   0.02155
     Eigenvalues ---    0.07289   0.07541   0.10004   0.10522   0.15997
     Eigenvalues ---    0.15999   0.16000   0.16000   0.16000   0.16000
     Eigenvalues ---    0.16000   0.16000   0.16000   0.16000   0.16000
     Eigenvalues ---    0.16000   0.22267   0.22585   0.23502   0.23532
     Eigenvalues ---    0.24468   0.24775   0.24999   0.25000   0.25000
     Eigenvalues ---    0.25000   0.25000   0.31816   0.33915   0.34201
     Eigenvalues ---    0.34202   0.34345   0.34367   0.34390   0.34530
     Eigenvalues ---    0.34981   0.35001   0.35033   0.35068   0.35160
     Eigenvalues ---    0.35321   0.38621   0.41167   0.41809   0.42038
     Eigenvalues ---    0.43590   0.44654   0.45366   0.45589   0.45694
     Eigenvalues ---    0.45798   0.46238   0.46408   0.51321   0.91214
     Eigenvalues --- 1000.000001000.000001000.000001000.000001000.00000
     Eigenvalues --- 1000.000001000.000001000.000001000.000001000.00000
     Eigenvalues --- 1000.000001000.000001000.000001000.000001000.00000
     Eigenvalues --- 1000.000001000.000001000.000001000.000001000.00000
     Eigenvalues --- 1000.000001000.000001000.000001000.000001000.00000
     Eigenvalues --- 1000.000001000.000001000.000001000.000001000.00000
     Eigenvalues --- 1000.000001000.000001000.000001000.000001000.00000
     Eigenvalues --- 1000.000001000.000001000.000001000.000001000.00000
     Eigenvalues --- 1000.000001000.000001000.000001000.000001000.00000
     Eigenvalues --- 1000.000001000.000001000.000001000.000001000.00000
     Eigenvalues --- 1000.000001000.000001000.000001000.000001000.00000
     Eigenvalues --- 1000.000001000.000001000.00000
 RFO step:  Lambda=-9.47999826D-03 EMin= 6.94402163D-03
 Linear search not attempted -- first point.
 Maximum step size (   0.300) exceeded in Quadratic search.
    -- Step size scaled by   0.991
 Iteration  1 RMS(Cart)=  0.06794812 RMS(Int)=  0.00203485
 Iteration  2 RMS(Cart)=  0.00287329 RMS(Int)=  0.00005173
 Iteration  3 RMS(Cart)=  0.00000417 RMS(Int)=  0.00005161
 Iteration  4 RMS(Cart)=  0.00000000 RMS(Int)=  0.00005161
 Variable       Old X    -DE/DX   Delta X   Delta X   Delta X     New X
                                 (Linear)    (Quad)   (Total)
    R1        2.68875  -0.00200   0.00000  -0.00460  -0.00460   2.68414
    R2        2.06677  -0.00080   0.00000  -0.00225  -0.00225   2.06452
    R3        2.06990   0.00118   0.00000   0.00332   0.00332   2.07322
    R4        2.06992   0.00117   0.00000   0.00331   0.00331   2.07323
    R5        2.58555  -0.00346   0.00000  -0.00656  -0.00656   2.57899
    R6        2.63534   0.02072   0.00000   0.04173   0.04172   2.67706
    R7        2.63834  -0.00837   0.00000  -0.01790  -0.01792   2.62043
    R8        2.63693  -0.01686   0.00000  -0.03651  -0.03650   2.60043
    R9        2.05621  -0.00173   0.00000  -0.00478  -0.00478   2.05143
   R10        2.65024   0.01508   0.00000   0.03270   0.03271   2.68295
   R11        2.05564  -0.00090   0.00000  -0.00249  -0.00249   2.05315
   R12        2.67172   0.01667   0.00000   0.04066   0.04068   2.71241
   R13        2.65280   0.01033   0.00000   0.02321   0.02324   2.67603
   R14        2.65273   0.01269   0.00000   0.02860   0.02859   2.68133
   R15        2.65224   0.01328   0.00000   0.02939   0.02938   2.68161
   R16        2.05157  -0.00093   0.00000  -0.00254  -0.00254   2.04903
   R17        2.63558  -0.01352   0.00000  -0.02915  -0.02917   2.60640
   R18        2.05673  -0.00096   0.00000  -0.00265  -0.00265   2.05407
   R19        2.63970   0.01821   0.00000   0.03665   0.03664   2.67634
   R20        2.05706  -0.00271   0.00000  -0.00748  -0.00748   2.04958
   R21        2.64466  -0.00850   0.00000  -0.01883  -0.01882   2.62584
   R22        2.80773   0.00809   0.00000   0.02302   0.02302   2.83075
   R23        2.05416  -0.00064   0.00000  -0.00174  -0.00174   2.05241
   R24        2.32378  -0.00942   0.00000  -0.01014  -0.01014   2.31365
   R25        2.84481   0.00917   0.00000   0.02774   0.02774   2.87255
   R26        2.06716   0.00064   0.00000   0.00179   0.00179   2.06895
   R27        2.06751  -0.00079   0.00000  -0.00223  -0.00223   2.06528
   R28        2.06444   0.00248   0.00000   0.00693   0.00693   2.07137
    A1        1.88458  -0.00698   0.00000  -0.03875  -0.03869   1.84589
    A2        1.93825   0.00146   0.00000   0.00749   0.00753   1.94578
    A3        1.93791   0.00147   0.00000   0.00752   0.00756   1.94546
    A4        1.88013   0.00360   0.00000   0.02309   0.02315   1.90328
    A5        1.88029   0.00361   0.00000   0.02322   0.02328   1.90357
    A6        1.93991  -0.00316   0.00000  -0.02211  -0.02209   1.91782
    A7        2.03388   0.00645   0.00000   0.02466   0.02466   2.05853
    A8        2.00656  -0.00107   0.00000  -0.00280  -0.00279   2.00377
    A9        2.19422  -0.00342   0.00000  -0.01176  -0.01175   2.18246
   A10        2.08241   0.00449   0.00000   0.01456   0.01454   2.09695
   A11        2.10534   0.00068   0.00000  -0.00181  -0.00181   2.10352
   A12        2.08874  -0.00277   0.00000  -0.01331  -0.01331   2.07543
   A13        2.08910   0.00209   0.00000   0.01512   0.01512   2.10423
   A14        2.10254   0.00234   0.00000   0.00924   0.00926   2.11179
   A15        2.07336   0.00091   0.00000   0.00756   0.00755   2.08091
   A16        2.10728  -0.00325   0.00000  -0.01679  -0.01680   2.09048
   A17        2.08045  -0.00373   0.00000  -0.01243  -0.01243   2.06802
   A18        2.11872   0.00537   0.00000   0.01587   0.01581   2.13453
   A19        2.08401  -0.00164   0.00000  -0.00341  -0.00340   2.08061
   A20        2.08545  -0.00075   0.00000   0.00076   0.00076   2.08622
   A21        2.08483  -0.00484   0.00000  -0.01678  -0.01678   2.06805
   A22        2.11289   0.00559   0.00000   0.01604   0.01602   2.12891
   A23        2.11017  -0.00303   0.00000  -0.01031  -0.01032   2.09985
   A24        2.10841   0.00151   0.00000   0.00514   0.00515   2.11356
   A25        2.06459   0.00152   0.00000   0.00518   0.00518   2.06977
   A26        2.10612   0.00120   0.00000   0.00505   0.00502   2.11114
   A27        2.10318  -0.00328   0.00000  -0.01817  -0.01816   2.08503
   A28        2.07387   0.00207   0.00000   0.01311   0.01312   2.08699
   A29        2.09389   0.00502   0.00000   0.01651   0.01646   2.11035
   A30        2.08848   0.00063   0.00000   0.01014   0.01015   2.09862
   A31        2.10079  -0.00565   0.00000  -0.02659  -0.02658   2.07421
   A32        2.09420  -0.00236   0.00000  -0.01335  -0.01341   2.08079
   A33        2.07065  -0.00045   0.00000   0.00041   0.00035   2.07100
   A34        2.11833   0.00281   0.00000   0.01286   0.01280   2.13113
   A35        2.10323   0.00262   0.00000   0.01190   0.01193   2.11516
   A36        2.07786  -0.00160   0.00000  -0.00765  -0.00767   2.07020
   A37        2.10192  -0.00102   0.00000  -0.00421  -0.00423   2.09768
   A38        2.09260   0.00181   0.00000   0.00690   0.00686   2.09946
   A39        2.06312   0.00333   0.00000   0.01270   0.01267   2.07579
   A40        2.12743  -0.00515   0.00000  -0.01971  -0.01974   2.10769
   A41        1.92305   0.00343   0.00000   0.02220   0.02208   1.94513
   A42        1.90563  -0.00159   0.00000  -0.00404  -0.00419   1.90144
   A43        1.92403   0.00237   0.00000   0.00631   0.00633   1.93036
   A44        1.87822   0.00233   0.00000   0.02894   0.02866   1.90689
   A45        1.93034  -0.00517   0.00000  -0.04016  -0.04012   1.89022
   A46        1.90171  -0.00141   0.00000  -0.01284  -0.01284   1.88887
    D1        3.14045   0.00002   0.00000   0.00122   0.00122  -3.14152
    D2        1.08278  -0.00095   0.00000  -0.00755  -0.00752   1.07526
    D3       -1.08508   0.00101   0.00000   0.01017   0.01014  -1.07494
    D4       -3.14122   0.00004   0.00000   0.00126   0.00126  -3.13996
    D5       -0.00080   0.00006   0.00000   0.00196   0.00195   0.00115
    D6        3.14150  -0.00001   0.00000  -0.00024  -0.00024   3.14126
    D7        0.00189  -0.00006   0.00000  -0.00197  -0.00196  -0.00007
    D8        0.00100  -0.00002   0.00000  -0.00087  -0.00087   0.00012
    D9       -3.13860  -0.00008   0.00000  -0.00260  -0.00260  -3.14120
   D10       -3.13985  -0.00003   0.00000  -0.00096  -0.00096  -3.14081
   D11       -0.00237   0.00003   0.00000   0.00091   0.00091  -0.00146
   D12        0.00052  -0.00001   0.00000  -0.00025  -0.00024   0.00027
   D13        3.13800   0.00005   0.00000   0.00163   0.00162   3.13962
   D14       -0.00002   0.00006   0.00000   0.00175   0.00175   0.00173
   D15       -3.13977  -0.00009   0.00000  -0.00324  -0.00328   3.14013
   D16        3.13958   0.00011   0.00000   0.00344   0.00347  -3.14014
   D17       -0.00017  -0.00004   0.00000  -0.00154  -0.00156  -0.00173
   D18       -0.00243  -0.00005   0.00000  -0.00143  -0.00143  -0.00387
   D19       -3.14074  -0.00033   0.00000  -0.01093  -0.01093   3.13151
   D20        3.13728   0.00011   0.00000   0.00369   0.00365   3.14093
   D21       -0.00103  -0.00017   0.00000  -0.00582  -0.00585  -0.00687
   D22        0.00389   0.00001   0.00000   0.00030   0.00031   0.00420
   D23       -3.13270  -0.00009   0.00000  -0.00241  -0.00236  -3.13506
   D24       -3.14092   0.00030   0.00000   0.00965   0.00954  -3.13138
   D25        0.00567   0.00020   0.00000   0.00694   0.00687   0.01255
   D26        3.13367  -0.00010   0.00000  -0.00313  -0.00309   3.13058
   D27        0.01207  -0.00015   0.00000  -0.00516  -0.00511   0.00696
   D28       -0.00462  -0.00037   0.00000  -0.01263  -0.01264  -0.01727
   D29       -3.12623  -0.00043   0.00000  -0.01466  -0.01466  -3.14089
   D30       -0.00297   0.00002   0.00000   0.00053   0.00051  -0.00247
   D31       -3.14056  -0.00004   0.00000  -0.00131  -0.00131   3.14131
   D32        3.13354   0.00009   0.00000   0.00318   0.00317   3.13671
   D33       -0.00404   0.00003   0.00000   0.00135   0.00135  -0.00269
   D34        0.00301   0.00011   0.00000   0.00342   0.00336   0.00637
   D35        3.14023   0.00001   0.00000  -0.00025  -0.00025   3.13997
   D36       -3.13351   0.00003   0.00000   0.00072   0.00067  -3.13283
   D37        0.00371  -0.00007   0.00000  -0.00296  -0.00294   0.00077
   D38       -0.01281  -0.00024   0.00000  -0.00830  -0.00829  -0.02110
   D39        3.13674  -0.00045   0.00000  -0.01556  -0.01560   3.12114
   D40        3.13309  -0.00013   0.00000  -0.00462  -0.00459   3.12850
   D41       -0.00055  -0.00034   0.00000  -0.01188  -0.01190  -0.01245
   D42        0.01383   0.00006   0.00000   0.00257   0.00257   0.01640
   D43       -3.13255  -0.00047   0.00000  -0.01710  -0.01694   3.13369
   D44       -3.13578   0.00031   0.00000   0.01006   0.00995  -3.12583
   D45        0.00103  -0.00022   0.00000  -0.00962  -0.00956  -0.00853
   D46       -0.00512   0.00031   0.00000   0.00807   0.00812   0.00300
   D47        3.11621   0.00036   0.00000   0.01010   0.01013   3.12634
   D48        3.14139   0.00086   0.00000   0.02833   0.02837  -3.11342
   D49       -0.02047   0.00091   0.00000   0.03036   0.03038   0.00992
   D50       -0.46582   0.00271   0.00000   0.13698   0.13713  -0.32869
   D51        2.66783   0.00242   0.00000   0.12163   0.12163   2.78945
[...]
 ZZZY=              0.0008 XXYY=           -848.1966 XXZZ=           -779.4905 YYZZ=           -163.8838
 XXYZ=              0.0000 YYXZ=             -0.0003 ZZXY=              4.7729
 N-N= 8.990554876195D+02 E-N=-3.316196368140D+03  KE= 6.470011002845D+02
 No NMR shielding tensors so no spin-rotation constants.
 Leave Link  601 at Wed Sep 29 04:38:18 2021, MaxMem= 1073741824 cpu:       1.3
 (Enter /sw/target/amd/app/gaussian/Gaussian09RevA.02_gcc-4.9.2/g09/l604.exe)
 Evaluate density.
 Using the total density.
 Monte-Carlo method of calculating molar volume:
 based on  0.001 e/bohr**3 density envelope.
 Number of points per bohr**3 =   20 CutOff= 1.00D-04
 Using the CI density.
 There are       396 points.  Will hold       396 in memory.
 LenV=  1073579386 MDV=  1073741824.
 Box volume = 7800.067 fraction occupied=0.177
 Integrated density= 9.1056619178253484D+01 error=-1.4943380821746516D+01
 Molar volume = 1378.800 bohr**3/mol (123.043 cm**3/mol)
 Recommended a0 for SCRF calculation =  4.52 angstrom (  8.54 bohr)
 Leave Link  604 at Wed Sep 29 04:38:19 2021, MaxMem= 1073741824 cpu:       0.3
 (Enter /sw/target/amd/app/gaussian/Gaussian09RevA.02_gcc-4.9.2/g09/l607.exe)
 ******************************Gaussian NBO Version 3.1******************************
             N A T U R A L   A T O M I C   O R B I T A L   A N D
          N A T U R A L   B O N D   O R B I T A L   A N A L Y S I S
 ******************************Gaussian NBO Version 3.1******************************
       /RESON  / : Allow strongly delocalized NBO set

 Analyzing the CI density

 Job title: COc1ccc2c(c1)ccc(c2)C(=O)C_conf_0                               

 Storage needed:    188466 in NPA (1073737909 available)


 NATURAL POPULATIONS:  Natural atomic orbital occupancies 
                                                          
   NAO  Atom  No  lang   Type(AO)    Occupancy
 --------------------------------------------
     1    C    1  S      Cor( 1S)     1.99943
     2    C    1  S      Val( 2S)     1.09903
     3    C    1  S      Ryd( 3S)     0.00142
     4    C    1  S      Ryd( 4S)     0.00003
     5    C    1  px     Val( 2p)     1.12920
     6    C    1  px     Ryd( 3p)     0.00235
     7    C    1  py     Val( 2p)     0.84953
     8    C    1  py     Ryd( 3p)     0.00319
     9    C    1  pz     Val( 2p)     1.22472
    10    C    1  pz     Ryd( 3p)     0.00027
    11    C    1  dxy    Ryd( 3d)     0.00136
    12    C    1  dxz    Ryd( 3d)     0.00047
    13    C    1  dyz    Ryd( 3d)     0.00199
    14    C    1  dx2y2  Ryd( 3d)     0.00169
    15    C    1  dz2    Ryd( 3d)     0.00108

    16    O    2  S      Cor( 1S)     1.99974
    17    O    2  S      Val( 2S)     1.58805
    18    O    2  S      Ryd( 3S)     0.00081
    19    O    2  S      Ryd( 4S)     0.00005
    20    O    2  px     Val( 2p)     1.47279
    21    O    2  px     Ryd( 3p)     0.00148
    22    O    2  py     Val( 2p)     1.61031
    23    O    2  py     Ryd( 3p)     0.00172
    24    O    2  pz     Val( 2p)     1.83772
    25    O    2  pz     Ryd( 3p)     0.00235
    26    O    2  dxy    Ryd( 3d)     0.00132
    27    O    2  dxz    Ryd( 3d)     0.00089
    28    O    2  dyz    Ryd( 3d)     0.00111
    29    O    2  dx2y2  Ryd( 3d)     0.00128
    30    O    2  dz2    Ryd( 3d)     0.00076

    31    C    3  S      Cor( 1S)     1.99881
    32    C    3  S      Val( 2S)     0.82700
    33    C    3  S      Ryd( 3S)     0.00131
    34    C    3  S      Ryd( 4S)     0.00013
    35    C    3  px     Val( 2p)     0.75866
    36    C    3  px     Ryd( 3p)     0.00824
    37    C    3  py     Val( 2p)     1.08359
    38    C    3  py     Ryd( 3p)     0.00546
    39    C    3  pz     Val( 2p)     1.00198
    40    C    3  pz     Ryd( 3p)     0.00095
    41    C    3  dxy    Ryd( 3d)     0.00128
    42    C    3  dxz    Ryd( 3d)     0.00212
    43    C    3  dyz    Ryd( 3d)     0.00067
    44    C    3  dx2y2  Ryd( 3d)     0.00179
    45    C    3  dz2    Ryd( 3d)     0.00048

    46    C    4  S      Cor( 1S)     1.99903
    47    C    4  S      Val( 2S)     0.96088
    48    C    4  S      Ryd( 3S)     0.00080
    49    C    4  S      Ryd( 4S)     0.00005
    50    C    4  px     Val( 2p)     1.12697
    51    C    4  px     Ryd( 3p)     0.00515
    52    C    4  py     Val( 2p)     1.13166
    53    C    4  py     Ryd( 3p)     0.00460
    54    C    4  pz     Val( 2p)     1.02482
    55    C    4  pz     Ryd( 3p)     0.00085
    56    C    4  dxy    Ryd( 3d)     0.00083
    57    C    4  dxz    Ryd( 3d)     0.00057
    58    C    4  dyz    Ryd( 3d)     0.00038
    59    C    4  dx2y2  Ryd( 3d)     0.00057
    60    C    4  dz2    Ryd( 3d)     0.00045

    61    C    5  S      Cor( 1S)     1.99906
    62    C    5  S      Val( 2S)     0.94452
    63    C    5  S      Ryd( 3S)     0.00061
    64    C    5  S      Ryd( 4S)     0.00005
    65    C    5  px     Val( 2p)     1.08194
    66    C    5  px     Ryd( 3p)     0.00396
    67    C    5  py     Val( 2p)     1.16299
    68    C    5  py     Ryd( 3p)     0.00481
    69    C    5  pz     Val( 2p)     1.01043
    70    C    5  pz     Ryd( 3p)     0.00077
    71    C    5  dxy    Ryd( 3d)     0.00078
    72    C    5  dxz    Ryd( 3d)     0.00066
    73    C    5  dyz    Ryd( 3d)     0.00027
    74    C    5  dx2y2  Ryd( 3d)     0.00070
    75    C    5  dz2    Ryd( 3d)     0.00042

    76    C    6  S      Cor( 1S)     1.99902
    77    C    6  S      Val( 2S)     0.86218
    78    C    6  S      Ryd( 3S)     0.00052
    79    C    6  S      Ryd( 4S)     0.00006
    80    C    6  px     Val( 2p)     1.08674
    81    C    6  px     Ryd( 3p)     0.00500
    82    C    6  py     Val( 2p)     1.08373
    83    C    6  py     Ryd( 3p)     0.00555
    84    C    6  pz     Val( 2p)     1.01591
    85    C    6  pz     Ryd( 3p)     0.00047
    86    C    6  dxy    Ryd( 3d)     0.00070
    87    C    6  dxz    Ryd( 3d)     0.00082
    88    C    6  dyz    Ryd( 3d)     0.00046
    89    C    6  dx2y2  Ryd( 3d)     0.00068
    90    C    6  dz2    Ryd( 3d)     0.00034

    91    C    7  S      Cor( 1S)     1.99902
    92    C    7  S      Val( 2S)     0.86210
    93    C    7  S      Ryd( 3S)     0.00052
    94    C    7  S      Ryd( 4S)     0.00007
    95    C    7  px     Val( 2p)     1.08416
    96    C    7  px     Ryd( 3p)     0.00497
    97    C    7  py     Val( 2p)     1.08186
    98    C    7  py     Ryd( 3p)     0.00543
    99    C    7  pz     Val( 2p)     1.00687
   100    C    7  pz     Ryd( 3p)     0.00068
   101    C    7  dxy    Ryd( 3d)     0.00071
   102    C    7  dxz    Ryd( 3d)     0.00074
   103    C    7  dyz    Ryd( 3d)     0.00045
   104    C    7  dx2y2  Ryd( 3d)     0.00069
   105    C    7  dz2    Ryd( 3d)     0.00034

   106    C    8  S      Cor( 1S)     1.99899
   107    C    8  S      Val( 2S)     0.94240
   108    C    8  S      Ryd( 3S)     0.00059
   109    C    8  S      Ryd( 4S)     0.00006
   110    C    8  px     Val( 2p)     1.08160
   111    C    8  px     Ryd( 3p)     0.00320
   112    C    8  py     Val( 2p)     1.18361
   113    C    8  py     Ryd( 3p)     0.00371
   114    C    8  pz     Val( 2p)     1.09039
   115    C    8  pz     Ryd( 3p)     0.00090
   116    C    8  dxy    Ryd( 3d)     0.00074
   117    C    8  dxz    Ryd( 3d)     0.00050
   118    C    8  dyz    Ryd( 3d)     0.00043
   119    C    8  dx2y2  Ryd( 3d)     0.00059
   120    C    8  dz2    Ryd( 3d)     0.00045

   121    C    9  S      Cor( 1S)     1.99906
   122    C    9  S      Val( 2S)     0.94377
   123    C    9  S      Ryd( 3S)     0.00069
   124    C    9  S      Ryd( 4S)     0.00004
   125    C    9  px     Val( 2p)     1.08252
   126    C    9  px     Ryd( 3p)     0.00408
   127    C    9  py     Val( 2p)     1.16421
   128    C    9  py     Ryd( 3p)     0.00487
   129    C    9  pz     Val( 2p)     1.01892
   130    C    9  pz     Ryd( 3p)     0.00078
   131    C    9  dxy    Ryd( 3d)     0.00078
   132    C    9  dxz    Ryd( 3d)     0.00066
   133    C    9  dyz    Ryd( 3d)     0.00028
   134    C    9  dx2y2  Ryd( 3d)     0.00069
   135    C    9  dz2    Ryd( 3d)     0.00042

   136    C   10  S      Cor( 1S)     1.99906
   137    C   10  S      Val( 2S)     0.94500
   138    C   10  S      Ryd( 3S)     0.00063
   139    C   10  S      Ryd( 4S)     0.00004
   140    C   10  px     Val( 2p)     1.12665
   141    C   10  px     Ryd( 3p)     0.00426
   142    C   10  py     Val( 2p)     1.12370
   143    C   10  py     Ryd( 3p)     0.00465
   144    C   10  pz     Val( 2p)     0.99892
   145    C   10  pz     Ryd( 3p)     0.00135
   146    C   10  dxy    Ryd( 3d)     0.00089
   147    C   10  dxz    Ryd( 3d)     0.00064
   148    C   10  dyz    Ryd( 3d)     0.00035
   149    C   10  dx2y2  Ryd( 3d)     0.00058
   150    C   10  dz2    Ryd( 3d)     0.00044

   151    C   11  S      Cor( 1S)     1.99889
   152    C   11  S      Val( 2S)     0.88085
   153    C   11  S      Ryd( 3S)     0.00041
   154    C   11  S      Ryd( 4S)     0.00004
   155    C   11  px     Val( 2p)     1.02100
   156    C   11  px     Ryd( 3p)     0.00473
   157    C   11  py     Val( 2p)     1.10978
   158    C   11  py     Ryd( 3p)     0.00545
   159    C   11  pz     Val( 2p)     1.14248
   160    C   11  pz     Ryd( 3p)     0.00112
   161    C   11  dxy    Ryd( 3d)     0.00058
   162    C   11  dxz    Ryd( 3d)     0.00082
   163    C   11  dyz    Ryd( 3d)     0.00061
   164    C   11  dx2y2  Ryd( 3d)     0.00074
   165    C   11  dz2    Ryd( 3d)     0.00039

   166    C   12  S      Cor( 1S)     1.99901
   167    C   12  S      Val( 2S)     0.92394
   168    C   12  S      Ryd( 3S)     0.00059
   169    C   12  S      Ryd( 4S)     0.00005
   170    C   12  px     Val( 2p)     1.06747
   171    C   12  px     Ryd( 3p)     0.00299
   172    C   12  py     Val( 2p)     1.16760
   173    C   12  py     Ryd( 3p)     0.00416
   174    C   12  pz     Val( 2p)     1.06387
   175    C   12  pz     Ryd( 3p)     0.00216
   176    C   12  dxy    Ryd( 3d)     0.00074
   177    C   12  dxz    Ryd( 3d)     0.00056
   178    C   12  dyz    Ryd( 3d)     0.00033
   179    C   12  dx2y2  Ryd( 3d)     0.00065
   180    C   12  dz2    Ryd( 3d)     0.00043

   181    C   13  S      Cor( 1S)     1.99928
   182    C   13  S      Val( 2S)     0.84365
   183    C   13  S      Ryd( 3S)     0.00452
   184    C   13  S      Ryd( 4S)     0.00020
   185    C   13  px     Val( 2p)     0.94025
   186    C   13  px     Ryd( 3p)     0.00660
   187    C   13  py     Val( 2p)     0.84726
   188    C   13  py     Ryd( 3p)     0.01218
   189    C   13  pz     Val( 2p)     0.94901
   190    C   13  pz     Ryd( 3p)     0.00316
   191    C   13  dxy    Ryd( 3d)     0.00139
   192    C   13  dxz    Ryd( 3d)     0.00141
   193    C   13  dyz    Ryd( 3d)     0.00133
   194    C   13  dx2y2  Ryd( 3d)     0.00122
   195    C   13  dz2    Ryd( 3d)     0.00033

   196    O   14  S      Cor( 1S)     1.99981
   197    O   14  S      Val( 2S)     1.70450
   198    O   14  S      Ryd( 3S)     0.00015
   199    O   14  S      Ryd( 4S)     0.00001
   200    O   14  px     Val( 2p)     1.30791
   201    O   14  px     Ryd( 3p)     0.00112
   202    O   14  py     Val( 2p)     1.44516
   203    O   14  py     Ryd( 3p)     0.00071
   204    O   14  pz     Val( 2p)     1.77808
   205    O   14  pz     Ryd( 3p)     0.00310
   206    O   14  dxy    Ryd( 3d)     0.00403
   207    O   14  dxz    Ryd( 3d)     0.00151
   208    O   14  dyz    Ryd( 3d)     0.00318
   209    O   14  dx2y2  Ryd( 3d)     0.00274
   210    O   14  dz2    Ryd( 3d)     0.00131

   211    C   15  S      Cor( 1S)     1.99932
   212    C   15  S      Val( 2S)     1.13008
   213    C   15  S      Ryd( 3S)     0.00019
   214    C   15  S      Ryd( 4S)     0.00001
   215    C   15  px     Val( 2p)     1.23426
   216    C   15  px     Ryd( 3p)     0.00168
   217    C   15  py     Val( 2p)     1.07251
   218    C   15  py     Ryd( 3p)     0.00131
   219    C   15  pz     Val( 2p)     1.26602
   220    C   15  pz     Ryd( 3p)     0.00008
   221    C   15  dxy    Ryd( 3d)     0.00048
   222    C   15  dxz    Ryd( 3d)     0.00040
   223    C   15  dyz    Ryd( 3d)     0.00102
   224    C   15  dx2y2  Ryd( 3d)     0.00081
   225    C   15  dz2    Ryd( 3d)     0.00072

   226    H   16  S      Val( 1S)     0.77299
   227    H   16  S      Ryd( 2S)     0.00053

   228    H   17  S      Val( 1S)     0.79624
   229    H   17  S      Ryd( 2S)     0.00197

   230    H   18  S      Val( 1S)     0.79624
   231    H   18  S      Ryd( 2S)     0.00197

   232    H   19  S      Val( 1S)     0.75347
   233    H   19  S      Ryd( 2S)     0.00119

   234    H   20  S      Val( 1S)     0.76733
   235    H   20  S      Ryd( 2S)     0.00103

   236    H   21  S      Val( 1S)     0.76603
   237    H   21  S      Ryd( 2S)     0.00108

   238    H   22  S      Val( 1S)     0.76504
   239    H   22  S      Ryd( 2S)     0.00104

   240    H   23  S      Val( 1S)     0.75950
   241    H   23  S      Ryd( 2S)     0.00082

   242    H   24  S      Val( 1S)     0.77567
   243    H   24  S      Ryd( 2S)     0.00120

   244    H   25  S      Val( 1S)     0.73490
   245    H   25  S      Ryd( 2S)     0.00123

   246    H   26  S      Val( 1S)     0.74073
   247    H   26  S      Ryd( 2S)     0.00111

   248    H   27  S      Val( 1S)     0.73490
   249    H   27  S      Ryd( 2S)     0.00123

 WARNING:  1 low occupancy (<1.9990e) core orbital  found on  C    3
           1 low occupancy (<1.9990e) core orbital  found on  C    8
           1 low occupancy (<1.9990e) core orbital  found on  C   11


 Summary of Natural Population Analysis:                  
                                                          
                                       Natural Population 
                Natural  -----------------------------------------------
    Atom  No    Charge         Core      Valence    Rydberg      Total
 -----------------------------------------------------------------------
      C    1   -0.31575      1.99943     4.30248    0.01384     6.31575
      O    2   -0.52038      1.99974     6.50887    0.01177     8.52038
      C    3    0.30752      1.99881     3.67124    0.02243     5.69248
      C    4   -0.25762      1.99903     4.24433    0.01426     6.25762
      C    5   -0.21197      1.99906     4.19987    0.01304     6.21197
      C    6   -0.06219      1.99902     4.04856    0.01461     6.06219
      C    7   -0.04861      1.99902     4.03499    0.01460     6.04861
      C    8   -0.30815      1.99899     4.29800    0.01117     6.30815
      C    9   -0.22178      1.99906     4.20943    0.01330     6.22178
      C   10   -0.20717      1.99906     4.19427    0.01384     6.20717
      C   11   -0.16791      1.99889     4.15411    0.01490     6.16791
      C   12   -0.23454      1.99901     4.22288    0.01265     6.23454
      C   13    0.38821      1.99928     3.58016    0.03235     5.61179
      O   14   -0.25332      1.99981     6.23564    0.01786     8.25332
      C   15   -0.70888      1.99932     4.70287    0.00669     6.70888
      H   16    0.22648      0.00000     0.77299    0.00053     0.77352
      H   17    0.20178      0.00000     0.79624    0.00197     0.79822
      H   18    0.20178      0.00000     0.79624    0.00197     0.79822
      H   19    0.24534      0.00000     0.75347    0.00119     0.75466
      H   20    0.23163      0.00000     0.76733    0.00103     0.76837
      H   21    0.23289      0.00000     0.76603    0.00108     0.76711
      H   22    0.23392      0.00000     0.76504    0.00104     0.76608
      H   23    0.23968      0.00000     0.75950    0.00082     0.76032
      H   24    0.22313      0.00000     0.77567    0.00120     0.77687
      H   25    0.26387      0.00000     0.73490    0.00123     0.73613
      H   26    0.25815      0.00000     0.74073    0.00111     0.74185
      H   27    0.26387      0.00000     0.73490    0.00123     0.73613
 =======================================================================
   * Total *   -0.00000     29.98753    75.77074    0.24172   106.00000

                                 Natural Population      
 --------------------------------------------------------
   Core                      29.98753 ( 99.9584% of  30)
   Valence                   75.77074 ( 99.6983% of  76)
   Natural Minimal Basis    105.75828 ( 99.7720% of 106)
   Natural Rydberg Basis      0.24172 (  0.2280% of 106)
 --------------------------------------------------------

    Atom  No          Natural Electron Configuration
 ----------------------------------------------------------------------------
      C    1      [core]2S( 1.10)2p( 3.20)3p( 0.01)3d( 0.01)
      O    2      [core]2S( 1.59)2p( 4.92)3p( 0.01)3d( 0.01)
      C    3      [core]2S( 0.83)2p( 2.84)3p( 0.01)3d( 0.01)
      C    4      [core]2S( 0.96)2p( 3.28)3p( 0.01)
      C    5      [core]2S( 0.94)2p( 3.26)3p( 0.01)
      C    6      [core]2S( 0.86)2p( 3.19)3p( 0.01)
      C    7      [core]2S( 0.86)2p( 3.17)3p( 0.01)
      C    8      [core]2S( 0.94)2p( 3.36)3p( 0.01)
      C    9      [core]2S( 0.94)2p( 3.27)3p( 0.01)
      C   10      [core]2S( 0.95)2p( 3.25)3p( 0.01)
      C   11      [core]2S( 0.88)2p( 3.27)3p( 0.01)
      C   12      [core]2S( 0.92)2p( 3.30)3p( 0.01)
      C   13      [core]2S( 0.84)2p( 2.74)3p( 0.02)3d( 0.01)
      O   14      [core]2S( 1.70)2p( 4.53)3d( 0.01)
      C   15      [core]2S( 1.13)2p( 3.57)
      H   16            1S( 0.77)
      H   17            1S( 0.80)
      H   18            1S( 0.80)
      H   19            1S( 0.75)
      H   20            1S( 0.77)
      H   21            1S( 0.77)
      H   22            1S( 0.77)
      H   23            1S( 0.76)
      H   24            1S( 0.78)
      H   25            1S( 0.73)
      H   26            1S( 0.74)
      H   27            1S( 0.73)


 NBO analysis skipped by request.
 Leave Link  607 at Wed Sep 29 04:38:42 2021, MaxMem= 1073741824 cpu:      16.6
 (Enter /sw/target/amd/app/gaussian/Gaussian09RevA.02_gcc-4.9.2/g09/l9999.exe)
 1\1\GINC-HERMITE\SP\RTD-B3LYP-FC\6-31G(d)\C13H12O2\JSCHLEINITZ\29-Sep-
 2021\0\\#p TD(NStates=10, Root=1) b3lyp/6-31G* volume pop=NPA density=
 current Geom=AllCheck Guess=Read\\COc1ccc2c(c1)ccc(c2)C(=O)C_conf_0\\0
 ,1\C,0,3.0588919944,1.0636146567,0.4432741858\O,0,2.6143337611,-0.2400
 601122,0.0974895505\C,0,3.3204193335,-1.3052134891,0.5653235257\C,0,2.
 8054673568,-2.5724334508,0.1712489223\C,0,3.4251931372,-3.725270373,0.
 5762044483\C,0,4.5900498342,-3.6867759916,1.3944463172\C,0,5.105154189
 2,-2.4103424161,1.788878641\C,0,4.4494640834,-1.2266387394,1.359480925
 9\C,0,6.2695988427,-2.3748422628,2.6067629002\C,0,6.8873728876,-3.5318
 782851,3.0102108571\C,0,6.3814757392,-4.8043631469,2.6223470908\C,0,5.
 2487994288,-4.8624531439,1.8261768549\C,0,7.1033895156,-6.0238522469,3
 .0971680596\O,0,8.1001315819,-5.9246944467,3.7990984617\C,0,6.58122446
 26,-7.3955089872,2.6951981541\H,0,2.3586553386,1.7538434441,-0.0300612
 345\H,0,4.0716998872,1.2546652064,0.0654717837\H,0,3.0440720837,1.2165
 901913,1.5301922105\H,0,1.9172989264,-2.5899804197,-0.4523125444\H,0,3
 .0281314462,-4.6909875186,0.2726404523\H,0,4.8557853973,-0.2701714025,
 1.6692850999\H,0,6.6658847,-1.408424647,2.9098440792\H,0,7.7749808614,
 -3.5098831377,3.6335283277\H,0,4.8396199084,-5.8196361051,1.5143514935
 \H,0,5.555529206,-7.54874807,3.0512438621\H,0,7.2312650045,-8.15581787
 79,3.1314561073\H,0,6.5702113026,-7.5111811524,1.6048763036\\Version=A
 M64L-G09RevA.02\State=1-A\HF=-653.0650947\RMSD=9.131e-09\Dipole=0.0785
 265,-0.4225493,0.0441535\Quadrupole=-7.4088246,14.7465131,-7.3376884,-
 0.7211006,-0.1343306,0.0645461\PG=C01 [X(C13H12O2)]\\@


 I WANT IT ALL - RICH, THIN, AND CHOCOLATE.
 Job cpu time:  0 days  2 hours 58 minutes  1.9 seconds.
 File lengths (MBytes):  RWF=    203 Int=      0 D2E=      0 Chk=     28 Scr=      1
 Normal termination of Gaussian 09 at Wed Sep 29 04:38:48 2021.
