 Entering Gaussian System, Link 0=g09
 Input=C13H20N2O2_0fc4_conf_0.com
 Output=C13H20N2O2_0fc4_conf_0.log
 Initial command:
 /sw/target/amd/app/gaussian/Gaussian09RevA.02_gcc-4.9.2/g09/l1.exe /home/jschleinitz/gaussian/Gau-956478.inp -scrdir=/home/jschleinitz/gaussian/
 Entering Link 1 = /sw/target/amd/app/gaussian/Gaussian09RevA.02_gcc-4.9.2/g09/l1.exe PID=    956508.
  
 Copyright (c) 1988,1990,1992,1993,1995,1998,2003,2009, Gaussian, Inc.
                  All Rights Reserved.
  
 This is part of the Gaussian(R) 09 program.  It is based on
 the Gaussian(R) 03 system (copyright 2003, Gaussian, Inc.),
 the Gaussian(R) 98 system (copyright 1998, Gaussian, Inc.),
 the Gaussian(R) 94 system (copyright 1995, Gaussian, Inc.),
 the Gaussian 92(TM) system (copyright 1992, Gaussian, Inc.),
 the Gaussian 90(TM) system (copyright 1990, Gaussian, Inc.),
 the Gaussian 88(TM) system (copyright 1988, Gaussian, Inc.),
 the Gaussian 86(TM) system (copyright 1986, Carnegie Mellon
 University), and the Gaussian 82(TM) system (copyright 1983,
 Carnegie Mellon University). Gaussian is a federally registered
 trademark of Gaussian, Inc.
  
 This software contains proprietary and confidential information,
 including trade secrets, belonging to Gaussian, Inc.
  
 This software is provided under written license and may be
 used, copied, transmitted, or stored only in accord with that
 written license.
  
 The following legend is applicable only to US Government
 contracts under FAR:
  
                    RESTRICTED RIGHTS LEGEND
  
 Use, reproduction and disclosure by the US Government is
 subject to restrictions as set forth in subparagraphs (a)
 and (c) of the Commercial Computer Software - Restricted
 Rights clause in FAR 52.227-19.
  
 Gaussian, Inc.
 340 Quinnipiac St., Bldg. 40, Wallingford CT 06492
  
  
 ---------------------------------------------------------------
 Warning -- This program may not be used in any manner that
 competes with the business of Gaussian, Inc. or will provide
 assistance to any competitor of Gaussian, Inc.  The licensee
 of this program is prohibited from giving any competitor of
 Gaussian, Inc. access to this program.  By using this program,
 the user acknowledges that Gaussian, Inc. is engaged in the
 business of creating and licensing software in the field of
 computational chemistry and represents and warrants to the
 licensee that it is not a competitor of Gaussian, Inc. and that
 it will not use this program in any manner prohibited above.
 ---------------------------------------------------------------
  

 Cite this work as:
 Gaussian 09, Revision A.02,
 M. J. Frisch, G. W. Trucks, H. B. Schlegel, G. E. Scuseria, 
 M. A. Robb, J. R. Cheeseman, G. Scalmani, V. Barone, B. Mennucci, 
 G. A. Petersson, H. Nakatsuji, M. Caricato, X. Li, H. P. Hratchian, 
 A. F. Izmaylov, J. Bloino, G. Zheng, J. L. Sonnenberg, M. Hada, 
 M. Ehara, K. Toyota, R. Fukuda, J. Hasegawa, M. Ishida, T. Nakajima, 
 Y. Honda, O. Kitao, H. Nakai, T. Vreven, J. A. Montgomery, Jr., 
 J. E. Peralta, F. Ogliaro, M. Bearpark, J. J. Heyd, E. Brothers, 
 K. N. Kudin, V. N. Staroverov, R. Kobayashi, J. Normand, 
 K. Raghavachari, A. Rendell, J. C. Burant, S. S. Iyengar, J. Tomasi, 
 M. Cossi, N. Rega, J. M. Millam, M. Klene, J. E. Knox, J. B. Cross, 
 V. Bakken, C. Adamo, J. Jaramillo, R. Gomperts, R. E. Stratmann, 
 O. Yazyev, A. J. Austin, R. Cammi, C. Pomelli, J. W. Ochterski, 
 R. L. Martin, K. Morokuma, V. G. Zakrzewski, G. A. Voth, 
 P. Salvador, J. J. Dannenberg, S. Dapprich, A. D. Daniels, 
 O. Farkas, J. B. Foresman, J. V. Ortiz, J. Cioslowski, 
 and D. J. Fox, Gaussian, Inc., Wallingford CT, 2009.
 
 ******************************************
 Gaussian 09:  AM64L-G09RevA.02 11-Jun-2009
                29-Sep-2021 
 ******************************************
 %nproc=6
 Will use up to    6 processors via shared memory.
 %mem=12gb
 %chk=C13H20N2O2_0fc4_conf_0.chk
 -----------------------------------
 #p opt b3lyp/6-31G* scf=(xqc,tight)
 -----------------------------------
 1/14=-1,18=20,19=15,26=3,38=1/1,3;
 2/9=110,12=2,17=6,18=5,40=1/2;
 3/5=1,6=6,7=1,11=2,16=1,25=1,30=1,71=1,74=-5/1,2,3;
 4//1;
 5/5=2,8=3,13=1,32=2,38=5/2,8;
 6/7=2,8=2,9=2,10=2,28=1/1;
 7//1,2,3,16;
 1/14=-1,18=20,19=15/3(2);
 2/9=110/2;
 99//99;
 2/9=110/2;
 3/5=1,6=6,7=1,11=2,16=1,25=1,30=1,71=1,74=-5/1,2,3;
 4/5=5,16=3/1;
 5/5=2,8=3,13=1,32=2,38=5/2,8;
 7//1,2,3,16;
 1/14=-1,18=20,19=15/3(-5);
 2/9=110/2;
 6/7=2,8=2,9=2,10=2,19=2,28=1/1;
 99/9=1/99;
 Leave Link    1 at Wed Sep 29 23:35:35 2021, MaxMem= 1610612736 cpu:       0.1
 (Enter /sw/target/amd/app/gaussian/Gaussian09RevA.02_gcc-4.9.2/g09/l101.exe)
 -----------------------------------
 CCN(C(=O)Oc1cccc(c1)N(C)C)CC_conf_0
 -----------------------------------
 Symbolic Z-matrix:
 Charge =  0 Multiplicity = 1
 C                     1.92793   0.44728   0.15935 
 C                     1.24462   1.74355   0.5849 
 N                    -0.04966   1.49756   1.2176 
 C                    -0.11103   1.40709   2.60924 
 O                     0.81621   1.70725   3.34263 
 O                    -1.35121   0.91311   3.04488 
 C                    -1.69274   1.11389   4.39278 
 C                    -1.38024   2.30817   5.01932 
 C                    -1.73452   2.48618   6.34173 
 C                    -2.46667   1.49721   7.00507 
 C                    -2.87539   0.30456   6.37178 
 C                    -2.44015   0.1228    5.04597 
 N                    -3.64583  -0.65331   7.05884 
 C                    -4.04725  -1.86213   6.33996 
 C                    -4.66261  -0.11939   7.96991 
 C                    -1.22132   1.31056   0.36647 
 C                    -1.9113    2.60833  -0.04263 
 H                     2.89455   0.66357  -0.30735 
 H                     1.32578  -0.10515  -0.56948 
 H                     2.10419  -0.21231   1.01577 
 H                     1.09287   2.38872  -0.28623 
 H                     1.909     2.27476   1.2755 
 H                    -0.82837   3.08541   4.50102 
 H                    -1.42972   3.3917    6.85561 
 H                    -2.69678   1.68344   8.04874 
 H                    -2.68182  -0.78186   4.49927 
 H                    -3.1732   -2.43323   6.0073 
 H                    -4.67921  -1.61828   5.47853 
 H                    -4.62019  -2.53201   6.99106 
 H                    -4.21223   0.39528   8.82411 
 H                    -5.2728   -0.92535   8.3937 
 H                    -5.33867   0.56459   7.4441 
 H                    -1.95803   0.6844    0.87808 
 H                    -0.90209   0.76304  -0.52291 
 H                    -2.35522   3.12304   0.81646 
 H                    -2.7196    2.38384  -0.74832 
 H                    -1.22399   3.30417  -0.5339 
 
 NAtoms=     37 NQM=     37 NQMF=      0 NMic=      0 NMicF=      0 NTot=     37.
                    Isotopes and Nuclear Properties:
 (Nuclear quadrupole moments (NQMom) in fm**2, nuclear magnetic moments (NMagM)
  in nuclear magnetons)

  Atom         1           2           3           4           5           6           7           8           9          10
 IAtWgt=          12          12          14          12          16          16          12          12          12          12
 AtmWgt=  12.0000000  12.0000000  14.0030740  12.0000000  15.9949146  15.9949146  12.0000000  12.0000000  12.0000000  12.0000000
 NucSpn=           0           0           2           0           0           0           0           0           0           0
 AtZEff=   0.0000000   0.0000000   0.0000000   0.0000000   0.0000000   0.0000000   0.0000000   0.0000000   0.0000000   0.0000000
 NQMom=    0.0000000   0.0000000   2.0440000   0.0000000   0.0000000   0.0000000   0.0000000   0.0000000   0.0000000   0.0000000
 NMagM=    0.0000000   0.0000000   0.4037610   0.0000000   0.0000000   0.0000000   0.0000000   0.0000000   0.0000000   0.0000000

  Atom        11          12          13          14          15          16          17          18          19          20
 IAtWgt=          12          12          14          12          12          12          12           1           1           1
 AtmWgt=  12.0000000  12.0000000  14.0030740  12.0000000  12.0000000  12.0000000  12.0000000   1.0078250   1.0078250   1.0078250
 NucSpn=           0           0           2           0           0           0           0           1           1           1
 AtZEff=   0.0000000   0.0000000   0.0000000   0.0000000   0.0000000   0.0000000   0.0000000   0.0000000   0.0000000   0.0000000
 NQMom=    0.0000000   0.0000000   2.0440000   0.0000000   0.0000000   0.0000000   0.0000000   0.0000000   0.0000000   0.0000000
 NMagM=    0.0000000   0.0000000   0.4037610   0.0000000   0.0000000   0.0000000   0.0000000   2.7928460   2.7928460   2.7928460

  Atom        21          22          23          24          25          26          27          28          29          30
 IAtWgt=           1           1           1           1           1           1           1           1           1           1
 AtmWgt=   1.0078250   1.0078250   1.0078250   1.0078250   1.0078250   1.0078250   1.0078250   1.0078250   1.0078250   1.0078250
 NucSpn=           1           1           1           1           1           1           1           1           1           1
 AtZEff=   0.0000000   0.0000000   0.0000000   0.0000000   0.0000000   0.0000000   0.0000000   0.0000000   0.0000000   0.0000000
 NQMom=    0.0000000   0.0000000   0.0000000   0.0000000   0.0000000   0.0000000   0.0000000   0.0000000   0.0000000   0.0000000
 NMagM=    2.7928460   2.7928460   2.7928460   2.7928460   2.7928460   2.7928460   2.7928460   2.7928460   2.7928460   2.7928460

  Atom        31          32          33          34          35          36          37
 IAtWgt=           1           1           1           1           1           1           1
 AtmWgt=   1.0078250   1.0078250   1.0078250   1.0078250   1.0078250   1.0078250   1.0078250
 NucSpn=           1           1           1           1           1           1           1
 AtZEff=   0.0000000   0.0000000   0.0000000   0.0000000   0.0000000   0.0000000   0.0000000
 NQMom=    0.0000000   0.0000000   0.0000000   0.0000000   0.0000000   0.0000000   0.0000000
 NMagM=    2.7928460   2.7928460   2.7928460   2.7928460   2.7928460   2.7928460   2.7928460
 Leave Link  101 at Wed Sep 29 23:35:36 2021, MaxMem= 1610612736 cpu:       0.2
 (Enter /sw/target/amd/app/gaussian/Gaussian09RevA.02_gcc-4.9.2/g09/l103.exe)

 GradGradGradGradGradGradGradGradGradGradGradGradGradGradGradGradGradGrad
 Berny optimization.
 Initialization pass.
                           ----------------------------
                           !    Initial Parameters    !
                           ! (Angstroms and Degrees)  !
 --------------------------                            --------------------------
 ! Name  Definition              Value          Derivative Info.                !
 --------------------------------------------------------------------------------
 ! R1    R(1,2)                  1.5259         estimate D2E/DX2                !
 ! R2    R(1,18)                 1.095          estimate D2E/DX2                !
 ! R3    R(1,19)                 1.095          estimate D2E/DX2                !
 ! R4    R(1,20)                 1.0953         estimate D2E/DX2                !
 ! R5    R(2,3)                  1.4615         estimate D2E/DX2                !
 ! R6    R(2,21)                 1.0946         estimate D2E/DX2                !
 ! R7    R(2,22)                 1.0957         estimate D2E/DX2                !
 ! R8    R(3,4)                  1.3959         estimate D2E/DX2                !
 ! R9    R(3,16)                 1.4602         estimate D2E/DX2                !
 ! R10   R(4,5)                  1.2197         estimate D2E/DX2                !
 ! R11   R(4,6)                  1.4042         estimate D2E/DX2                !
 ! R12   R(6,7)                  1.4049         estimate D2E/DX2                !
 ! R13   R(7,8)                  1.3844         estimate D2E/DX2                !
 ! R14   R(7,12)                 1.4027         estimate D2E/DX2                !
 ! R15   R(8,9)                  1.3806         estimate D2E/DX2                !
 ! R16   R(8,23)                 1.085          estimate D2E/DX2                !
 ! R17   R(9,10)                 1.3979         estimate D2E/DX2                !
 ! R18   R(9,24)                 1.0849         estimate D2E/DX2                !
 ! R19   R(10,11)                1.4109         estimate D2E/DX2                !
 ! R20   R(10,25)                1.0848         estimate D2E/DX2                !
 ! R21   R(11,12)                1.4072         estimate D2E/DX2                !
 ! R22   R(11,13)                1.4082         estimate D2E/DX2                !
 ! R23   R(12,26)                1.0843         estimate D2E/DX2                !
 ! R24   R(13,14)                1.4626         estimate D2E/DX2                !
 ! R25   R(13,15)                1.4659         estimate D2E/DX2                !
 ! R26   R(14,27)                1.0958         estimate D2E/DX2                !
 ! R27   R(14,28)                1.0959         estimate D2E/DX2                !
 ! R28   R(14,29)                1.0959         estimate D2E/DX2                !
 ! R29   R(15,30)                1.0943         estimate D2E/DX2                !
 ! R30   R(15,31)                1.0961         estimate D2E/DX2                !
 ! R31   R(15,32)                1.0961         estimate D2E/DX2                !
 ! R32   R(16,17)                1.5257         estimate D2E/DX2                !
 ! R33   R(16,33)                1.0939         estimate D2E/DX2                !
 ! R34   R(16,34)                1.0921         estimate D2E/DX2                !
 ! R35   R(17,35)                1.0955         estimate D2E/DX2                !
 ! R36   R(17,36)                1.0962         estimate D2E/DX2                !
 ! R37   R(17,37)                1.0945         estimate D2E/DX2                !
 ! A1    A(2,1,18)             110.2659         estimate D2E/DX2                !
 ! A2    A(2,1,19)             111.5902         estimate D2E/DX2                !
 ! A3    A(2,1,20)             111.4442         estimate D2E/DX2                !
 ! A4    A(18,1,19)            107.5434         estimate D2E/DX2                !
 ! A5    A(18,1,20)            108.0694         estimate D2E/DX2                !
 ! A6    A(19,1,20)            107.7669         estimate D2E/DX2                !
 ! A7    A(1,2,3)              111.9828         estimate D2E/DX2                !
 ! A8    A(1,2,21)             109.9285         estimate D2E/DX2                !
 ! A9    A(1,2,22)             108.428          estimate D2E/DX2                !
 ! A10   A(3,2,21)             108.7215         estimate D2E/DX2                !
 ! A11   A(3,2,22)             110.2258         estimate D2E/DX2                !
 ! A12   A(21,2,22)            107.4526         estimate D2E/DX2                !
 ! A13   A(2,3,4)              118.7789         estimate D2E/DX2                !
 ! A14   A(2,3,16)             118.6728         estimate D2E/DX2                !
 ! A15   A(4,3,16)             122.5146         estimate D2E/DX2                !
 ! A16   A(3,4,5)              123.3707         estimate D2E/DX2                !
 ! A17   A(3,4,6)              111.7721         estimate D2E/DX2                !
 ! A18   A(5,4,6)              124.8498         estimate D2E/DX2                !
 ! A19   A(4,6,7)              117.5207         estimate D2E/DX2                !
 ! A20   A(6,7,8)              120.1737         estimate D2E/DX2                !
 ! A21   A(6,7,12)             118.3806         estimate D2E/DX2                !
 ! A22   A(8,7,12)             121.2697         estimate D2E/DX2                !
 ! A23   A(7,8,9)              119.1318         estimate D2E/DX2                !
 ! A24   A(7,8,23)             121.1039         estimate D2E/DX2                !
 ! A25   A(9,8,23)             119.7166         estimate D2E/DX2                !
 ! A26   A(8,9,10)             119.8492         estimate D2E/DX2                !
 ! A27   A(8,9,24)             119.2917         estimate D2E/DX2                !
 ! A28   A(10,9,24)            120.856          estimate D2E/DX2                !
 ! A29   A(9,10,11)            122.4645         estimate D2E/DX2                !
 ! A30   A(9,10,25)            116.4983         estimate D2E/DX2                !
 ! A31   A(11,10,25)           121.0305         estimate D2E/DX2                !
 ! A32   A(10,11,12)           116.263          estimate D2E/DX2                !
 ! A33   A(10,11,13)           120.9629         estimate D2E/DX2                !
 ! A34   A(12,11,13)           122.7529         estimate D2E/DX2                !
 ! A35   A(7,12,11)            120.8152         estimate D2E/DX2                !
 ! A36   A(7,12,26)            118.2606         estimate D2E/DX2                !
 ! A37   A(11,12,26)           120.9213         estimate D2E/DX2                !
 ! A38   A(11,13,14)           118.1982         estimate D2E/DX2                !
 ! A39   A(11,13,15)           115.7821         estimate D2E/DX2                !
 ! A40   A(14,13,15)           114.5902         estimate D2E/DX2                !
 ! A41   A(13,14,27)           111.1639         estimate D2E/DX2                !
 ! A42   A(13,14,28)           111.145          estimate D2E/DX2                !
 ! A43   A(13,14,29)           110.8963         estimate D2E/DX2                !
 ! A44   A(27,14,28)           109.7142         estimate D2E/DX2                !
 ! A45   A(27,14,29)           106.1887         estimate D2E/DX2                !
 ! A46   A(28,14,29)           107.5515         estimate D2E/DX2                !
 ! A47   A(13,15,30)           111.7756         estimate D2E/DX2                !
 ! A48   A(13,15,31)           111.0143         estimate D2E/DX2                !
 ! A49   A(13,15,32)           110.9136         estimate D2E/DX2                !
 ! A50   A(30,15,31)           105.8511         estimate D2E/DX2                !
 ! A51   A(30,15,32)           109.5634         estimate D2E/DX2                !
 ! A52   A(31,15,32)           107.515          estimate D2E/DX2                !
 ! A53   A(3,16,17)            114.2203         estimate D2E/DX2                !
 ! A54   A(3,16,33)            109.943          estimate D2E/DX2                !
 ! A55   A(3,16,34)            107.7183         estimate D2E/DX2                !
 ! A56   A(17,16,33)           107.924          estimate D2E/DX2                !
 ! A57   A(17,16,34)           109.8947         estimate D2E/DX2                !
 ! A58   A(33,16,34)           106.9041         estimate D2E/DX2                !
 ! A59   A(16,17,35)           111.8799         estimate D2E/DX2                !
 ! A60   A(16,17,36)           109.3833         estimate D2E/DX2                !
 ! A61   A(16,17,37)           112.1579         estimate D2E/DX2                !
 ! A62   A(35,17,36)           107.5925         estimate D2E/DX2                !
 ! A63   A(35,17,37)           107.9242         estimate D2E/DX2                !
 ! A64   A(36,17,37)           107.7144         estimate D2E/DX2                !
 ! D1    D(18,1,2,3)          -179.8135         estimate D2E/DX2                !
 ! D2    D(18,1,2,21)           59.2199         estimate D2E/DX2                !
 ! D3    D(18,1,2,22)          -57.978          estimate D2E/DX2                !
 ! D4    D(19,1,2,3)            60.7352         estimate D2E/DX2                !
 ! D5    D(19,1,2,21)          -60.2313         estimate D2E/DX2                !
 ! D6    D(19,1,2,22)         -177.4293         estimate D2E/DX2                !
 ! D7    D(20,1,2,3)           -59.7965         estimate D2E/DX2                !
 ! D8    D(20,1,2,21)          179.237          estimate D2E/DX2                !
 ! D9    D(20,1,2,22)           62.039          estimate D2E/DX2                !
 ! D10   D(1,2,3,4)             94.4069         estimate D2E/DX2                !
 ! D11   D(1,2,3,16)           -83.5332         estimate D2E/DX2                !
 ! D12   D(21,2,3,4)          -143.9308         estimate D2E/DX2                !
 ! D13   D(21,2,3,16)           38.1291         estimate D2E/DX2                !
 ! D14   D(22,2,3,4)           -26.3922         estimate D2E/DX2                !
 ! D15   D(22,2,3,16)          155.6677         estimate D2E/DX2                !
 ! D16   D(2,3,4,5)             10.7403         estimate D2E/DX2                !
 ! D17   D(2,3,4,6)           -168.3072         estimate D2E/DX2                !
 ! D18   D(16,3,4,5)          -171.403          estimate D2E/DX2                !
 ! D19   D(16,3,4,6)             9.5495         estimate D2E/DX2                !
 ! D20   D(2,3,16,17)          -86.0163         estimate D2E/DX2                !
 ! D21   D(2,3,16,33)          152.5029         estimate D2E/DX2                !
 ! D22   D(2,3,16,34)           36.3576         estimate D2E/DX2                !
 ! D23   D(4,3,16,17)           96.1248         estimate D2E/DX2                !
 ! D24   D(4,3,16,33)          -25.3559         estimate D2E/DX2                !
 ! D25   D(4,3,16,34)         -141.5013         estimate D2E/DX2                !
 ! D26   D(3,4,6,7)           -162.743          estimate D2E/DX2                !
 ! D27   D(5,4,6,7)             18.2263         estimate D2E/DX2                !
 ! D28   D(4,6,7,8)             39.1356         estimate D2E/DX2                !
 ! D29   D(4,6,7,12)          -145.6241         estimate D2E/DX2                !
 ! D30   D(6,7,8,9)            179.5352         estimate D2E/DX2                !
 ! D31   D(6,7,8,23)            -2.9848         estimate D2E/DX2                !
 ! D32   D(12,7,8,9)             4.4349         estimate D2E/DX2                !
 ! D33   D(12,7,8,23)         -178.085          estimate D2E/DX2                !
 ! D34   D(6,7,12,11)         -176.351          estimate D2E/DX2                !
 ! D35   D(6,7,12,26)            3.044          estimate D2E/DX2                !
 ! D36   D(8,7,12,11)           -1.1653         estimate D2E/DX2                !
 ! D37   D(8,7,12,26)          178.2297         estimate D2E/DX2                !
 ! D38   D(7,8,9,10)            -3.6507         estimate D2E/DX2                !
 ! D39   D(7,8,9,24)           175.7093         estimate D2E/DX2                !
 ! D40   D(23,8,9,10)          178.8337         estimate D2E/DX2                !
 ! D41   D(23,8,9,24)           -1.8064         estimate D2E/DX2                !
 ! D42   D(8,9,10,11)           -0.3665         estimate D2E/DX2                !
 ! D43   D(8,9,10,25)          178.6941         estimate D2E/DX2                !
 ! D44   D(24,9,10,11)        -179.7163         estimate D2E/DX2                !
 ! D45   D(24,9,10,25)          -0.6557         estimate D2E/DX2                !
 ! D46   D(9,10,11,12)           3.5131         estimate D2E/DX2                !
 ! D47   D(9,10,11,13)        -178.1183         estimate D2E/DX2                !
 ! D48   D(25,10,11,12)       -175.5058         estimate D2E/DX2                !
 ! D49   D(25,10,11,13)          2.8628         estimate D2E/DX2                !
 ! D50   D(10,11,12,7)          -2.7268         estimate D2E/DX2                !
 ! D51   D(10,11,12,26)        177.8945         estimate D2E/DX2                !
 ! D52   D(13,11,12,7)         178.9366         estimate D2E/DX2                !
 ! D53   D(13,11,12,26)         -0.4421         estimate D2E/DX2                !
 ! D54   D(10,11,13,14)        179.418          estimate D2E/DX2                !
 ! D55   D(10,11,13,15)         37.8505         estimate D2E/DX2                !
 ! D56   D(12,11,13,14)         -2.3216         estimate D2E/DX2                !
 ! D57   D(12,11,13,15)       -143.8891         estimate D2E/DX2                !
 ! D58   D(11,13,14,27)         60.8296         estimate D2E/DX2                !
 ! D59   D(11,13,14,28)        -61.6892         estimate D2E/DX2                !
 ! D60   D(11,13,14,29)        178.7228         estimate D2E/DX2                !
 ! D61   D(15,13,14,27)       -157.1616         estimate D2E/DX2                !
 ! D62   D(15,13,14,28)         80.3195         estimate D2E/DX2                !
 ! D63   D(15,13,14,29)        -39.2685         estimate D2E/DX2                !
 ! D64   D(11,13,15,30)        -67.0845         estimate D2E/DX2                !
 ! D65   D(11,13,15,31)        174.9759         estimate D2E/DX2                !
 ! D66   D(11,13,15,32)         55.5083         estimate D2E/DX2                !
 ! D67   D(14,13,15,30)        149.9618         estimate D2E/DX2                !
 ! D68   D(14,13,15,31)         32.0222         estimate D2E/DX2                !
 ! D69   D(14,13,15,32)        -87.4455         estimate D2E/DX2                !
 ! D70   D(3,16,17,35)         -65.9415         estimate D2E/DX2                !
 ! D71   D(3,16,17,36)         174.9432         estimate D2E/DX2                !
 ! D72   D(3,16,17,37)          55.5005         estimate D2E/DX2                !
 ! D73   D(33,16,17,35)         56.6462         estimate D2E/DX2                !
 ! D74   D(33,16,17,36)        -62.469          estimate D2E/DX2                !
 ! D75   D(33,16,17,37)        178.0882         estimate D2E/DX2                !
 ! D76   D(34,16,17,35)        172.8812         estimate D2E/DX2                !
 ! D77   D(34,16,17,36)         53.766          estimate D2E/DX2                !
 ! D78   D(34,16,17,37)        -65.6767         estimate D2E/DX2                !
 --------------------------------------------------------------------------------
 Trust Radius=3.00D-01 FncErr=1.00D-07 GrdErr=1.00D-06
 Number of steps in this run= 189 maximum allowed number of steps= 222.
 GradGradGradGradGradGradGradGradGradGradGradGradGradGradGradGradGradGrad

 Leave Link  103 at Wed Sep 29 23:35:37 2021, MaxMem= 1610612736 cpu:       0.0
 (Enter /sw/target/amd/app/gaussian/Gaussian09RevA.02_gcc-4.9.2/g09/l202.exe)
                          Input orientation:                          
 ---------------------------------------------------------------------
 Center     Atomic      Atomic             Coordinates (Angstroms)
 Number     Number       Type             X           Y           Z
 ---------------------------------------------------------------------
      1          6           0        1.927927    0.447275    0.159347
      2          6           0        1.244615    1.743546    0.584897
      3          7           0       -0.049656    1.497563    1.217596
      4          6           0       -0.111033    1.407094    2.609236
      5          8           0        0.816206    1.707252    3.342625
      6          8           0       -1.351208    0.913110    3.044877
      7          6           0       -1.692738    1.113890    4.392776
      8          6           0       -1.380238    2.308170    5.019315
      9          6           0       -1.734516    2.486181    6.341730
     10          6           0       -2.466674    1.497215    7.005068
     11          6           0       -2.875389    0.304564    6.371780
     12          6           0       -2.440146    0.122797    5.045968
     13          7           0       -3.645827   -0.653307    7.058840
     14          6           0       -4.047249   -1.862131    6.339955
     15          6           0       -4.662613   -0.119390    7.969907
     16          6           0       -1.221322    1.310565    0.366465
     17          6           0       -1.911296    2.608328   -0.042630
     18          1           0        2.894549    0.663574   -0.307347
     19          1           0        1.325785   -0.105147   -0.569479
     20          1           0        2.104189   -0.212308    1.015767
     21          1           0        1.092872    2.388717   -0.286234
     22          1           0        1.908996    2.274758    1.275500
     23          1           0       -0.828366    3.085409    4.501022
     24          1           0       -1.429724    3.391701    6.855613
     25          1           0       -2.696784    1.683436    8.048737
     26          1           0       -2.681821   -0.781863    4.499272
     27          1           0       -3.173201   -2.433233    6.007304
     28          1           0       -4.679214   -1.618277    5.478525
     29          1           0       -4.620193   -2.532012    6.991060
     30          1           0       -4.212225    0.395280    8.824115
     31          1           0       -5.272801   -0.925352    8.393702
     32          1           0       -5.338666    0.564588    7.444101
     33          1           0       -1.958029    0.684399    0.878085
     34          1           0       -0.902089    0.763041   -0.522905
     35          1           0       -2.355222    3.123043    0.816459
     36          1           0       -2.719605    2.383842   -0.748317
     37          1           0       -1.223993    3.304168   -0.533899
 ---------------------------------------------------------------------
                    Distance matrix (angstroms):
                    1          2          3          4          5
     1  C    0.000000
     2  C    1.525885   0.000000
     3  N    2.476657   1.461490   0.000000
     4  C    3.328749   2.459457   1.395927   0.000000
     5  O    3.599546   2.791042   2.304221   1.219724   0.000000
     6  O    4.392723   3.671433   2.318314   1.404221   2.327445
     7  C    5.610304   4.850201   3.595649   2.401827   2.783828
     8  C    6.166537   5.183890   4.108601   2.869024   2.827854
     9  C    7.469436   6.524404   5.483873   4.210894   4.013420
    10  C    8.202365   7.419767   6.271906   4.988036   4.922896
    11  C    7.854078   7.247973   5.997802   4.797288   4.977067
    12  C    6.562348   6.008781   4.718141   3.607194   4.001963
    13  N    8.937619   8.460099   7.188799   6.044750   6.268352
    14  C    8.901461   8.609612   7.314838   6.332448   6.736296
    15  C   10.235291   9.638685   8.335923   7.196098   7.400393
    16  C    3.271993   2.513172   1.460204   2.504412   3.628555
    17  C    4.410281   3.331879   2.507524   3.422909   4.439725
    18  H    1.094964   2.164422   3.418967   4.253564   4.327941
    19  H    1.094958   2.181018   2.766615   3.802046   4.341546
    20  H    1.095251   2.179422   2.757434   3.173140   3.279922
    21  H    2.159873   1.094596   2.088308   3.285836   3.702642
    22  H    2.141460   1.095682   2.108008   2.571421   2.406088
    23  H    5.779883   4.629674   3.729414   2.628719   2.438405
    24  H    8.048816   7.013585   6.105700   4.869222   4.496960
    25  H    9.228138   8.440803   7.328460   6.029149   5.872747
    26  H    6.449458   6.092366   4.784713   3.869460   4.446316
    27  H    8.277526   8.146476   6.938948   5.972591   6.337153
    28  H    8.730091   8.386966   7.021167   6.184979   6.769111
    29  H    9.921005   9.680666   8.394056   7.419532   7.799800
    30  H   10.619905   9.973948   8.740774   7.514537   7.553352
    31  H   11.024482  10.515567   9.200449   8.095937   8.337865
    32  H   10.290033   9.580095   8.222739   7.170347   7.483999
    33  H    3.958973   3.385954   2.101998   2.632597   3.849230
    34  H    2.928168   2.607097   2.072562   3.294068   4.334328
    35  H    5.092828   3.862054   2.849339   3.345881   4.294641
    36  H    5.116023   4.231132   3.432045   4.362551   5.449362
    37  H    4.310107   3.127503   2.776801   3.836257   4.662617
                    6          7          8          9         10
     6  O    0.000000
     7  C    1.404915   0.000000
     8  C    2.417734   1.384382   0.000000
     9  C    3.672970   2.383978   1.380572   0.000000
    10  C    4.155545   2.751361   2.404413   1.397901   0.000000
    11  C    3.709682   2.443385   2.842371   2.462102   1.410857
    12  C    2.411379   1.402692   2.428985   2.786126   2.393283
    13  N    4.881685   3.747725   4.250047   3.744829   2.453169
    14  C    5.082140   4.265200   5.123324   4.925095   3.771710
    15  C    6.023901   4.810094   5.037164   4.244257   2.892486
    16  C    2.710854   4.058582   4.761248   6.111401   6.756980
    17  C    3.566533   4.685503   5.098569   6.387974   7.156330
    18  H    5.415360   6.583095   7.025086   8.304237   9.105443
    19  H    4.611584   5.934771   6.661928   7.990321   8.621141
    20  H    4.162166   5.251633   5.875581   7.098125   7.725736
    21  H    4.387168   5.592668   5.854197   7.206492   8.162612
    22  H    3.951418   4.902806   4.983606   6.243921   7.251138
    23  H    2.666947   2.155399   1.085031   2.137378   3.387722
    24  H    4.546568   3.364992   2.132716   1.084869   2.164875
    25  H    5.238568   3.833868   3.361693   2.117601   1.084838
    26  H    2.599756   2.140912   3.393061   3.869386   3.394039
    27  H    4.826349   4.168999   5.164469   5.136369   4.116204
    28  H    4.837995   4.190779   5.148893   5.124738   4.114845
    29  H    6.174746   5.349175   6.149182   5.825034   4.568644
    30  H    6.469402   5.147910   5.114274   4.083277   2.751389
    31  H    6.882497   5.743062   6.082285   5.326219   3.958722
    32  H    5.947644   4.785928   4.958711   4.230560   3.051373
    33  H    2.261754   3.550760   4.485562   5.757412   6.201557
    34  H    3.599069   4.991206   5.773410   7.126384   7.723815
    35  H    3.295102   4.155193   4.390742   5.596382   6.399580
    36  H    4.292305   5.394263   5.921589   7.158885   7.808012
    37  H    4.305923   5.411946   5.643989   6.942910   7.851455
                   11         12         13         14         15
    11  C    0.000000
    12  C    1.407215   0.000000
    13  N    1.408241   2.471368   0.000000
    14  C    2.463501   2.863062   1.462598   0.000000
    15  C    2.434731   3.680684   1.465934   2.464257   0.000000
    16  C    6.309658   4.979364   7.383962   7.330378   8.467560
    17  C    6.883419   5.687827   8.004858   8.079895   8.900053
    18  H    8.833562   7.576899   9.938381   9.937523  11.235509
    19  H    8.123965   6.765164   9.121879   8.927305  10.429872
    20  H    7.331456   6.083239   8.353198   8.301150   9.703521
    21  H    8.026203   6.785940   9.255231   9.401964  10.372081
    22  H    7.262511   6.145112   8.536782   8.845304   9.681584
    23  H    3.927230   3.416412   5.334653   6.182317   6.083202
    24  H    3.443031   3.870595   4.616764   5.892376   4.901121
    25  H    2.178388   3.393830   2.709418   4.161099   2.668498
    26  H    2.173495   1.084294   2.738106   2.533671   4.050644
    27  H    2.777962   2.827512   2.120671   1.095799   3.379945
    28  H    2.783703   2.869123   2.120484   1.095859   2.907562
    29  H    3.387331   3.947657   2.117432   1.095875   2.603975
    30  H    2.794513   4.181974   2.129914   3.360680   1.094260
    31  H    3.368745   4.508866   2.122005   2.568542   1.096132
    32  H    2.699114   3.787828   2.120707   2.962408   1.096059
    33  H    5.582698   4.233094   6.545217   6.378220   7.632483
    34  H    7.186154   5.812734   8.186392   7.992648   9.329956
    35  H    6.251079   5.186274   7.409036   7.630461   8.185918
    36  H    7.419127   6.226087   8.428159   8.368664   9.276253
    37  H    7.707991   6.537206   8.898122   9.050486   9.790790
                   16         17         18         19         20
    16  C    0.000000
    17  C    1.525652   0.000000
    18  H    4.220548   5.191175   0.000000
    19  H    3.060717   4.256666   1.766541   0.000000
    20  H    3.714803   5.019992   1.772701   1.769294   0.000000
    21  H    2.635133   3.022019   2.494515   2.520681   3.079497
    22  H    3.399251   4.055042   2.464272   3.067252   2.508199
    23  H    4.516531   4.695223   6.545670   6.366318   5.623329
    24  H    6.817888   6.959262   8.800568   8.657526   7.718888
    25  H    7.831559   8.181848  10.105804   9.677487   8.723868
    26  H    4.857098   5.719789   7.502585   6.497006   5.946856
    27  H    7.045914   7.975678   9.288844   8.301502   7.595972
    28  H    6.831419   7.483897   9.800258   8.656092   8.240602
    29  H    8.378721   9.123268  10.952162   9.919984   9.289912
    30  H    9.017487   9.423960  11.574187  10.916025  10.061638
    31  H    9.265545   9.744655  12.039042  11.160317  10.457645
    32  H    8.222039   8.483801  11.308429  10.444181   9.865249
    33  H    1.093880   2.133402   4.995318   3.674542   4.162290
    34  H    1.092095   2.157370   3.804053   2.391514   3.515185
    35  H    2.184789   1.095461   5.905254   5.088403   5.572310
    36  H    2.153953   1.096244   5.888336   4.753128   5.755083
    37  H    2.187491   1.094497   4.897597   4.257471   5.083686
                   21         22         23         24         25
    21  H    0.000000
    22  H    1.765802   0.000000
    23  H    5.205224   4.307470   0.000000
    24  H    7.640382   6.597898   2.449396   0.000000
    25  H    9.183173   8.212162   4.247681   2.438680   0.000000
    26  H    6.870368   6.388367   4.288484   4.953658   4.321646
    27  H    9.003288   8.389510   6.182439   6.139154   4.619674
    28  H    9.088753   8.730730   6.157045   6.128249   4.630046
    29  H   10.479107   9.919827   7.220364   6.729623   4.752703
    30  H   10.729227   9.898655   6.113626   4.538266   2.134741
    31  H   11.262599  10.606022   7.140879   5.980962   3.682477
    32  H   10.220088   9.669794   5.946348   4.859909   2.932055
    33  H    3.683522   4.200126   4.490731   6.583269   7.277506
    34  H    2.584318   3.663570   5.535221   7.850527   8.805743
    35  H    3.693849   4.371940   3.988573   6.115562   7.382072
    36  H    3.840381   5.052888   5.623571   7.778131   8.824922
    37  H    2.503448   3.761546   5.055176   7.392893   8.857625
                   26         27         28         29         30
    26  H    0.000000
    27  H    2.289681   0.000000
    28  H    2.376574   1.792160   0.000000
    29  H    3.609614   1.752518   1.768094   0.000000
    30  H    4.736250   4.124862   3.932615   3.477868   0.000000
    31  H    4.679781   3.518085   3.054627   2.230394   1.747611
    32  H    4.188529   3.967438   3.010526   3.210978   1.789405
    33  H    3.973260   6.124146   5.819898   7.402762   8.264647
    34  H    5.547652   7.616939   7.480276   9.007849   9.922653
    35  H    5.377553   7.647625   7.043857   8.673837   8.660930
    36  H    6.128647   8.309535   7.657061   9.363536   9.890083
    37  H    6.644827   8.916530   8.504014  10.110399  10.245173
                   31         32         33         34         35
    31  H    0.000000
    32  H    1.768050   0.000000
    33  H    8.370395   7.386178   0.000000
    34  H   10.072719   9.121173   1.756123   0.000000
    35  H    9.072837   7.705341   2.471547   3.078165   0.000000
    36  H   10.052168   8.791182   2.472506   2.445643   1.768535
    37  H   10.676316   9.385324   3.065240   2.561458   1.770861
                   36         37
    36  H    0.000000
    37  H    1.769133   0.000000
 Stoichiometry    C13H20N2O2
 Framework group  C1[X(C13H20N2O2)]
 Deg. of freedom   105
 Full point group                 C1      NOp   1
 Largest Abelian subgroup         C1      NOp   1
 Largest concise Abelian subgroup C1      NOp   1
                         Standard orientation:                         
 ---------------------------------------------------------------------
 Center     Atomic      Atomic             Coordinates (Angstroms)
 Number     Number       Type             X           Y           Z
 ---------------------------------------------------------------------
      1          6           0       -4.716919   -0.366336   -1.777059
      2          6           0       -4.277470    0.381619   -0.521761
      3          7           0       -3.034613   -0.155688    0.028296
      4          6           0       -1.825601    0.438643   -0.337317
      5          8           0       -1.753279    1.496954   -0.939376
      6          8           0       -0.723718   -0.339324    0.053139
      7          6           0        0.533090    0.287470    0.089878
      8          6           0        0.648856    1.588010    0.549992
      9          6           0        1.895673    2.179735    0.585912
     10          6           0        3.027637    1.439312    0.232984
     11          6           0        2.955387    0.085968   -0.159132
     12          6           0        1.664883   -0.467467   -0.251677
     13          7           0        4.120400   -0.641329   -0.470462
     14          6           0        3.976442   -2.044415   -0.857527
     15          6           0        5.292202   -0.355512    0.362695
     16          6           0       -3.102553   -1.322565    0.903498
     17          6           0       -3.355027   -0.990415    2.370995
     18          1           0       -5.646976    0.060377   -2.166746
     19          1           0       -4.900778   -1.425919   -1.571111
     20          1           0       -3.958894   -0.305704   -2.565282
     21          1           0       -5.057392    0.316625    0.243509
     22          1           0       -4.153084    1.440327   -0.775107
     23          1           0       -0.226140    2.159042    0.842562
     24          1           0        1.980899    3.220729    0.879185
     25          1           0        3.976804    1.963960    0.259464
     26          1           0        1.519703   -1.490929   -0.579001
     27          1           0        3.367335   -2.144555   -1.762920
     28          1           0        3.533938   -2.634647   -0.047143
     29          1           0        4.950818   -2.486506   -1.094359
     30          1           0        5.666252    0.660262    0.202395
     31          1           0        6.124389   -1.023866    0.113149
     32          1           0        5.061453   -0.498329    1.424629
     33          1           0       -2.169111   -1.889603    0.842445
     34          1           0       -3.894842   -1.973814    0.528233
     35          1           0       -2.517104   -0.442414    2.815535
     36          1           0       -3.480972   -1.920141    2.938005
     37          1           0       -4.260431   -0.391088    2.508736
 ---------------------------------------------------------------------
 Rotational constants (GHZ):      0.9907791      0.1966649      0.1891180
 Leave Link  202 at Wed Sep 29 23:35:37 2021, MaxMem= 1610612736 cpu:       0.1
 (Enter /sw/target/amd/app/gaussian/Gaussian09RevA.02_gcc-4.9.2/g09/l301.exe)
 Standard basis: 6-31G(d) (6D, 7F)
 Ernie: Thresh=  0.10000D-02 Tol=  0.10000D-05 Strict=F.
 There are   295 symmetry adapted basis functions of A   symmetry.
 Integral buffers will be    131072 words long.
 Raffenetti 2 integral format.
 Two-electron integral symmetry is turned on.
   295 basis functions,   556 primitive gaussians,   295 cartesian basis functions
    64 alpha electrons       64 beta electrons
       nuclear repulsion energy      1212.8840347867 Hartrees.
 IExCor=  402 DFT=T Ex+Corr=B3LYP ExCW=0 ScaHFX=  0.200000
 ScaDFX=  0.800000  0.720000  1.000000  0.810000 ScalE2=  1.000000  1.000000
 IRadAn=      0 IRanWt=     -1 IRanGd=            0 ICorTp=0
 NAtoms=   37 NActive=   37 NUniq=   37 SFac= 7.50D-01 NAtFMM=   80 NAOKFM=F Big=F
 Leave Link  301 at Wed Sep 29 23:35:37 2021, MaxMem= 1610612736 cpu:       0.1
 (Enter /sw/target/amd/app/gaussian/Gaussian09RevA.02_gcc-4.9.2/g09/l302.exe)
 NPDir=0 NMtPBC=     1 NCelOv=     1 NCel=       1 NClECP=     1 NCelD=      1
         NCelK=      1 NCelE2=     1 NClLst=     1 CellRange=     0.0.
 One-electron integrals computed using PRISM.
 NBasis=   295 RedAO= T  NBF=   295
 NBsUse=   295 1.00D-06 NBFU=   295
 Precomputing XC quadrature grid using
 IXCGrd= 2 IRadAn=           0 IRanWt=          -1 IRanGd=           0 AccXCQ= 1.00D-10.
 NRdTot=    2362 NPtTot=      301018 NUsed=      318046 NTot=      318078
 NSgBfM=   292   292   292   292   292 NAtAll=    37    37.
 Leave Link  302 at Wed Sep 29 23:35:43 2021, MaxMem= 1610612736 cpu:       3.7
 (Enter /sw/target/amd/app/gaussian/Gaussian09RevA.02_gcc-4.9.2/g09/l303.exe)
 DipDrv:  MaxL=1.
 Leave Link  303 at Wed Sep 29 23:35:43 2021, MaxMem= 1610612736 cpu:       0.3
 (Enter /sw/target/amd/app/gaussian/Gaussian09RevA.02_gcc-4.9.2/g09/l401.exe)
 Harris functional with IExCor=  402 diagonalized for initial guess.
 ExpMin= 1.61D-01 ExpMax= 5.48D+03 ExpMxC= 8.25D+02 IAcc=1 IRadAn=         1 AccDes= 0.00D+00
 HarFok:  IExCor=  402 AccDes= 0.00D+00 IRadAn=         1 IDoV= 1
 ScaDFX=  1.000000  1.000000  1.000000  1.000000
 FoFCou: FMM=F IPFlag=           0 FMFlag=      100000 FMFlg1=           0
         NFxFlg=           0 DoJE=T BraDBF=F KetDBF=T FulRan=T
         Omega=  0.000000  0.000000  1.000000  0.000000  0.000000 ICntrl=     500 IOpCl=  0
         NMat0=    1 NMatS0=    1 NMatT0=    0 NMatD0=    1 NMtDS0=    0 NMtDT0=    0
         I1Cent=           4 NGrid=           0.
 Petite list used in FoFCou.
 Harris En= -767.520554784098    
 Initial guess orbital symmetries:
       Occupied  (A) (A) (A) (A) (A) (A) (A) (A) (A) (A) (A) (A)
                 (A) (A) (A) (A) (A) (A) (A) (A) (A) (A) (A) (A)
                 (A) (A) (A) (A) (A) (A) (A) (A) (A) (A) (A) (A)
                 (A) (A) (A) (A) (A) (A) (A) (A) (A) (A) (A) (A)
                 (A) (A) (A) (A) (A) (A) (A) (A) (A) (A) (A) (A)
                 (A) (A) (A) (A)
       Virtual   (A) (A) (A) (A) (A) (A) (A) (A) (A) (A) (A) (A)
                 (A) (A) (A) (A) (A) (A) (A) (A) (A) (A) (A) (A)
                 (A) (A) (A) (A) (A) (A) (A) (A) (A) (A) (A) (A)
                 (A) (A) (A) (A) (A) (A) (A) (A) (A) (A) (A) (A)
                 (A) (A) (A) (A) (A) (A) (A) (A) (A) (A) (A) (A)
                 (A) (A) (A) (A) (A) (A) (A) (A) (A) (A) (A) (A)
                 (A) (A) (A) (A) (A) (A) (A) (A) (A) (A) (A) (A)
                 (A) (A) (A) (A) (A) (A) (A) (A) (A) (A) (A) (A)
                 (A) (A) (A) (A) (A) (A) (A) (A) (A) (A) (A) (A)
                 (A) (A) (A) (A) (A) (A) (A) (A) (A) (A) (A) (A)
                 (A) (A) (A) (A) (A) (A) (A) (A) (A) (A) (A) (A)
                 (A) (A) (A) (A) (A) (A) (A) (A) (A) (A) (A) (A)
                 (A) (A) (A) (A) (A) (A) (A) (A) (A) (A) (A) (A)
                 (A) (A) (A) (A) (A) (A) (A) (A) (A) (A) (A) (A)
                 (A) (A) (A) (A) (A) (A) (A) (A) (A) (A) (A) (A)
                 (A) (A) (A) (A) (A) (A) (A) (A) (A) (A) (A) (A)
                 (A) (A) (A) (A) (A) (A) (A) (A) (A) (A) (A) (A)
                 (A) (A) (A) (A) (A) (A) (A) (A) (A) (A) (A) (A)
                 (A) (A) (A) (A) (A) (A) (A) (A) (A) (A) (A) (A)
                 (A) (A) (A)
 The electronic state of the initial guess is 1-A.
 Leave Link  401 at Wed Sep 29 23:35:59 2021, MaxMem= 1610612736 cpu:      14.7
 (Enter /sw/target/amd/app/gaussian/Gaussian09RevA.02_gcc-4.9.2/g09/l502.exe)
 Closed shell SCF:
 Requested convergence on RMS density matrix=1.00D-08 within  64 cycles.
 Requested convergence on MAX density matrix=1.00D-06.
 Requested convergence on             energy=1.00D-06.
 No special actions if energy rises.
 Using DIIS extrapolation, IDIIS=  1040.
 Integral symmetry usage will be decided dynamically.
       317700 words used for storage of precomputed grid.
 Keep R1 ints in memory in canonical form, NReq=966674994.
 IEnd=      588330 IEndB=      588330 NGot=  1610612736 MDV=   656996293
 LenX=   656996293 LenY=   656908827
 Symmetry not used in FoFDir.
 MinBra= 0 MaxBra= 2 Meth= 1.
 IRaf=       0 NMat=   1 IRICut=       1 DoRegI=T DoRafI=F ISym2E= 0 JSym2E=0.
 Integral accuracy reduced to 1.0D-05 until final iterations.

 Cycle   1  Pass 0  IDiag  1:
 E= -766.858836539418    
 DIIS: error= 3.17D-02 at cycle   1 NSaved=   1.
 NSaved= 1 IEnMin= 1 EnMin= -766.858836539418     IErMin= 1 ErrMin= 3.17D-02
 ErrMax= 3.17D-02 EMaxC= 1.00D-01 BMatC= 5.26D-01 BMatP= 5.26D-01
 IDIUse=3 WtCom= 6.83D-01 WtEn= 3.17D-01
 Coeff-Com:  0.100D+01
 Coeff-En:   0.100D+01
 Coeff:      0.100D+01
 Gap=     0.223 Goal=   None    Shift=    0.000
 GapD=    0.223 DampG=1.000 DampE=0.500 DampFc=0.5000 IDamp=-1.
 Damping current iteration by 5.00D-01
 RMSDP=5.47D-03 MaxDP=2.08D-01              OVMax= 2.26D-01

 Cycle   2  Pass 0  IDiag  1:
 E= -767.045554334942     Delta-E=       -0.186717795525 Rises=F Damp=T
 DIIS: error= 1.42D-02 at cycle   2 NSaved=   2.
 NSaved= 2 IEnMin= 2 EnMin= -767.045554334942     IErMin= 2 ErrMin= 1.42D-02
 ErrMax= 1.42D-02 EMaxC= 1.00D-01 BMatC= 6.28D-02 BMatP= 5.26D-01
 IDIUse=3 WtCom= 8.58D-01 WtEn= 1.42D-01
 Coeff-Com:  0.172D+00 0.828D+00
 Coeff-En:   0.255D+00 0.745D+00
 Coeff:      0.184D+00 0.816D+00
 Gap=     0.196 Goal=   None    Shift=    0.000
 RMSDP=1.64D-03 MaxDP=7.19D-02 DE=-1.87D-01 OVMax= 1.71D-01

 Cycle   3  Pass 0  IDiag  1:
 E= -767.316419922733     Delta-E=       -0.270865587790 Rises=F Damp=F
 DIIS: error= 1.95D-02 at cycle   3 NSaved=   3.
 NSaved= 3 IEnMin= 3 EnMin= -767.316419922733     IErMin= 2 ErrMin= 1.42D-02
 ErrMax= 1.95D-02 EMaxC= 1.00D-01 BMatC= 8.00D-02 BMatP= 6.28D-02
 IDIUse=2 WtCom= 0.00D+00 WtEn= 1.00D+00
 Coeff-En:   0.000D+00 0.000D+00 0.100D+01
 Coeff:      0.000D+00 0.000D+00 0.100D+01
 Gap=     0.194 Goal=   None    Shift=    0.000
 RMSDP=2.88D-03 MaxDP=1.62D-01 DE=-2.71D-01 OVMax= 3.06D-01

 Cycle   4  Pass 0  IDiag  1:
 E= -766.986938656859     Delta-E=        0.329481265874 Rises=F Damp=F
 DIIS: error= 5.11D-02 at cycle   4 NSaved=   4.
 NSaved= 4 IEnMin= 3 EnMin= -767.316419922733     IErMin= 2 ErrMin= 1.42D-02
 ErrMax= 5.11D-02 EMaxC= 1.00D-01 BMatC= 4.99D-01 BMatP= 6.28D-02
 IDIUse=2 WtCom= 0.00D+00 WtEn= 1.00D+00
 Coeff-En:   0.000D+00 0.000D+00 0.802D+00 0.198D+00
 Coeff:      0.000D+00 0.000D+00 0.802D+00 0.198D+00
 Gap=     0.234 Goal=   None    Shift=    0.000
 RMSDP=1.55D-03 MaxDP=8.59D-02 DE= 3.29D-01 OVMax= 1.43D-01

 Cycle   5  Pass 0  IDiag  1:
 E= -767.355151601423     Delta-E=       -0.368212944564 Rises=F Damp=F
 DIIS: error= 1.23D-02 at cycle   5 NSaved=   5.
 NSaved= 5 IEnMin= 5 EnMin= -767.355151601423     IErMin= 5 ErrMin= 1.23D-02
 ErrMax= 1.23D-02 EMaxC= 1.00D-01 BMatC= 3.50D-02 BMatP= 6.28D-02
 IDIUse=3 WtCom= 8.77D-01 WtEn= 1.23D-01
 Coeff-Com: -0.602D-02 0.448D-01 0.316D+00-0.803D-01 0.726D+00
 Coeff-En:   0.000D+00 0.000D+00 0.341D+00 0.000D+00 0.659D+00
 Coeff:     -0.528D-02 0.393D-01 0.319D+00-0.705D-01 0.717D+00
 Gap=     0.200 Goal=   None    Shift=    0.000
 RMSDP=5.84D-04 MaxDP=2.87D-02 DE=-3.68D-01 OVMax= 3.90D-02

 Cycle   6  Pass 0  IDiag  1:
 E= -767.383381592286     Delta-E=       -0.028229990863 Rises=F Damp=F
 DIIS: error= 1.06D-03 at cycle   6 NSaved=   6.
 NSaved= 6 IEnMin= 6 EnMin= -767.383381592286     IErMin= 6 ErrMin= 1.06D-03
 ErrMax= 1.06D-03 EMaxC= 1.00D-01 BMatC= 3.83D-04 BMatP= 3.50D-02
 IDIUse=3 WtCom= 9.89D-01 WtEn= 1.06D-02
 Coeff-Com: -0.655D-02 0.229D-01 0.165D+00-0.633D-01 0.469D+00 0.413D+00
 Coeff-En:   0.000D+00 0.000D+00 0.000D+00 0.000D+00 0.000D+00 0.100D+01
 Coeff:     -0.648D-02 0.226D-01 0.163D+00-0.627D-01 0.464D+00 0.419D+00
 Gap=     0.199 Goal=   None    Shift=    0.000
 RMSDP=7.42D-05 MaxDP=3.53D-03 DE=-2.82D-02 OVMax= 6.59D-03

 Cycle   7  Pass 0  IDiag  1:
 E= -767.383727998937     Delta-E=       -0.000346406651 Rises=F Damp=F
 DIIS: error= 1.95D-04 at cycle   7 NSaved=   7.
 NSaved= 7 IEnMin= 7 EnMin= -767.383727998937     IErMin= 7 ErrMin= 1.95D-04
 ErrMax= 1.95D-04 EMaxC= 1.00D-01 BMatC= 1.30D-05 BMatP= 3.83D-04
 IDIUse=3 WtCom= 9.98D-01 WtEn= 1.95D-03
 Coeff-Com: -0.951D-03 0.197D-02 0.323D-01-0.135D-01 0.911D-01 0.157D+00
 Coeff-Com:  0.732D+00
 Coeff-En:   0.000D+00 0.000D+00 0.000D+00 0.000D+00 0.000D+00 0.000D+00
 Coeff-En:   0.100D+01
 Coeff:     -0.950D-03 0.197D-02 0.322D-01-0.135D-01 0.909D-01 0.157D+00
 Coeff:      0.732D+00
 Gap=     0.199 Goal=   None    Shift=    0.000
 RMSDP=1.50D-05 MaxDP=4.46D-04 DE=-3.46D-04 OVMax= 1.38D-03

 Cycle   8  Pass 0  IDiag  1:
 E= -767.383739614539     Delta-E=       -0.000011615601 Rises=F Damp=F
 DIIS: error= 4.62D-05 at cycle   8 NSaved=   8.
 NSaved= 8 IEnMin= 8 EnMin= -767.383739614539     IErMin= 8 ErrMin= 4.62D-05
 ErrMax= 4.62D-05 EMaxC= 1.00D-01 BMatC= 1.28D-06 BMatP= 1.30D-05
 IDIUse=1 WtCom= 1.00D+00 WtEn= 0.00D+00
 Coeff-Com: -0.103D-03-0.498D-03 0.999D-02-0.403D-02 0.260D-01 0.673D-01
 Coeff-Com:  0.414D+00 0.487D+00
 Coeff:     -0.103D-03-0.498D-03 0.999D-02-0.403D-02 0.260D-01 0.673D-01
 Coeff:      0.414D+00 0.487D+00
 Gap=     0.199 Goal=   None    Shift=    0.000
 RMSDP=4.75D-06 MaxDP=1.73D-04 DE=-1.16D-05 OVMax= 5.04D-04

 Initial convergence to 1.0D-05 achieved.  Increase integral accuracy.
 Cycle   9  Pass 1  IDiag  1:
 E= -767.383664048677     Delta-E=        0.000075565862 Rises=F Damp=F
 DIIS: error= 3.04D-05 at cycle   1 NSaved=   1.
 NSaved= 1 IEnMin= 1 EnMin= -767.383664048677     IErMin= 1 ErrMin= 3.04D-05
 ErrMax= 3.04D-05 EMaxC= 1.00D-01 BMatC= 2.35D-07 BMatP= 2.35D-07
 IDIUse=1 WtCom= 1.00D+00 WtEn= 0.00D+00
 Coeff-Com:  0.100D+01
 Coeff:      0.100D+01
 Gap=     0.199 Goal=   None    Shift=    0.000
 RMSDP=4.75D-06 MaxDP=1.73D-04 DE= 7.56D-05 OVMax= 4.26D-04

 Cycle  10  Pass 1  IDiag  1:
 E= -767.383663924441     Delta-E=        0.000000124235 Rises=F Damp=F
 DIIS: error= 3.27D-05 at cycle   2 NSaved=   2.
 NSaved= 2 IEnMin= 1 EnMin= -767.383664048677     IErMin= 1 ErrMin= 3.04D-05
 ErrMax= 3.27D-05 EMaxC= 1.00D-01 BMatC= 4.10D-07 BMatP= 2.35D-07
 IDIUse=1 WtCom= 1.00D+00 WtEn= 0.00D+00
 Coeff-Com:  0.584D+00 0.416D+00
 Coeff:      0.584D+00 0.416D+00
 Gap=     0.199 Goal=   None    Shift=    0.000
 RMSDP=2.96D-06 MaxDP=9.33D-05 DE= 1.24D-07 OVMax= 3.38D-04

 Cycle  11  Pass 1  IDiag  1:
 E= -767.383664316793     Delta-E=       -0.000000392351 Rises=F Damp=F
 DIIS: error= 9.06D-06 at cycle   3 NSaved=   3.
 NSaved= 3 IEnMin= 3 EnMin= -767.383664316793     IErMin= 3 ErrMin= 9.06D-06
 ErrMax= 9.06D-06 EMaxC= 1.00D-01 BMatC= 3.16D-08 BMatP= 2.35D-07
 IDIUse=1 WtCom= 1.00D+00 WtEn= 0.00D+00
 Coeff-Com:  0.182D-01 0.214D+00 0.768D+00
 Coeff:      0.182D-01 0.214D+00 0.768D+00
 Gap=     0.199 Goal=   None    Shift=    0.000
 RMSDP=8.18D-07 MaxDP=2.69D-05 DE=-3.92D-07 OVMax= 7.98D-05

 Cycle  12  Pass 1  IDiag  1:
 E= -767.383664347089     Delta-E=       -0.000000030296 Rises=F Damp=F
 DIIS: error= 3.42D-06 at cycle   4 NSaved=   4.
 NSaved= 4 IEnMin= 4 EnMin= -767.383664347089     IErMin= 4 ErrMin= 3.42D-06
 ErrMax= 3.42D-06 EMaxC= 1.00D-01 BMatC= 4.46D-09 BMatP= 3.16D-08
 IDIUse=1 WtCom= 1.00D+00 WtEn= 0.00D+00
 Coeff-Com: -0.134D-01 0.110D+00 0.463D+00 0.440D+00
 Coeff:     -0.134D-01 0.110D+00 0.463D+00 0.440D+00
 Gap=     0.199 Goal=   None    Shift=    0.000
 RMSDP=2.36D-07 MaxDP=1.38D-05 DE=-3.03D-08 OVMax= 1.77D-05

 Cycle  13  Pass 1  IDiag  1:
 E= -767.383664350636     Delta-E=       -0.000000003547 Rises=F Damp=F
 DIIS: error= 8.61D-07 at cycle   5 NSaved=   5.
 NSaved= 5 IEnMin= 5 EnMin= -767.383664350636     IErMin= 5 ErrMin= 8.61D-07
 ErrMax= 8.61D-07 EMaxC= 1.00D-01 BMatC= 2.97D-10 BMatP= 4.46D-09
 IDIUse=1 WtCom= 1.00D+00 WtEn= 0.00D+00
 Coeff-Com: -0.943D-02 0.423D-01 0.193D+00 0.254D+00 0.520D+00
 Coeff:     -0.943D-02 0.423D-01 0.193D+00 0.254D+00 0.520D+00
 Gap=     0.199 Goal=   None    Shift=    0.000
 RMSDP=6.38D-08 MaxDP=2.84D-06 DE=-3.55D-09 OVMax= 3.79D-06

 Cycle  14  Pass 1  IDiag  1:
 E= -767.383664350844     Delta-E=       -0.000000000208 Rises=F Damp=F
 DIIS: error= 3.43D-07 at cycle   6 NSaved=   6.
 NSaved= 6 IEnMin= 6 EnMin= -767.383664350844     IErMin= 6 ErrMin= 3.43D-07
 ErrMax= 3.43D-07 EMaxC= 1.00D-01 BMatC= 3.21D-11 BMatP= 2.97D-10
 IDIUse=1 WtCom= 1.00D+00 WtEn= 0.00D+00
 Coeff-Com: -0.484D-02 0.180D-01 0.852D-01 0.126D+00 0.319D+00 0.457D+00
 Coeff:     -0.484D-02 0.180D-01 0.852D-01 0.126D+00 0.319D+00 0.457D+00
 Gap=     0.199 Goal=   None    Shift=    0.000
 RMSDP=2.02D-08 MaxDP=1.15D-06 DE=-2.08D-10 OVMax= 1.39D-06

 Cycle  15  Pass 1  IDiag  1:
 E= -767.383664350868     Delta-E=       -0.000000000023 Rises=F Damp=F
 DIIS: error= 9.70D-08 at cycle   7 NSaved=   7.
 NSaved= 7 IEnMin= 7 EnMin= -767.383664350868     IErMin= 7 ErrMin= 9.70D-08
 ErrMax= 9.70D-08 EMaxC= 1.00D-01 BMatC= 2.22D-12 BMatP= 3.21D-11
 IDIUse=1 WtCom= 1.00D+00 WtEn= 0.00D+00
 Coeff-Com: -0.878D-03 0.229D-02 0.121D-01 0.221D-01 0.708D-01 0.235D+00
 Coeff-Com:  0.658D+00
 Coeff:     -0.878D-03 0.229D-02 0.121D-01 0.221D-01 0.708D-01 0.235D+00
 Coeff:      0.658D+00
 Gap=     0.199 Goal=   None    Shift=    0.000
 RMSDP=6.68D-09 MaxDP=2.97D-07 DE=-2.34D-11 OVMax= 6.24D-07

 SCF Done:  E(RB3LYP) =  -767.383664351     A.U. after   15 cycles
             Convg  =    0.6682D-08             -V/T =  2.0098
 KE= 7.599440100672D+02 PE=-4.209502922770D+03 EE= 1.469291213566D+03
 Leave Link  502 at Wed Sep 29 23:48:32 2021, MaxMem= 1610612736 cpu:     397.0
 (Enter /sw/target/amd/app/gaussian/Gaussian09RevA.02_gcc-4.9.2/g09/l508.exe)
 QCSCF skips out because SCF is already converged.
 Leave Link  508 at Wed Sep 29 23:48:35 2021, MaxMem= 1610612736 cpu:       0.0
 (Enter /sw/target/amd/app/gaussian/Gaussian09RevA.02_gcc-4.9.2/g09/l601.exe)
 Copying SCF densities to generalized density rwf, IOpCl= 0 IROHF=0.

 **********************************************************************

            Population analysis using the SCF density.

 **********************************************************************

 Orbital symmetries:
       Occupied  (A) (A) (A) (A) (A) (A) (A) (A) (A) (A) (A) (A)
                 (A) (A) (A) (A) (A) (A) (A) (A) (A) (A) (A) (A)
                 (A) (A) (A) (A) (A) (A) (A) (A) (A) (A) (A) (A)
                 (A) (A) (A) (A) (A) (A) (A) (A) (A) (A) (A) (A)
                 (A) (A) (A) (A) (A) (A) (A) (A) (A) (A) (A) (A)
                 (A) (A) (A) (A)
       Virtual   (A) (A) (A) (A) (A) (A) (A) (A) (A) (A) (A) (A)
                 (A) (A) (A) (A) (A) (A) (A) (A) (A) (A) (A) (A)
                 (A) (A) (A) (A) (A) (A) (A) (A) (A) (A) (A) (A)
                 (A) (A) (A) (A) (A) (A) (A) (A) (A) (A) (A) (A)
                 (A) (A) (A) (A) (A) (A) (A) (A) (A) (A) (A) (A)
                 (A) (A) (A) (A) (A) (A) (A) (A) (A) (A) (A) (A)
                 (A) (A) (A) (A) (A) (A) (A) (A) (A) (A) (A) (A)
                 (A) (A) (A) (A) (A) (A) (A) (A) (A) (A) (A) (A)
                 (A) (A) (A) (A) (A) (A) (A) (A) (A) (A) (A) (A)
                 (A) (A) (A) (A) (A) (A) (A) (A) (A) (A) (A) (A)
                 (A) (A) (A) (A) (A) (A) (A) (A) (A) (A) (A) (A)
                 (A) (A) (A) (A) (A) (A) (A) (A) (A) (A) (A) (A)
                 (A) (A) (A) (A) (A) (A) (A) (A) (A) (A) (A) (A)
                 (A) (A) (A) (A) (A) (A) (A) (A) (A) (A) (A) (A)
                 (A) (A) (A) (A) (A) (A) (A) (A) (A) (A) (A) (A)
                 (A) (A) (A) (A) (A) (A) (A) (A) (A) (A) (A) (A)
                 (A) (A) (A) (A) (A) (A) (A) (A) (A) (A) (A) (A)
                 (A) (A) (A) (A) (A) (A) (A) (A) (A) (A) (A) (A)
                 (A) (A) (A) (A) (A) (A) (A) (A) (A) (A) (A) (A)
                 (A) (A) (A)
 The electronic state is 1-A.
 Alpha  occ. eigenvalues --  -19.19002 -19.11463 -14.36098 -14.34525 -10.33057
 Alpha  occ. eigenvalues --  -10.24108 -10.22177 -10.22072 -10.21931 -10.21229
 Alpha  occ. eigenvalues --  -10.21154 -10.18042 -10.17932 -10.17845 -10.17743
 Alpha  occ. eigenvalues --  -10.17294 -10.16736  -1.08952  -1.00714  -0.93511
 Alpha  occ. eigenvalues --   -0.93156  -0.83473  -0.77089  -0.75090  -0.74052
 Alpha  occ. eigenvalues --   -0.72956  -0.71211  -0.65459  -0.65032  -0.64033
 Alpha  occ. eigenvalues --   -0.59702  -0.58879  -0.54160  -0.52370  -0.50035
 Alpha  occ. eigenvalues --   -0.49084  -0.48143  -0.46827  -0.46137  -0.45870
 Alpha  occ. eigenvalues --   -0.44195  -0.43462  -0.43212  -0.42730  -0.41578
 Alpha  occ. eigenvalues --   -0.40514  -0.40322  -0.39449  -0.39189  -0.38787
 Alpha  occ. eigenvalues --   -0.37667  -0.37415  -0.36949  -0.35884  -0.35325
 Alpha  occ. eigenvalues --   -0.34974  -0.34698  -0.33742  -0.31265  -0.27252
 Alpha  occ. eigenvalues --   -0.26329  -0.23677  -0.22506  -0.18923
 Alpha virt. eigenvalues --    0.00983   0.02066   0.05172   0.08279   0.08845
 Alpha virt. eigenvalues --    0.11032   0.11657   0.11863   0.12879   0.13070
 Alpha virt. eigenvalues --    0.13996   0.15132   0.15400   0.15862   0.16131
 Alpha virt. eigenvalues --    0.16681   0.16830   0.16920   0.17417   0.17710
 Alpha virt. eigenvalues --    0.18538   0.18785   0.19433   0.19840   0.20268
 Alpha virt. eigenvalues --    0.21479   0.22966   0.24102   0.24904   0.25772
 Alpha virt. eigenvalues --    0.26202   0.27185   0.29186   0.32008   0.32726
 Alpha virt. eigenvalues --    0.36738   0.37849   0.38180   0.40221   0.46317
 Alpha virt. eigenvalues --    0.48123   0.49787   0.50299   0.50866   0.52044
 Alpha virt. eigenvalues --    0.52615   0.53837   0.54443   0.54575   0.55235
 Alpha virt. eigenvalues --    0.55289   0.56170   0.57565   0.58716   0.59974
 Alpha virt. eigenvalues --    0.60649   0.60922   0.61476   0.61926   0.62477
 Alpha virt. eigenvalues --    0.63349   0.64086   0.65820   0.66794   0.68211
 Alpha virt. eigenvalues --    0.68516   0.69317   0.71005   0.72043   0.74017
 Alpha virt. eigenvalues --    0.76060   0.77698   0.78256   0.79447   0.81676
 Alpha virt. eigenvalues --    0.82213   0.83607   0.83923   0.84409   0.84701
 Alpha virt. eigenvalues --    0.85689   0.86647   0.87173   0.87745   0.88110
 Alpha virt. eigenvalues --    0.88523   0.89174   0.89862   0.90790   0.91073
 Alpha virt. eigenvalues --    0.91662   0.93232   0.94070   0.95177   0.97007
 Alpha virt. eigenvalues --    0.97424   0.97698   0.98643   0.99388   1.00240
 Alpha virt. eigenvalues --    1.00854   1.02113   1.02753   1.04042   1.05227
 Alpha virt. eigenvalues --    1.06914   1.08131   1.09430   1.12085   1.14527
 Alpha virt. eigenvalues --    1.15781   1.17378   1.19611   1.19907   1.22279
 Alpha virt. eigenvalues --    1.23183   1.24325   1.28208   1.31261   1.32000
 Alpha virt. eigenvalues --    1.35817   1.37561   1.39677   1.40761   1.42590
 Alpha virt. eigenvalues --    1.46020   1.47253   1.48845   1.49706   1.51023
 Alpha virt. eigenvalues --    1.52463   1.53583   1.55270   1.60478   1.62320
 Alpha virt. eigenvalues --    1.64309   1.66918   1.72415   1.73641   1.75769
 Alpha virt. eigenvalues --    1.79050   1.79798   1.81015   1.82415   1.83138
 Alpha virt. eigenvalues --    1.83785   1.85087   1.86248   1.89003   1.90543
 Alpha virt. eigenvalues --    1.90900   1.92942   1.94274   1.94460   1.95406
 Alpha virt. eigenvalues --    1.96242   1.97331   1.98484   1.99783   2.00265
 Alpha virt. eigenvalues --    2.00952   2.03473   2.04525   2.06048   2.08986
 Alpha virt. eigenvalues --    2.09461   2.10881   2.12472   2.13203   2.14683
 Alpha virt. eigenvalues --    2.18192   2.19598   2.20196   2.22609   2.23357
 Alpha virt. eigenvalues --    2.24548   2.25754   2.26874   2.30437   2.30719
 Alpha virt. eigenvalues --    2.31563   2.32840   2.33333   2.33949   2.35051
 Alpha virt. eigenvalues --    2.40485   2.41223   2.43621   2.48570   2.49747
 Alpha virt. eigenvalues --    2.52422   2.54458   2.58501   2.59380   2.61213
 Alpha virt. eigenvalues --    2.62505   2.64395   2.64596   2.65438   2.67361
 Alpha virt. eigenvalues --    2.70701   2.72113   2.74202   2.76772   2.81977
 Alpha virt. eigenvalues --    2.83518   2.89680   2.92068   2.97101   3.00920
 Alpha virt. eigenvalues --    3.11869   3.19898   3.27905   3.44087   4.00943
 Alpha virt. eigenvalues --    4.07757   4.10334   4.11685   4.15130   4.18162
 Alpha virt. eigenvalues --    4.18665   4.24799   4.26551   4.33053   4.35884
 Alpha virt. eigenvalues --    4.40763   4.42625   4.47276   4.52603   4.57210
 Alpha virt. eigenvalues --    4.78946
          Condensed to atoms (all electrons):
              1          2          3          4          5          6
     1  C    5.113878   0.375577  -0.063580  -0.002355  -0.001032  -0.000065
     2  C    0.375577   4.884427   0.295939  -0.026679  -0.001808   0.002531
     3  N   -0.063580   0.295939   6.995314   0.315613  -0.089893  -0.088880
     4  C   -0.002355  -0.026679   0.315613   4.181327   0.544854   0.244708
     5  O   -0.001032  -0.001808  -0.089893   0.544854   8.093773  -0.068028
     6  O   -0.000065   0.002531  -0.088880   0.244708  -0.068028   8.366593
     7  C    0.000001  -0.000015   0.002046  -0.010587  -0.001762   0.198052
     8  C   -0.000000  -0.000003  -0.000065  -0.000305  -0.001243  -0.050695
     9  C   -0.000000  -0.000000  -0.000014   0.000075  -0.000478   0.004441
    10  C    0.000000   0.000000   0.000000   0.000033   0.000005   0.000250
    11  C    0.000000  -0.000000   0.000001  -0.000006   0.000005   0.002428
    12  C   -0.000000   0.000002  -0.000193  -0.000470  -0.000167  -0.040241
    13  N   -0.000000   0.000000  -0.000000   0.000000   0.000000  -0.000021
    14  C   -0.000000   0.000000  -0.000000  -0.000000  -0.000000  -0.000002
    15  C    0.000000  -0.000000   0.000000  -0.000000   0.000000   0.000000
    16  C   -0.004706  -0.041464   0.287593  -0.026054   0.002520  -0.002228
    17  C   -0.000094  -0.003889  -0.063800   0.000999   0.000014  -0.000949
    18  H    0.359776  -0.027943   0.004922  -0.000022  -0.000036   0.000000
    19  H    0.376082  -0.034925  -0.002711  -0.000081  -0.000007  -0.000002
    20  H    0.378237  -0.029780  -0.004128   0.003126   0.001320  -0.000056
    21  H   -0.050006   0.375505  -0.044956   0.003943   0.000581  -0.000047
    22  H   -0.041760   0.374746  -0.032560  -0.003115   0.014729   0.000260
    23  H   -0.000000   0.000011  -0.000643   0.003291   0.006903  -0.008027
    24  H    0.000000   0.000000  -0.000000  -0.000020  -0.000006  -0.000061
    25  H    0.000000  -0.000000   0.000000  -0.000000   0.000000   0.000002
    26  H    0.000000   0.000000  -0.000011   0.000055   0.000013  -0.000575
    27  H    0.000000  -0.000000  -0.000000   0.000000   0.000000  -0.000003
    28  H   -0.000000   0.000000   0.000000  -0.000000  -0.000000   0.000000
    29  H   -0.000000   0.000000  -0.000000   0.000000  -0.000000  -0.000000
    30  H    0.000000  -0.000000  -0.000000   0.000000   0.000000   0.000000
    31  H   -0.000000   0.000000  -0.000000  -0.000000  -0.000000  -0.000000
    32  H   -0.000000   0.000000   0.000000  -0.000000  -0.000000   0.000000
    33  H    0.000091   0.004116  -0.028022  -0.008678   0.000097   0.011204
    34  H    0.002660  -0.001256  -0.044993   0.002188  -0.000090   0.000419
    35  H   -0.000000  -0.000022  -0.001286   0.001727  -0.000056   0.001169
    36  H    0.000010   0.000052   0.004665  -0.000099  -0.000000  -0.000009
    37  H    0.000030   0.001546  -0.002529  -0.000061  -0.000002  -0.000007
              7          8          9         10         11         12
     1  C    0.000001  -0.000000  -0.000000   0.000000   0.000000  -0.000000
     2  C   -0.000015  -0.000003  -0.000000   0.000000  -0.000000   0.000002
     3  N    0.002046  -0.000065  -0.000014   0.000000   0.000001  -0.000193
     4  C   -0.010587  -0.000305   0.000075   0.000033  -0.000006  -0.000470
     5  O   -0.001762  -0.001243  -0.000478   0.000005   0.000005  -0.000167
     6  O    0.198052  -0.050695   0.004441   0.000250   0.002428  -0.040241
     7  C    4.512796   0.517228  -0.000774  -0.042172   0.001593   0.518490
     8  C    0.517228   5.016060   0.505954  -0.042629  -0.035475  -0.077034
     9  C   -0.000774   0.505954   4.863189   0.536425  -0.007391  -0.042018
    10  C   -0.042172  -0.042629   0.536425   5.027730   0.522076  -0.065728
    11  C    0.001593  -0.035475  -0.007391   0.522076   4.524358   0.497409
    12  C    0.518490  -0.077034  -0.042018  -0.065728   0.497409   5.179769
    13  N    0.004290   0.000380   0.004337  -0.070033   0.314250  -0.065176
    14  C    0.000138   0.000000  -0.000099   0.005795  -0.042730  -0.010266
    15  C   -0.000087   0.000019   0.000081  -0.010703  -0.040273   0.004575
    16  C    0.000172  -0.000034   0.000002   0.000000  -0.000000   0.000008
    17  C    0.000059  -0.000000   0.000000   0.000000  -0.000000   0.000001
    18  H   -0.000000   0.000000   0.000000  -0.000000  -0.000000   0.000000
    19  H    0.000000  -0.000000  -0.000000   0.000000  -0.000000   0.000000
    20  H   -0.000000   0.000000   0.000000  -0.000000  -0.000000   0.000000
    21  H   -0.000000   0.000001   0.000000  -0.000000   0.000000  -0.000000
    22  H   -0.000003  -0.000002   0.000000  -0.000000  -0.000000   0.000000
    23  H   -0.036610   0.347700  -0.040270   0.005049   0.000541   0.005814
    24  H    0.003427  -0.038527   0.357721  -0.038179   0.003190   0.000877
    25  H    0.000607   0.005696  -0.042365   0.350152  -0.044803   0.005898
    26  H   -0.038442   0.007001   0.000008   0.005859  -0.041440   0.337771
    27  H    0.000269   0.000000  -0.000010  -0.000172  -0.005284   0.003849
    28  H   -0.000143  -0.000017   0.000005   0.000080  -0.002472   0.004985
    29  H   -0.000001   0.000000   0.000002  -0.000125   0.003027   0.000419
    30  H    0.000009  -0.000002   0.000133   0.001116  -0.006234  -0.000336
    31  H    0.000002   0.000000  -0.000003   0.000369   0.003997  -0.000113
    32  H   -0.000033  -0.000037   0.000001   0.005310  -0.001612   0.001002
    33  H    0.000401   0.000064  -0.000002   0.000000  -0.000000  -0.000054
    34  H   -0.000002   0.000000  -0.000000   0.000000   0.000000  -0.000001
    35  H    0.000008   0.000033  -0.000000   0.000000  -0.000000  -0.000005
    36  H   -0.000002   0.000000  -0.000000  -0.000000   0.000000   0.000000
    37  H    0.000001  -0.000000   0.000000  -0.000000   0.000000   0.000000
             13         14         15         16         17         18
     1  C   -0.000000  -0.000000   0.000000  -0.004706  -0.000094   0.359776
     2  C    0.000000   0.000000  -0.000000  -0.041464  -0.003889  -0.027943
     3  N   -0.000000  -0.000000   0.000000   0.287593  -0.063800   0.004922
     4  C    0.000000  -0.000000  -0.000000  -0.026054   0.000999  -0.000022
     5  O    0.000000  -0.000000   0.000000   0.002520   0.000014  -0.000036
     6  O   -0.000021  -0.000002   0.000000  -0.002228  -0.000949   0.000000
     7  C    0.004290   0.000138  -0.000087   0.000172   0.000059  -0.000000
     8  C    0.000380   0.000000   0.000019  -0.000034  -0.000000   0.000000
     9  C    0.004337  -0.000099   0.000081   0.000002   0.000000   0.000000
    10  C   -0.070033   0.005795  -0.010703   0.000000   0.000000  -0.000000
    11  C    0.314250  -0.042730  -0.040273  -0.000000  -0.000000  -0.000000
    12  C   -0.065176  -0.010266   0.004575   0.000008   0.000001   0.000000
    13  N    6.906364   0.322094   0.319273   0.000000  -0.000000   0.000000
    14  C    0.322094   4.975197  -0.060991   0.000000   0.000000   0.000000
    15  C    0.319273  -0.060991   4.983336   0.000000  -0.000000   0.000000
    16  C    0.000000   0.000000   0.000000   4.894955   0.369575   0.000075
    17  C   -0.000000   0.000000  -0.000000   0.369575   5.124106   0.000009
    18  H    0.000000   0.000000   0.000000   0.000075   0.000009   0.574540
    19  H   -0.000000   0.000000   0.000000   0.001316   0.000035  -0.029541
    20  H   -0.000000   0.000000  -0.000000   0.000090  -0.000002  -0.026915
    21  H   -0.000000   0.000000   0.000000  -0.000366   0.002260   0.000211
    22  H    0.000000   0.000000  -0.000000   0.004443   0.000068  -0.000746
    23  H    0.000004  -0.000000  -0.000000  -0.000001   0.000020   0.000000
    24  H   -0.000095   0.000002   0.000001  -0.000000  -0.000000  -0.000000
    25  H   -0.008306  -0.000015   0.002763  -0.000000   0.000000  -0.000000
    26  H   -0.011621   0.007658   0.000067  -0.000018   0.000000  -0.000000
    27  H   -0.035411   0.377983   0.005055   0.000000  -0.000000   0.000000
    28  H   -0.054718   0.360080  -0.001095  -0.000000   0.000000  -0.000000
    29  H   -0.030883   0.377087  -0.006265  -0.000000   0.000000   0.000000
    30  H   -0.037364   0.004761   0.381196   0.000000  -0.000000   0.000000
    31  H   -0.030828  -0.006037   0.372306   0.000000  -0.000000   0.000000
    32  H   -0.053925  -0.000396   0.363707  -0.000000   0.000000  -0.000000
    33  H   -0.000000  -0.000000  -0.000000   0.377342  -0.043783  -0.000000
    34  H    0.000000  -0.000000   0.000000   0.373424  -0.052316  -0.000309
    35  H    0.000000  -0.000000   0.000000  -0.030088   0.375638   0.000000
    36  H    0.000000  -0.000000  -0.000000  -0.027122   0.356592  -0.000001
    37  H   -0.000000   0.000000  -0.000000  -0.034007   0.376761  -0.000000
             19         20         21         22         23         24
     1  C    0.376082   0.378237  -0.050006  -0.041760  -0.000000   0.000000
     2  C   -0.034925  -0.029780   0.375505   0.374746   0.000011   0.000000
     3  N   -0.002711  -0.004128  -0.044956  -0.032560  -0.000643  -0.000000
     4  C   -0.000081   0.003126   0.003943  -0.003115   0.003291  -0.000020
     5  O   -0.000007   0.001320   0.000581   0.014729   0.006903  -0.000006
     6  O   -0.000002  -0.000056  -0.000047   0.000260  -0.008027  -0.000061
     7  C    0.000000  -0.000000  -0.000000  -0.000003  -0.036610   0.003427
     8  C   -0.000000   0.000000   0.000001  -0.000002   0.347700  -0.038527
     9  C   -0.000000   0.000000   0.000000   0.000000  -0.040270   0.357721
    10  C    0.000000  -0.000000  -0.000000  -0.000000   0.005049  -0.038179
    11  C   -0.000000  -0.000000   0.000000  -0.000000   0.000541   0.003190
    12  C    0.000000   0.000000  -0.000000   0.000000   0.005814   0.000877
    13  N   -0.000000  -0.000000  -0.000000   0.000000   0.000004  -0.000095
    14  C    0.000000   0.000000   0.000000   0.000000  -0.000000   0.000002
    15  C    0.000000  -0.000000   0.000000  -0.000000  -0.000000   0.000001
    16  C    0.001316   0.000090  -0.000366   0.004443  -0.000001  -0.000000
    17  C    0.000035  -0.000002   0.002260   0.000068   0.000020  -0.000000
    18  H   -0.029541  -0.026915   0.000211  -0.000746   0.000000  -0.000000
    19  H    0.573176  -0.031544  -0.004965   0.004542  -0.000000  -0.000000
    20  H   -0.031544   0.542169   0.004891  -0.004084   0.000000  -0.000000
    21  H   -0.004965   0.004891   0.596913  -0.029140   0.000000  -0.000000
    22  H    0.004542  -0.004084  -0.029140   0.526195   0.000026  -0.000000
    23  H   -0.000000   0.000000   0.000000   0.000026   0.578866  -0.005767
    24  H   -0.000000  -0.000000  -0.000000  -0.000000  -0.005767   0.592022
    25  H    0.000000  -0.000000  -0.000000  -0.000000  -0.000193  -0.006127
    26  H   -0.000000  -0.000000  -0.000000  -0.000000  -0.000152   0.000016
    27  H    0.000000  -0.000000   0.000000  -0.000000   0.000000   0.000000
    28  H    0.000000   0.000000   0.000000   0.000000   0.000000  -0.000000
    29  H   -0.000000   0.000000   0.000000   0.000000  -0.000000  -0.000000
    30  H   -0.000000  -0.000000  -0.000000  -0.000000  -0.000000   0.000002
    31  H    0.000000   0.000000   0.000000   0.000000  -0.000000  -0.000000
    32  H    0.000000   0.000000   0.000000   0.000000  -0.000000  -0.000003
    33  H   -0.000190  -0.000011   0.000033  -0.000215  -0.000005   0.000000
    34  H    0.004138  -0.000086  -0.002494  -0.000053  -0.000000   0.000000
    35  H    0.000000   0.000001  -0.000085  -0.000010   0.000053  -0.000000
    36  H   -0.000001   0.000000  -0.000258   0.000000  -0.000000   0.000000
    37  H   -0.000013   0.000001   0.003140  -0.000176  -0.000001  -0.000000
             25         26         27         28         29         30
     1  C    0.000000   0.000000   0.000000  -0.000000  -0.000000   0.000000
     2  C   -0.000000   0.000000  -0.000000   0.000000   0.000000  -0.000000
     3  N    0.000000  -0.000011  -0.000000   0.000000  -0.000000  -0.000000
     4  C   -0.000000   0.000055   0.000000  -0.000000   0.000000   0.000000
     5  O    0.000000   0.000013   0.000000  -0.000000  -0.000000   0.000000
     6  O    0.000002  -0.000575  -0.000003   0.000000  -0.000000   0.000000
     7  C    0.000607  -0.038442   0.000269  -0.000143  -0.000001   0.000009
     8  C    0.005696   0.007001   0.000000  -0.000017   0.000000  -0.000002
     9  C   -0.042365   0.000008  -0.000010   0.000005   0.000002   0.000133
    10  C    0.350152   0.005859  -0.000172   0.000080  -0.000125   0.001116
    11  C   -0.044803  -0.041440  -0.005284  -0.002472   0.003027  -0.006234
    12  C    0.005898   0.337771   0.003849   0.004985   0.000419  -0.000336
    13  N   -0.008306  -0.011621  -0.035411  -0.054718  -0.030883  -0.037364
    14  C   -0.000015   0.007658   0.377983   0.360080   0.377087   0.004761
    15  C    0.002763   0.000067   0.005055  -0.001095  -0.006265   0.381196
    16  C   -0.000000  -0.000018   0.000000  -0.000000  -0.000000   0.000000
    17  C    0.000000   0.000000  -0.000000   0.000000   0.000000  -0.000000
    18  H   -0.000000  -0.000000   0.000000  -0.000000   0.000000   0.000000
    19  H    0.000000  -0.000000   0.000000   0.000000  -0.000000  -0.000000
    20  H   -0.000000  -0.000000  -0.000000   0.000000   0.000000  -0.000000
    21  H   -0.000000  -0.000000   0.000000   0.000000   0.000000  -0.000000
    22  H   -0.000000  -0.000000  -0.000000   0.000000   0.000000  -0.000000
    23  H   -0.000193  -0.000152   0.000000   0.000000  -0.000000  -0.000000
    24  H   -0.006127   0.000016   0.000000  -0.000000  -0.000000   0.000002
    25  H    0.616144  -0.000164   0.000000   0.000006  -0.000005   0.002130
    26  H   -0.000164   0.601924   0.000478   0.001331  -0.000066  -0.000006
    27  H    0.000000   0.000478   0.559009  -0.045709  -0.026414  -0.000105
    28  H    0.000006   0.001331  -0.045709   0.629546  -0.038458  -0.000471
    29  H   -0.000005  -0.000066  -0.026414  -0.038458   0.560801   0.000365
    30  H    0.002130  -0.000006  -0.000105  -0.000471   0.000365   0.563326
    31  H   -0.000074  -0.000005   0.000247  -0.000384   0.005518  -0.029071
    32  H    0.000396   0.000005  -0.000436   0.005092  -0.000573  -0.044247
    33  H   -0.000000   0.000127  -0.000000   0.000000  -0.000000  -0.000000
    34  H   -0.000000   0.000000   0.000000  -0.000000  -0.000000  -0.000000
    35  H   -0.000000   0.000000   0.000000  -0.000000   0.000000   0.000000
    36  H   -0.000000   0.000000  -0.000000   0.000000  -0.000000  -0.000000
    37  H    0.000000  -0.000000  -0.000000   0.000000  -0.000000   0.000000
             31         32         33         34         35         36
     1  C   -0.000000  -0.000000   0.000091   0.002660  -0.000000   0.000010
     2  C    0.000000   0.000000   0.004116  -0.001256  -0.000022   0.000052
     3  N   -0.000000   0.000000  -0.028022  -0.044993  -0.001286   0.004665
     4  C   -0.000000  -0.000000  -0.008678   0.002188   0.001727  -0.000099
     5  O   -0.000000  -0.000000   0.000097  -0.000090  -0.000056  -0.000000
     6  O   -0.000000   0.000000   0.011204   0.000419   0.001169  -0.000009
     7  C    0.000002  -0.000033   0.000401  -0.000002   0.000008  -0.000002
     8  C    0.000000  -0.000037   0.000064   0.000000   0.000033   0.000000
     9  C   -0.000003   0.000001  -0.000002  -0.000000  -0.000000  -0.000000
    10  C    0.000369   0.005310   0.000000   0.000000   0.000000  -0.000000
    11  C    0.003997  -0.001612  -0.000000   0.000000  -0.000000   0.000000
    12  C   -0.000113   0.001002  -0.000054  -0.000001  -0.000005   0.000000
    13  N   -0.030828  -0.053925  -0.000000   0.000000   0.000000   0.000000
    14  C   -0.006037  -0.000396  -0.000000  -0.000000  -0.000000  -0.000000
    15  C    0.372306   0.363707  -0.000000   0.000000   0.000000  -0.000000
    16  C    0.000000  -0.000000   0.377342   0.373424  -0.030088  -0.027122
    17  C   -0.000000   0.000000  -0.043783  -0.052316   0.375638   0.356592
    18  H    0.000000  -0.000000  -0.000000  -0.000309   0.000000  -0.000001
[...]
    39    N    3  pz     Val( 2p)     1.64345
    40    N    3  pz     Ryd( 3p)     0.00579
    41    N    3  dxy    Ryd( 3d)     0.00081
    42    N    3  dxz    Ryd( 3d)     0.00054
    43    N    3  dyz    Ryd( 3d)     0.00048
    44    N    3  dx2y2  Ryd( 3d)     0.00059
    45    N    3  dz2    Ryd( 3d)     0.00054

    46    C    4  S      Cor( 1S)     1.99937
    47    C    4  S      Val( 2S)     0.69251
    48    C    4  S      Ryd( 3S)     0.00274
    49    C    4  S      Ryd( 4S)     0.00054
    50    C    4  px     Val( 2p)     0.75827
    51    C    4  px     Ryd( 3p)     0.00622
    52    C    4  py     Val( 2p)     0.75833
    53    C    4  py     Ryd( 3p)     0.01900
    54    C    4  pz     Val( 2p)     0.81417
    55    C    4  pz     Ryd( 3p)     0.00593
    56    C    4  dxy    Ryd( 3d)     0.00381
    57    C    4  dxz    Ryd( 3d)     0.00260
    58    C    4  dyz    Ryd( 3d)     0.00179
    59    C    4  dx2y2  Ryd( 3d)     0.00197
    60    C    4  dz2    Ryd( 3d)     0.00141

    61    O    5  S      Cor( 1S)     1.99978
    62    O    5  S      Val( 2S)     1.70280
    63    O    5  S      Ryd( 3S)     0.00044
    64    O    5  S      Ryd( 4S)     0.00014
    65    O    5  px     Val( 2p)     1.80736
    66    O    5  px     Ryd( 3p)     0.00095
    67    O    5  py     Val( 2p)     1.57126
    68    O    5  py     Ryd( 3p)     0.00047
    69    O    5  pz     Val( 2p)     1.55854
    70    O    5  pz     Ryd( 3p)     0.00101
    71    O    5  dxy    Ryd( 3d)     0.00416
    72    O    5  dxz    Ryd( 3d)     0.00091
    73    O    5  dyz    Ryd( 3d)     0.00463
    74    O    5  dx2y2  Ryd( 3d)     0.00391
    75    O    5  dz2    Ryd( 3d)     0.00245

    76    O    6  S      Cor( 1S)     1.99970
    77    O    6  S      Val( 2S)     1.59416
    78    O    6  S      Ryd( 3S)     0.00094
    79    O    6  S      Ryd( 4S)     0.00014
    80    O    6  px     Val( 2p)     1.41495
    81    O    6  px     Ryd( 3p)     0.00077
    82    O    6  py     Val( 2p)     1.77078
    83    O    6  py     Ryd( 3p)     0.00195
    84    O    6  pz     Val( 2p)     1.77204
    85    O    6  pz     Ryd( 3p)     0.00153
    86    O    6  dxy    Ryd( 3d)     0.00114
    87    O    6  dxz    Ryd( 3d)     0.00068
    88    O    6  dyz    Ryd( 3d)     0.00126
    89    O    6  dx2y2  Ryd( 3d)     0.00106
    90    O    6  dz2    Ryd( 3d)     0.00096

    91    C    7  S      Cor( 1S)     1.99873
    92    C    7  S      Val( 2S)     0.82356
    93    C    7  S      Ryd( 3S)     0.00133
    94    C    7  S      Ryd( 4S)     0.00012
    95    C    7  px     Val( 2p)     0.77505
    96    C    7  px     Ryd( 3p)     0.00645
    97    C    7  py     Val( 2p)     1.03559
    98    C    7  py     Ryd( 3p)     0.00701
    99    C    7  pz     Val( 2p)     1.11267
   100    C    7  pz     Ryd( 3p)     0.00446
   101    C    7  dxy    Ryd( 3d)     0.00151
   102    C    7  dxz    Ryd( 3d)     0.00132
   103    C    7  dyz    Ryd( 3d)     0.00068
   104    C    7  dx2y2  Ryd( 3d)     0.00129
   105    C    7  dz2    Ryd( 3d)     0.00065

   106    C    8  S      Cor( 1S)     1.99901
   107    C    8  S      Val( 2S)     0.97183
   108    C    8  S      Ryd( 3S)     0.00062
   109    C    8  S      Ryd( 4S)     0.00005
   110    C    8  px     Val( 2p)     1.14689
   111    C    8  px     Ryd( 3p)     0.00399
   112    C    8  py     Val( 2p)     1.09467
   113    C    8  py     Ryd( 3p)     0.00396
   114    C    8  pz     Val( 2p)     0.95563
   115    C    8  pz     Ryd( 3p)     0.00201
   116    C    8  dxy    Ryd( 3d)     0.00069
   117    C    8  dxz    Ryd( 3d)     0.00076
   118    C    8  dyz    Ryd( 3d)     0.00074
   119    C    8  dx2y2  Ryd( 3d)     0.00075
   120    C    8  dz2    Ryd( 3d)     0.00049

   121    C    9  S      Cor( 1S)     1.99914
   122    C    9  S      Val( 2S)     0.94616
   123    C    9  S      Ryd( 3S)     0.00075
   124    C    9  S      Ryd( 4S)     0.00004
   125    C    9  px     Val( 2p)     1.05350
   126    C    9  px     Ryd( 3p)     0.00553
   127    C    9  py     Val( 2p)     1.17389
   128    C    9  py     Ryd( 3p)     0.00502
   129    C    9  pz     Val( 2p)     1.12493
   130    C    9  pz     Ryd( 3p)     0.00575
   131    C    9  dxy    Ryd( 3d)     0.00065
   132    C    9  dxz    Ryd( 3d)     0.00056
   133    C    9  dyz    Ryd( 3d)     0.00048
   134    C    9  dx2y2  Ryd( 3d)     0.00068
   135    C    9  dz2    Ryd( 3d)     0.00042

   136    C   10  S      Cor( 1S)     1.99908
   137    C   10  S      Val( 2S)     0.94057
   138    C   10  S      Ryd( 3S)     0.00063
   139    C   10  S      Ryd( 4S)     0.00004
   140    C   10  px     Val( 2p)     1.17935
   141    C   10  px     Ryd( 3p)     0.00336
   142    C   10  py     Val( 2p)     1.06633
   143    C   10  py     Ryd( 3p)     0.00466
   144    C   10  pz     Val( 2p)     1.12185
   145    C   10  pz     Ryd( 3p)     0.00594
   146    C   10  dxy    Ryd( 3d)     0.00058
   147    C   10  dxz    Ryd( 3d)     0.00039
   148    C   10  dyz    Ryd( 3d)     0.00053
   149    C   10  dx2y2  Ryd( 3d)     0.00078
   150    C   10  dz2    Ryd( 3d)     0.00057

   151    C   11  S      Cor( 1S)     1.99903
   152    C   11  S      Val( 2S)     0.83097
   153    C   11  S      Ryd( 3S)     0.00146
   154    C   11  S      Ryd( 4S)     0.00009
   155    C   11  px     Val( 2p)     0.97457
   156    C   11  px     Ryd( 3p)     0.00550
   157    C   11  py     Val( 2p)     1.02163
   158    C   11  py     Ryd( 3p)     0.00564
   159    C   11  pz     Val( 2p)     1.00665
   160    C   11  pz     Ryd( 3p)     0.00282
   161    C   11  dxy    Ryd( 3d)     0.00115
   162    C   11  dxz    Ryd( 3d)     0.00128
   163    C   11  dyz    Ryd( 3d)     0.00097
   164    C   11  dx2y2  Ryd( 3d)     0.00085
   165    C   11  dz2    Ryd( 3d)     0.00066

   166    C   12  S      Cor( 1S)     1.99900
   167    C   12  S      Val( 2S)     0.94068
   168    C   12  S      Ryd( 3S)     0.00084
   169    C   12  S      Ryd( 4S)     0.00005
   170    C   12  px     Val( 2p)     1.05874
   171    C   12  px     Ryd( 3p)     0.00447
   172    C   12  py     Val( 2p)     1.18730
   173    C   12  py     Ryd( 3p)     0.00357
   174    C   12  pz     Val( 2p)     1.16618
   175    C   12  pz     Ryd( 3p)     0.00715
   176    C   12  dxy    Ryd( 3d)     0.00063
   177    C   12  dxz    Ryd( 3d)     0.00060
   178    C   12  dyz    Ryd( 3d)     0.00046
   179    C   12  dx2y2  Ryd( 3d)     0.00058
   180    C   12  dz2    Ryd( 3d)     0.00048

   181    N   13  S      Cor( 1S)     1.99933
   182    N   13  S      Val( 2S)     1.20602
   183    N   13  S      Ryd( 3S)     0.00073
   184    N   13  S      Ryd( 4S)     0.00002
   185    N   13  px     Val( 2p)     1.28796
   186    N   13  px     Ryd( 3p)     0.00103
   187    N   13  py     Val( 2p)     1.29514
   188    N   13  py     Ryd( 3p)     0.00123
   189    N   13  pz     Val( 2p)     1.46145
   190    N   13  pz     Ryd( 3p)     0.00419
   191    N   13  dxy    Ryd( 3d)     0.00069
   192    N   13  dxz    Ryd( 3d)     0.00070
   193    N   13  dyz    Ryd( 3d)     0.00052
   194    N   13  dx2y2  Ryd( 3d)     0.00079
   195    N   13  dz2    Ryd( 3d)     0.00060

   196    C   14  S      Cor( 1S)     1.99945
   197    C   14  S      Val( 2S)     1.08900
   198    C   14  S      Ryd( 3S)     0.00109
   199    C   14  S      Ryd( 4S)     0.00002
   200    C   14  px     Val( 2p)     1.25257
   201    C   14  px     Ryd( 3p)     0.00320
   202    C   14  py     Val( 2p)     0.88719
   203    C   14  py     Ryd( 3p)     0.00214
   204    C   14  pz     Val( 2p)     1.24276
   205    C   14  pz     Ryd( 3p)     0.00109
   206    C   14  dxy    Ryd( 3d)     0.00070
   207    C   14  dxz    Ryd( 3d)     0.00097
   208    C   14  dyz    Ryd( 3d)     0.00117
   209    C   14  dx2y2  Ryd( 3d)     0.00117
   210    C   14  dz2    Ryd( 3d)     0.00069

   211    C   15  S      Cor( 1S)     1.99945
   212    C   15  S      Val( 2S)     1.08895
   213    C   15  S      Ryd( 3S)     0.00109
   214    C   15  S      Ryd( 4S)     0.00002
   215    C   15  px     Val( 2p)     0.89863
   216    C   15  px     Ryd( 3p)     0.00219
   217    C   15  py     Val( 2p)     1.24048
   218    C   15  py     Ryd( 3p)     0.00284
   219    C   15  pz     Val( 2p)     1.24287
   220    C   15  pz     Ryd( 3p)     0.00140
   221    C   15  dxy    Ryd( 3d)     0.00094
   222    C   15  dxz    Ryd( 3d)     0.00098
   223    C   15  dyz    Ryd( 3d)     0.00065
   224    C   15  dx2y2  Ryd( 3d)     0.00106
   225    C   15  dz2    Ryd( 3d)     0.00109

   226    C   16  S      Cor( 1S)     1.99935
   227    C   16  S      Val( 2S)     1.01496
   228    C   16  S      Ryd( 3S)     0.00133
   229    C   16  S      Ryd( 4S)     0.00003
   230    C   16  px     Val( 2p)     1.25663
   231    C   16  px     Ryd( 3p)     0.00562
   232    C   16  py     Val( 2p)     0.91883
   233    C   16  py     Ryd( 3p)     0.00183
   234    C   16  pz     Val( 2p)     1.05119
   235    C   16  pz     Ryd( 3p)     0.00149
   236    C   16  dxy    Ryd( 3d)     0.00091
   237    C   16  dxz    Ryd( 3d)     0.00080
   238    C   16  dyz    Ryd( 3d)     0.00123
   239    C   16  dx2y2  Ryd( 3d)     0.00096
   240    C   16  dz2    Ryd( 3d)     0.00104

   241    C   17  S      Cor( 1S)     1.99945
   242    C   17  S      Val( 2S)     1.11097
   243    C   17  S      Ryd( 3S)     0.00044
   244    C   17  S      Ryd( 4S)     0.00001
   245    C   17  px     Val( 2p)     1.24391
   246    C   17  px     Ryd( 3p)     0.00147
   247    C   17  py     Val( 2p)     1.24067
   248    C   17  py     Ryd( 3p)     0.00130
   249    C   17  pz     Val( 2p)     1.08432
   250    C   17  pz     Ryd( 3p)     0.00093
   251    C   17  dxy    Ryd( 3d)     0.00066
   252    C   17  dxz    Ryd( 3d)     0.00064
   253    C   17  dyz    Ryd( 3d)     0.00049
   254    C   17  dx2y2  Ryd( 3d)     0.00074
   255    C   17  dz2    Ryd( 3d)     0.00070

   256    H   18  S      Val( 1S)     0.76845
   257    H   18  S      Ryd( 2S)     0.00100

   258    H   19  S      Val( 1S)     0.77795
   259    H   19  S      Ryd( 2S)     0.00099

   260    H   20  S      Val( 1S)     0.75566
   261    H   20  S      Ryd( 2S)     0.00137

   262    H   21  S      Val( 1S)     0.77657
   263    H   21  S      Ryd( 2S)     0.00149

   264    H   22  S      Val( 1S)     0.74177
   265    H   22  S      Ryd( 2S)     0.00206

   266    H   23  S      Val( 1S)     0.74908
   267    H   23  S      Ryd( 2S)     0.00126

   268    H   24  S      Val( 1S)     0.77263
   269    H   24  S      Ryd( 2S)     0.00080

   270    H   25  S      Val( 1S)     0.78168
   271    H   25  S      Ryd( 2S)     0.00107

   272    H   26  S      Val( 1S)     0.77257
   273    H   26  S      Ryd( 2S)     0.00157

   274    H   27  S      Val( 1S)     0.74579
   275    H   27  S      Ryd( 2S)     0.00181

   276    H   28  S      Val( 1S)     0.75274
   277    H   28  S      Ryd( 2S)     0.00214

   278    H   29  S      Val( 1S)     0.76330
   279    H   29  S      Ryd( 2S)     0.00068

   280    H   30  S      Val( 1S)     0.74649
   281    H   30  S      Ryd( 2S)     0.00189

   282    H   31  S      Val( 1S)     0.76353
   283    H   31  S      Ryd( 2S)     0.00071

   284    H   32  S      Val( 1S)     0.75295
   285    H   32  S      Ryd( 2S)     0.00235

   286    H   33  S      Val( 1S)     0.74899
   287    H   33  S      Ryd( 2S)     0.00165

   288    H   34  S      Val( 1S)     0.77270
   289    H   34  S      Ryd( 2S)     0.00151

   290    H   35  S      Val( 1S)     0.75865
   291    H   35  S      Ryd( 2S)     0.00135

   292    H   36  S      Val( 1S)     0.76963
   293    H   36  S      Ryd( 2S)     0.00102

   294    H   37  S      Val( 1S)     0.77372
   295    H   37  S      Ryd( 2S)     0.00096

 WARNING:  1 low occupancy (<1.9990e) core orbital  found on  C    7


 Summary of Natural Population Analysis:                  
                                                          
                                       Natural Population 
                Natural  -----------------------------------------------
    Atom  No    Charge         Core      Valence    Rydberg      Total
 -----------------------------------------------------------------------
      C    1   -0.68732      1.99945     4.68054    0.00733     6.68732
      C    2   -0.25333      1.99935     4.23835    0.01563     6.25333
      N    3   -0.50939      1.99930     5.49645    0.01364     7.50939
      C    4    0.93133      1.99937     3.02328    0.04602     5.06867
      O    5   -0.65881      1.99978     6.63996    0.01907     8.65881
      O    6   -0.56205      1.99970     6.55193    0.01043     8.56205
      C    7    0.22960      1.99873     3.74686    0.02481     5.77040
      C    8   -0.18210      1.99901     4.16903    0.01407     6.18210
      C    9   -0.31750      1.99914     4.29849    0.01987     6.31750
      C   10   -0.32466      1.99908     4.30810    0.01748     6.32466
      C   11    0.14673      1.99903     3.83382    0.02042     5.85327
      C   12   -0.37073      1.99900     4.35291    0.01883     6.37073
      N   13   -0.26041      1.99933     5.25057    0.01051     7.26041
      C   14   -0.48324      1.99945     4.47152    0.01227     6.48324
      C   15   -0.48261      1.99945     4.47093    0.01223     6.48261
      C   16   -0.25619      1.99935     4.24160    0.01524     6.25619
      C   17   -0.68671      1.99945     4.67987    0.00739     6.68671
      H   18    0.23055      0.00000     0.76845    0.00100     0.76945
      H   19    0.22106      0.00000     0.77795    0.00099     0.77894
      H   20    0.24297      0.00000     0.75566    0.00137     0.75703
      H   21    0.22194      0.00000     0.77657    0.00149     0.77806
      H   22    0.25616      0.00000     0.74177    0.00206     0.74384
      H   23    0.24966      0.00000     0.74908    0.00126     0.75034
      H   24    0.22657      0.00000     0.77263    0.00080     0.77343
      H   25    0.21725      0.00000     0.78168    0.00107     0.78275
      H   26    0.22586      0.00000     0.77257    0.00157     0.77414
      H   27    0.25240      0.00000     0.74579    0.00181     0.74760
      H   28    0.24512      0.00000     0.75274    0.00214     0.75488
      H   29    0.23601      0.00000     0.76330    0.00068     0.76399
      H   30    0.25163      0.00000     0.74649    0.00189     0.74837
      H   31    0.23575      0.00000     0.76353    0.00071     0.76425
      H   32    0.24470      0.00000     0.75295    0.00235     0.75530
      H   33    0.24936      0.00000     0.74899    0.00165     0.75064
      H   34    0.22578      0.00000     0.77270    0.00151     0.77422
      H   35    0.24000      0.00000     0.75865    0.00135     0.76000
      H   36    0.22935      0.00000     0.76963    0.00102     0.77065
      H   37    0.22532      0.00000     0.77372    0.00096     0.77468
 =======================================================================
   * Total *   -0.00000     33.98797    93.69908    0.31295   128.00000

                                 Natural Population      
 --------------------------------------------------------
   Core                      33.98797 ( 99.9646% of  34)
   Valence                   93.69908 ( 99.6799% of  94)
   Natural Minimal Basis    127.68705 ( 99.7555% of 128)
   Natural Rydberg Basis      0.31295 (  0.2445% of 128)
 --------------------------------------------------------

    Atom  No          Natural Electron Configuration
 ----------------------------------------------------------------------------
      C    1      [core]2S( 1.11)2p( 3.57)
      C    2      [core]2S( 1.02)2p( 3.22)3p( 0.01)
      N    3      [core]2S( 1.20)2p( 4.29)3p( 0.01)
      C    4      [core]2S( 0.69)2p( 2.33)3p( 0.03)3d( 0.01)
      O    5      [core]2S( 1.70)2p( 4.94)3d( 0.02)
      O    6      [core]2S( 1.59)2p( 4.96)3d( 0.01)
      C    7      [core]2S( 0.82)2p( 2.92)3p( 0.02)3d( 0.01)
      C    8      [core]2S( 0.97)2p( 3.20)3p( 0.01)
      C    9      [core]2S( 0.95)2p( 3.35)3p( 0.02)
      C   10      [core]2S( 0.94)2p( 3.37)3p( 0.01)
      C   11      [core]2S( 0.83)2p( 3.00)3p( 0.01)
      C   12      [core]2S( 0.94)2p( 3.41)3p( 0.02)
      N   13      [core]2S( 1.21)2p( 4.04)3p( 0.01)
      C   14      [core]2S( 1.09)2p( 3.38)3p( 0.01)
      C   15      [core]2S( 1.09)2p( 3.38)3p( 0.01)
      C   16      [core]2S( 1.01)2p( 3.23)3p( 0.01)
      C   17      [core]2S( 1.11)2p( 3.57)
      H   18            1S( 0.77)
      H   19            1S( 0.78)
      H   20            1S( 0.76)
      H   21            1S( 0.78)
      H   22            1S( 0.74)
      H   23            1S( 0.75)
      H   24            1S( 0.77)
      H   25            1S( 0.78)
      H   26            1S( 0.77)
      H   27            1S( 0.75)
      H   28            1S( 0.75)
      H   29            1S( 0.76)
      H   30            1S( 0.75)
      H   31            1S( 0.76)
      H   32            1S( 0.75)
      H   33            1S( 0.75)
      H   34            1S( 0.77)
      H   35            1S( 0.76)
      H   36            1S( 0.77)
      H   37            1S( 0.77)


 NBO analysis skipped by request.
 Leave Link  607 at Thu Sep 30 10:09:21 2021, MaxMem= 1610612736 cpu:      26.6
 (Enter /sw/target/amd/app/gaussian/Gaussian09RevA.02_gcc-4.9.2/g09/l9999.exe)
 1\1\GINC-HERMITE\SP\RTD-B3LYP-FC\6-31G(d)\C13H20N2O2\JSCHLEINITZ\30-Se
 p-2021\0\\#p TD(NStates=10, Root=1) b3lyp/6-31G* volume pop=NPA densit
 y=current Geom=AllCheck Guess=Read\\CCN(C(=O)Oc1cccc(c1)N(C)C)CC_conf_
 0\\0,1\C,0,2.040715663,0.4066428549,0.416231883\C,0,1.194614262,1.6751
 71213,0.5511391942\N,0,-0.0900722187,1.4414049226,1.2168199104\C,0,-0.
 1247146002,1.5590657585,2.5756965638\O,0,0.8328156185,1.8201047829,3.2
 799202325\O,0,-1.4033910775,1.3409083636,3.0429670794\C,0,-1.678973602
 8,1.4312081408,4.4083809734\C,0,-1.2639303849,2.507985077,5.1883332885
 \C,0,-1.6908680036,2.535469244,6.5154097386\C,0,-2.5034313154,1.539774
 8276,7.0508024176\C,0,-2.9159014576,0.4455662135,6.2574914516\C,0,-2.4
 892697452,0.4192135561,4.9124622004\N,0,-3.7035809185,-0.5773908099,6.
 7803432337\C,0,-4.2987085489,-1.5434153122,5.8738097859\C,0,-4.3283261
 58,-0.3914056418,8.0786862821\C,0,-1.2551069869,1.0887135015,0.4001358
 29\C,0,-2.0827506957,2.3028445396,-0.0315547986\H,0,2.97851342,0.62688
 89069,-0.1071291645\H,0,1.5121095747,-0.3701735564,-0.1486261432\H,0,2
 .2840166956,0.0105408662,1.4067004087\H,0,0.9811355857,2.103286193,-0.
 4351906904\H,0,1.7381882695,2.4259380729,1.1285547009\H,0,-0.625318995
 ,3.2787278853,4.7789156187\H,0,-1.3868467354,3.3621736293,7.1523158657
 \H,0,-2.8133436396,1.6177141991,8.0855246755\H,0,-2.7793242825,-0.3758
 936855,4.2380990266\H,0,-3.5250892197,-2.0898599652,5.3216393054\H,0,-
 4.9799548611,-1.0833770983,5.1387687411\H,0,-4.8646454332,-2.275474888
 8,6.4538195084\H,0,-3.572685703,-0.2407312096,8.8583328059\H,0,-4.8890
 250815,-1.292358069,8.336780584\H,0,-5.0204564645,0.4664012287,8.10572
 24248\H,0,-1.8780880978,0.3886804444,0.959796421\H,0,-0.8803660246,0.5
 531141731,-0.47984225\H,0,-2.4917828064,2.8161434059,0.8439448125\H,0,
 -2.9180125906,1.9890128823,-0.6687276265\H,0,-1.4748442131,3.017870797
 ,-0.5976404231\\Version=AM64L-G09RevA.02\State=1-A\HF=-767.3933444\RMS
 D=9.222e-09\Dipole=-1.9924458,-1.4349518,0.2229505\Quadrupole=-4.23776
 53,-3.361686,7.5994513,7.185203,-12.2208109,-6.6109497\PG=C01 [X(C13H2
 0N2O2)]\\@


 THE MOST SERIOUS THREAT TO THE SURVIVAL OF MANKIND IS NOT NOW
 IGNORANCE IN THE TRADITIONAL SENSE,
 BUT A MORALLY NEUTRAL, AN INSENSITIVE OR INHIBITED HUMAN INTELLIGENCE.

                     -- MARGO JEFFERSON IN NEWSWEEK, SEPTEMBER 2, 1974
 Job cpu time:  0 days  5 hours 34 minutes 37.0 seconds.
 File lengths (MBytes):  RWF=    295 Int=      0 D2E=      0 Chk=     40 Scr=      1
 Normal termination of Gaussian 09 at Thu Sep 30 10:09:26 2021.
