 Entering Gaussian System, Link 0=g09
 Input=C13H12O2_4204_conf_0.com
 Output=C13H12O2_4204_conf_0.log
 Initial command:
 /sw/target/amd/app/gaussian/Gaussian09RevA.02_gcc-4.9.2/g09/l1.exe /home/jschleinitz/gaussian/Gau-494036.inp -scrdir=/home/jschleinitz/gaussian/
 Entering Link 1 = /sw/target/amd/app/gaussian/Gaussian09RevA.02_gcc-4.9.2/g09/l1.exe PID=    494038.
  
 Copyright (c) 1988,1990,1992,1993,1995,1998,2003,2009, Gaussian, Inc.
                  All Rights Reserved.
  
 This is part of the Gaussian(R) 09 program.  It is based on
 the Gaussian(R) 03 system (copyright 2003, Gaussian, Inc.),
 the Gaussian(R) 98 system (copyright 1998, Gaussian, Inc.),
 the Gaussian(R) 94 system (copyright 1995, Gaussian, Inc.),
 the Gaussian 92(TM) system (copyright 1992, Gaussian, Inc.),
 the Gaussian 90(TM) system (copyright 1990, Gaussian, Inc.),
 the Gaussian 88(TM) system (copyright 1988, Gaussian, Inc.),
 the Gaussian 86(TM) system (copyright 1986, Carnegie Mellon
 University), and the Gaussian 82(TM) system (copyright 1983,
 Carnegie Mellon University). Gaussian is a federally registered
 trademark of Gaussian, Inc.
  
 This software contains proprietary and confidential information,
 including trade secrets, belonging to Gaussian, Inc.
  
 This software is provided under written license and may be
 used, copied, transmitted, or stored only in accord with that
 written license.
  
 The following legend is applicable only to US Government
 contracts under FAR:
  
                    RESTRICTED RIGHTS LEGEND
  
 Use, reproduction and disclosure by the US Government is
 subject to restrictions as set forth in subparagraphs (a)
 and (c) of the Commercial Computer Software - Restricted
 Rights clause in FAR 52.227-19.
  
 Gaussian, Inc.
 340 Quinnipiac St., Bldg. 40, Wallingford CT 06492
  
  
 ---------------------------------------------------------------
 Warning -- This program may not be used in any manner that
 competes with the business of Gaussian, Inc. or will provide
 assistance to any competitor of Gaussian, Inc.  The licensee
 of this program is prohibited from giving any competitor of
 Gaussian, Inc. access to this program.  By using this program,
 the user acknowledges that Gaussian, Inc. is engaged in the
 business of creating and licensing software in the field of
 computational chemistry and represents and warrants to the
 licensee that it is not a competitor of Gaussian, Inc. and that
 it will not use this program in any manner prohibited above.
 ---------------------------------------------------------------
  

 Cite this work as:
 Gaussian 09, Revision A.02,
 M. J. Frisch, G. W. Trucks, H. B. Schlegel, G. E. Scuseria, 
 M. A. Robb, J. R. Cheeseman, G. Scalmani, V. Barone, B. Mennucci, 
 G. A. Petersson, H. Nakatsuji, M. Caricato, X. Li, H. P. Hratchian, 
 A. F. Izmaylov, J. Bloino, G. Zheng, J. L. Sonnenberg, M. Hada, 
 M. Ehara, K. Toyota, R. Fukuda, J. Hasegawa, M. Ishida, T. Nakajima, 
 Y. Honda, O. Kitao, H. Nakai, T. Vreven, J. A. Montgomery, Jr., 
 J. E. Peralta, F. Ogliaro, M. Bearpark, J. J. Heyd, E. Brothers, 
 K. N. Kudin, V. N. Staroverov, R. Kobayashi, J. Normand, 
 K. Raghavachari, A. Rendell, J. C. Burant, S. S. Iyengar, J. Tomasi, 
 M. Cossi, N. Rega, J. M. Millam, M. Klene, J. E. Knox, J. B. Cross, 
 V. Bakken, C. Adamo, J. Jaramillo, R. Gomperts, R. E. Stratmann, 
 O. Yazyev, A. J. Austin, R. Cammi, C. Pomelli, J. W. Ochterski, 
 R. L. Martin, K. Morokuma, V. G. Zakrzewski, G. A. Voth, 
 P. Salvador, J. J. Dannenberg, S. Dapprich, A. D. Daniels, 
 O. Farkas, J. B. Foresman, J. V. Ortiz, J. Cioslowski, 
 and D. J. Fox, Gaussian, Inc., Wallingford CT, 2009.
 
 ******************************************
 Gaussian 09:  AM64L-G09RevA.02 11-Jun-2009
                29-Sep-2021 
 ******************************************
 %nproc=4
 Will use up to    4 processors via shared memory.
 %mem=8gb
 %chk=C13H12O2_4204_conf_0.chk
 -----------------------------------
 #p opt b3lyp/6-31G* scf=(xqc,tight)
 -----------------------------------
 1/14=-1,18=20,19=15,26=3,38=1/1,3;
 2/9=110,12=2,17=6,18=5,40=1/2;
 3/5=1,6=6,7=1,11=2,16=1,25=1,30=1,71=1,74=-5/1,2,3;
 4//1;
 5/5=2,8=3,13=1,32=2,38=5/2,8;
 6/7=2,8=2,9=2,10=2,28=1/1;
 7//1,2,3,16;
 1/14=-1,18=20,19=15/3(2);
 2/9=110/2;
 99//99;
 2/9=110/2;
 3/5=1,6=6,7=1,11=2,16=1,25=1,30=1,71=1,74=-5/1,2,3;
 4/5=5,16=3/1;
 5/5=2,8=3,13=1,32=2,38=5/2,8;
 7//1,2,3,16;
 1/14=-1,18=20,19=15/3(-5);
 2/9=110/2;
 6/7=2,8=2,9=2,10=2,19=2,28=1/1;
 99/9=1/99;
 Leave Link    1 at Wed Sep 29 00:40:10 2021, MaxMem= 1073741824 cpu:       0.1
 (Enter /sw/target/amd/app/gaussian/Gaussian09RevA.02_gcc-4.9.2/g09/l101.exe)
 -------------------------------
 CCC(=O)Oc1ccc2c(c1)cccc2_conf_0
 -------------------------------
 Symbolic Z-matrix:
 Charge =  0 Multiplicity = 1
 C                     4.75528   1.49487   1.2881 
 C                     4.40553   0.1349    0.709 
 C                     5.19745  -0.96005   1.38324 
 O                     6.33851  -0.82649   1.80289 
 O                     4.43491  -2.13138   1.39459 
 C                     4.94349  -3.30833   1.97815 
 C                     4.56455  -4.50948   1.38311 
 C                     5.02785  -5.71842   1.91204 
 C                     5.86785  -5.73204   3.03851 
 C                     6.2198   -4.5085    3.65446 
 C                     5.73403  -3.30401   3.12507 
 C                     7.0553   -4.51399   4.77985 
 C                     7.54924  -5.71208   5.29418 
 C                     7.20801  -6.91895   4.68958 
 C                     6.37151  -6.93058   3.57171 
 H                     4.14261   2.27614   0.82884 
 H                     5.80818   1.7401    1.1121 
 H                     4.58611   1.51466   2.37018 
 H                     4.62479   0.10465  -0.36298 
 H                     3.33537  -0.04647   0.85276 
 H                     3.91854  -4.5128    0.51024 
 H                     4.7349   -6.6495    1.43414 
 H                     5.99249  -2.36741   3.61141 
 H                     7.33821  -3.5784    5.25892 
 H                     8.20277  -5.70055   6.16168 
 H                     7.5977   -7.85259   5.08711 
 H                     6.12083  -7.88466   3.11323 
 
 NAtoms=     27 NQM=     27 NQMF=      0 NMic=      0 NMicF=      0 NTot=     27.
                    Isotopes and Nuclear Properties:
 (Nuclear quadrupole moments (NQMom) in fm**2, nuclear magnetic moments (NMagM)
  in nuclear magnetons)

  Atom         1           2           3           4           5           6           7           8           9          10
 IAtWgt=          12          12          12          16          16          12          12          12          12          12
 AtmWgt=  12.0000000  12.0000000  12.0000000  15.9949146  15.9949146  12.0000000  12.0000000  12.0000000  12.0000000  12.0000000
 NucSpn=           0           0           0           0           0           0           0           0           0           0
 AtZEff=   0.0000000   0.0000000   0.0000000   0.0000000   0.0000000   0.0000000   0.0000000   0.0000000   0.0000000   0.0000000
 NQMom=    0.0000000   0.0000000   0.0000000   0.0000000   0.0000000   0.0000000   0.0000000   0.0000000   0.0000000   0.0000000
 NMagM=    0.0000000   0.0000000   0.0000000   0.0000000   0.0000000   0.0000000   0.0000000   0.0000000   0.0000000   0.0000000

  Atom        11          12          13          14          15          16          17          18          19          20
 IAtWgt=          12          12          12          12          12           1           1           1           1           1
 AtmWgt=  12.0000000  12.0000000  12.0000000  12.0000000  12.0000000   1.0078250   1.0078250   1.0078250   1.0078250   1.0078250
 NucSpn=           0           0           0           0           0           1           1           1           1           1
 AtZEff=   0.0000000   0.0000000   0.0000000   0.0000000   0.0000000   0.0000000   0.0000000   0.0000000   0.0000000   0.0000000
 NQMom=    0.0000000   0.0000000   0.0000000   0.0000000   0.0000000   0.0000000   0.0000000   0.0000000   0.0000000   0.0000000
 NMagM=    0.0000000   0.0000000   0.0000000   0.0000000   0.0000000   2.7928460   2.7928460   2.7928460   2.7928460   2.7928460

  Atom        21          22          23          24          25          26          27
 IAtWgt=           1           1           1           1           1           1           1
 AtmWgt=   1.0078250   1.0078250   1.0078250   1.0078250   1.0078250   1.0078250   1.0078250
 NucSpn=           1           1           1           1           1           1           1
 AtZEff=   0.0000000   0.0000000   0.0000000   0.0000000   0.0000000   0.0000000   0.0000000
 NQMom=    0.0000000   0.0000000   0.0000000   0.0000000   0.0000000   0.0000000   0.0000000
 NMagM=    2.7928460   2.7928460   2.7928460   2.7928460   2.7928460   2.7928460   2.7928460
 Leave Link  101 at Wed Sep 29 00:40:10 2021, MaxMem= 1073741824 cpu:       0.2
 (Enter /sw/target/amd/app/gaussian/Gaussian09RevA.02_gcc-4.9.2/g09/l103.exe)

 GradGradGradGradGradGradGradGradGradGradGradGradGradGradGradGradGradGrad
 Berny optimization.
 Initialization pass.
                           ----------------------------
                           !    Initial Parameters    !
                           ! (Angstroms and Degrees)  !
 --------------------------                            --------------------------
 ! Name  Definition              Value          Derivative Info.                !
 --------------------------------------------------------------------------------
 ! R1    R(1,2)                  1.5189         estimate D2E/DX2                !
 ! R2    R(1,16)                 1.0939         estimate D2E/DX2                !
 ! R3    R(1,17)                 1.0953         estimate D2E/DX2                !
 ! R4    R(1,18)                 1.0954         estimate D2E/DX2                !
 ! R5    R(2,3)                  1.5102         estimate D2E/DX2                !
 ! R6    R(2,19)                 1.0946         estimate D2E/DX2                !
 ! R7    R(2,20)                 1.0949         estimate D2E/DX2                !
 ! R8    R(3,4)                  1.2231         estimate D2E/DX2                !
 ! R9    R(3,5)                  1.3977         estimate D2E/DX2                !
 ! R10   R(5,6)                  1.4087         estimate D2E/DX2                !
 ! R11   R(6,7)                  1.393          estimate D2E/DX2                !
 ! R12   R(6,11)                 1.393          estimate D2E/DX2                !
 ! R13   R(7,8)                  1.3985         estimate D2E/DX2                !
 ! R14   R(7,21)                 1.0859         estimate D2E/DX2                !
 ! R15   R(8,9)                  1.4053         estimate D2E/DX2                !
 ! R16   R(8,22)                 1.0868         estimate D2E/DX2                !
 ! R17   R(9,10)                 1.4143         estimate D2E/DX2                !
 ! R18   R(9,15)                 1.4052         estimate D2E/DX2                !
 ! R19   R(10,11)                1.4025         estimate D2E/DX2                !
 ! R20   R(10,12)                1.4016         estimate D2E/DX2                !
 ! R21   R(11,23)                1.0865         estimate D2E/DX2                !
 ! R22   R(12,13)                1.3942         estimate D2E/DX2                !
 ! R23   R(12,24)                1.0885         estimate D2E/DX2                !
 ! R24   R(13,14)                1.3923         estimate D2E/DX2                !
 ! R25   R(13,25)                1.0862         estimate D2E/DX2                !
 ! R26   R(14,15)                1.3962         estimate D2E/DX2                !
 ! R27   R(14,26)                1.087          estimate D2E/DX2                !
 ! R28   R(15,27)                1.0878         estimate D2E/DX2                !
 ! A1    A(2,1,16)             110.5134         estimate D2E/DX2                !
 ! A2    A(2,1,17)             111.1332         estimate D2E/DX2                !
 ! A3    A(2,1,18)             110.9303         estimate D2E/DX2                !
 ! A4    A(16,1,17)            108.1208         estimate D2E/DX2                !
 ! A5    A(16,1,18)            108.3802         estimate D2E/DX2                !
 ! A6    A(17,1,18)            107.6461         estimate D2E/DX2                !
 ! A7    A(1,2,3)              110.99           estimate D2E/DX2                !
 ! A8    A(1,2,19)             110.6096         estimate D2E/DX2                !
 ! A9    A(1,2,20)             108.8634         estimate D2E/DX2                !
 ! A10   A(3,2,19)             108.1894         estimate D2E/DX2                !
 ! A11   A(3,2,20)             109.5003         estimate D2E/DX2                !
 ! A12   A(19,2,20)            108.6502         estimate D2E/DX2                !
 ! A13   A(2,3,4)              124.2789         estimate D2E/DX2                !
 ! A14   A(2,3,5)              108.9749         estimate D2E/DX2                !
 ! A15   A(4,3,5)              126.705          estimate D2E/DX2                !
 ! A16   A(3,5,6)              120.4353         estimate D2E/DX2                !
 ! A17   A(5,6,7)              116.4395         estimate D2E/DX2                !
 ! A18   A(5,6,11)             122.9142         estimate D2E/DX2                !
 ! A19   A(7,6,11)             120.5821         estimate D2E/DX2                !
 ! A20   A(6,7,8)              119.5842         estimate D2E/DX2                !
 ! A21   A(6,7,21)             120.5191         estimate D2E/DX2                !
 ! A22   A(8,7,21)             119.8956         estimate D2E/DX2                !
 ! A23   A(7,8,9)              120.635          estimate D2E/DX2                !
 ! A24   A(7,8,22)             119.0105         estimate D2E/DX2                !
 ! A25   A(9,8,22)             120.3528         estimate D2E/DX2                !
 ! A26   A(8,9,10)             119.3061         estimate D2E/DX2                !
 ! A27   A(8,9,15)             121.7831         estimate D2E/DX2                !
 ! A28   A(10,9,15)            118.9108         estimate D2E/DX2                !
 ! A29   A(9,10,11)            119.4976         estimate D2E/DX2                !
 ! A30   A(9,10,12)            119.6444         estimate D2E/DX2                !
 ! A31   A(11,10,12)           120.8568         estimate D2E/DX2                !
 ! A32   A(6,11,10)            120.3103         estimate D2E/DX2                !
 ! A33   A(6,11,23)            120.4121         estimate D2E/DX2                !
 ! A34   A(10,11,23)           119.2723         estimate D2E/DX2                !
 ! A35   A(10,12,13)           120.7128         estimate D2E/DX2                !
 ! A36   A(10,12,24)           120.3264         estimate D2E/DX2                !
 ! A37   A(13,12,24)           118.9567         estimate D2E/DX2                !
 ! A38   A(12,13,14)           119.8576         estimate D2E/DX2                !
 ! A39   A(12,13,25)           119.9115         estimate D2E/DX2                !
 ! A40   A(14,13,25)           120.2301         estimate D2E/DX2                !
 ! A41   A(13,14,15)           120.1134         estimate D2E/DX2                !
 ! A42   A(13,14,26)           119.8577         estimate D2E/DX2                !
 ! A43   A(15,14,26)           120.0283         estimate D2E/DX2                !
 ! A44   A(9,15,14)            120.7599         estimate D2E/DX2                !
 ! A45   A(9,15,27)            120.3695         estimate D2E/DX2                !
 ! A46   A(14,15,27)           118.8689         estimate D2E/DX2                !
 ! D1    D(16,1,2,3)          -177.2381         estimate D2E/DX2                !
 ! D2    D(16,1,2,19)           62.6634         estimate D2E/DX2                !
 ! D3    D(16,1,2,20)          -56.6466         estimate D2E/DX2                !
 ! D4    D(17,1,2,3)            62.7193         estimate D2E/DX2                !
 ! D5    D(17,1,2,19)          -57.3792         estimate D2E/DX2                !
 ! D6    D(17,1,2,20)         -176.6892         estimate D2E/DX2                !
 ! D7    D(18,1,2,3)           -57.0026         estimate D2E/DX2                !
 ! D8    D(18,1,2,19)         -177.1011         estimate D2E/DX2                !
 ! D9    D(18,1,2,20)           63.5889         estimate D2E/DX2                !
 ! D10   D(1,2,3,4)            -33.2547         estimate D2E/DX2                !
 ! D11   D(1,2,3,5)            148.9464         estimate D2E/DX2                !
 ! D12   D(19,2,3,4)            88.273          estimate D2E/DX2                !
 ! D13   D(19,2,3,5)           -89.526          estimate D2E/DX2                !
 ! D14   D(20,2,3,4)          -153.4686         estimate D2E/DX2                !
 ! D15   D(20,2,3,5)            28.7325         estimate D2E/DX2                !
 ! D16   D(2,3,5,6)           -179.5857         estimate D2E/DX2                !
 ! D17   D(4,3,5,6)              2.6829         estimate D2E/DX2                !
 ! D18   D(3,5,6,7)           -146.2633         estimate D2E/DX2                !
 ! D19   D(3,5,6,11)            36.6389         estimate D2E/DX2                !
 ! D20   D(5,6,7,8)           -179.7767         estimate D2E/DX2                !
 ! D21   D(5,6,7,21)             0.5922         estimate D2E/DX2                !
 ! D22   D(11,6,7,8)            -2.6066         estimate D2E/DX2                !
 ! D23   D(11,6,7,21)          177.7622         estimate D2E/DX2                !
 ! D24   D(5,6,11,10)         -179.5312         estimate D2E/DX2                !
 ! D25   D(5,6,11,23)           -0.3791         estimate D2E/DX2                !
 ! D26   D(7,6,11,10)            3.4874         estimate D2E/DX2                !
 ! D27   D(7,6,11,23)         -177.3605         estimate D2E/DX2                !
 ! D28   D(6,7,8,9)              0.1678         estimate D2E/DX2                !
 ! D29   D(6,7,8,22)          -179.3608         estimate D2E/DX2                !
 ! D30   D(21,7,8,9)           179.8012         estimate D2E/DX2                !
 ! D31   D(21,7,8,22)            0.2727         estimate D2E/DX2                !
 ! D32   D(7,8,9,10)             1.3713         estimate D2E/DX2                !
 ! D33   D(7,8,9,15)          -178.5477         estimate D2E/DX2                !
 ! D34   D(22,8,9,10)         -179.1065         estimate D2E/DX2                !
 ! D35   D(22,8,9,15)            0.9745         estimate D2E/DX2                !
 ! D36   D(8,9,10,11)           -0.5057         estimate D2E/DX2                !
 ! D37   D(8,9,10,12)          179.8878         estimate D2E/DX2                !
 ! D38   D(15,9,10,11)         179.4157         estimate D2E/DX2                !
 ! D39   D(15,9,10,12)          -0.1908         estimate D2E/DX2                !
 ! D40   D(8,9,15,14)          179.803          estimate D2E/DX2                !
 ! D41   D(8,9,15,27)            0.2842         estimate D2E/DX2                !
 ! D42   D(10,9,15,14)          -0.1163         estimate D2E/DX2                !
 ! D43   D(10,9,15,27)        -179.6352         estimate D2E/DX2                !
 ! D44   D(9,10,11,6)           -1.9006         estimate D2E/DX2                !
 ! D45   D(9,10,11,23)         178.9377         estimate D2E/DX2                !
 ! D46   D(12,10,11,6)         177.7011         estimate D2E/DX2                !
 ! D47   D(12,10,11,23)         -1.4606         estimate D2E/DX2                !
 ! D48   D(9,10,12,13)           0.3608         estimate D2E/DX2                !
 ! D49   D(9,10,12,24)         179.6195         estimate D2E/DX2                !
 ! D50   D(11,10,12,13)       -179.2402         estimate D2E/DX2                !
 ! D51   D(11,10,12,24)          0.0185         estimate D2E/DX2                !
 ! D52   D(10,12,13,14)         -0.2201         estimate D2E/DX2                !
 ! D53   D(10,12,13,25)        179.466          estimate D2E/DX2                !
 ! D54   D(24,12,13,14)       -179.4888         estimate D2E/DX2                !
 ! D55   D(24,12,13,25)          0.1973         estimate D2E/DX2                !
 ! D56   D(12,13,14,15)         -0.0907         estimate D2E/DX2                !
 ! D57   D(12,13,14,26)        179.6495         estimate D2E/DX2                !
 ! D58   D(25,13,14,15)       -179.7758         estimate D2E/DX2                !
 ! D59   D(25,13,14,26)         -0.0356         estimate D2E/DX2                !
 ! D60   D(13,14,15,9)           0.2593         estimate D2E/DX2                !
 ! D61   D(13,14,15,27)        179.7852         estimate D2E/DX2                !
 ! D62   D(26,14,15,9)        -179.4804         estimate D2E/DX2                !
 ! D63   D(26,14,15,27)          0.0455         estimate D2E/DX2                !
 --------------------------------------------------------------------------------
 Trust Radius=3.00D-01 FncErr=1.00D-07 GrdErr=1.00D-06
 Number of steps in this run= 147 maximum allowed number of steps= 162.
 GradGradGradGradGradGradGradGradGradGradGradGradGradGradGradGradGradGrad

 Leave Link  103 at Wed Sep 29 00:40:11 2021, MaxMem= 1073741824 cpu:       0.0
 (Enter /sw/target/amd/app/gaussian/Gaussian09RevA.02_gcc-4.9.2/g09/l202.exe)
                          Input orientation:                          
 ---------------------------------------------------------------------
 Center     Atomic      Atomic             Coordinates (Angstroms)
 Number     Number       Type             X           Y           Z
 ---------------------------------------------------------------------
      1          6           0        4.755277    1.494868    1.288098
      2          6           0        4.405530    0.134904    0.709003
      3          6           0        5.197445   -0.960048    1.383245
      4          8           0        6.338510   -0.826486    1.802893
      5          8           0        4.434908   -2.131379    1.394589
      6          6           0        4.943493   -3.308329    1.978155
      7          6           0        4.564554   -4.509477    1.383109
      8          6           0        5.027848   -5.718416    1.912039
      9          6           0        5.867848   -5.732036    3.038514
     10          6           0        6.219802   -4.508496    3.654459
     11          6           0        5.734027   -3.304005    3.125070
     12          6           0        7.055302   -4.513992    4.779847
     13          6           0        7.549241   -5.712078    5.294179
     14          6           0        7.208015   -6.918953    4.689579
     15          6           0        6.371513   -6.930580    3.571711
     16          1           0        4.142605    2.276141    0.828840
     17          1           0        5.808183    1.740099    1.112098
     18          1           0        4.586109    1.514662    2.370182
     19          1           0        4.624793    0.104648   -0.362985
     20          1           0        3.335374   -0.046467    0.852755
     21          1           0        3.918539   -4.512798    0.510243
     22          1           0        4.734902   -6.649496    1.434138
     23          1           0        5.992488   -2.367410    3.611407
     24          1           0        7.338212   -3.578404    5.258917
     25          1           0        8.202765   -5.700552    6.161684
     26          1           0        7.597704   -7.852593    5.087114
     27          1           0        6.120833   -7.884662    3.113233
 ---------------------------------------------------------------------
                    Distance matrix (angstroms):
                    1          2          3          4          5
     1  C    0.000000
     2  C    1.518939   0.000000
     3  C    2.496233   1.510182   0.000000
     4  O    2.856629   2.420182   1.223100   0.000000
     5  O    3.641929   2.367896   1.397716   2.343749   0.000000
     6  C    4.856161   3.708908   2.435741   2.852425   1.408693
     7  C    6.008125   4.695741   3.605413   4.109448   2.381657
     8  C    7.245348   6.007989   4.790663   5.065641   3.672351
     9  C    7.518638   6.479659   5.095217   5.080620   4.209577
    10  C    6.617014   5.790376   4.335333   4.123054   3.734105
    11  C    5.230832   4.407764   2.969177   2.872569   2.461164
    12  C    7.320439   6.723488   5.255384   4.793093   4.899314
    13  C    8.706032   8.068083   6.588486   6.125680   6.142253
    14  C    9.400977   8.570636   7.105124   6.797583   6.439560
    15  C    8.877798   7.872817   6.466458   6.355294   5.614502
    16  H    1.093924   2.160644   3.448618   3.923910   4.453284
    17  H    1.095320   2.169463   2.781602   2.710315   4.117527
    18  H    1.095407   2.166992   2.733489   2.978875   3.777335
    19  H    2.162363   1.094600   2.123870   2.914596   2.850428
    20  H    2.140412   1.094895   2.140878   3.244999   2.418557
    21  H    6.115329   4.677372   3.875535   4.595226   2.592270
    22  H    8.145699   6.830988   5.708446   6.051031   4.528238
    23  H    4.673933   4.147765   2.752720   2.401020   2.719567
    24  H    6.940969   6.564373   5.143881   4.529520   5.045402
    25  H    9.349389   8.843261   7.371418   6.799339   7.047051
    26  H   10.482697   9.651836   8.184563   7.857343   7.508016
    27  H    9.652536   8.546112   7.196930   7.182076   6.236694
                    6          7          8          9         10
     6  C    0.000000
     7  C    1.392994   0.000000
     8  C    2.412469   1.398550   0.000000
     9  C    2.802348   2.435897   1.405251   0.000000
    10  C    2.424739   2.810494   2.433246   1.414323   0.000000
    11  C    1.392975   2.419765   2.792761   2.433256   1.402507
    12  C    3.709830   4.212087   3.712887   2.434321   1.401638
    13  C    4.854271   5.064689   4.218570   2.813451   2.429959
    14  C    5.051385   4.870955   3.729496   2.435330   2.803273
    15  C    4.207062   3.730526   2.455461   1.405164   2.428242
    16  H    5.757486   6.821280   8.116028   8.484693   7.637418
    17  H    5.194648   6.377873   7.541768   7.716699   6.758547
    18  H    4.852076   6.104509   7.261022   7.389462   6.371557
    19  H    4.151014   4.933825   6.264684   6.868935   6.321788
    20  H    3.806877   4.659465   6.013115   6.596716   6.006593
    21  H    2.157786   1.085928   2.156180   3.417382   3.896398
    22  H    3.391587   2.147395   1.086792   2.167792   3.423249
    23  H    2.157135   3.404814   3.879127   3.415326   2.153549
    24  H    4.070752   4.856126   4.595544   3.424951   2.165686
    25  H    5.817861   6.122909   5.304705   3.899618   3.411645
    26  H    6.112348   5.839184   4.608684   3.418468   3.890257
    27  H    4.859770   4.099660   2.707417   2.168729   3.420705
                   11         12         13         14         15
    11  C    0.000000
    12  C    2.438877   0.000000
    13  C    3.714680   1.394247   0.000000
    14  C    4.205731   2.411494   1.392308   0.000000
    15  C    3.709168   2.786944   2.416337   1.396244   0.000000
    16  H    6.240458   8.378553   9.765042  10.433205   9.861799
    17  H    5.431440   7.356721   8.721011   9.472965   9.030377
    18  H    5.010700   6.946082   8.340004   9.131256   8.715127
    19  H    5.001584   7.327205   8.624976   9.029529   8.247867
    20  H    4.639882   7.015603   8.341586   8.772093   8.000117
    21  H    3.405070   5.297999   6.124240   5.837557   4.608182
    22  H    3.879409   4.597652   4.868179   4.097168   2.706792
    23  H    1.086525   2.665078   4.054875   4.832857   4.579057
    24  H    2.683655   1.088518   2.144374   3.391218   3.875339
    25  H    4.589022   2.152689   1.086182   2.154327   3.402119
    26  H    5.292689   3.396302   2.151053   1.087003   2.156408
    27  H    4.596975   3.874565   3.393670   2.144628   1.087803
                   16         17         18         19         20
    16  H    0.000000
    17  H    1.772491   0.000000
    18  H    1.775466   1.768350   0.000000
    19  H    2.523555   2.500196   3.075685   0.000000
    20  H    2.459005   3.061677   2.510786   1.778613   0.000000
    21  H    6.800103   6.559856   6.343130   4.752066   4.517246
    22  H    8.965723   8.464097   8.218989   6.990010   6.774708
    23  H    5.720778   4.811667   4.311498   4.876213   4.478525
    24  H    8.007070   6.915459   6.469789   7.247986   6.921817
    25  H   10.418816   9.305677   8.917117   9.437878   9.156685
    26  H   11.517892  10.536739  10.207687  10.092545   9.850525
    27  H   10.600649   9.835564   9.552737   8.840323   8.620084
                   21         22         23         24         25
    21  H    0.000000
    22  H    2.466882   0.000000
    23  H    4.303623   4.965711   0.000000
    24  H    5.925973   5.553176   2.447809   0.000000
    25  H    7.190559   5.939382   4.743319   2.462915   0.000000
    26  H    6.755607   4.794508   5.902683   4.285504   2.480339
    27  H    4.795323   2.503158   5.541185   4.962845   4.289270
                   26         27
    26  H    0.000000
    27  H    2.465437   0.000000
 Stoichiometry    C13H12O2
 Framework group  C1[X(C13H12O2)]
 Deg. of freedom    75
 Full point group                 C1      NOp   1
 Largest Abelian subgroup         C1      NOp   1
 Largest concise Abelian subgroup C1      NOp   1
                         Standard orientation:                         
 ---------------------------------------------------------------------
 Center     Atomic      Atomic             Coordinates (Angstroms)
 Number     Number       Type             X           Y           Z
 ---------------------------------------------------------------------
      1          6           0       -5.050398   -0.960295   -0.214746
      2          6           0       -4.193476    0.280305   -0.030972
      3          6           0       -2.753601   -0.091004    0.232730
      4          8           0       -2.400640   -1.089443    0.844704
      5          8           0       -1.924402    0.906942   -0.287021
      6          6           0       -0.523954    0.798239   -0.180498
      7          6           0        0.180180    1.989397   -0.019975
      8          6           0        1.574215    1.958261    0.087904
      9          6           0        2.269658    0.738423    0.032349
     10          6           0        1.547614   -0.461794   -0.163721
     11          6           0        0.151439   -0.415257   -0.288440
     12          6           0        2.234349   -1.682250   -0.222624
     13          6           0        3.620831   -1.726660   -0.082548
     14          6           0        4.335800   -0.548157    0.113596
     15          6           0        3.666860    0.676196    0.168147
     16          1           0       -6.081116   -0.682317   -0.453532
     17          1           0       -5.063971   -1.569272    0.695577
     18          1           0       -4.664333   -1.585757   -1.026944
     19          1           0       -4.553237    0.875316    0.814418
     20          1           0       -4.253446    0.889607   -0.938689
     21          1           0       -0.345319    2.938508    0.027779
     22          1           0        2.113356    2.892115    0.223406
     23          1           0       -0.397978   -1.337475   -0.456342
     24          1           0        1.689153   -2.613273   -0.366942
     25          1           0        4.138901   -2.680529   -0.121662
     26          1           0        5.416139   -0.583358    0.228510
     27          1           0        4.245073    1.584021    0.325752
 ---------------------------------------------------------------------
 Rotational constants (GHZ):      1.6894122      0.2963697      0.2574655
 Leave Link  202 at Wed Sep 29 00:40:11 2021, MaxMem= 1073741824 cpu:       0.0
 (Enter /sw/target/amd/app/gaussian/Gaussian09RevA.02_gcc-4.9.2/g09/l301.exe)
 Standard basis: 6-31G(d) (6D, 7F)
 Ernie: Thresh=  0.10000D-02 Tol=  0.10000D-05 Strict=F.
 There are   249 symmetry adapted basis functions of A   symmetry.
 Integral buffers will be    131072 words long.
 Raffenetti 2 integral format.
 Two-electron integral symmetry is turned on.
   249 basis functions,   468 primitive gaussians,   249 cartesian basis functions
    53 alpha electrons       53 beta electrons
       nuclear repulsion energy       902.3300213274 Hartrees.
 IExCor=  402 DFT=T Ex+Corr=B3LYP ExCW=0 ScaHFX=  0.200000
 ScaDFX=  0.800000  0.720000  1.000000  0.810000 ScalE2=  1.000000  1.000000
 IRadAn=      0 IRanWt=     -1 IRanGd=            0 ICorTp=0
 NAtoms=   27 NActive=   27 NUniq=   27 SFac= 7.50D-01 NAtFMM=   80 NAOKFM=F Big=F
 Leave Link  301 at Wed Sep 29 00:40:11 2021, MaxMem= 1073741824 cpu:       0.1
 (Enter /sw/target/amd/app/gaussian/Gaussian09RevA.02_gcc-4.9.2/g09/l302.exe)
 NPDir=0 NMtPBC=     1 NCelOv=     1 NCel=       1 NClECP=     1 NCelD=      1
         NCelK=      1 NCelE2=     1 NClLst=     1 CellRange=     0.0.
 One-electron integrals computed using PRISM.
 NBasis=   249 RedAO= T  NBF=   249
 NBsUse=   249 1.00D-06 NBFU=   249
 Precomputing XC quadrature grid using
 IXCGrd= 2 IRadAn=           0 IRanWt=          -1 IRanGd=           0 AccXCQ= 1.00D-10.
 NRdTot=    1713 NPtTot=      218414 NUsed=      230769 NTot=      230801
 NSgBfM=   248   248   248   248   248 NAtAll=    27    27.
 Leave Link  302 at Wed Sep 29 00:40:15 2021, MaxMem= 1073741824 cpu:       2.0
 (Enter /sw/target/amd/app/gaussian/Gaussian09RevA.02_gcc-4.9.2/g09/l303.exe)
 DipDrv:  MaxL=1.
 Leave Link  303 at Wed Sep 29 00:40:15 2021, MaxMem= 1073741824 cpu:       0.2
 (Enter /sw/target/amd/app/gaussian/Gaussian09RevA.02_gcc-4.9.2/g09/l401.exe)
 Harris functional with IExCor=  402 diagonalized for initial guess.
 ExpMin= 1.61D-01 ExpMax= 5.48D+03 ExpMxC= 8.25D+02 IAcc=1 IRadAn=         1 AccDes= 0.00D+00
 HarFok:  IExCor=  402 AccDes= 0.00D+00 IRadAn=         1 IDoV= 1
 ScaDFX=  1.000000  1.000000  1.000000  1.000000
 FoFCou: FMM=F IPFlag=           0 FMFlag=      100000 FMFlg1=           0
         NFxFlg=           0 DoJE=T BraDBF=F KetDBF=T FulRan=T
         Omega=  0.000000  0.000000  1.000000  0.000000  0.000000 ICntrl=     500 IOpCl=  0
         NMat0=    1 NMatS0=    1 NMatT0=    0 NMatD0=    1 NMtDS0=    0 NMtDT0=    0
         I1Cent=           4 NGrid=           0.
 Petite list used in FoFCou.
 Harris En= -653.177363134881    
 Initial guess orbital symmetries:
       Occupied  (A) (A) (A) (A) (A) (A) (A) (A) (A) (A) (A) (A)
                 (A) (A) (A) (A) (A) (A) (A) (A) (A) (A) (A) (A)
                 (A) (A) (A) (A) (A) (A) (A) (A) (A) (A) (A) (A)
                 (A) (A) (A) (A) (A) (A) (A) (A) (A) (A) (A) (A)
                 (A) (A) (A) (A) (A)
       Virtual   (A) (A) (A) (A) (A) (A) (A) (A) (A) (A) (A) (A)
                 (A) (A) (A) (A) (A) (A) (A) (A) (A) (A) (A) (A)
                 (A) (A) (A) (A) (A) (A) (A) (A) (A) (A) (A) (A)
                 (A) (A) (A) (A) (A) (A) (A) (A) (A) (A) (A) (A)
                 (A) (A) (A) (A) (A) (A) (A) (A) (A) (A) (A) (A)
                 (A) (A) (A) (A) (A) (A) (A) (A) (A) (A) (A) (A)
                 (A) (A) (A) (A) (A) (A) (A) (A) (A) (A) (A) (A)
                 (A) (A) (A) (A) (A) (A) (A) (A) (A) (A) (A) (A)
                 (A) (A) (A) (A) (A) (A) (A) (A) (A) (A) (A) (A)
                 (A) (A) (A) (A) (A) (A) (A) (A) (A) (A) (A) (A)
                 (A) (A) (A) (A) (A) (A) (A) (A) (A) (A) (A) (A)
                 (A) (A) (A) (A) (A) (A) (A) (A) (A) (A) (A) (A)
                 (A) (A) (A) (A) (A) (A) (A) (A) (A) (A) (A) (A)
                 (A) (A) (A) (A) (A) (A) (A) (A) (A) (A) (A) (A)
                 (A) (A) (A) (A) (A) (A) (A) (A) (A) (A) (A) (A)
                 (A) (A) (A) (A) (A) (A) (A) (A) (A) (A) (A) (A)
                 (A) (A) (A) (A)
 The electronic state of the initial guess is 1-A.
 Leave Link  401 at Wed Sep 29 00:40:24 2021, MaxMem= 1073741824 cpu:       8.7
 (Enter /sw/target/amd/app/gaussian/Gaussian09RevA.02_gcc-4.9.2/g09/l502.exe)
 Closed shell SCF:
 Requested convergence on RMS density matrix=1.00D-08 within  64 cycles.
 Requested convergence on MAX density matrix=1.00D-06.
 Requested convergence on             energy=1.00D-06.
 No special actions if energy rises.
 Using DIIS extrapolation, IDIIS=  1040.
 Integral symmetry usage will be decided dynamically.
       230513 words used for storage of precomputed grid.
 Keep R1 ints in memory in canonical form, NReq=492636193.
 IEnd=      425429 IEndB=      425429 NGot=  1073741824 MDV=   588984467
 LenX=   588984467 LenY=   588922025
 Symmetry not used in FoFDir.
 MinBra= 0 MaxBra= 2 Meth= 1.
 IRaf=       0 NMat=   1 IRICut=       1 DoRegI=T DoRafI=F ISym2E= 0 JSym2E=0.
 Integral accuracy reduced to 1.0D-05 until final iterations.

 Cycle   1  Pass 0  IDiag  1:
 E= -652.672443046678    
 DIIS: error= 3.12D-02 at cycle   1 NSaved=   1.
 NSaved= 1 IEnMin= 1 EnMin= -652.672443046678     IErMin= 1 ErrMin= 3.12D-02
 ErrMax= 3.12D-02 EMaxC= 1.00D-01 BMatC= 4.02D-01 BMatP= 4.02D-01
 IDIUse=3 WtCom= 6.88D-01 WtEn= 3.12D-01
 Coeff-Com:  0.100D+01
 Coeff-En:   0.100D+01
 Coeff:      0.100D+01
 Gap=     0.180 Goal=   None    Shift=    0.000
 GapD=    0.180 DampG=1.000 DampE=0.500 DampFc=0.5000 IDamp=-1.
 Damping current iteration by 5.00D-01
 RMSDP=6.02D-03 MaxDP=2.01D-01              OVMax= 2.07D-01

 Cycle   2  Pass 0  IDiag  1:
 E= -652.800694467247     Delta-E=       -0.128251420569 Rises=F Damp=T
 DIIS: error= 1.62D-02 at cycle   2 NSaved=   2.
 NSaved= 2 IEnMin= 2 EnMin= -652.800694467247     IErMin= 2 ErrMin= 1.62D-02
 ErrMax= 1.62D-02 EMaxC= 1.00D-01 BMatC= 6.32D-02 BMatP= 4.02D-01
 IDIUse=3 WtCom= 8.38D-01 WtEn= 1.62D-01
 Coeff-Com:  0.197D+00 0.803D+00
 Coeff-En:   0.294D+00 0.706D+00
 Coeff:      0.213D+00 0.787D+00
 Gap=     0.163 Goal=   None    Shift=    0.000
 RMSDP=2.27D-03 MaxDP=7.48D-02 DE=-1.28D-01 OVMax= 1.83D-01

 Cycle   3  Pass 0  IDiag  1:
 E= -653.000996061921     Delta-E=       -0.200301594674 Rises=F Damp=F
 DIIS: error= 2.11D-02 at cycle   3 NSaved=   3.
 NSaved= 3 IEnMin= 3 EnMin= -653.000996061921     IErMin= 2 ErrMin= 1.62D-02
 ErrMax= 2.11D-02 EMaxC= 1.00D-01 BMatC= 8.81D-02 BMatP= 6.32D-02
 IDIUse=2 WtCom= 0.00D+00 WtEn= 1.00D+00
 Coeff-En:   0.000D+00 0.000D+00 0.100D+01
 Coeff:      0.000D+00 0.000D+00 0.100D+01
 Gap=     0.171 Goal=   None    Shift=    0.000
 RMSDP=3.54D-03 MaxDP=1.68D-01 DE=-2.00D-01 OVMax= 2.91D-01

 Cycle   4  Pass 0  IDiag  1:
 E= -652.601538797211     Delta-E=        0.399457264710 Rises=F Damp=F
 DIIS: error= 5.54D-02 at cycle   4 NSaved=   4.
 NSaved= 4 IEnMin= 3 EnMin= -653.000996061921     IErMin= 2 ErrMin= 1.62D-02
 ErrMax= 5.54D-02 EMaxC= 1.00D-01 BMatC= 5.84D-01 BMatP= 6.32D-02
 IDIUse=2 WtCom= 0.00D+00 WtEn= 1.00D+00
 Coeff-En:   0.000D+00 0.000D+00 0.806D+00 0.194D+00
 Coeff:      0.000D+00 0.000D+00 0.806D+00 0.194D+00
 Gap=     0.202 Goal=   None    Shift=    0.000
 RMSDP=1.89D-03 MaxDP=8.76D-02 DE= 3.99D-01 OVMax= 1.46D-01

 Cycle   5  Pass 0  IDiag  1:
 E= -653.040879553755     Delta-E=       -0.439340756544 Rises=F Damp=F
 DIIS: error= 1.43D-02 at cycle   5 NSaved=   5.
 NSaved= 5 IEnMin= 5 EnMin= -653.040879553755     IErMin= 5 ErrMin= 1.43D-02
 ErrMax= 1.43D-02 EMaxC= 1.00D-01 BMatC= 4.37D-02 BMatP= 6.32D-02
 IDIUse=3 WtCom= 8.57D-01 WtEn= 1.43D-01
 Coeff-Com: -0.551D-02 0.675D-01 0.330D+00-0.815D-01 0.690D+00
 Coeff-En:   0.000D+00 0.000D+00 0.365D+00 0.000D+00 0.635D+00
 Coeff:     -0.472D-02 0.578D-01 0.335D+00-0.698D-01 0.682D+00
 Gap=     0.165 Goal=   None    Shift=    0.000
 RMSDP=7.58D-04 MaxDP=3.09D-02 DE=-4.39D-01 OVMax= 4.35D-02

 Cycle   6  Pass 0  IDiag  1:
 E= -653.076891169730     Delta-E=       -0.036011615975 Rises=F Damp=F
 DIIS: error= 9.96D-04 at cycle   6 NSaved=   6.
 NSaved= 6 IEnMin= 6 EnMin= -653.076891169730     IErMin= 6 ErrMin= 9.96D-04
 ErrMax= 9.96D-04 EMaxC= 1.00D-01 BMatC= 5.26D-04 BMatP= 4.37D-02
 IDIUse=3 WtCom= 9.90D-01 WtEn= 9.96D-03
 Coeff-Com: -0.790D-02 0.314D-01 0.166D+00-0.644D-01 0.443D+00 0.432D+00
 Coeff-En:   0.000D+00 0.000D+00 0.000D+00 0.000D+00 0.000D+00 0.100D+01
 Coeff:     -0.783D-02 0.311D-01 0.164D+00-0.638D-01 0.438D+00 0.438D+00
 Gap=     0.165 Goal=   None    Shift=    0.000
 RMSDP=1.02D-04 MaxDP=3.94D-03 DE=-3.60D-02 OVMax= 8.81D-03

 Cycle   7  Pass 0  IDiag  1:
 E= -653.077369615930     Delta-E=       -0.000478446200 Rises=F Damp=F
 DIIS: error= 2.54D-04 at cycle   7 NSaved=   7.
 NSaved= 7 IEnMin= 7 EnMin= -653.077369615930     IErMin= 7 ErrMin= 2.54D-04
 ErrMax= 2.54D-04 EMaxC= 1.00D-01 BMatC= 2.35D-05 BMatP= 5.26D-04
 IDIUse=3 WtCom= 9.97D-01 WtEn= 2.54D-03
 Coeff-Com: -0.135D-02 0.258D-02 0.367D-01-0.148D-01 0.951D-01 0.176D+00
 Coeff-Com:  0.705D+00
 Coeff-En:   0.000D+00 0.000D+00 0.000D+00 0.000D+00 0.000D+00 0.000D+00
 Coeff-En:   0.100D+01
 Coeff:     -0.134D-02 0.257D-02 0.366D-01-0.148D-01 0.949D-01 0.176D+00
 Coeff:      0.706D+00
 Gap=     0.165 Goal=   None    Shift=    0.000
 RMSDP=2.32D-05 MaxDP=8.65D-04 DE=-4.78D-04 OVMax= 1.75D-03

 Cycle   8  Pass 0  IDiag  1:
 E= -653.077391966955     Delta-E=       -0.000022351026 Rises=F Damp=F
 DIIS: error= 6.86D-05 at cycle   8 NSaved=   8.
 NSaved= 8 IEnMin= 8 EnMin= -653.077391966955     IErMin= 8 ErrMin= 6.86D-05
 ErrMax= 6.86D-05 EMaxC= 1.00D-01 BMatC= 2.06D-06 BMatP= 2.35D-05
 IDIUse=1 WtCom= 1.00D+00 WtEn= 0.00D+00
 Coeff-Com: -0.831D-04-0.678D-03 0.101D-01-0.386D-02 0.228D-01 0.699D-01
 Coeff-Com:  0.398D+00 0.504D+00
 Coeff:     -0.831D-04-0.678D-03 0.101D-01-0.386D-02 0.228D-01 0.699D-01
 Coeff:      0.398D+00 0.504D+00
 Gap=     0.165 Goal=   None    Shift=    0.000
 RMSDP=5.95D-06 MaxDP=2.76D-04 DE=-2.24D-05 OVMax= 3.60D-04

 Initial convergence to 1.0D-05 achieved.  Increase integral accuracy.
 Cycle   9  Pass 1  IDiag  1:
 E= -653.077407318473     Delta-E=       -0.000015351518 Rises=F Damp=F
 DIIS: error= 1.91D-05 at cycle   1 NSaved=   1.
 NSaved= 1 IEnMin= 1 EnMin= -653.077407318473     IErMin= 1 ErrMin= 1.91D-05
 ErrMax= 1.91D-05 EMaxC= 1.00D-01 BMatC= 1.85D-07 BMatP= 1.85D-07
 IDIUse=1 WtCom= 1.00D+00 WtEn= 0.00D+00
 Coeff-Com:  0.100D+01
 Coeff:      0.100D+01
 Gap=     0.165 Goal=   None    Shift=    0.000
 RMSDP=5.95D-06 MaxDP=2.76D-04 DE=-1.54D-05 OVMax= 2.34D-04

 Cycle  10  Pass 1  IDiag  1:
 E= -653.077407216748     Delta-E=        0.000000101725 Rises=F Damp=F
 DIIS: error= 3.88D-05 at cycle   2 NSaved=   2.
 NSaved= 2 IEnMin= 1 EnMin= -653.077407318473     IErMin= 1 ErrMin= 1.91D-05
 ErrMax= 3.88D-05 EMaxC= 1.00D-01 BMatC= 3.28D-07 BMatP= 1.85D-07
 IDIUse=1 WtCom= 1.00D+00 WtEn= 0.00D+00
 Coeff-Com:  0.585D+00 0.415D+00
 Coeff:      0.585D+00 0.415D+00
 Gap=     0.165 Goal=   None    Shift=    0.000
 RMSDP=2.77D-06 MaxDP=1.11D-04 DE= 1.02D-07 OVMax= 1.94D-04

 Cycle  11  Pass 1  IDiag  1:
 E= -653.077407506397     Delta-E=       -0.000000289649 Rises=F Damp=F
 DIIS: error= 1.08D-05 at cycle   3 NSaved=   3.
 NSaved= 3 IEnMin= 3 EnMin= -653.077407506397     IErMin= 3 ErrMin= 1.08D-05
 ErrMax= 1.08D-05 EMaxC= 1.00D-01 BMatC= 3.16D-08 BMatP= 1.85D-07
 IDIUse=1 WtCom= 1.00D+00 WtEn= 0.00D+00
 Coeff-Com:  0.877D-01 0.236D+00 0.676D+00
 Coeff:      0.877D-01 0.236D+00 0.676D+00
 Gap=     0.165 Goal=   None    Shift=    0.000
 RMSDP=9.80D-07 MaxDP=3.54D-05 DE=-2.90D-07 OVMax= 5.34D-05

 Cycle  12  Pass 1  IDiag  1:
 E= -653.077407527146     Delta-E=       -0.000000020749 Rises=F Damp=F
 DIIS: error= 5.87D-06 at cycle   4 NSaved=   4.
 NSaved= 4 IEnMin= 4 EnMin= -653.077407527146     IErMin= 4 ErrMin= 5.87D-06
 ErrMax= 5.87D-06 EMaxC= 1.00D-01 BMatC= 1.19D-08 BMatP= 3.16D-08
 IDIUse=1 WtCom= 1.00D+00 WtEn= 0.00D+00
 Coeff-Com: -0.843D-02 0.116D+00 0.478D+00 0.415D+00
 Coeff:     -0.843D-02 0.116D+00 0.478D+00 0.415D+00
 Gap=     0.165 Goal=   None    Shift=    0.000
 RMSDP=3.92D-07 MaxDP=1.97D-05 DE=-2.07D-08 OVMax= 2.35D-05

 Cycle  13  Pass 1  IDiag  1:
 E= -653.077407536445     Delta-E=       -0.000000009298 Rises=F Damp=F
 DIIS: error= 8.10D-07 at cycle   5 NSaved=   5.
 NSaved= 5 IEnMin= 5 EnMin= -653.077407536445     IErMin= 5 ErrMin= 8.10D-07
 ErrMax= 8.10D-07 EMaxC= 1.00D-01 BMatC= 3.00D-10 BMatP= 1.19D-08
 IDIUse=1 WtCom= 1.00D+00 WtEn= 0.00D+00
 Coeff-Com: -0.102D-01 0.467D-01 0.219D+00 0.220D+00 0.524D+00
 Coeff:     -0.102D-01 0.467D-01 0.219D+00 0.220D+00 0.524D+00
 Gap=     0.165 Goal=   None    Shift=    0.000
 RMSDP=9.23D-08 MaxDP=2.75D-06 DE=-9.30D-09 OVMax= 5.73D-06

 Cycle  14  Pass 1  IDiag  1:
 E= -653.077407536691     Delta-E=       -0.000000000246 Rises=F Damp=F
 DIIS: error= 2.96D-07 at cycle   6 NSaved=   6.
 NSaved= 6 IEnMin= 6 EnMin= -653.077407536691     IErMin= 6 ErrMin= 2.96D-07
 ErrMax= 2.96D-07 EMaxC= 1.00D-01 BMatC= 3.54D-11 BMatP= 3.00D-10
 IDIUse=1 WtCom= 1.00D+00 WtEn= 0.00D+00
 Coeff-Com: -0.530D-02 0.180D-01 0.904D-01 0.970D-01 0.315D+00 0.484D+00
 Coeff:     -0.530D-02 0.180D-01 0.904D-01 0.970D-01 0.315D+00 0.484D+00
 Gap=     0.165 Goal=   None    Shift=    0.000
 RMSDP=2.94D-08 MaxDP=8.22D-07 DE=-2.46D-10 OVMax= 1.86D-06

 Cycle  15  Pass 1  IDiag  1:
 E= -653.077407536715     Delta-E=       -0.000000000024 Rises=F Damp=F
 DIIS: error= 6.32D-08 at cycle   7 NSaved=   7.
 NSaved= 7 IEnMin= 7 EnMin= -653.077407536715     IErMin= 7 ErrMin= 6.32D-08
 ErrMax= 6.32D-08 EMaxC= 1.00D-01 BMatC= 1.85D-12 BMatP= 3.54D-11
 IDIUse=1 WtCom= 1.00D+00 WtEn= 0.00D+00
 Coeff-Com: -0.164D-02 0.463D-02 0.242D-01 0.282D-01 0.105D+00 0.237D+00
 Coeff-Com:  0.603D+00
 Coeff:     -0.164D-02 0.463D-02 0.242D-01 0.282D-01 0.105D+00 0.237D+00
 Coeff:      0.603D+00
 Gap=     0.165 Goal=   None    Shift=    0.000
 RMSDP=7.09D-09 MaxDP=2.58D-07 DE=-2.39D-11 OVMax= 5.98D-07

 SCF Done:  E(RB3LYP) =  -653.077407537     A.U. after   15 cycles
             Convg  =    0.7094D-08             -V/T =  2.0095
 KE= 6.469364144768D+02 PE=-3.322741526840D+03 EE= 1.120397683500D+03
 Leave Link  502 at Wed Sep 29 00:47:15 2021, MaxMem= 1073741824 cpu:     240.5
 (Enter /sw/target/amd/app/gaussian/Gaussian09RevA.02_gcc-4.9.2/g09/l508.exe)
 QCSCF skips out because SCF is already converged.
 Leave Link  508 at Wed Sep 29 00:47:17 2021, MaxMem= 1073741824 cpu:       0.0
 (Enter /sw/target/amd/app/gaussian/Gaussian09RevA.02_gcc-4.9.2/g09/l601.exe)
 Copying SCF densities to generalized density rwf, IOpCl= 0 IROHF=0.

 **********************************************************************

            Population analysis using the SCF density.

 **********************************************************************

 Orbital symmetries:
       Occupied  (A) (A) (A) (A) (A) (A) (A) (A) (A) (A) (A) (A)
                 (A) (A) (A) (A) (A) (A) (A) (A) (A) (A) (A) (A)
                 (A) (A) (A) (A) (A) (A) (A) (A) (A) (A) (A) (A)
                 (A) (A) (A) (A) (A) (A) (A) (A) (A) (A) (A) (A)
                 (A) (A) (A) (A) (A)
       Virtual   (A) (A) (A) (A) (A) (A) (A) (A) (A) (A) (A) (A)
                 (A) (A) (A) (A) (A) (A) (A) (A) (A) (A) (A) (A)
                 (A) (A) (A) (A) (A) (A) (A) (A) (A) (A) (A) (A)
                 (A) (A) (A) (A) (A) (A) (A) (A) (A) (A) (A) (A)
                 (A) (A) (A) (A) (A) (A) (A) (A) (A) (A) (A) (A)
                 (A) (A) (A) (A) (A) (A) (A) (A) (A) (A) (A) (A)
                 (A) (A) (A) (A) (A) (A) (A) (A) (A) (A) (A) (A)
                 (A) (A) (A) (A) (A) (A) (A) (A) (A) (A) (A) (A)
                 (A) (A) (A) (A) (A) (A) (A) (A) (A) (A) (A) (A)
                 (A) (A) (A) (A) (A) (A) (A) (A) (A) (A) (A) (A)
                 (A) (A) (A) (A) (A) (A) (A) (A) (A) (A) (A) (A)
                 (A) (A) (A) (A) (A) (A) (A) (A) (A) (A) (A) (A)
                 (A) (A) (A) (A) (A) (A) (A) (A) (A) (A) (A) (A)
                 (A) (A) (A) (A) (A) (A) (A) (A) (A) (A) (A) (A)
                 (A) (A) (A) (A) (A) (A) (A) (A) (A) (A) (A) (A)
                 (A) (A) (A) (A) (A) (A) (A) (A) (A) (A) (A) (A)
                 (A) (A) (A) (A)
 The electronic state is 1-A.
 Alpha  occ. eigenvalues --  -19.20568 -19.14804 -10.32710 -10.25298 -10.20375
 Alpha  occ. eigenvalues --  -10.19640 -10.19586 -10.19571 -10.19443 -10.19061
 Alpha  occ. eigenvalues --  -10.19005 -10.18986 -10.18926 -10.18889 -10.18296
 Alpha  occ. eigenvalues --   -1.09754  -1.02354  -0.87794  -0.82392  -0.79172
 Alpha  occ. eigenvalues --   -0.77409  -0.74817  -0.71603  -0.67488  -0.63505
 Alpha  occ. eigenvalues --   -0.61103  -0.60084  -0.56944  -0.51824  -0.51033
 Alpha  occ. eigenvalues --   -0.50294  -0.48421  -0.46941  -0.46272  -0.45010
 Alpha  occ. eigenvalues --   -0.43628  -0.42718  -0.41790  -0.40951  -0.40225
 Alpha  occ. eigenvalues --   -0.38826  -0.38298  -0.37510  -0.36795  -0.35618
 Alpha  occ. eigenvalues --   -0.34569  -0.34086  -0.33354  -0.30923  -0.28495
 Alpha  occ. eigenvalues --   -0.27599  -0.24163  -0.20808
 Alpha virt. eigenvalues --   -0.04342  -0.01315   0.00750   0.03353   0.09174
 Alpha virt. eigenvalues --    0.09953   0.10269   0.11261   0.12405   0.14160
 Alpha virt. eigenvalues --    0.14908   0.15762   0.16851   0.17116   0.17723
 Alpha virt. eigenvalues --    0.18409   0.19498   0.19884   0.20618   0.23118
 Alpha virt. eigenvalues --    0.23958   0.25378   0.27503   0.28708   0.31271
 Alpha virt. eigenvalues --    0.31817   0.32917   0.34357   0.36833   0.39230
 Alpha virt. eigenvalues --    0.47596   0.49412   0.50466   0.51346   0.51719
 Alpha virt. eigenvalues --    0.52264   0.52909   0.54127   0.54464   0.54668
 Alpha virt. eigenvalues --    0.55886   0.56428   0.57125   0.58763   0.58817
 Alpha virt. eigenvalues --    0.60151   0.60533   0.60965   0.61771   0.62011
 Alpha virt. eigenvalues --    0.62138   0.62901   0.63886   0.65253   0.66188
 Alpha virt. eigenvalues --    0.67507   0.68348   0.68632   0.72910   0.76667
 Alpha virt. eigenvalues --    0.77008   0.78971   0.81888   0.82598   0.82886
 Alpha virt. eigenvalues --    0.83692   0.84392   0.84523   0.85815   0.86720
 Alpha virt. eigenvalues --    0.87201   0.88616   0.89673   0.90730   0.91158
 Alpha virt. eigenvalues --    0.92127   0.94684   0.95195   0.95559   0.96723
 Alpha virt. eigenvalues --    0.97394   0.98754   1.01143   1.03525   1.04300
 Alpha virt. eigenvalues --    1.08328   1.09035   1.09766   1.12009   1.15099
 Alpha virt. eigenvalues --    1.17062   1.19662   1.21845   1.22645   1.24442
 Alpha virt. eigenvalues --    1.26534   1.27599   1.31102   1.35116   1.38299
 Alpha virt. eigenvalues --    1.39373   1.41084   1.41754   1.45009   1.46352
 Alpha virt. eigenvalues --    1.46806   1.48364   1.49447   1.49702   1.50339
 Alpha virt. eigenvalues --    1.52212   1.53456   1.55814   1.60385   1.66647
 Alpha virt. eigenvalues --    1.72709   1.75483   1.76663   1.78196   1.78649
 Alpha virt. eigenvalues --    1.81315   1.82827   1.85127   1.86781   1.87599
 Alpha virt. eigenvalues --    1.90955   1.92138   1.92887   1.94212   1.94727
 Alpha virt. eigenvalues --    1.95146   1.96402   1.96735   1.97146   1.98626
 Alpha virt. eigenvalues --    2.01524   2.02588   2.05253   2.07854   2.10191
 Alpha virt. eigenvalues --    2.13848   2.15057   2.18774   2.19589   2.21076
 Alpha virt. eigenvalues --    2.23024   2.27555   2.27699   2.29706   2.31750
 Alpha virt. eigenvalues --    2.32956   2.33210   2.34259   2.35504   2.37007
 Alpha virt. eigenvalues --    2.39821   2.42073   2.45454   2.47677   2.56719
 Alpha virt. eigenvalues --    2.58551   2.61171   2.62283   2.64188   2.66340
 Alpha virt. eigenvalues --    2.67087   2.71912   2.72850   2.76523   2.78489
 Alpha virt. eigenvalues --    2.81396   2.85072   2.86754   2.89759   2.94632
 Alpha virt. eigenvalues --    2.95730   3.07279   3.08703   3.22248   3.39583
 Alpha virt. eigenvalues --    3.49791   4.02283   4.08966   4.09714   4.11967
 Alpha virt. eigenvalues --    4.13003   4.13548   4.15452   4.25405   4.29173
 Alpha virt. eigenvalues --    4.35849   4.40000   4.42670   4.49564   4.61391
 Alpha virt. eigenvalues --    4.84694
          Condensed to atoms (all electrons):
              1          2          3          4          5          6
     1  C    5.064683   0.345969  -0.035999   0.002373   0.002570  -0.000085
     2  C    0.345969   5.200665   0.351581  -0.082328  -0.091664   0.004491
     3  C   -0.035999   0.351581   4.351407   0.536762   0.235680  -0.010442
     4  O    0.002373  -0.082328   0.536762   8.044020  -0.062387  -0.002041
     5  O    0.002570  -0.091664   0.235680  -0.062387   8.345729   0.192559
     6  C   -0.000085   0.004491  -0.010442  -0.002041   0.192559   4.594279
     7  C    0.000002  -0.000468   0.001051   0.000228  -0.046474   0.498345
     8  C   -0.000000   0.000003  -0.000038  -0.000002   0.002948  -0.002304
     9  C    0.000000   0.000001   0.000027   0.000015   0.000352  -0.035266
    10  C   -0.000000  -0.000007   0.000390  -0.000174   0.002787   0.016532
    11  C   -0.000007   0.000473  -0.002054  -0.002107  -0.041277   0.461856
    12  C    0.000000  -0.000000  -0.000025  -0.000039  -0.000063   0.007690
    13  C   -0.000000   0.000000   0.000000  -0.000000   0.000000  -0.000311
    14  C   -0.000000  -0.000000  -0.000000  -0.000000  -0.000000   0.000059
    15  C   -0.000000   0.000000   0.000000   0.000000   0.000001  -0.000826
    16  H    0.369597  -0.030448   0.004784   0.000352  -0.000045   0.000000
    17  H    0.378117  -0.031907  -0.004778   0.005946   0.000112   0.000002
    18  H    0.385015  -0.038321  -0.003568   0.000789   0.000135  -0.000011
    19  H   -0.030472   0.362429  -0.022897  -0.000595   0.000881  -0.000217
    20  H   -0.039457   0.360244  -0.029675   0.002700   0.005746   0.000107
    21  H    0.000001  -0.000000   0.000003   0.000010  -0.000580  -0.036805
    22  H    0.000000  -0.000000   0.000000  -0.000000  -0.000057   0.003567
    23  H    0.000018  -0.000058   0.002157   0.010529  -0.006777  -0.037570
    24  H    0.000000  -0.000000  -0.000002  -0.000021  -0.000000   0.000282
    25  H    0.000000  -0.000000  -0.000000   0.000000  -0.000000   0.000003
    26  H   -0.000000  -0.000000  -0.000000  -0.000000   0.000000  -0.000000
    27  H    0.000000  -0.000000   0.000000  -0.000000  -0.000000   0.000013
              7          8          9         10         11         12
     1  C    0.000002  -0.000000   0.000000  -0.000000  -0.000007   0.000000
     2  C   -0.000468   0.000003   0.000001  -0.000007   0.000473  -0.000000
     3  C    0.001051  -0.000038   0.000027   0.000390  -0.002054  -0.000025
     4  O    0.000228  -0.000002   0.000015  -0.000174  -0.002107  -0.000039
     5  O   -0.046474   0.002948   0.000352   0.002787  -0.041277  -0.000063
     6  C    0.498345  -0.002304  -0.035266   0.016532   0.461856   0.007690
     7  C    5.025377   0.480767  -0.008590  -0.037789  -0.056883  -0.000325
     8  C    0.480767   5.153657   0.443158  -0.023294  -0.077746   0.016837
     9  C   -0.008590   0.443158   4.676470   0.486445  -0.036179  -0.030230
    10  C   -0.037789  -0.023294   0.486445   4.708523   0.392083   0.443376
    11  C   -0.056883  -0.077746  -0.036179   0.392083   5.305092  -0.088140
    12  C   -0.000325   0.016837  -0.030230   0.443376  -0.088140   5.121696
    13  C    0.000054  -0.000723  -0.039140  -0.002912   0.008155   0.511952
    14  C   -0.000354   0.008558  -0.002852  -0.040219  -0.000597  -0.020467
    15  C    0.008950  -0.102766   0.444693  -0.026290   0.017716  -0.076754
    16  H   -0.000000   0.000000   0.000000   0.000000   0.000000  -0.000000
    17  H   -0.000000  -0.000000  -0.000000  -0.000000  -0.000000   0.000000
    18  H    0.000000  -0.000000   0.000000   0.000000  -0.000006  -0.000000
    19  H    0.000029  -0.000000  -0.000000   0.000000   0.000004  -0.000000
    20  H    0.000001   0.000000  -0.000000  -0.000000  -0.000024   0.000000
    21  H    0.346815  -0.035629   0.002990   0.000510   0.006321   0.000010
    22  H   -0.041927   0.355036  -0.038084   0.004702   0.000399  -0.000196
    23  H    0.005209   0.000206   0.004706  -0.038240   0.347569  -0.008804
    24  H    0.000012  -0.000185   0.004637  -0.040731  -0.008289   0.355335
    25  H   -0.000001   0.000010   0.001049   0.002829  -0.000209  -0.036220
    26  H    0.000003  -0.000193   0.002750   0.001023   0.000010   0.004394
    27  H    0.000183  -0.008337  -0.041511   0.004604  -0.000199   0.000588
             13         14         15         16         17         18
     1  C   -0.000000  -0.000000  -0.000000   0.369597   0.378117   0.385015
     2  C    0.000000  -0.000000   0.000000  -0.030448  -0.031907  -0.038321
     3  C    0.000000  -0.000000   0.000000   0.004784  -0.004778  -0.003568
     4  O   -0.000000  -0.000000   0.000000   0.000352   0.005946   0.000789
     5  O    0.000000  -0.000000   0.000001  -0.000045   0.000112   0.000135
     6  C   -0.000311   0.000059  -0.000826   0.000000   0.000002  -0.000011
     7  C    0.000054  -0.000354   0.008950  -0.000000  -0.000000   0.000000
     8  C   -0.000723   0.008558  -0.102766   0.000000  -0.000000  -0.000000
     9  C   -0.039140  -0.002852   0.444693   0.000000  -0.000000   0.000000
    10  C   -0.002912  -0.040219  -0.026290   0.000000  -0.000000   0.000000
    11  C    0.008155  -0.000597   0.017716   0.000000  -0.000000  -0.000006
    12  C    0.511952  -0.020467  -0.076754  -0.000000   0.000000  -0.000000
    13  C    4.893577   0.506550  -0.018568  -0.000000   0.000000  -0.000000
    14  C    0.506550   4.897672   0.508719   0.000000  -0.000000  -0.000000
    15  C   -0.018568   0.508719   5.137708  -0.000000  -0.000000   0.000000
    16  H   -0.000000   0.000000  -0.000000   0.573496  -0.029024  -0.029864
    17  H    0.000000  -0.000000  -0.000000  -0.029024   0.537721  -0.028103
    18  H   -0.000000  -0.000000   0.000000  -0.029864  -0.028103   0.557218
    19  H   -0.000000   0.000000  -0.000000  -0.002598  -0.004048   0.004651
    20  H    0.000000   0.000000  -0.000000  -0.003534   0.004907  -0.003208
    21  H   -0.000000   0.000003  -0.000167  -0.000000  -0.000000   0.000000
    22  H    0.000013   0.000175  -0.008463  -0.000000   0.000000   0.000000
    23  H    0.000223   0.000009  -0.000158   0.000000  -0.000004   0.000020
    24  H   -0.044937   0.004605   0.000545   0.000000   0.000000   0.000000
    25  H    0.356847  -0.042117   0.004368  -0.000000  -0.000000   0.000000
    26  H   -0.042179   0.357236  -0.036677   0.000000  -0.000000  -0.000000
    27  H    0.004600  -0.045062   0.354698  -0.000000   0.000000   0.000000
             19         20         21         22         23         24
     1  C   -0.030472  -0.039457   0.000001   0.000000   0.000018   0.000000
     2  C    0.362429   0.360244  -0.000000  -0.000000  -0.000058  -0.000000
     3  C   -0.022897  -0.029675   0.000003   0.000000   0.002157  -0.000002
     4  O   -0.000595   0.002700   0.000010  -0.000000   0.010529  -0.000021
     5  O    0.000881   0.005746  -0.000580  -0.000057  -0.006777  -0.000000
     6  C   -0.000217   0.000107  -0.036805   0.003567  -0.037570   0.000282
     7  C    0.000029   0.000001   0.346815  -0.041927   0.005209   0.000012
     8  C   -0.000000   0.000000  -0.035629   0.355036   0.000206  -0.000185
     9  C   -0.000000  -0.000000   0.002990  -0.038084   0.004706   0.004637
    10  C    0.000000  -0.000000   0.000510   0.004702  -0.038240  -0.040731
    11  C    0.000004  -0.000024   0.006321   0.000399   0.347569  -0.008289
    12  C   -0.000000   0.000000   0.000010  -0.000196  -0.008804   0.355335
    13  C   -0.000000   0.000000  -0.000000   0.000013   0.000223  -0.044937
    14  C    0.000000   0.000000   0.000003   0.000175   0.000009   0.004605
    15  C   -0.000000  -0.000000  -0.000167  -0.008463  -0.000158   0.000545
    16  H   -0.002598  -0.003534  -0.000000  -0.000000   0.000000   0.000000
    17  H   -0.004048   0.004907  -0.000000   0.000000  -0.000004   0.000000
    18  H    0.004651  -0.003208   0.000000   0.000000   0.000020   0.000000
    19  H    0.536818  -0.026072   0.000002   0.000000   0.000006   0.000000
    20  H   -0.026072   0.557383   0.000006   0.000000  -0.000028   0.000000
    21  H    0.000002   0.000006   0.580928  -0.005500  -0.000151  -0.000000
    22  H    0.000000   0.000000  -0.005500   0.588261   0.000015   0.000003
    23  H    0.000006  -0.000028  -0.000151   0.000015   0.556484   0.005991
    24  H    0.000000   0.000000  -0.000000   0.000003   0.005991   0.593232
    25  H    0.000000  -0.000000   0.000000  -0.000000  -0.000013  -0.005235
    26  H    0.000000  -0.000000  -0.000000  -0.000011   0.000000  -0.000197
    27  H   -0.000000   0.000000  -0.000010   0.006088   0.000003   0.000020
             25         26         27
     1  C    0.000000  -0.000000   0.000000
     2  C   -0.000000  -0.000000  -0.000000
     3  C   -0.000000  -0.000000   0.000000
     4  O    0.000000  -0.000000  -0.000000
     5  O   -0.000000   0.000000  -0.000000
     6  C    0.000003  -0.000000   0.000013
     7  C   -0.000001   0.000003   0.000183
     8  C    0.000010  -0.000193  -0.008337
     9  C    0.001049   0.002750  -0.041511
    10  C    0.002829   0.001023   0.004604
    11  C   -0.000209   0.000010  -0.000199
    12  C   -0.036220   0.004394   0.000588
    13  C    0.356847  -0.042179   0.004600
    14  C   -0.042117   0.357236  -0.045062
    15  C    0.004368  -0.036677   0.354698
    16  H   -0.000000   0.000000  -0.000000
    17  H   -0.000000  -0.000000   0.000000
    18  H    0.000000  -0.000000   0.000000
    19  H    0.000000   0.000000  -0.000000
    20  H   -0.000000  -0.000000   0.000000
    21  H    0.000000  -0.000000  -0.000010
    22  H   -0.000000  -0.000011   0.006088
    23  H   -0.000013   0.000000   0.000003
    24  H   -0.005235  -0.000197   0.000020
    25  H    0.592956  -0.005202  -0.000195
    26  H   -0.005202   0.594821  -0.005287
    27  H   -0.000195  -0.005287   0.600194
 Mulliken atomic charges:
              1
     1  C   -0.442322
     2  C   -0.350655
     3  C    0.625635
     4  O   -0.454030
     5  O   -0.540177
     6  C    0.346097
     7  C   -0.174216
     8  C   -0.209963
     9  C    0.164560
    10  C    0.145854
    11  C   -0.225960
    12  C   -0.200616
    13  C   -0.133201
    14  C   -0.131921
    15  C   -0.206728
    16  H    0.147283
    17  H    0.171059
    18  H    0.155252
    19  H    0.182079
    20  H    0.170905
    21  H    0.141245
    22  H    0.135979
    23  H    0.158657
    24  H    0.134936
    25  H    0.131131
    26  H    0.129508
    27  H    0.129610
 Sum of Mulliken atomic charges =  -0.00000
 Mulliken charges with hydrogens summed into heavy atoms:
              1
     1  C    0.031272
     2  C    0.002328
     3  C    0.625635
     4  O   -0.454030
     5  O   -0.540177
     6  C    0.346097
     7  C   -0.032971
     8  C   -0.073984
     9  C    0.164560
    10  C    0.145854
    11  C   -0.067302
    12  C   -0.065680
    13  C   -0.002070
    14  C   -0.002413
    15  C   -0.077118
 Sum of Mulliken charges with hydrogens summed into heavy atoms =  -0.00000
 Electronic spatial extent (au):  <R**2>=           4151.3469
 Charge=             -0.0000 electrons
 Dipole moment (field-independent basis, Debye):
    X=             -0.3271    Y=              1.1448    Z=             -0.7511  Tot=              1.4078
 Quadrupole moment (field-independent basis, Debye-Ang):
   XX=            -71.2122   YY=            -81.1251   ZZ=            -90.3885
   XY=             -2.8537   XZ=              2.5122   YZ=              3.5908
 Traceless Quadrupole moment (field-independent basis, Debye-Ang):
   XX=              9.6964   YY=             -0.2165   ZZ=             -9.4799
   XY=             -2.8537   XZ=              2.5122   YZ=              3.5908
 Octapole moment (field-independent basis, Debye-Ang**2):
  XXX=            -35.5913  YYY=              4.2995  ZZZ=              2.1815  XYY=             10.5956
  XXY=              6.4198  XXZ=              3.1105  XZZ=            -18.3076  YZZ=              0.6555
  YYZ=             -1.0576  XYZ=             -3.7422
 Hexadecapole moment (field-independent basis, Debye-Ang**3):
 XXXX=          -4173.6692 YYYY=           -784.3983 ZZZZ=           -142.2988 XXXY=            -44.1540
 XXXZ=             19.0959 YYYX=            -10.2436 YYYZ=              7.4574 ZZZX=             -5.0440
 ZZZY=             -4.0118 XXYY=           -877.1408 XXZZ=           -824.2752 YYZZ=           -175.3900
 XXYZ=             18.0478 YYXZ=              2.8487 ZZXY=              0.9444
 N-N= 9.023300213274D+02 E-N=-3.322741535086D+03  KE= 6.469364144768D+02
 No NMR shielding tensors so no spin-rotation constants.
 Leave Link  601 at Wed Sep 29 00:47:19 2021, MaxMem= 1073741824 cpu:       1.3
 (Enter /sw/target/amd/app/gaussian/Gaussian09RevA.02_gcc-4.9.2/g09/l701.exe)
 Compute integral first derivatives.
 ... and contract with generalized density number  0.
 Leave Link  701 at Wed Sep 29 00:47:21 2021, MaxMem= 1073741824 cpu:       1.2
 (Enter /sw/target/amd/app/gaussian/Gaussian09RevA.02_gcc-4.9.2/g09/l702.exe)
 L702 exits ... SP integral derivatives will be done elsewhere.
 Leave Link  702 at Wed Sep 29 00:47:21 2021, MaxMem= 1073741824 cpu:       0.1
 (Enter /sw/target/amd/app/gaussian/Gaussian09RevA.02_gcc-4.9.2/g09/l703.exe)
 Compute integral first derivatives, UseDBF=F ICtDFT=           0.
 Integral derivatives from FoFDir, PRISM(SPDF).
 Calling FoFJK, ICntrl=      2127 FMM=F ISym2X=0 I1Cent= 0 IOpClX= 0 NMat=1 NMatS=1 NMatT=0.
 FoFCou: FMM=F IPFlag=           0 FMFlag=      100000 FMFlg1=         800
         NFxFlg=           0 DoJE=F BraDBF=F KetDBF=F FulRan=T
         Omega=  0.000000  0.000000  1.000000  0.000000  0.000000 ICntrl=    2127 IOpCl=  0
         NMat0=    1 NMatS0=    1 NMatT0=    0 NMatD0=    1 NMtDS0=    0 NMtDT0=    0
         I1Cent=           0 NGrid=           0.
 Symmetry not used in FoFCou.
 Leave Link  703 at Wed Sep 29 00:48:42 2021, MaxMem= 1073741824 cpu:      80.3
 (Enter /sw/target/amd/app/gaussian/Gaussian09RevA.02_gcc-4.9.2/g09/l716.exe)
 Dipole        =-1.28672693D-01 4.50417355D-01-2.95521670D-01
 ***** Axes restored to original set *****
 -------------------------------------------------------------------
 Center     Atomic                   Forces (Hartrees/Bohr)
 Number     Number              X              Y              Z
 -------------------------------------------------------------------
      1        6           0.006106431    0.008151867    0.000075071
      2        6          -0.005276821    0.001214154    0.007193713
      3        6           0.014543575   -0.006812755    0.000283742
      4        8          -0.028726317   -0.009287767   -0.007108653
      5        8           0.016342685    0.004957408    0.007976530
      6        6           0.010210286    0.016491676    0.015586808
      7        6           0.001153498   -0.027495141   -0.002720547
      8        6          -0.012975816    0.018829983   -0.015543754
      9        6          -0.001625279   -0.013056397   -0.003610708
     10        6          -0.000997098    0.009256512    0.000762447
     11        6          -0.010844284    0.016052416   -0.012741919
     12        6           0.015558984   -0.012326258    0.019746679
     13        6          -0.001583918    0.024170274    0.000783946
     14        6          -0.011501480   -0.013913543   -0.017129794
     15        6           0.014513113   -0.012270494    0.017554925
     16        1          -0.000632621    0.000495473    0.000000315
     17        1          -0.000803342   -0.000289179    0.001016615
     18        1          -0.000385586    0.000748572   -0.000405006
     19        1          -0.001304726   -0.001585101   -0.002209109
     20        1           0.000569740   -0.004352296   -0.004151366
     21        1           0.000590780    0.002244187   -0.000004951
     22        1           0.000679859   -0.000497468    0.001257338
     23        1           0.000292718   -0.002628698   -0.002535196
     24        1          -0.001857969    0.000424129   -0.002213468
     25        1           0.000066049    0.000342074    0.000287258
     26        1          -0.000690755   -0.000355834   -0.000655030
     27        1          -0.001421709    0.001492205   -0.001495885
 -------------------------------------------------------------------
 Cartesian Forces:  Max     0.028726317 RMS     0.009600516
 Leave Link  716 at Wed Sep 29 00:48:42 2021, MaxMem= 1073741824 cpu:       0.1
 (Enter /sw/target/amd/app/gaussian/Gaussian09RevA.02_gcc-4.9.2/g09/l103.exe)

 GradGradGradGradGradGradGradGradGradGradGradGradGradGradGradGradGradGrad
 Berny optimization.
 Internal  Forces:  Max     0.030251693 RMS     0.005547962
 Search for a local minimum.
 Step number   1 out of a maximum of  147
 All quantities printed in internal units (Hartrees-Bohrs-Radians)
 RMS Force = .55480D-02 SwitMx=.10000D-02 MixMth= 1
 Mixed Optimization -- RFO/linear search
 Second derivative matrix not updated -- first step.
     Eigenvalues ---    0.00515   0.00631   0.00922   0.01577   0.01722
     Eigenvalues ---    0.01987   0.01998   0.02017   0.02060   0.02070
     Eigenvalues ---    0.02078   0.02088   0.02096   0.02114   0.02119
     Eigenvalues ---    0.02144   0.02161   0.02163   0.02172   0.02179
     Eigenvalues ---    0.04402   0.05535   0.05634   0.05664   0.09125
     Eigenvalues ---    0.12641   0.15998   0.15999   0.15999   0.15999
     Eigenvalues ---    0.16000   0.16000   0.16000   0.16000   0.16000
     Eigenvalues ---    0.16000   0.21983   0.22000   0.22295   0.22709
     Eigenvalues ---    0.23507   0.24365   0.24749   0.24968   0.24986
     Eigenvalues ---    0.25000   0.25000   0.30469   0.31332   0.34195
     Eigenvalues ---    0.34205   0.34253   0.34286   0.34363   0.34985
     Eigenvalues ---    0.35068   0.35161   0.35186   0.35217   0.35258
     Eigenvalues ---    0.35287   0.38530   0.41151   0.41791   0.43663
     Eigenvalues ---    0.44210   0.44620   0.45550   0.45744   0.45843
     Eigenvalues ---    0.45898   0.46001   0.46623   0.46649   0.94023
     Eigenvalues --- 1000.000001000.000001000.000001000.000001000.00000
     Eigenvalues --- 1000.000001000.000001000.000001000.000001000.00000
     Eigenvalues --- 1000.000001000.000001000.000001000.000001000.00000
     Eigenvalues --- 1000.000001000.000001000.000001000.000001000.00000
     Eigenvalues --- 1000.000001000.000001000.000001000.000001000.00000
     Eigenvalues --- 1000.000001000.000001000.000001000.000001000.00000
     Eigenvalues --- 1000.000001000.000001000.000001000.000001000.00000
     Eigenvalues --- 1000.000001000.000001000.000001000.000001000.00000
     Eigenvalues --- 1000.000001000.000001000.000001000.000001000.00000
     Eigenvalues --- 1000.000001000.000001000.000001000.000001000.00000
     Eigenvalues --- 1000.000001000.000001000.000001000.000001000.00000
     Eigenvalues --- 1000.000001000.000001000.000001000.000001000.00000
     Eigenvalues --- 1000.000001000.00000
 RFO step:  Lambda=-1.03152001D-02 EMin= 5.15423081D-03
 Linear search not attempted -- first point.
 Iteration  1 RMS(Cart)=  0.07786386 RMS(Int)=  0.00119554
 Iteration  2 RMS(Cart)=  0.00318724 RMS(Int)=  0.00017974
 Iteration  3 RMS(Cart)=  0.00000431 RMS(Int)=  0.00017972
 Iteration  4 RMS(Cart)=  0.00000000 RMS(Int)=  0.00017972
 Variable       Old X    -DE/DX   Delta X   Delta X   Delta X     New X
                                 (Linear)    (Quad)   (Total)
    R1        2.87038   0.00940   0.00000   0.02985   0.02985   2.90023
    R2        2.06722   0.00071   0.00000   0.00200   0.00200   2.06922
    R3        2.06985  -0.00100   0.00000  -0.00284  -0.00284   2.06702
    R4        2.07002  -0.00033   0.00000  -0.00093  -0.00093   2.06909
    R5        2.85383   0.00340   0.00000   0.01051   0.01051   2.86434
    R6        2.06849   0.00195   0.00000   0.00551   0.00551   2.07401
    R7        2.06905  -0.00038   0.00000  -0.00109  -0.00109   2.06797
    R8        2.31132  -0.03025   0.00000  -0.03183  -0.03183   2.27950
    R9        2.64130  -0.01845   0.00000  -0.03923  -0.03923   2.60207
   R10        2.66204  -0.00691   0.00000  -0.01528  -0.01528   2.64677
   R11        2.63238   0.01489   0.00000   0.02914   0.02914   2.66152
   R12        2.63234  -0.01135   0.00000  -0.02413  -0.02414   2.60820
   R13        2.64288  -0.01618   0.00000  -0.03613  -0.03611   2.60677
   R14        2.05211  -0.00035   0.00000  -0.00098  -0.00098   2.05113
   R15        2.65554   0.01033   0.00000   0.02295   0.02296   2.67850
   R16        2.05374  -0.00031   0.00000  -0.00086  -0.00086   2.05288
   R17        2.67268   0.01762   0.00000   0.04384   0.04383   2.71651
   R18        2.65538   0.01092   0.00000   0.02451   0.02450   2.67988
   R19        2.65035   0.01365   0.00000   0.03117   0.03115   2.68150
   R20        2.64871   0.01370   0.00000   0.03070   0.03071   2.67942
   R21        2.05323  -0.00333   0.00000  -0.00919  -0.00919   2.04404
   R22        2.63474  -0.01089   0.00000  -0.02354  -0.02353   2.61122
   R23        2.05700  -0.00109   0.00000  -0.00303  -0.00303   2.05397
   R24        2.63108   0.01898   0.00000   0.03776   0.03777   2.66885
   R25        2.05259   0.00027   0.00000   0.00075   0.00075   2.05334
   R26        2.63852  -0.01301   0.00000  -0.02868  -0.02868   2.60984
   R27        2.05414  -0.00018   0.00000  -0.00050  -0.00050   2.05364
   R28        2.05565  -0.00035   0.00000  -0.00097  -0.00097   2.05468
    A1        1.92882  -0.00014   0.00000  -0.00096  -0.00096   1.92786
    A2        1.93964   0.00047   0.00000   0.00409   0.00408   1.94372
    A3        1.93610   0.00061   0.00000   0.00243   0.00243   1.93853
    A4        1.88706   0.00014   0.00000   0.00302   0.00302   1.89008
    A5        1.89159  -0.00060   0.00000  -0.00607  -0.00607   1.88552
    A6        1.87878  -0.00053   0.00000  -0.00278  -0.00279   1.87599
    A7        1.93714   0.00379   0.00000   0.02268   0.02225   1.95940
    A8        1.93050  -0.00108   0.00000  -0.00806  -0.00772   1.92278
    A9        1.90003   0.00384   0.00000   0.04600   0.04575   1.94577
   A10        1.88826  -0.00201   0.00000  -0.02311  -0.02316   1.86510
   A11        1.91114  -0.00294   0.00000  -0.00912  -0.01041   1.90073
   A12        1.89630  -0.00180   0.00000  -0.03014  -0.03033   1.86597
   A13        2.16908   0.00547   0.00000   0.02137   0.02122   2.19030
   A14        1.90197   0.00450   0.00000   0.01762   0.01747   1.91944
   A15        2.21142  -0.00994   0.00000  -0.03785  -0.03801   2.17341
   A16        2.10199   0.00849   0.00000   0.03260   0.03260   2.13460
   A17        2.03225  -0.00880   0.00000  -0.03247  -0.03249   1.99976
   A18        2.14526   0.00442   0.00000   0.01840   0.01838   2.16364
   A19        2.10455   0.00436   0.00000   0.01330   0.01322   2.11777
   A20        2.08714   0.00284   0.00000   0.00614   0.00611   2.09325
   A21        2.10346  -0.00370   0.00000  -0.01643  -0.01644   2.08702
   A22        2.09257   0.00086   0.00000   0.01035   0.01034   2.10291
   A23        2.10548   0.00149   0.00000   0.00533   0.00530   2.11077
   A24        2.07713   0.00076   0.00000   0.00621   0.00620   2.08333
   A25        2.10055  -0.00225   0.00000  -0.01146  -0.01147   2.08908
   A26        2.08228  -0.00405   0.00000  -0.01267  -0.01270   2.06958
   A27        2.12552   0.00419   0.00000   0.01041   0.01045   2.13596
   A28        2.07538  -0.00014   0.00000   0.00226   0.00225   2.07764
   A29        2.08563  -0.00111   0.00000   0.00051   0.00044   2.08607
   A30        2.08819  -0.00423   0.00000  -0.01372  -0.01370   2.07449
   A31        2.10935   0.00533   0.00000   0.01324   0.01328   2.12263
   A32        2.09981  -0.00348   0.00000  -0.01121  -0.01129   2.08852
   A33        2.10159   0.00146   0.00000   0.00399   0.00401   2.10560
   A34        2.08169   0.00203   0.00000   0.00732   0.00735   2.08905
   A35        2.10684  -0.00068   0.00000  -0.00097  -0.00096   2.10587
   A36        2.10009  -0.00244   0.00000  -0.01583  -0.01584   2.08425
   A37        2.07619   0.00313   0.00000   0.01686   0.01685   2.09304
   A38        2.09191   0.00341   0.00000   0.01055   0.01056   2.10247
   A39        2.09285  -0.00206   0.00000  -0.00736  -0.00737   2.08548
   A40        2.09841  -0.00135   0.00000  -0.00317  -0.00318   2.09523
   A41        2.09637   0.00208   0.00000   0.00381   0.00380   2.10017
   A42        2.09191  -0.00003   0.00000   0.00403   0.00403   2.09594
   A43        2.09489  -0.00205   0.00000  -0.00782  -0.00782   2.08707
   A44        2.10766  -0.00045   0.00000  -0.00191  -0.00194   2.10572
   A45        2.10084  -0.00236   0.00000  -0.01422  -0.01422   2.08663
   A46        2.07465   0.00281   0.00000   0.01618   0.01618   2.09084
    D1       -3.09339  -0.00060   0.00000  -0.02832  -0.02867  -3.12206
    D2        1.09368   0.00014   0.00000  -0.00885  -0.00890   1.08478
    D3       -0.98867   0.00060   0.00000   0.00432   0.00472  -0.98395
    D4        1.09466  -0.00100   0.00000  -0.03417  -0.03452   1.06014
    D5       -1.00146  -0.00025   0.00000  -0.01470  -0.01475  -1.01621
    D6       -3.08381   0.00021   0.00000  -0.00153  -0.00112  -3.08493
    D7       -0.99488  -0.00105   0.00000  -0.03498  -0.03534  -1.03022
    D8       -3.09100  -0.00031   0.00000  -0.01551  -0.01557  -3.10656
    D9        1.10984   0.00016   0.00000  -0.00234  -0.00194   1.10789
   D10       -0.58040   0.00236   0.00000   0.05658   0.05667  -0.52373
   D11        2.59960   0.00189   0.00000   0.02735   0.02712   2.62673
   D12        1.54065   0.00207   0.00000   0.04562   0.04552   1.58617
   D13       -1.56252   0.00160   0.00000   0.01639   0.01597  -1.54655
   D14       -2.67853  -0.00290   0.00000  -0.00909  -0.00860  -2.68713
   D15        0.50148  -0.00338   0.00000  -0.03832  -0.03815   0.46332
   D16       -3.13436  -0.00050   0.00000  -0.01909  -0.01958   3.12925
   D17        0.04682  -0.00143   0.00000  -0.05090  -0.05041  -0.00359
   D18       -2.55278   0.00089   0.00000   0.03394   0.03405  -2.51872
   D19        0.63947   0.00133   0.00000   0.05104   0.05093   0.69040
   D20       -3.13769   0.00100   0.00000   0.03839   0.03828  -3.09942
   D21        0.01034   0.00066   0.00000   0.02719   0.02720   0.03754
   D22       -0.04549   0.00058   0.00000   0.02192   0.02210  -0.02339
   D23        3.10254   0.00024   0.00000   0.01072   0.01103   3.11356
   D24       -3.13341  -0.00180   0.00000  -0.04838  -0.04844   3.10134
   D25       -0.00662  -0.00146   0.00000  -0.04042  -0.04055  -0.04717
   D26        0.06087  -0.00098   0.00000  -0.02933  -0.02921   0.03165
   D27       -3.09552  -0.00063   0.00000  -0.02137  -0.02133  -3.11685
   D28        0.00293  -0.00028   0.00000  -0.00312  -0.00294  -0.00001
   D29       -3.13044  -0.00049   0.00000  -0.01276  -0.01270   3.14005
   D30        3.13812   0.00004   0.00000   0.00792   0.00814  -3.13693
   D31        0.00476  -0.00017   0.00000  -0.00173  -0.00162   0.00314
   D32        0.02393  -0.00035   0.00000  -0.01007  -0.00998   0.01395
   D33       -3.11625  -0.00034   0.00000  -0.01127  -0.01123  -3.12748
   D34       -3.12600  -0.00013   0.00000  -0.00021  -0.00011  -3.12610
   D35        0.01701  -0.00012   0.00000  -0.00141  -0.00136   0.01565
   D36       -0.00883   0.00015   0.00000   0.00337   0.00330  -0.00553
   D37        3.13963  -0.00004   0.00000  -0.00193  -0.00197   3.13766
   D38        3.13139   0.00015   0.00000   0.00454   0.00452   3.13591
   D39       -0.00333  -0.00004   0.00000  -0.00076  -0.00075  -0.00408
   D40        3.13815   0.00011   0.00000   0.00430   0.00435  -3.14069
   D41        0.00496  -0.00010   0.00000  -0.00190  -0.00180   0.00316
   D42       -0.00203   0.00012   0.00000   0.00312   0.00310   0.00107
   D43       -3.13523  -0.00008   0.00000  -0.00308  -0.00305  -3.13827
   D44       -0.03317   0.00055   0.00000   0.01639   0.01625  -0.01692
   D45        3.12305   0.00022   0.00000   0.00854   0.00847   3.13152
   D46        3.10147   0.00071   0.00000   0.02165   0.02156   3.12303
   D47       -0.02549   0.00037   0.00000   0.01380   0.01378  -0.01171
[...]
 ZZZY=              1.7643 XXYY=           -932.8064 XXZZ=           -853.7108 YYZZ=           -167.4023
 XXYZ=             -3.8656 YYXZ=              1.2127 ZZXY=             -7.1127
 N-N= 8.980650762965D+02 E-N=-3.313942133026D+03  KE= 6.470775987590D+02
 No NMR shielding tensors so no spin-rotation constants.
 Leave Link  601 at Wed Sep 29 08:52:14 2021, MaxMem= 1073741824 cpu:       1.3
 (Enter /sw/target/amd/app/gaussian/Gaussian09RevA.02_gcc-4.9.2/g09/l604.exe)
 Evaluate density.
 Using the total density.
 Monte-Carlo method of calculating molar volume:
 based on  0.001 e/bohr**3 density envelope.
 Number of points per bohr**3 =   20 CutOff= 1.00D-04
 Using the CI density.
 There are       404 points.  Will hold       404 in memory.
 LenV=  1073577362 MDV=  1073741824.
 Box volume = 8270.858 fraction occupied=0.238
 Integrated density= 8.5249501236309342D+01 error=-2.0750498763690658D+01
 Molar volume = 1965.352 bohr**3/mol (175.386 cm**3/mol)
 Recommended a0 for SCRF calculation =  5.03 angstrom (  9.50 bohr)
 Leave Link  604 at Wed Sep 29 08:52:15 2021, MaxMem= 1073741824 cpu:       0.3
 (Enter /sw/target/amd/app/gaussian/Gaussian09RevA.02_gcc-4.9.2/g09/l607.exe)
 ******************************Gaussian NBO Version 3.1******************************
             N A T U R A L   A T O M I C   O R B I T A L   A N D
          N A T U R A L   B O N D   O R B I T A L   A N A L Y S I S
 ******************************Gaussian NBO Version 3.1******************************
       /RESON  / : Allow strongly delocalized NBO set

 Analyzing the CI density

 Job title: CCC(=O)Oc1ccc2c(c1)cccc2_conf_0                                 

 Storage needed:    188466 in NPA (1073737909 available)


 NATURAL POPULATIONS:  Natural atomic orbital occupancies 
                                                          
   NAO  Atom  No  lang   Type(AO)    Occupancy
 --------------------------------------------
     1    C    1  S      Cor( 1S)     1.99947
     2    C    1  S      Val( 2S)     1.10310
     3    C    1  S      Ryd( 3S)     0.00037
     4    C    1  S      Ryd( 4S)     0.00002
     5    C    1  px     Val( 2p)     1.15214
     6    C    1  px     Ryd( 3p)     0.00235
     7    C    1  py     Val( 2p)     1.16037
     8    C    1  py     Ryd( 3p)     0.00150
     9    C    1  pz     Val( 2p)     1.25481
    10    C    1  pz     Ryd( 3p)     0.00151
    11    C    1  dxy    Ryd( 3d)     0.00075
    12    C    1  dxz    Ryd( 3d)     0.00009
    13    C    1  dyz    Ryd( 3d)     0.00111
    14    C    1  dx2y2  Ryd( 3d)     0.00051
    15    C    1  dz2    Ryd( 3d)     0.00073

    16    C    2  S      Cor( 1S)     1.99924
    17    C    2  S      Val( 2S)     1.06784
    18    C    2  S      Ryd( 3S)     0.00073
    19    C    2  S      Ryd( 4S)     0.00002
    20    C    2  px     Val( 2p)     1.05648
    21    C    2  px     Ryd( 3p)     0.00190
    22    C    2  py     Val( 2p)     1.17058
    23    C    2  py     Ryd( 3p)     0.00186
    24    C    2  pz     Val( 2p)     1.25421
    25    C    2  pz     Ryd( 3p)     0.00149
    26    C    2  dxy    Ryd( 3d)     0.00058
    27    C    2  dxz    Ryd( 3d)     0.00023
    28    C    2  dyz    Ryd( 3d)     0.00128
    29    C    2  dx2y2  Ryd( 3d)     0.00081
    30    C    2  dz2    Ryd( 3d)     0.00063

    31    C    3  S      Cor( 1S)     1.99942
    32    C    3  S      Val( 2S)     0.78324
    33    C    3  S      Ryd( 3S)     0.00429
    34    C    3  S      Ryd( 4S)     0.00042
    35    C    3  px     Val( 2p)     0.86271
    36    C    3  px     Ryd( 3p)     0.00615
    37    C    3  py     Val( 2p)     0.70784
    38    C    3  py     Ryd( 3p)     0.02169
    39    C    3  pz     Val( 2p)     0.77475
    40    C    3  pz     Ryd( 3p)     0.00202
    41    C    3  dxy    Ryd( 3d)     0.00392
    42    C    3  dxz    Ryd( 3d)     0.00097
    43    C    3  dyz    Ryd( 3d)     0.00228
    44    C    3  dx2y2  Ryd( 3d)     0.00201
    45    C    3  dz2    Ryd( 3d)     0.00047

    46    O    4  S      Cor( 1S)     1.99977
    47    O    4  S      Val( 2S)     1.69948
    48    O    4  S      Ryd( 3S)     0.00063
    49    O    4  S      Ryd( 4S)     0.00012
    50    O    4  px     Val( 2p)     1.82879
    51    O    4  px     Ryd( 3p)     0.00178
    52    O    4  py     Val( 2p)     1.60341
    53    O    4  py     Ryd( 3p)     0.00049
    54    O    4  pz     Val( 2p)     1.42942
    55    O    4  pz     Ryd( 3p)     0.00076
    56    O    4  dxy    Ryd( 3d)     0.00481
    57    O    4  dxz    Ryd( 3d)     0.00029
    58    O    4  dyz    Ryd( 3d)     0.00471
    59    O    4  dx2y2  Ryd( 3d)     0.00489
    60    O    4  dz2    Ryd( 3d)     0.00150

    61    O    5  S      Cor( 1S)     1.99969
    62    O    5  S      Val( 2S)     1.59366
    63    O    5  S      Ryd( 3S)     0.00131
    64    O    5  S      Ryd( 4S)     0.00006
    65    O    5  px     Val( 2p)     1.44427
    66    O    5  px     Ryd( 3p)     0.00095
    67    O    5  py     Val( 2p)     1.74205
    68    O    5  py     Ryd( 3p)     0.00245
    69    O    5  pz     Val( 2p)     1.72042
    70    O    5  pz     Ryd( 3p)     0.00123
    71    O    5  dxy    Ryd( 3d)     0.00131
    72    O    5  dxz    Ryd( 3d)     0.00047
    73    O    5  dyz    Ryd( 3d)     0.00154
    74    O    5  dx2y2  Ryd( 3d)     0.00126
    75    O    5  dz2    Ryd( 3d)     0.00062

    76    C    6  S      Cor( 1S)     1.99873
    77    C    6  S      Val( 2S)     0.84836
    78    C    6  S      Ryd( 3S)     0.00107
    79    C    6  S      Ryd( 4S)     0.00012
    80    C    6  px     Val( 2p)     0.72696
    81    C    6  px     Ryd( 3p)     0.00663
    82    C    6  py     Val( 2p)     1.09374
    83    C    6  py     Ryd( 3p)     0.00672
    84    C    6  pz     Val( 2p)     0.94725
    85    C    6  pz     Ryd( 3p)     0.00104
    86    C    6  dxy    Ryd( 3d)     0.00121
    87    C    6  dxz    Ryd( 3d)     0.00145
    88    C    6  dyz    Ryd( 3d)     0.00125
    89    C    6  dx2y2  Ryd( 3d)     0.00180
    90    C    6  dz2    Ryd( 3d)     0.00048

    91    C    7  S      Cor( 1S)     1.99905
    92    C    7  S      Val( 2S)     0.95736
    93    C    7  S      Ryd( 3S)     0.00083
    94    C    7  S      Ryd( 4S)     0.00004
    95    C    7  px     Val( 2p)     1.11027
    96    C    7  px     Ryd( 3p)     0.00534
    97    C    7  py     Val( 2p)     1.13917
    98    C    7  py     Ryd( 3p)     0.00457
    99    C    7  pz     Val( 2p)     1.10037
   100    C    7  pz     Ryd( 3p)     0.00348
   101    C    7  dxy    Ryd( 3d)     0.00080
   102    C    7  dxz    Ryd( 3d)     0.00066
   103    C    7  dyz    Ryd( 3d)     0.00035
   104    C    7  dx2y2  Ryd( 3d)     0.00055
   105    C    7  dz2    Ryd( 3d)     0.00045

   106    C    8  S      Cor( 1S)     1.99907
   107    C    8  S      Val( 2S)     0.94625
   108    C    8  S      Ryd( 3S)     0.00062
   109    C    8  S      Ryd( 4S)     0.00005
   110    C    8  px     Val( 2p)     1.08864
   111    C    8  px     Ryd( 3p)     0.00427
   112    C    8  py     Val( 2p)     1.15000
   113    C    8  py     Ryd( 3p)     0.00466
   114    C    8  pz     Val( 2p)     1.01975
   115    C    8  pz     Ryd( 3p)     0.00324
   116    C    8  dxy    Ryd( 3d)     0.00080
   117    C    8  dxz    Ryd( 3d)     0.00071
   118    C    8  dyz    Ryd( 3d)     0.00033
   119    C    8  dx2y2  Ryd( 3d)     0.00067
   120    C    8  dz2    Ryd( 3d)     0.00043

   121    C    9  S      Cor( 1S)     1.99903
   122    C    9  S      Val( 2S)     0.87367
   123    C    9  S      Ryd( 3S)     0.00047
   124    C    9  S      Ryd( 4S)     0.00006
   125    C    9  px     Val( 2p)     1.09296
   126    C    9  px     Ryd( 3p)     0.00486
   127    C    9  py     Val( 2p)     1.08321
   128    C    9  py     Ryd( 3p)     0.00544
   129    C    9  pz     Val( 2p)     0.98622
   130    C    9  pz     Ryd( 3p)     0.00094
   131    C    9  dxy    Ryd( 3d)     0.00074
   132    C    9  dxz    Ryd( 3d)     0.00079
   133    C    9  dyz    Ryd( 3d)     0.00070
   134    C    9  dx2y2  Ryd( 3d)     0.00069
   135    C    9  dz2    Ryd( 3d)     0.00034

   136    C   10  S      Cor( 1S)     1.99903
   137    C   10  S      Val( 2S)     0.87362
   138    C   10  S      Ryd( 3S)     0.00054
   139    C   10  S      Ryd( 4S)     0.00007
   140    C   10  px     Val( 2p)     1.08081
   141    C   10  px     Ryd( 3p)     0.00509
   142    C   10  py     Val( 2p)     1.08742
   143    C   10  py     Ryd( 3p)     0.00545
   144    C   10  pz     Val( 2p)     0.99000
   145    C   10  pz     Ryd( 3p)     0.00093
   146    C   10  dxy    Ryd( 3d)     0.00072
   147    C   10  dxz    Ryd( 3d)     0.00079
   148    C   10  dyz    Ryd( 3d)     0.00068
   149    C   10  dx2y2  Ryd( 3d)     0.00072
   150    C   10  dz2    Ryd( 3d)     0.00034

   151    C   11  S      Cor( 1S)     1.99898
   152    C   11  S      Val( 2S)     0.95930
   153    C   11  S      Ryd( 3S)     0.00079
   154    C   11  S      Ryd( 4S)     0.00005
   155    C   11  px     Val( 2p)     1.08441
   156    C   11  px     Ryd( 3p)     0.00445
   157    C   11  py     Val( 2p)     1.18669
   158    C   11  py     Ryd( 3p)     0.00399
   159    C   11  pz     Val( 2p)     1.02080
   160    C   11  pz     Ryd( 3p)     0.00320
   161    C   11  dxy    Ryd( 3d)     0.00083
   162    C   11  dxz    Ryd( 3d)     0.00044
   163    C   11  dyz    Ryd( 3d)     0.00055
   164    C   11  dx2y2  Ryd( 3d)     0.00059
   165    C   11  dz2    Ryd( 3d)     0.00043

   166    C   12  S      Cor( 1S)     1.99906
   167    C   12  S      Val( 2S)     0.95145
   168    C   12  S      Ryd( 3S)     0.00064
   169    C   12  S      Ryd( 4S)     0.00004
   170    C   12  px     Val( 2p)     1.09435
   171    C   12  px     Ryd( 3p)     0.00427
   172    C   12  py     Val( 2p)     1.14549
   173    C   12  py     Ryd( 3p)     0.00462
   174    C   12  pz     Val( 2p)     0.99595
   175    C   12  pz     Ryd( 3p)     0.00293
   176    C   12  dxy    Ryd( 3d)     0.00084
   177    C   12  dxz    Ryd( 3d)     0.00067
   178    C   12  dyz    Ryd( 3d)     0.00033
   179    C   12  dx2y2  Ryd( 3d)     0.00066
   180    C   12  dz2    Ryd( 3d)     0.00042

   181    C   13  S      Cor( 1S)     1.99912
   182    C   13  S      Val( 2S)     0.95983
   183    C   13  S      Ryd( 3S)     0.00062
   184    C   13  S      Ryd( 4S)     0.00003
   185    C   13  px     Val( 2p)     1.09908
   186    C   13  px     Ryd( 3p)     0.00501
   187    C   13  py     Val( 2p)     1.15125
   188    C   13  py     Ryd( 3p)     0.00495
   189    C   13  pz     Val( 2p)     1.06551
   190    C   13  pz     Ryd( 3p)     0.00276
   191    C   13  dxy    Ryd( 3d)     0.00077
   192    C   13  dxz    Ryd( 3d)     0.00062
   193    C   13  dyz    Ryd( 3d)     0.00033
   194    C   13  dx2y2  Ryd( 3d)     0.00068
   195    C   13  dz2    Ryd( 3d)     0.00043

   196    C   14  S      Cor( 1S)     1.99911
   197    C   14  S      Val( 2S)     0.97092
   198    C   14  S      Ryd( 3S)     0.00057
   199    C   14  S      Ryd( 4S)     0.00004
   200    C   14  px     Val( 2p)     1.19342
   201    C   14  px     Ryd( 3p)     0.00501
   202    C   14  py     Val( 2p)     1.06093
   203    C   14  py     Ryd( 3p)     0.00452
   204    C   14  pz     Val( 2p)     0.92318
   205    C   14  pz     Ryd( 3p)     0.00141
   206    C   14  dxy    Ryd( 3d)     0.00065
   207    C   14  dxz    Ryd( 3d)     0.00032
   208    C   14  dyz    Ryd( 3d)     0.00090
   209    C   14  dx2y2  Ryd( 3d)     0.00092
   210    C   14  dz2    Ryd( 3d)     0.00043

   211    C   15  S      Cor( 1S)     1.99907
   212    C   15  S      Val( 2S)     0.95357
   213    C   15  S      Ryd( 3S)     0.00067
   214    C   15  S      Ryd( 4S)     0.00005
   215    C   15  px     Val( 2p)     1.07568
   216    C   15  px     Ryd( 3p)     0.00438
   217    C   15  py     Val( 2p)     1.16751
   218    C   15  py     Ryd( 3p)     0.00457
   219    C   15  pz     Val( 2p)     1.01314
   220    C   15  pz     Ryd( 3p)     0.00285
   221    C   15  dxy    Ryd( 3d)     0.00079
   222    C   15  dxz    Ryd( 3d)     0.00044
   223    C   15  dyz    Ryd( 3d)     0.00046
   224    C   15  dx2y2  Ryd( 3d)     0.00072
   225    C   15  dz2    Ryd( 3d)     0.00042

   226    H   16  S      Val( 1S)     0.76350
   227    H   16  S      Ryd( 2S)     0.00077

   228    H   17  S      Val( 1S)     0.75853
   229    H   17  S      Ryd( 2S)     0.00107

   230    H   18  S      Val( 1S)     0.75815
   231    H   18  S      Ryd( 2S)     0.00108

   232    H   19  S      Val( 1S)     0.73743
   233    H   19  S      Ryd( 2S)     0.00135

   234    H   20  S      Val( 1S)     0.73721
   235    H   20  S      Ryd( 2S)     0.00133

   236    H   21  S      Val( 1S)     0.75440
   237    H   21  S      Ryd( 2S)     0.00103

   238    H   22  S      Val( 1S)     0.76540
   239    H   22  S      Ryd( 2S)     0.00108

   240    H   23  S      Val( 1S)     0.72994
   241    H   23  S      Ryd( 2S)     0.00176

   242    H   24  S      Val( 1S)     0.76570
   243    H   24  S      Ryd( 2S)     0.00112

   244    H   25  S      Val( 1S)     0.76418
   245    H   25  S      Ryd( 2S)     0.00079

   246    H   26  S      Val( 1S)     0.76387
   247    H   26  S      Ryd( 2S)     0.00086

   248    H   27  S      Val( 1S)     0.76645
   249    H   27  S      Ryd( 2S)     0.00114

 WARNING:  1 low occupancy (<1.9990e) core orbital  found on  C    6
           1 low occupancy (<1.9990e) core orbital  found on  C   11


 Summary of Natural Population Analysis:                  
                                                          
                                       Natural Population 
                Natural  -----------------------------------------------
    Atom  No    Charge         Core      Valence    Rydberg      Total
 -----------------------------------------------------------------------
      C    1   -0.67883      1.99947     4.67042    0.00894     6.67883
      C    2   -0.55789      1.99924     4.54911    0.00953     6.55789
      C    3    0.82782      1.99942     3.12854    0.04422     5.17218
      O    4   -0.58085      1.99977     6.56111    0.01997     8.58085
      O    5   -0.51129      1.99969     6.50040    0.01120     8.51129
      C    6    0.36319      1.99873     3.61631    0.02177     5.63681
      C    7   -0.32329      1.99905     4.30717    0.01707     6.32329
      C    8   -0.21949      1.99907     4.20464    0.01578     6.21949
      C    9   -0.05011      1.99903     4.03606    0.01502     6.05011
      C   10   -0.04623      1.99903     4.03185    0.01534     6.04623
      C   11   -0.26549      1.99898     4.25120    0.01532     6.26549
      C   12   -0.20174      1.99906     4.18724    0.01544     6.20174
      C   13   -0.29100      1.99912     4.27567    0.01621     6.29100
      C   14   -0.16233      1.99911     4.14846    0.01477     6.16233
      C   15   -0.22430      1.99907     4.20990    0.01534     6.22430
      H   16    0.23572      0.00000     0.76350    0.00077     0.76428
      H   17    0.24041      0.00000     0.75853    0.00107     0.75959
      H   18    0.24077      0.00000     0.75815    0.00108     0.75923
      H   19    0.26122      0.00000     0.73743    0.00135     0.73878
      H   20    0.26145      0.00000     0.73721    0.00133     0.73855
      H   21    0.24456      0.00000     0.75440    0.00103     0.75544
      H   22    0.23351      0.00000     0.76540    0.00108     0.76649
      H   23    0.26830      0.00000     0.72994    0.00176     0.73170
      H   24    0.23318      0.00000     0.76570    0.00112     0.76682
      H   25    0.23503      0.00000     0.76418    0.00079     0.76497
      H   26    0.23527      0.00000     0.76387    0.00086     0.76473
      H   27    0.23241      0.00000     0.76645    0.00114     0.76759
 =======================================================================
   * Total *   -0.00000     29.98783    75.74284    0.26933   106.00000

                                 Natural Population      
 --------------------------------------------------------
   Core                      29.98783 ( 99.9594% of  30)
   Valence                   75.74284 ( 99.6616% of  76)
   Natural Minimal Basis    105.73067 ( 99.7459% of 106)
   Natural Rydberg Basis      0.26933 (  0.2541% of 106)
 --------------------------------------------------------

    Atom  No          Natural Electron Configuration
 ----------------------------------------------------------------------------
      C    1      [core]2S( 1.10)2p( 3.57)3p( 0.01)
      C    2      [core]2S( 1.07)2p( 3.48)3p( 0.01)
      C    3      [core]2S( 0.78)2p( 2.35)3p( 0.03)3d( 0.01)
      O    4      [core]2S( 1.70)2p( 4.86)3d( 0.02)
      O    5      [core]2S( 1.59)2p( 4.91)3d( 0.01)
      C    6      [core]2S( 0.85)2p( 2.77)3p( 0.01)3d( 0.01)
      C    7      [core]2S( 0.96)2p( 3.35)3p( 0.01)
      C    8      [core]2S( 0.95)2p( 3.26)3p( 0.01)
      C    9      [core]2S( 0.87)2p( 3.16)3p( 0.01)
      C   10      [core]2S( 0.87)2p( 3.16)3p( 0.01)
      C   11      [core]2S( 0.96)2p( 3.29)3p( 0.01)
      C   12      [core]2S( 0.95)2p( 3.24)3p( 0.01)
      C   13      [core]2S( 0.96)2p( 3.32)3p( 0.01)
      C   14      [core]2S( 0.97)2p( 3.18)3p( 0.01)
      C   15      [core]2S( 0.95)2p( 3.26)3p( 0.01)
      H   16            1S( 0.76)
      H   17            1S( 0.76)
      H   18            1S( 0.76)
      H   19            1S( 0.74)
      H   20            1S( 0.74)
      H   21            1S( 0.75)
      H   22            1S( 0.77)
      H   23            1S( 0.73)
      H   24            1S( 0.77)
      H   25            1S( 0.76)
      H   26            1S( 0.76)
      H   27            1S( 0.77)


 NBO analysis skipped by request.
 Leave Link  607 at Wed Sep 29 08:52:35 2021, MaxMem= 1073741824 cpu:      15.0
 (Enter /sw/target/amd/app/gaussian/Gaussian09RevA.02_gcc-4.9.2/g09/l9999.exe)
 1\1\GINC-HERMITE\SP\RTD-B3LYP-FC\6-31G(d)\C13H12O2\JSCHLEINITZ\29-Sep-
 2021\0\\#p TD(NStates=10, Root=1) b3lyp/6-31G* volume pop=NPA density=
 current Geom=AllCheck Guess=Read\\CCC(=O)Oc1ccc2c(c1)cccc2_conf_0\\0,1
 \C,0,4.6707858266,1.5996637609,1.0229956851\C,0,4.3022236562,0.1394301
 655,0.7696576518\C,0,5.0373131383,-0.8182342918,1.6879203306\O,0,5.818
 0551873,-0.4976824827,2.5527318498\O,0,4.6762662387,-2.0986658407,1.38
 34219986\C,0,5.1562534994,-3.246250733,2.0144636738\C,0,4.7023561919,-
 4.4354607012,1.3886660612\C,0,5.0694748377,-5.6597867053,1.8883652499\
 C,0,5.9048524353,-5.7610339464,3.0338253381\C,0,6.355206194,-4.5527366
 436,3.6565683045\C,0,5.9657570117,-3.2903245834,3.1279580419\C,0,7.190
 4895723,-4.646854671,4.8026160633\C,0,7.5616344554,-5.8732821211,5.307
 0217157\C,0,7.1155388325,-7.067174612,4.6895923933\C,0,6.3052053805,-7
 .0097862183,3.5776379629\H,0,4.117560847,2.2543406853,0.3420345746\H,0
 ,5.7410021606,1.7672853479,0.870039138\H,0,4.4361556289,1.8921082816,2
 .0507054577\H,0,4.5181290882,-0.1560228924,-0.2650732736\H,0,3.2260158
 944,-0.0311508037,0.9035321154\H,0,4.0645391135,-4.3468299438,0.515040
 9254\H,0,4.7207774411,-6.5701827514,1.4071087974\H,0,6.3111776705,-2.3
 819692383,3.5993077472\H,0,7.5326577768,-3.7296069911,5.2755247018\H,0
 ,8.2008459986,-5.9288930951,6.1840906943\H,0,7.4156265092,-8.028701241
 7,5.0971361084\H,0,5.9599178225,-7.9235326654,3.0992259499\\Version=AM
 64L-G09RevA.02\State=1-A\HF=-653.0843038\RMSD=8.222e-09\Dipole=-0.4085
 632,-0.0060826,-0.4501504\Quadrupole=-3.2763022,3.5880467,-0.3117445,-
 3.8516881,3.820461,-4.4360385\PG=C01 [X(C13H12O2)]\\@


 ALMOST ANYTHING IS EASIER TO GET INTO THAN OUT OF.

                         -- AGNES ALLEN'S LAW FROM
                PAUL DICKSON'S "THE OFFICIAL RULES"
 Job cpu time:  0 days  3 hours  6 minutes 14.9 seconds.
 File lengths (MBytes):  RWF=    205 Int=      0 D2E=      0 Chk=     28 Scr=      1
 Normal termination of Gaussian 09 at Wed Sep 29 08:52:38 2021.
