 Entering Gaussian System, Link 0=g09
 Input=C14H15NO2_9c99_conf_0.com
 Output=C14H15NO2_9c99_conf_0.log
 Initial command:
 /sw/target/amd/app/gaussian/Gaussian09RevA.02_gcc-4.9.2/g09/l1.exe /home/jschleinitz/gaussian/Gau-891981.inp -scrdir=/home/jschleinitz/gaussian/
 Entering Link 1 = /sw/target/amd/app/gaussian/Gaussian09RevA.02_gcc-4.9.2/g09/l1.exe PID=    892020.
  
 Copyright (c) 1988,1990,1992,1993,1995,1998,2003,2009, Gaussian, Inc.
                  All Rights Reserved.
  
 This is part of the Gaussian(R) 09 program.  It is based on
 the Gaussian(R) 03 system (copyright 2003, Gaussian, Inc.),
 the Gaussian(R) 98 system (copyright 1998, Gaussian, Inc.),
 the Gaussian(R) 94 system (copyright 1995, Gaussian, Inc.),
 the Gaussian 92(TM) system (copyright 1992, Gaussian, Inc.),
 the Gaussian 90(TM) system (copyright 1990, Gaussian, Inc.),
 the Gaussian 88(TM) system (copyright 1988, Gaussian, Inc.),
 the Gaussian 86(TM) system (copyright 1986, Carnegie Mellon
 University), and the Gaussian 82(TM) system (copyright 1983,
 Carnegie Mellon University). Gaussian is a federally registered
 trademark of Gaussian, Inc.
  
 This software contains proprietary and confidential information,
 including trade secrets, belonging to Gaussian, Inc.
  
 This software is provided under written license and may be
 used, copied, transmitted, or stored only in accord with that
 written license.
  
 The following legend is applicable only to US Government
 contracts under FAR:
  
                    RESTRICTED RIGHTS LEGEND
  
 Use, reproduction and disclosure by the US Government is
 subject to restrictions as set forth in subparagraphs (a)
 and (c) of the Commercial Computer Software - Restricted
 Rights clause in FAR 52.227-19.
  
 Gaussian, Inc.
 340 Quinnipiac St., Bldg. 40, Wallingford CT 06492
  
  
 ---------------------------------------------------------------
 Warning -- This program may not be used in any manner that
 competes with the business of Gaussian, Inc. or will provide
 assistance to any competitor of Gaussian, Inc.  The licensee
 of this program is prohibited from giving any competitor of
 Gaussian, Inc. access to this program.  By using this program,
 the user acknowledges that Gaussian, Inc. is engaged in the
 business of creating and licensing software in the field of
 computational chemistry and represents and warrants to the
 licensee that it is not a competitor of Gaussian, Inc. and that
 it will not use this program in any manner prohibited above.
 ---------------------------------------------------------------
  

 Cite this work as:
 Gaussian 09, Revision A.02,
 M. J. Frisch, G. W. Trucks, H. B. Schlegel, G. E. Scuseria, 
 M. A. Robb, J. R. Cheeseman, G. Scalmani, V. Barone, B. Mennucci, 
 G. A. Petersson, H. Nakatsuji, M. Caricato, X. Li, H. P. Hratchian, 
 A. F. Izmaylov, J. Bloino, G. Zheng, J. L. Sonnenberg, M. Hada, 
 M. Ehara, K. Toyota, R. Fukuda, J. Hasegawa, M. Ishida, T. Nakajima, 
 Y. Honda, O. Kitao, H. Nakai, T. Vreven, J. A. Montgomery, Jr., 
 J. E. Peralta, F. Ogliaro, M. Bearpark, J. J. Heyd, E. Brothers, 
 K. N. Kudin, V. N. Staroverov, R. Kobayashi, J. Normand, 
 K. Raghavachari, A. Rendell, J. C. Burant, S. S. Iyengar, J. Tomasi, 
 M. Cossi, N. Rega, J. M. Millam, M. Klene, J. E. Knox, J. B. Cross, 
 V. Bakken, C. Adamo, J. Jaramillo, R. Gomperts, R. E. Stratmann, 
 O. Yazyev, A. J. Austin, R. Cammi, C. Pomelli, J. W. Ochterski, 
 R. L. Martin, K. Morokuma, V. G. Zakrzewski, G. A. Voth, 
 P. Salvador, J. J. Dannenberg, S. Dapprich, A. D. Daniels, 
 O. Farkas, J. B. Foresman, J. V. Ortiz, J. Cioslowski, 
 and D. J. Fox, Gaussian, Inc., Wallingford CT, 2009.
 
 ******************************************
 Gaussian 09:  AM64L-G09RevA.02 11-Jun-2009
                29-Sep-2021 
 ******************************************
 %nproc=5
 Will use up to    5 processors via shared memory.
 %mem=10gb
 %chk=C14H15NO2_9c99_conf_0.chk
 -----------------------------------
 #p opt b3lyp/6-31G* scf=(xqc,tight)
 -----------------------------------
 1/14=-1,18=20,19=15,26=3,38=1/1,3;
 2/9=110,12=2,17=6,18=5,40=1/2;
 3/5=1,6=6,7=1,11=2,16=1,25=1,30=1,71=1,74=-5/1,2,3;
 4//1;
 5/5=2,8=3,13=1,32=2,38=5/2,8;
 6/7=2,8=2,9=2,10=2,28=1/1;
 7//1,2,3,16;
 1/14=-1,18=20,19=15/3(2);
 2/9=110/2;
 99//99;
 2/9=110/2;
 3/5=1,6=6,7=1,11=2,16=1,25=1,30=1,71=1,74=-5/1,2,3;
 4/5=5,16=3/1;
 5/5=2,8=3,13=1,32=2,38=5/2,8;
 7//1,2,3,16;
 1/14=-1,18=20,19=15/3(-5);
 2/9=110/2;
 6/7=2,8=2,9=2,10=2,19=2,28=1/1;
 99/9=1/99;
 Leave Link    1 at Wed Sep 29 03:32:04 2021, MaxMem= 1342177280 cpu:       0.1
 (Enter /sw/target/amd/app/gaussian/Gaussian09RevA.02_gcc-4.9.2/g09/l101.exe)
 -----------------------------------
 O=C(C(C)(C)C)Oc1cccc2c1nccc2_conf_0
 -----------------------------------
 Symbolic Z-matrix:
 Charge =  0 Multiplicity = 1
 O                     5.29321   3.80133  -1.10341 
 C                     4.5573    3.13705  -0.38454 
 C                     3.02738   3.2477   -0.37718 
 C                     2.46252   2.18046  -1.32233 
 C                     2.46498   3.05545   1.03863 
 C                     2.62555   4.64474  -0.87762 
 O                     4.96538   2.12943   0.48785 
 C                     6.34529   1.86072   0.66386 
 C                     7.17408   1.68639  -0.44868 
 C                     8.51408   1.37492  -0.2587 
 C                     9.00575   1.2146    1.03411 
 C                     8.15895   1.36321   2.14899 
 C                     6.79663   1.69032   1.98017 
 N                     5.96765   1.82769   3.04363 
 C                     6.47376   1.64251   4.28358 
 C                     7.79299   1.32272   4.53737 
 C                     8.64612   1.1824    3.45148 
 H                     2.75494   1.17282  -1.00487 
 H                     2.83569   2.31753  -2.34386 
 H                     1.36802   2.21836  -1.35563 
 H                     2.62742   2.03488   1.40354 
 H                     1.38594   3.24208   1.067 
 H                     2.9467    3.73765   1.74809 
 H                     2.95994   4.81365  -1.90797 
 H                     3.07366   5.4293   -0.25699 
 H                     1.53799   4.77777  -0.85731 
 H                     6.78708   1.79937  -1.45686 
 H                     9.17201   1.256    -1.11569 
 H                     10.05703   0.96622   1.17001 
 H                     5.76234   1.76208   5.09576 
 H                     8.14721   1.18557   5.55202 
 H                     9.68935   0.92893   3.62455 
 
 NAtoms=     32 NQM=     32 NQMF=      0 NMic=      0 NMicF=      0 NTot=     32.
                    Isotopes and Nuclear Properties:
 (Nuclear quadrupole moments (NQMom) in fm**2, nuclear magnetic moments (NMagM)
  in nuclear magnetons)

  Atom         1           2           3           4           5           6           7           8           9          10
 IAtWgt=          16          12          12          12          12          12          16          12          12          12
 AtmWgt=  15.9949146  12.0000000  12.0000000  12.0000000  12.0000000  12.0000000  15.9949146  12.0000000  12.0000000  12.0000000
 NucSpn=           0           0           0           0           0           0           0           0           0           0
 AtZEff=   0.0000000   0.0000000   0.0000000   0.0000000   0.0000000   0.0000000   0.0000000   0.0000000   0.0000000   0.0000000
 NQMom=    0.0000000   0.0000000   0.0000000   0.0000000   0.0000000   0.0000000   0.0000000   0.0000000   0.0000000   0.0000000
 NMagM=    0.0000000   0.0000000   0.0000000   0.0000000   0.0000000   0.0000000   0.0000000   0.0000000   0.0000000   0.0000000

  Atom        11          12          13          14          15          16          17          18          19          20
 IAtWgt=          12          12          12          14          12          12          12           1           1           1
 AtmWgt=  12.0000000  12.0000000  12.0000000  14.0030740  12.0000000  12.0000000  12.0000000   1.0078250   1.0078250   1.0078250
 NucSpn=           0           0           0           2           0           0           0           1           1           1
 AtZEff=   0.0000000   0.0000000   0.0000000   0.0000000   0.0000000   0.0000000   0.0000000   0.0000000   0.0000000   0.0000000
 NQMom=    0.0000000   0.0000000   0.0000000   2.0440000   0.0000000   0.0000000   0.0000000   0.0000000   0.0000000   0.0000000
 NMagM=    0.0000000   0.0000000   0.0000000   0.4037610   0.0000000   0.0000000   0.0000000   2.7928460   2.7928460   2.7928460

  Atom        21          22          23          24          25          26          27          28          29          30
 IAtWgt=           1           1           1           1           1           1           1           1           1           1
 AtmWgt=   1.0078250   1.0078250   1.0078250   1.0078250   1.0078250   1.0078250   1.0078250   1.0078250   1.0078250   1.0078250
 NucSpn=           1           1           1           1           1           1           1           1           1           1
 AtZEff=   0.0000000   0.0000000   0.0000000   0.0000000   0.0000000   0.0000000   0.0000000   0.0000000   0.0000000   0.0000000
 NQMom=    0.0000000   0.0000000   0.0000000   0.0000000   0.0000000   0.0000000   0.0000000   0.0000000   0.0000000   0.0000000
 NMagM=    2.7928460   2.7928460   2.7928460   2.7928460   2.7928460   2.7928460   2.7928460   2.7928460   2.7928460   2.7928460

  Atom        31          32
 IAtWgt=           1           1
 AtmWgt=   1.0078250   1.0078250
 NucSpn=           1           1
 AtZEff=   0.0000000   0.0000000
 NQMom=    0.0000000   0.0000000
 NMagM=    2.7928460   2.7928460
 Leave Link  101 at Wed Sep 29 03:32:04 2021, MaxMem= 1342177280 cpu:       0.2
 (Enter /sw/target/amd/app/gaussian/Gaussian09RevA.02_gcc-4.9.2/g09/l103.exe)

 GradGradGradGradGradGradGradGradGradGradGradGradGradGradGradGradGradGrad
 Berny optimization.
 Initialization pass.
                           ----------------------------
                           !    Initial Parameters    !
                           ! (Angstroms and Degrees)  !
 --------------------------                            --------------------------
 ! Name  Definition              Value          Derivative Info.                !
 --------------------------------------------------------------------------------
 ! R1    R(1,2)                  1.2246         estimate D2E/DX2                !
 ! R2    R(2,3)                  1.5339         estimate D2E/DX2                !
 ! R3    R(2,7)                  1.3939         estimate D2E/DX2                !
 ! R4    R(3,4)                  1.5334         estimate D2E/DX2                !
 ! R5    R(3,5)                  1.5355         estimate D2E/DX2                !
 ! R6    R(3,6)                  1.5374         estimate D2E/DX2                !
 ! R7    R(4,18)                 1.0962         estimate D2E/DX2                !
 ! R8    R(4,19)                 1.0962         estimate D2E/DX2                !
 ! R9    R(4,20)                 1.0957         estimate D2E/DX2                !
 ! R10   R(5,21)                 1.096          estimate D2E/DX2                !
 ! R11   R(5,22)                 1.0954         estimate D2E/DX2                !
 ! R12   R(5,23)                 1.0958         estimate D2E/DX2                !
 ! R13   R(6,24)                 1.0963         estimate D2E/DX2                !
 ! R14   R(6,25)                 1.0961         estimate D2E/DX2                !
 ! R15   R(6,26)                 1.0959         estimate D2E/DX2                !
 ! R16   R(7,8)                  1.4168         estimate D2E/DX2                !
 ! R17   R(8,9)                  1.3982         estimate D2E/DX2                !
 ! R18   R(8,13)                 1.4019         estimate D2E/DX2                !
 ! R19   R(9,10)                 1.3888         estimate D2E/DX2                !
 ! R20   R(9,27)                 1.0858         estimate D2E/DX2                !
 ! R21   R(10,11)                1.3924         estimate D2E/DX2                !
 ! R22   R(10,28)                1.0869         estimate D2E/DX2                !
 ! R23   R(11,12)                1.4079         estimate D2E/DX2                !
 ! R24   R(11,29)                1.0887         estimate D2E/DX2                !
 ! R25   R(12,13)                1.4112         estimate D2E/DX2                !
 ! R26   R(12,17)                1.4023         estimate D2E/DX2                !
 ! R27   R(13,14)                1.3554         estimate D2E/DX2                !
 ! R28   R(14,15)                1.352          estimate D2E/DX2                !
 ! R29   R(15,16)                1.381          estimate D2E/DX2                !
 ! R30   R(15,30)                1.0863         estimate D2E/DX2                !
 ! R31   R(16,17)                1.388          estimate D2E/DX2                !
 ! R32   R(16,31)                1.0834         estimate D2E/DX2                !
 ! R33   R(17,32)                1.0874         estimate D2E/DX2                !
 ! A1    A(1,2,3)              124.2676         estimate D2E/DX2                !
 ! A2    A(1,2,7)              125.7047         estimate D2E/DX2                !
 ! A3    A(3,2,7)              109.9465         estimate D2E/DX2                !
 ! A4    A(2,3,4)              108.3152         estimate D2E/DX2                !
 ! A5    A(2,3,5)              111.1433         estimate D2E/DX2                !
 ! A6    A(2,3,6)              108.9454         estimate D2E/DX2                !
 ! A7    A(4,3,5)              110.2588         estimate D2E/DX2                !
 ! A8    A(4,3,6)              109.6047         estimate D2E/DX2                !
 ! A9    A(5,3,6)              108.5526         estimate D2E/DX2                !
 ! A10   A(3,4,18)             111.284          estimate D2E/DX2                !
 ! A11   A(3,4,19)             111.221          estimate D2E/DX2                !
 ! A12   A(3,4,20)             111.2623         estimate D2E/DX2                !
 ! A13   A(18,4,19)            107.0983         estimate D2E/DX2                !
 ! A14   A(18,4,20)            107.8835         estimate D2E/DX2                !
 ! A15   A(19,4,20)            107.9044         estimate D2E/DX2                !
 ! A16   A(3,5,21)             111.673          estimate D2E/DX2                !
 ! A17   A(3,5,22)             111.3049         estimate D2E/DX2                !
 ! A18   A(3,5,23)             110.9776         estimate D2E/DX2                !
 ! A19   A(21,5,22)            107.22           estimate D2E/DX2                !
 ! A20   A(21,5,23)            107.3979         estimate D2E/DX2                !
 ! A21   A(22,5,23)            108.0712         estimate D2E/DX2                !
 ! A22   A(3,6,24)             111.4809         estimate D2E/DX2                !
 ! A23   A(3,6,25)             111.0542         estimate D2E/DX2                !
 ! A24   A(3,6,26)             111.3255         estimate D2E/DX2                !
 ! A25   A(24,6,25)            107.2874         estimate D2E/DX2                !
 ! A26   A(24,6,26)            107.5423         estimate D2E/DX2                !
 ! A27   A(25,6,26)            107.9586         estimate D2E/DX2                !
 ! A28   A(2,7,8)              120.0004         estimate D2E/DX2                !
 ! A29   A(7,8,9)              120.1392         estimate D2E/DX2                !
 ! A30   A(7,8,13)             116.9527         estimate D2E/DX2                !
 ! A31   A(9,8,13)             122.759          estimate D2E/DX2                !
 ! A32   A(8,9,10)             119.4093         estimate D2E/DX2                !
 ! A33   A(8,9,27)             120.9687         estimate D2E/DX2                !
 ! A34   A(10,9,27)            119.6199         estimate D2E/DX2                !
 ! A35   A(9,10,11)            119.5728         estimate D2E/DX2                !
 ! A36   A(9,10,28)            120.0485         estimate D2E/DX2                !
 ! A37   A(11,10,28)           120.3786         estimate D2E/DX2                !
 ! A38   A(10,11,12)           120.7112         estimate D2E/DX2                !
 ! A39   A(10,11,29)           118.8892         estimate D2E/DX2                !
 ! A40   A(12,11,29)           120.3988         estimate D2E/DX2                !
 ! A41   A(11,12,13)           120.6897         estimate D2E/DX2                !
 ! A42   A(11,12,17)           120.8605         estimate D2E/DX2                !
 ! A43   A(13,12,17)           118.4487         estimate D2E/DX2                !
 ! A44   A(8,13,12)            116.8264         estimate D2E/DX2                !
 ! A45   A(8,13,14)            121.8354         estimate D2E/DX2                !
 ! A46   A(12,13,14)           121.3379         estimate D2E/DX2                !
 ! A47   A(13,14,15)           118.474          estimate D2E/DX2                !
 ! A48   A(14,15,16)           123.9086         estimate D2E/DX2                !
 ! A49   A(14,15,30)           115.1793         estimate D2E/DX2                !
 ! A50   A(16,15,30)           120.9121         estimate D2E/DX2                !
 ! A51   A(15,16,17)           117.8261         estimate D2E/DX2                !
 ! A52   A(15,16,31)           120.9146         estimate D2E/DX2                !
 ! A53   A(17,16,31)           121.2593         estimate D2E/DX2                !
 ! A54   A(12,17,16)           120.0045         estimate D2E/DX2                !
 ! A55   A(12,17,32)           120.7408         estimate D2E/DX2                !
 ! A56   A(16,17,32)           119.2544         estimate D2E/DX2                !
 ! D1    D(1,2,3,4)             94.3968         estimate D2E/DX2                !
 ! D2    D(1,2,3,5)           -144.3328         estimate D2E/DX2                !
 ! D3    D(1,2,3,6)            -24.7665         estimate D2E/DX2                !
 ! D4    D(7,2,3,4)            -82.4855         estimate D2E/DX2                !
 ! D5    D(7,2,3,5)             38.785          estimate D2E/DX2                !
 ! D6    D(7,2,3,6)            158.3513         estimate D2E/DX2                !
 ! D7    D(1,2,7,8)              4.2736         estimate D2E/DX2                !
 ! D8    D(3,2,7,8)           -178.8994         estimate D2E/DX2                !
 ! D9    D(2,3,4,18)            59.7934         estimate D2E/DX2                !
 ! D10   D(2,3,4,19)           -59.5308         estimate D2E/DX2                !
 ! D11   D(2,3,4,20)          -179.8606         estimate D2E/DX2                !
 ! D12   D(5,3,4,18)           -62.0216         estimate D2E/DX2                !
 ! D13   D(5,3,4,19)           178.6543         estimate D2E/DX2                !
 ! D14   D(5,3,4,20)            58.3244         estimate D2E/DX2                !
 ! D15   D(6,3,4,18)           178.54           estimate D2E/DX2                !
 ! D16   D(6,3,4,19)            59.2158         estimate D2E/DX2                !
 ! D17   D(6,3,4,20)           -61.114          estimate D2E/DX2                !
 ! D18   D(2,3,5,21)           -66.4274         estimate D2E/DX2                !
 ! D19   D(2,3,5,22)           173.7768         estimate D2E/DX2                !
 ! D20   D(2,3,5,23)            53.3717         estimate D2E/DX2                !
 ! D21   D(4,3,5,21)            53.6973         estimate D2E/DX2                !
 ! D22   D(4,3,5,22)           -66.0984         estimate D2E/DX2                !
 ! D23   D(4,3,5,23)           173.4964         estimate D2E/DX2                !
 ! D24   D(6,3,5,21)           173.7723         estimate D2E/DX2                !
 ! D25   D(6,3,5,22)            53.9766         estimate D2E/DX2                !
 ! D26   D(6,3,5,23)           -66.4285         estimate D2E/DX2                !
 ! D27   D(2,3,6,24)            61.7565         estimate D2E/DX2                !
 ! D28   D(2,3,6,25)           -57.8261         estimate D2E/DX2                !
 ! D29   D(2,3,6,26)          -178.1543         estimate D2E/DX2                !
 ! D30   D(4,3,6,24)           -56.5995         estimate D2E/DX2                !
 ! D31   D(4,3,6,25)          -176.1821         estimate D2E/DX2                !
 ! D32   D(4,3,6,26)            63.4896         estimate D2E/DX2                !
 ! D33   D(5,3,6,24)          -177.0808         estimate D2E/DX2                !
 ! D34   D(5,3,6,25)            63.3366         estimate D2E/DX2                !
 ! D35   D(5,3,6,26)           -56.9917         estimate D2E/DX2                !
 ! D36   D(2,7,8,9)            -49.6016         estimate D2E/DX2                !
 ! D37   D(2,7,8,13)           134.7151         estimate D2E/DX2                !
 ! D38   D(7,8,9,10)          -177.6419         estimate D2E/DX2                !
 ! D39   D(7,8,9,27)             2.887          estimate D2E/DX2                !
 ! D40   D(13,8,9,10)           -2.218          estimate D2E/DX2                !
 ! D41   D(13,8,9,27)          178.311          estimate D2E/DX2                !
 ! D42   D(7,8,13,12)          177.2249         estimate D2E/DX2                !
 ! D43   D(7,8,13,14)           -2.5669         estimate D2E/DX2                !
 ! D44   D(9,8,13,12)            1.6643         estimate D2E/DX2                !
 ! D45   D(9,8,13,14)         -178.1276         estimate D2E/DX2                !
 ! D46   D(8,9,10,11)            1.2824         estimate D2E/DX2                !
 ! D47   D(8,9,10,28)         -178.8219         estimate D2E/DX2                !
 ! D48   D(27,9,10,11)        -179.2394         estimate D2E/DX2                !
 ! D49   D(27,9,10,28)           0.6563         estimate D2E/DX2                !
 ! D50   D(9,10,11,12)           0.0806         estimate D2E/DX2                !
 ! D51   D(9,10,11,29)         179.7355         estimate D2E/DX2                !
 ! D52   D(28,10,11,12)       -179.8148         estimate D2E/DX2                !
 ! D53   D(28,10,11,29)         -0.1598         estimate D2E/DX2                !
 ! D54   D(10,11,12,13)         -0.6055         estimate D2E/DX2                !
 ! D55   D(10,11,12,17)        179.0194         estimate D2E/DX2                !
 ! D56   D(29,11,12,13)        179.7448         estimate D2E/DX2                !
 ! D57   D(29,11,12,17)         -0.6304         estimate D2E/DX2                !
 ! D58   D(11,12,13,8)          -0.2438         estimate D2E/DX2                !
 ! D59   D(11,12,13,14)        179.5492         estimate D2E/DX2                !
 ! D60   D(17,12,13,8)        -179.8775         estimate D2E/DX2                !
 ! D61   D(17,12,13,14)         -0.0845         estimate D2E/DX2                !
 ! D62   D(11,12,17,16)       -179.4805         estimate D2E/DX2                !
 ! D63   D(11,12,17,32)          0.3239         estimate D2E/DX2                !
 ! D64   D(13,12,17,16)          0.1526         estimate D2E/DX2                !
 ! D65   D(13,12,17,32)        179.9569         estimate D2E/DX2                !
 ! D66   D(8,13,14,15)         179.7173         estimate D2E/DX2                !
 ! D67   D(12,13,14,15)         -0.0652         estimate D2E/DX2                !
 ! D68   D(13,14,15,16)          0.1554         estimate D2E/DX2                !
 ! D69   D(13,14,15,30)       -179.7904         estimate D2E/DX2                !
 ! D70   D(14,15,16,17)         -0.0866         estimate D2E/DX2                !
 ! D71   D(14,15,16,31)        179.9707         estimate D2E/DX2                !
 ! D72   D(30,15,16,17)        179.8563         estimate D2E/DX2                !
 ! D73   D(30,15,16,31)         -0.0865         estimate D2E/DX2                !
 ! D74   D(15,16,17,12)         -0.0717         estimate D2E/DX2                !
 ! D75   D(15,16,17,32)       -179.879          estimate D2E/DX2                !
 ! D76   D(31,16,17,12)        179.8708         estimate D2E/DX2                !
 ! D77   D(31,16,17,32)          0.0635         estimate D2E/DX2                !
 --------------------------------------------------------------------------------
 Trust Radius=3.00D-01 FncErr=1.00D-07 GrdErr=1.00D-06
 Number of steps in this run= 176 maximum allowed number of steps= 192.
 GradGradGradGradGradGradGradGradGradGradGradGradGradGradGradGradGradGrad

 Leave Link  103 at Wed Sep 29 03:32:05 2021, MaxMem= 1342177280 cpu:       0.0
 (Enter /sw/target/amd/app/gaussian/Gaussian09RevA.02_gcc-4.9.2/g09/l202.exe)
                          Input orientation:                          
 ---------------------------------------------------------------------
 Center     Atomic      Atomic             Coordinates (Angstroms)
 Number     Number       Type             X           Y           Z
 ---------------------------------------------------------------------
      1          8           0        5.293205    3.801332   -1.103410
      2          6           0        4.557302    3.137050   -0.384543
      3          6           0        3.027380    3.247699   -0.377181
      4          6           0        2.462516    2.180465   -1.322331
      5          6           0        2.464977    3.055450    1.038630
      6          6           0        2.625554    4.644743   -0.877618
      7          8           0        4.965385    2.129434    0.487847
      8          6           0        6.345294    1.860715    0.663862
      9          6           0        7.174078    1.686394   -0.448675
     10          6           0        8.514084    1.374920   -0.258704
     11          6           0        9.005747    1.214602    1.034112
     12          6           0        8.158948    1.363208    2.148985
     13          6           0        6.796633    1.690323    1.980172
     14          7           0        5.967650    1.827692    3.043632
     15          6           0        6.473758    1.642507    4.283585
     16          6           0        7.792990    1.322725    4.537373
     17          6           0        8.646117    1.182401    3.451479
     18          1           0        2.754945    1.172825   -1.004871
     19          1           0        2.835690    2.317535   -2.343855
     20          1           0        1.368015    2.218363   -1.355631
     21          1           0        2.627425    2.034875    1.403543
     22          1           0        1.385941    3.242084    1.066996
     23          1           0        2.946703    3.737651    1.748085
     24          1           0        2.959945    4.813648   -1.907969
     25          1           0        3.073655    5.429297   -0.256985
     26          1           0        1.537992    4.777771   -0.857312
     27          1           0        6.787082    1.799370   -1.456858
     28          1           0        9.172011    1.255997   -1.115686
     29          1           0       10.057030    0.966219    1.170014
     30          1           0        5.762337    1.762085    5.095756
     31          1           0        8.147211    1.185572    5.552025
     32          1           0        9.689353    0.928928    3.624553
 ---------------------------------------------------------------------
                    Distance matrix (angstroms):
                    1          2          3          4          5
     1  O    0.000000
     2  C    1.224578   0.000000
     3  C    2.442924   1.533936   0.000000
     4  C    3.269241   2.486490   1.533417   0.000000
     5  C    3.625403   2.531779   1.535506   2.517884   0.000000
     6  C    2.806900   2.499582   1.537411   2.509386   2.494723
     7  O    2.331267   1.393874   2.398885   3.089288   2.722665
     8  C    2.827744   2.434153   3.743801   4.373005   4.077340
     9  C    2.905051   2.992662   4.431465   4.817281   5.124648
    10  C    4.120080   4.333250   5.798728   6.196909   6.410846
    11  C    5.004312   5.049460   6.470402   7.021367   6.794881
    12  C    4.973430   4.747329   6.022110   6.720661   6.043002
    13  C    4.028042   3.563635   4.710605   5.470954   4.638244
    14  N    4.641991   3.931397   4.729014   5.609996   4.218547
    15  C    5.922325   5.262877   6.014724   6.914171   5.347566
    16  C    6.649123   6.163335   7.111216   7.967798   6.605396
    17  C    6.232802   5.937518   7.105934   7.875425   6.894682
    18  H    3.655342   2.737057   2.184792   1.096191   2.793609
    19  H    3.127258   2.733946   2.183977   1.096156   3.481831
    20  H    4.239873   3.458114   2.184122   1.095663   2.763426
    21  H    4.063443   2.852450   2.191320   2.734736   1.095958
    22  H    4.504457   3.489345   2.186321   2.827531   1.095425
    23  H    3.693393   2.739134   2.182503   3.476597   1.095803
    24  H    2.667621   2.771887   2.190903   2.743002   3.466799
    25  H    2.879776   2.733474   2.185397   3.473236   2.772049
    26  H    3.887881   3.468676   2.188590   2.795888   2.724021
    27  H    2.522786   2.812679   4.171176   4.343409   5.146434
    28  H    4.639398   5.036712   6.501442   6.776037   7.270723
    29  H    5.991690   6.113604   7.550823   8.084728   7.875367
    30  H    6.542802   5.777224   6.296037   7.228810   5.385689
    31  H    7.699504   7.206841   8.100649   8.975653   7.493661
    32  H    7.066148   6.876525   8.110022   8.846761   7.962456
                    6          7          8          9         10
     6  C    0.000000
     7  O    3.696766   0.000000
     8  C    4.895247   1.416807   0.000000
     9  C    5.442875   2.439607   1.398217   0.000000
    10  C    6.763843   3.704038   2.406402   1.388784   0.000000
    11  C    7.491825   4.178499   2.762708   2.403385   1.392411
    12  C    7.109659   3.680398   2.396339   2.796830   2.433768
    13  C    5.856061   2.402774   1.401931   2.458003   2.839310
    14  N    5.872102   2.761815   2.409774   3.697519   4.194610
    15  C    7.103528   4.113382   3.628568   4.784000   4.986674
    16  C    8.189037   5.004477   4.170052   5.037458   4.850263
    17  C    8.183891   4.819520   3.677594   4.199061   3.717520
    18  H    3.476658   2.833611   4.018516   4.483508   5.810790
    19  H    2.758606   3.548171   4.644607   4.776155   6.122135
    20  H    2.774386   4.043190   5.383268   5.900502   7.278801
    21  H    3.466282   2.512667   3.794735   4.921809   6.152346
    22  H    2.699188   3.792864   5.163901   6.182229   7.486935
    23  H    2.796475   2.872218   4.030987   5.186917   6.372239
    24  H    1.096344   4.119069   5.176362   5.446850   6.737461
    25  H    1.096132   3.875889   4.928120   5.555136   6.785001
    26  H    1.095855   4.535434   5.825233   6.441200   7.784830
    27  H    5.074444   2.685033   2.167117   1.085800   2.144357
    28  H    7.375390   4.585839   3.394525   2.149857   1.086936
    29  H    8.541146   5.267188   3.851401   3.383818   2.142185
    30  H    7.336915   4.690725   4.471157   5.721840   6.032599
    31  H    9.153954   6.054816   5.253271   6.099690   5.825377
    32  H    9.163737   5.796208   4.562526   4.846809   4.081648
                   11         12         13         14         15
    11  C    0.000000
    12  C    1.407869   0.000000
    13  C    2.449801   1.411171   0.000000
    14  N    3.693790   2.412037   1.355371   0.000000
    15  C    4.141635   2.733932   2.326423   1.352006   0.000000
    16  C    3.708814   2.416600   2.768959   2.412077   1.380957
    17  C    2.444183   1.402324   2.417296   2.785125   2.371337
    18  H    6.575084   6.259896   5.051092   5.209674   6.482124
    19  H    7.120164   7.030891   5.897429   6.250931   7.590399
    20  H    8.065566   7.689629   6.393457   6.376737   7.628956
    21  H    6.441453   5.621794   4.222974   3.726919   4.821086
    22  H    7.884998   7.111574   5.702406   5.186487   6.228239
    23  H    6.602087   5.741620   4.366621   3.801645   4.822707
    24  H    7.626316   7.442718   6.292295   6.517713   7.793482
    25  H    7.390555   6.941324   5.731087   5.678102   6.820356
    26  H    8.487698   8.033313   6.725842   6.598652   7.785916
    27  H    3.386645   3.882571   3.438772   4.574569   5.751127
    28  H    2.156615   3.419923   3.926244   5.281542   6.048312
    29  H    1.088742   2.172257   3.436695   4.579913   4.794948
    30  H    5.226509   3.819202   3.283562   2.063412   1.086297
    31  H    4.598855   3.407693   3.851879   3.384500   2.148994
    32  H    2.694311   2.169802   3.413436   3.872508   3.359103
                   16         17         18         19         20
    16  C    0.000000
    17  C    1.388050   0.000000
    18  H    7.491384   7.386816   0.000000
    19  H    8.539073   8.284654   1.763451   0.000000
    20  H    8.764129   8.783637   1.771936   1.772143   0.000000
    21  H    6.083675   6.414469   2.561220   3.763810   3.038555
    22  H    7.535099   7.914430   3.232435   3.819747   2.630103
    23  H    6.090853   6.474116   3.767475   4.332786   3.799150
    24  H    8.779937   8.616391   3.756754   2.536931   3.094321
    25  H    7.881746   7.927242   4.333413   3.754294   3.798201
    26  H    8.953489   9.056368   3.807675   3.153822   2.613003
    27  H    6.096707   5.284736   4.105482   4.082739   5.436183
    28  H    5.819211   4.597931   6.418562   6.540966   7.866770
    29  H    4.073337   2.691188   7.621893   8.143776   9.134863
    30  H    2.151367   3.369847   6.827099   8.013838   7.819120
    31  H    1.083422   2.158984   8.489380   9.583242   9.733440
    32  H    2.141147   1.087449   8.341287   9.193630   9.783125
                   21         22         23         24         25
    21  H    0.000000
    22  H    1.764057   0.000000
    23  H    1.766378   1.773540   0.000000
    24  H    4.335696   3.714528   3.811126   0.000000
    25  H    3.805072   3.063528   2.626422   1.765702   0.000000
    26  H    3.717769   2.466661   3.139174   1.768365   1.772890
    27  H    5.053722   6.133806   5.364430   4.892479   5.329691
    28  H    7.055833   8.326555   7.287953   7.202386   7.439338
    29  H    7.509700   8.965375   7.653218   8.639752   8.409692
    30  H    4.851239   6.129775   4.799745   8.137420   7.023481
    31  H    6.956957   8.370155   6.930249   9.783771   8.803111
    32  H    7.485108   8.991020   7.541445   9.538595   8.893094
                   26         27         28         29         30
    26  H    0.000000
    27  H    6.064921   0.000000
    28  H    8.411177   2.469725   0.000000
    29  H    9.550496   4.276349   2.468127   0.000000
    30  H    7.898004   6.632363   7.103802   5.872754   0.000000
    31  H    9.882574   7.165971   6.746373   4.785138   2.495631
    32  H   10.067045   5.916214   4.779590   2.482204   4.275517
                   31         32
    31  H    0.000000
    32  H    2.481777   0.000000
 Stoichiometry    C14H15NO2
 Framework group  C1[X(C14H15NO2)]
 Deg. of freedom    90
 Full point group                 C1      NOp   1
 Largest Abelian subgroup         C1      NOp   1
 Largest concise Abelian subgroup C1      NOp   1
                         Standard orientation:                         
 ---------------------------------------------------------------------
 Center     Atomic      Atomic             Coordinates (Angstroms)
 Number     Number       Type             X           Y           Z
 ---------------------------------------------------------------------
      1          8           0        1.939745    1.407111   -1.066311
      2          6           0        1.922736    0.444137   -0.310016
      3          6           0        3.153950   -0.401326    0.039647
      4          6           0        3.760841    0.144994    1.337562
      5          6           0        2.779843   -1.880879    0.209190
      6          6           0        4.180071   -0.283614   -1.099148
      7          8           0        0.817497   -0.004370    0.411216
      8          6           0       -0.444012    0.615302    0.232486
      9          6           0       -0.556966    2.007676    0.292024
     10          6           0       -1.808212    2.596468    0.163853
     11          6           0       -2.933371    1.791714    0.005114
     12          6           0       -2.815712    0.389094   -0.025027
     13          6           0       -1.553260   -0.230467    0.092297
     14          7           0       -1.425767   -1.579704    0.074014
     15          6           0       -2.542011   -2.330894   -0.058784
     16          6           0       -3.813596   -1.806322   -0.181012
     17          6           0       -3.949018   -0.424996   -0.164269
     18          1           0        3.041853    0.097901    2.163681
     19          1           0        4.055815    1.194857    1.226490
     20          1           0        4.649062   -0.425143    1.631646
     21          1           0        2.133413   -2.037671    1.080206
     22          1           0        3.670409   -2.502964    0.350107
     23          1           0        2.241198   -2.252535   -0.669740
     24          1           0        4.520292    0.750649   -1.227681
     25          1           0        3.747665   -0.605277   -2.053644
     26          1           0        5.064563   -0.900436   -0.903949
     27          1           0        0.319447    2.634012    0.428277
     28          1           0       -1.905645    3.678727    0.189375
     29          1           0       -3.909301    2.264873   -0.089969
     30          1           0       -2.378549   -3.404812   -0.063318
     31          1           0       -4.675440   -2.454487   -0.285457
     32          1           0       -4.940054    0.012977   -0.256862
 ---------------------------------------------------------------------
 Rotational constants (GHZ):      0.9405853      0.2924127      0.2398058
 Leave Link  202 at Wed Sep 29 03:32:05 2021, MaxMem= 1342177280 cpu:       0.1
 (Enter /sw/target/amd/app/gaussian/Gaussian09RevA.02_gcc-4.9.2/g09/l301.exe)
 Standard basis: 6-31G(d) (6D, 7F)
 Ernie: Thresh=  0.10000D-02 Tol=  0.10000D-05 Strict=F.
 There are   285 symmetry adapted basis functions of A   symmetry.
 Integral buffers will be    131072 words long.
 Raffenetti 2 integral format.
 Two-electron integral symmetry is turned on.
   285 basis functions,   536 primitive gaussians,   285 cartesian basis functions
    61 alpha electrons       61 beta electrons
       nuclear repulsion energy      1167.7630539416 Hartrees.
 IExCor=  402 DFT=T Ex+Corr=B3LYP ExCW=0 ScaHFX=  0.200000
 ScaDFX=  0.800000  0.720000  1.000000  0.810000 ScalE2=  1.000000  1.000000
 IRadAn=      0 IRanWt=     -1 IRanGd=            0 ICorTp=0
 NAtoms=   32 NActive=   32 NUniq=   32 SFac= 7.50D-01 NAtFMM=   80 NAOKFM=F Big=F
 Leave Link  301 at Wed Sep 29 03:32:05 2021, MaxMem= 1342177280 cpu:       0.1
 (Enter /sw/target/amd/app/gaussian/Gaussian09RevA.02_gcc-4.9.2/g09/l302.exe)
 NPDir=0 NMtPBC=     1 NCelOv=     1 NCel=       1 NClECP=     1 NCelD=      1
         NCelK=      1 NCelE2=     1 NClLst=     1 CellRange=     0.0.
 One-electron integrals computed using PRISM.
 NBasis=   285 RedAO= T  NBF=   285
 NBsUse=   285 1.00D-06 NBFU=   285
 Precomputing XC quadrature grid using
 IXCGrd= 2 IRadAn=           0 IRanWt=          -1 IRanGd=           0 AccXCQ= 1.00D-10.
 NRdTot=    2028 NPtTot=      258426 NUsed=      273051 NTot=      273083
 NSgBfM=   284   284   284   284   284 NAtAll=    32    32.
 Leave Link  302 at Wed Sep 29 03:32:09 2021, MaxMem= 1342177280 cpu:       2.8
 (Enter /sw/target/amd/app/gaussian/Gaussian09RevA.02_gcc-4.9.2/g09/l303.exe)
 DipDrv:  MaxL=1.
 Leave Link  303 at Wed Sep 29 03:32:10 2021, MaxMem= 1342177280 cpu:       0.2
 (Enter /sw/target/amd/app/gaussian/Gaussian09RevA.02_gcc-4.9.2/g09/l401.exe)
 Harris functional with IExCor=  402 diagonalized for initial guess.
 ExpMin= 1.61D-01 ExpMax= 5.48D+03 ExpMxC= 8.25D+02 IAcc=1 IRadAn=         1 AccDes= 0.00D+00
 HarFok:  IExCor=  402 AccDes= 0.00D+00 IRadAn=         1 IDoV= 1
 ScaDFX=  1.000000  1.000000  1.000000  1.000000
 FoFCou: FMM=F IPFlag=           0 FMFlag=      100000 FMFlg1=           0
         NFxFlg=           0 DoJE=T BraDBF=F KetDBF=T FulRan=T
         Omega=  0.000000  0.000000  1.000000  0.000000  0.000000 ICntrl=     500 IOpCl=  0
         NMat0=    1 NMatS0=    1 NMatT0=    0 NMatD0=    1 NMtDS0=    0 NMtDT0=    0
         I1Cent=           4 NGrid=           0.
 Petite list used in FoFCou.
 Harris En= -747.843696562584    
 Initial guess orbital symmetries:
       Occupied  (A) (A) (A) (A) (A) (A) (A) (A) (A) (A) (A) (A)
                 (A) (A) (A) (A) (A) (A) (A) (A) (A) (A) (A) (A)
                 (A) (A) (A) (A) (A) (A) (A) (A) (A) (A) (A) (A)
                 (A) (A) (A) (A) (A) (A) (A) (A) (A) (A) (A) (A)
                 (A) (A) (A) (A) (A) (A) (A) (A) (A) (A) (A) (A)
                 (A)
       Virtual   (A) (A) (A) (A) (A) (A) (A) (A) (A) (A) (A) (A)
                 (A) (A) (A) (A) (A) (A) (A) (A) (A) (A) (A) (A)
                 (A) (A) (A) (A) (A) (A) (A) (A) (A) (A) (A) (A)
                 (A) (A) (A) (A) (A) (A) (A) (A) (A) (A) (A) (A)
                 (A) (A) (A) (A) (A) (A) (A) (A) (A) (A) (A) (A)
                 (A) (A) (A) (A) (A) (A) (A) (A) (A) (A) (A) (A)
                 (A) (A) (A) (A) (A) (A) (A) (A) (A) (A) (A) (A)
                 (A) (A) (A) (A) (A) (A) (A) (A) (A) (A) (A) (A)
                 (A) (A) (A) (A) (A) (A) (A) (A) (A) (A) (A) (A)
                 (A) (A) (A) (A) (A) (A) (A) (A) (A) (A) (A) (A)
                 (A) (A) (A) (A) (A) (A) (A) (A) (A) (A) (A) (A)
                 (A) (A) (A) (A) (A) (A) (A) (A) (A) (A) (A) (A)
                 (A) (A) (A) (A) (A) (A) (A) (A) (A) (A) (A) (A)
                 (A) (A) (A) (A) (A) (A) (A) (A) (A) (A) (A) (A)
                 (A) (A) (A) (A) (A) (A) (A) (A) (A) (A) (A) (A)
                 (A) (A) (A) (A) (A) (A) (A) (A) (A) (A) (A) (A)
                 (A) (A) (A) (A) (A) (A) (A) (A) (A) (A) (A) (A)
                 (A) (A) (A) (A) (A) (A) (A) (A) (A) (A) (A) (A)
                 (A) (A) (A) (A) (A) (A) (A) (A)
 The electronic state of the initial guess is 1-A.
 Leave Link  401 at Wed Sep 29 03:32:22 2021, MaxMem= 1342177280 cpu:      12.5
 (Enter /sw/target/amd/app/gaussian/Gaussian09RevA.02_gcc-4.9.2/g09/l502.exe)
 Closed shell SCF:
 Requested convergence on RMS density matrix=1.00D-08 within  64 cycles.
 Requested convergence on MAX density matrix=1.00D-06.
 Requested convergence on             energy=1.00D-06.
 No special actions if energy rises.
 Using DIIS extrapolation, IDIIS=  1040.
 Integral symmetry usage will be decided dynamically.
       272750 words used for storage of precomputed grid.
 Keep R1 ints in memory in canonical form, NReq=842727919.
 IEnd=      525830 IEndB=      525830 NGot=  1342177280 MDV=   511231767
 LenX=   511231767 LenY=   511150101
 Symmetry not used in FoFDir.
 MinBra= 0 MaxBra= 2 Meth= 1.
 IRaf=       0 NMat=   1 IRICut=       1 DoRegI=T DoRafI=F ISym2E= 0 JSym2E=0.
 Integral accuracy reduced to 1.0D-05 until final iterations.

 Cycle   1  Pass 0  IDiag  1:
 E= -747.277926803857    
 DIIS: error= 4.90D-02 at cycle   1 NSaved=   1.
 NSaved= 1 IEnMin= 1 EnMin= -747.277926803857     IErMin= 1 ErrMin= 4.90D-02
 ErrMax= 4.90D-02 EMaxC= 1.00D-01 BMatC= 4.59D-01 BMatP= 4.59D-01
 IDIUse=3 WtCom= 5.10D-01 WtEn= 4.90D-01
 Coeff-Com:  0.100D+01
 Coeff-En:   0.100D+01
 Coeff:      0.100D+01
 Gap=     0.171 Goal=   None    Shift=    0.000
 GapD=    0.171 DampG=1.000 DampE=0.500 DampFc=0.5000 IDamp=-1.
 Damping current iteration by 5.00D-01
 RMSDP=5.45D-03 MaxDP=1.83D-01              OVMax= 2.09D-01

 Cycle   2  Pass 0  IDiag  1:
 E= -747.435955077393     Delta-E=       -0.158028273537 Rises=F Damp=T
 DIIS: error= 1.14D-02 at cycle   2 NSaved=   2.
 NSaved= 2 IEnMin= 2 EnMin= -747.435955077393     IErMin= 2 ErrMin= 1.14D-02
 ErrMax= 1.14D-02 EMaxC= 1.00D-01 BMatC= 6.18D-02 BMatP= 4.59D-01
 IDIUse=3 WtCom= 8.86D-01 WtEn= 1.14D-01
 Coeff-Com:  0.179D+00 0.821D+00
 Coeff-En:   0.266D+00 0.734D+00
 Coeff:      0.189D+00 0.811D+00
 Gap=     0.197 Goal=   None    Shift=    0.000
 RMSDP=1.83D-03 MaxDP=6.76D-02 DE=-1.58D-01 OVMax= 2.13D-01

 Cycle   3  Pass 0  IDiag  1:
 E= -747.659888679424     Delta-E=       -0.223933602031 Rises=F Damp=F
 DIIS: error= 1.72D-02 at cycle   3 NSaved=   3.
 NSaved= 3 IEnMin= 3 EnMin= -747.659888679424     IErMin= 2 ErrMin= 1.14D-02
 ErrMax= 1.72D-02 EMaxC= 1.00D-01 BMatC= 8.82D-02 BMatP= 6.18D-02
 IDIUse=2 WtCom= 0.00D+00 WtEn= 1.00D+00
 Coeff-En:   0.000D+00 0.000D+00 0.100D+01
 Coeff:      0.000D+00 0.000D+00 0.100D+01
 Gap=     0.171 Goal=   None    Shift=    0.000
 RMSDP=3.24D-03 MaxDP=1.55D-01 DE=-2.24D-01 OVMax= 3.05D-01

 Cycle   4  Pass 0  IDiag  1:
 E= -747.229859077468     Delta-E=        0.430029601956 Rises=F Damp=F
 DIIS: error= 4.57D-02 at cycle   4 NSaved=   4.
 NSaved= 4 IEnMin= 3 EnMin= -747.659888679424     IErMin= 2 ErrMin= 1.14D-02
 ErrMax= 4.57D-02 EMaxC= 1.00D-01 BMatC= 6.19D-01 BMatP= 6.18D-02
 IDIUse=2 WtCom= 0.00D+00 WtEn= 1.00D+00
 Coeff-En:   0.000D+00 0.000D+00 0.812D+00 0.188D+00
 Coeff:      0.000D+00 0.000D+00 0.812D+00 0.188D+00
 Gap=     0.176 Goal=   None    Shift=    0.000
 RMSDP=1.71D-03 MaxDP=7.92D-02 DE= 4.30D-01 OVMax= 1.34D-01

 Cycle   5  Pass 0  IDiag  1:
 E= -747.695695667815     Delta-E=       -0.465836590347 Rises=F Damp=F
 DIIS: error= 1.24D-02 at cycle   5 NSaved=   5.
 NSaved= 5 IEnMin= 5 EnMin= -747.695695667815     IErMin= 2 ErrMin= 1.14D-02
 ErrMax= 1.24D-02 EMaxC= 1.00D-01 BMatC= 4.88D-02 BMatP= 6.18D-02
 IDIUse=3 WtCom= 8.76D-01 WtEn= 1.24D-01
 Coeff-Com: -0.234D-02 0.500D-01 0.338D+00-0.826D-01 0.697D+00
 Coeff-En:   0.000D+00 0.000D+00 0.386D+00 0.000D+00 0.614D+00
 Coeff:     -0.205D-02 0.438D-01 0.344D+00-0.724D-01 0.686D+00
 Gap=     0.161 Goal=   None    Shift=    0.000
 RMSDP=7.09D-04 MaxDP=2.96D-02 DE=-4.66D-01 OVMax= 5.93D-02

 Cycle   6  Pass 0  IDiag  1:
 E= -747.736259421769     Delta-E=       -0.040563753954 Rises=F Damp=F
 DIIS: error= 8.12D-04 at cycle   6 NSaved=   6.
 NSaved= 6 IEnMin= 6 EnMin= -747.736259421769     IErMin= 6 ErrMin= 8.12D-04
 ErrMax= 8.12D-04 EMaxC= 1.00D-01 BMatC= 4.67D-04 BMatP= 4.88D-02
 IDIUse=3 WtCom= 9.92D-01 WtEn= 8.12D-03
 Coeff-Com: -0.456D-02 0.213D-01 0.176D+00-0.636D-01 0.442D+00 0.429D+00
 Coeff-En:   0.000D+00 0.000D+00 0.000D+00 0.000D+00 0.000D+00 0.100D+01
 Coeff:     -0.452D-02 0.211D-01 0.174D+00-0.631D-01 0.438D+00 0.434D+00
 Gap=     0.161 Goal=   None    Shift=    0.000
 RMSDP=8.10D-05 MaxDP=4.21D-03 DE=-4.06D-02 OVMax= 9.98D-03

 Cycle   7  Pass 0  IDiag  1:
 E= -747.736657754537     Delta-E=       -0.000398332768 Rises=F Damp=F
 DIIS: error= 2.61D-04 at cycle   7 NSaved=   7.
 NSaved= 7 IEnMin= 7 EnMin= -747.736657754537     IErMin= 7 ErrMin= 2.61D-04
 ErrMax= 2.61D-04 EMaxC= 1.00D-01 BMatC= 2.81D-05 BMatP= 4.67D-04
 IDIUse=3 WtCom= 9.97D-01 WtEn= 2.61D-03
 Coeff-Com: -0.896D-03 0.355D-02 0.455D-01-0.191D-01 0.115D+00 0.189D+00
 Coeff-Com:  0.667D+00
 Coeff-En:   0.000D+00 0.000D+00 0.000D+00 0.000D+00 0.000D+00 0.000D+00
 Coeff-En:   0.100D+01
 Coeff:     -0.893D-03 0.354D-02 0.454D-01-0.190D-01 0.115D+00 0.189D+00
 Coeff:      0.668D+00
 Gap=     0.161 Goal=   None    Shift=    0.000
 RMSDP=2.48D-05 MaxDP=9.97D-04 DE=-3.98D-04 OVMax= 3.18D-03

 Cycle   8  Pass 0  IDiag  1:
 E= -747.736679553337     Delta-E=       -0.000021798800 Rises=F Damp=F
 DIIS: error= 1.15D-04 at cycle   8 NSaved=   8.
 NSaved= 8 IEnMin= 8 EnMin= -747.736679553337     IErMin= 8 ErrMin= 1.15D-04
 ErrMax= 1.15D-04 EMaxC= 1.00D-01 BMatC= 6.64D-06 BMatP= 2.81D-05
 IDIUse=3 WtCom= 9.99D-01 WtEn= 1.15D-03
 Coeff-Com:  0.112D-03-0.801D-03 0.139D-01-0.543D-02 0.301D-01 0.870D-01
 Coeff-Com:  0.467D+00 0.408D+00
 Coeff-En:   0.000D+00 0.000D+00 0.000D+00 0.000D+00 0.000D+00 0.000D+00
 Coeff-En:   0.119D+00 0.881D+00
 Coeff:      0.112D-03-0.800D-03 0.139D-01-0.542D-02 0.301D-01 0.869D-01
 Coeff:      0.467D+00 0.409D+00
 Gap=     0.161 Goal=   None    Shift=    0.000
 RMSDP=1.07D-05 MaxDP=6.20D-04 DE=-2.18D-05 OVMax= 1.16D-03

 Cycle   9  Pass 0  IDiag  1:
 E= -747.736685716145     Delta-E=       -0.000006162808 Rises=F Damp=F
 DIIS: error= 2.13D-05 at cycle   9 NSaved=   9.
 NSaved= 9 IEnMin= 9 EnMin= -747.736685716145     IErMin= 9 ErrMin= 2.13D-05
 ErrMax= 2.13D-05 EMaxC= 1.00D-01 BMatC= 2.07D-07 BMatP= 6.64D-06
 IDIUse=1 WtCom= 1.00D+00 WtEn= 0.00D+00
 Coeff-Com:  0.201D-03-0.795D-03 0.222D-02-0.626D-03 0.238D-02 0.233D-01
 Coeff-Com:  0.153D+00 0.197D+00 0.623D+00
 Coeff:      0.201D-03-0.795D-03 0.222D-02-0.626D-03 0.238D-02 0.233D-01
 Coeff:      0.153D+00 0.197D+00 0.623D+00
 Gap=     0.161 Goal=   None    Shift=    0.000
 RMSDP=2.11D-06 MaxDP=7.97D-05 DE=-6.16D-06 OVMax= 1.78D-04

 Initial convergence to 1.0D-05 achieved.  Increase integral accuracy.
 Cycle  10  Pass 1  IDiag  1:
 E= -747.736730728874     Delta-E=       -0.000045012729 Rises=F Damp=F
 DIIS: error= 2.34D-05 at cycle   1 NSaved=   1.
 NSaved= 1 IEnMin= 1 EnMin= -747.736730728874     IErMin= 1 ErrMin= 2.34D-05
 ErrMax= 2.34D-05 EMaxC= 1.00D-01 BMatC= 2.13D-07 BMatP= 2.13D-07
 IDIUse=1 WtCom= 1.00D+00 WtEn= 0.00D+00
 Coeff-Com:  0.100D+01
 Coeff:      0.100D+01
 Gap=     0.161 Goal=   None    Shift=    0.000
 RMSDP=2.11D-06 MaxDP=7.97D-05 DE=-4.50D-05 OVMax= 1.49D-04

 Cycle  11  Pass 1  IDiag  1:
 E= -747.736730958220     Delta-E=       -0.000000229346 Rises=F Damp=F
 DIIS: error= 1.73D-05 at cycle   2 NSaved=   2.
 NSaved= 2 IEnMin= 2 EnMin= -747.736730958220     IErMin= 2 ErrMin= 1.73D-05
 ErrMax= 1.73D-05 EMaxC= 1.00D-01 BMatC= 6.65D-08 BMatP= 2.13D-07
 IDIUse=1 WtCom= 1.00D+00 WtEn= 0.00D+00
 Coeff-Com:  0.282D+00 0.718D+00
 Coeff:      0.282D+00 0.718D+00
 Gap=     0.161 Goal=   None    Shift=    0.000
 RMSDP=1.97D-06 MaxDP=7.88D-05 DE=-2.29D-07 OVMax= 1.64D-04

 Cycle  12  Pass 1  IDiag  1:
 E= -747.736730954187     Delta-E=        0.000000004032 Rises=F Damp=F
 DIIS: error= 2.04D-05 at cycle   3 NSaved=   3.
 NSaved= 3 IEnMin= 2 EnMin= -747.736730958220     IErMin= 2 ErrMin= 1.73D-05
 ErrMax= 2.04D-05 EMaxC= 1.00D-01 BMatC= 6.96D-08 BMatP= 6.65D-08
 IDIUse=1 WtCom= 1.00D+00 WtEn= 0.00D+00
 Coeff-Com: -0.143D-01 0.509D+00 0.505D+00
 Coeff:     -0.143D-01 0.509D+00 0.505D+00
 Gap=     0.161 Goal=   None    Shift=    0.000
 RMSDP=1.06D-06 MaxDP=4.15D-05 DE= 4.03D-09 OVMax= 1.03D-04

 Cycle  13  Pass 1  IDiag  1:
 E= -747.736731021909     Delta-E=       -0.000000067722 Rises=F Damp=F
 DIIS: error= 2.50D-06 at cycle   4 NSaved=   4.
 NSaved= 4 IEnMin= 4 EnMin= -747.736731021909     IErMin= 4 ErrMin= 2.50D-06
 ErrMax= 2.50D-06 EMaxC= 1.00D-01 BMatC= 3.81D-09 BMatP= 6.65D-08
 IDIUse=1 WtCom= 1.00D+00 WtEn= 0.00D+00
 Coeff-Com: -0.187D-01 0.299D+00 0.323D+00 0.396D+00
 Coeff:     -0.187D-01 0.299D+00 0.323D+00 0.396D+00
 Gap=     0.161 Goal=   None    Shift=    0.000
 RMSDP=2.10D-07 MaxDP=1.05D-05 DE=-6.77D-08 OVMax= 1.50D-05

 Cycle  14  Pass 1  IDiag  1:
 E= -747.736731025266     Delta-E=       -0.000000003357 Rises=F Damp=F
 DIIS: error= 5.95D-07 at cycle   5 NSaved=   5.
 NSaved= 5 IEnMin= 5 EnMin= -747.736731025266     IErMin= 5 ErrMin= 5.95D-07
 ErrMax= 5.95D-07 EMaxC= 1.00D-01 BMatC= 1.16D-10 BMatP= 3.81D-09
 IDIUse=1 WtCom= 1.00D+00 WtEn= 0.00D+00
 Coeff-Com: -0.913D-02 0.131D+00 0.145D+00 0.210D+00 0.523D+00
 Coeff:     -0.913D-02 0.131D+00 0.145D+00 0.210D+00 0.523D+00
 Gap=     0.161 Goal=   None    Shift=    0.000
 RMSDP=5.56D-08 MaxDP=2.33D-06 DE=-3.36D-09 OVMax= 3.57D-06

 Cycle  15  Pass 1  IDiag  1:
 E= -747.736731025367     Delta-E=       -0.000000000102 Rises=F Damp=F
 DIIS: error= 2.71D-07 at cycle   6 NSaved=   6.
 NSaved= 6 IEnMin= 6 EnMin= -747.736731025367     IErMin= 6 ErrMin= 2.71D-07
 ErrMax= 2.71D-07 EMaxC= 1.00D-01 BMatC= 2.92D-11 BMatP= 1.16D-10
 IDIUse=1 WtCom= 1.00D+00 WtEn= 0.00D+00
 Coeff-Com: -0.244D-02 0.294D-01 0.337D-01 0.585D-01 0.345D+00 0.535D+00
 Coeff:     -0.244D-02 0.294D-01 0.337D-01 0.585D-01 0.345D+00 0.535D+00
 Gap=     0.161 Goal=   None    Shift=    0.000
 RMSDP=2.06D-08 MaxDP=7.45D-07 DE=-1.02D-10 OVMax= 2.04D-06

 Cycle  16  Pass 1  IDiag  1:
 E= -747.736731025346     Delta-E=        0.000000000022 Rises=F Damp=F
 DIIS: error= 6.54D-08 at cycle   7 NSaved=   7.
 NSaved= 7 IEnMin= 6 EnMin= -747.736731025367     IErMin= 7 ErrMin= 6.54D-08
 ErrMax= 6.54D-08 EMaxC= 1.00D-01 BMatC= 2.77D-12 BMatP= 2.92D-11
 IDIUse=1 WtCom= 1.00D+00 WtEn= 0.00D+00
 Coeff-Com: -0.440D-03 0.271D-02 0.386D-02 0.110D-01 0.155D+00 0.315D+00
 Coeff-Com:  0.512D+00
 Coeff:     -0.440D-03 0.271D-02 0.386D-02 0.110D-01 0.155D+00 0.315D+00
 Coeff:      0.512D+00
 Gap=     0.161 Goal=   None    Shift=    0.000
 RMSDP=8.07D-09 MaxDP=4.38D-07 DE= 2.18D-11 OVMax= 8.65D-07

 SCF Done:  E(RB3LYP) =  -747.736731025     A.U. after   16 cycles
             Convg  =    0.8067D-08             -V/T =  2.0095
 KE= 7.406793731327D+02 PE=-4.073518722515D+03 EE= 1.417339564416D+03
 Leave Link  502 at Wed Sep 29 03:41:52 2021, MaxMem= 1342177280 cpu:     373.2
 (Enter /sw/target/amd/app/gaussian/Gaussian09RevA.02_gcc-4.9.2/g09/l508.exe)
 QCSCF skips out because SCF is already converged.
 Leave Link  508 at Wed Sep 29 03:41:55 2021, MaxMem= 1342177280 cpu:       0.0
 (Enter /sw/target/amd/app/gaussian/Gaussian09RevA.02_gcc-4.9.2/g09/l601.exe)
 Copying SCF densities to generalized density rwf, IOpCl= 0 IROHF=0.

 **********************************************************************

            Population analysis using the SCF density.

 **********************************************************************

 Orbital symmetries:
       Occupied  (A) (A) (A) (A) (A) (A) (A) (A) (A) (A) (A) (A)
                 (A) (A) (A) (A) (A) (A) (A) (A) (A) (A) (A) (A)
                 (A) (A) (A) (A) (A) (A) (A) (A) (A) (A) (A) (A)
                 (A) (A) (A) (A) (A) (A) (A) (A) (A) (A) (A) (A)
                 (A) (A) (A) (A) (A) (A) (A) (A) (A) (A) (A) (A)
                 (A)
       Virtual   (A) (A) (A) (A) (A) (A) (A) (A) (A) (A) (A) (A)
                 (A) (A) (A) (A) (A) (A) (A) (A) (A) (A) (A) (A)
                 (A) (A) (A) (A) (A) (A) (A) (A) (A) (A) (A) (A)
                 (A) (A) (A) (A) (A) (A) (A) (A) (A) (A) (A) (A)
                 (A) (A) (A) (A) (A) (A) (A) (A) (A) (A) (A) (A)
                 (A) (A) (A) (A) (A) (A) (A) (A) (A) (A) (A) (A)
                 (A) (A) (A) (A) (A) (A) (A) (A) (A) (A) (A) (A)
                 (A) (A) (A) (A) (A) (A) (A) (A) (A) (A) (A) (A)
                 (A) (A) (A) (A) (A) (A) (A) (A) (A) (A) (A) (A)
                 (A) (A) (A) (A) (A) (A) (A) (A) (A) (A) (A) (A)
                 (A) (A) (A) (A) (A) (A) (A) (A) (A) (A) (A) (A)
                 (A) (A) (A) (A) (A) (A) (A) (A) (A) (A) (A) (A)
                 (A) (A) (A) (A) (A) (A) (A) (A) (A) (A) (A) (A)
                 (A) (A) (A) (A) (A) (A) (A) (A) (A) (A) (A) (A)
                 (A) (A) (A) (A) (A) (A) (A) (A) (A) (A) (A) (A)
                 (A) (A) (A) (A) (A) (A) (A) (A) (A) (A) (A) (A)
                 (A) (A) (A) (A) (A) (A) (A) (A) (A) (A) (A) (A)
                 (A) (A) (A) (A) (A) (A) (A) (A) (A) (A) (A) (A)
                 (A) (A) (A) (A) (A) (A) (A) (A)
 The electronic state is 1-A.
 Alpha  occ. eigenvalues --  -19.19821 -19.14044 -14.33121 -10.31762 -10.25620
 Alpha  occ. eigenvalues --  -10.22959 -10.22815 -10.21364 -10.20868 -10.20717
 Alpha  occ. eigenvalues --  -10.20210 -10.20108 -10.20049 -10.19973 -10.17991
 Alpha  occ. eigenvalues --  -10.17055 -10.16913  -1.09123  -1.01509  -0.94225
 Alpha  occ. eigenvalues --   -0.85606  -0.82254  -0.80939  -0.76464  -0.74423
 Alpha  occ. eigenvalues --   -0.68781  -0.68047  -0.66382  -0.64815  -0.63576
 Alpha  occ. eigenvalues --   -0.59121  -0.55391  -0.53637  -0.51611  -0.49964
 Alpha  occ. eigenvalues --   -0.48196  -0.47068  -0.46867  -0.45376  -0.44082
 Alpha  occ. eigenvalues --   -0.43037  -0.42678  -0.41809  -0.41280  -0.40476
 Alpha  occ. eigenvalues --   -0.40290  -0.38634  -0.38260  -0.37230  -0.36118
 Alpha  occ. eigenvalues --   -0.36065  -0.35316  -0.34308  -0.32986  -0.32546
 Alpha  occ. eigenvalues --   -0.31948  -0.29668  -0.27024  -0.25890  -0.25455
 Alpha  occ. eigenvalues --   -0.22378
 Alpha virt. eigenvalues --   -0.06253  -0.01479  -0.00083   0.02627   0.08803
 Alpha virt. eigenvalues --    0.08872   0.09004   0.10087   0.12904   0.13632
 Alpha virt. eigenvalues --    0.15365   0.15758   0.16013   0.16198   0.16550
 Alpha virt. eigenvalues --    0.17073   0.17938   0.18498   0.19359   0.19675
 Alpha virt. eigenvalues --    0.19991   0.22169   0.22820   0.23301   0.24071
 Alpha virt. eigenvalues --    0.24679   0.26008   0.26887   0.29728   0.31225
 Alpha virt. eigenvalues --    0.32378   0.32523   0.34285   0.36418   0.39334
 Alpha virt. eigenvalues --    0.43439   0.45802   0.49174   0.49899   0.50138
 Alpha virt. eigenvalues --    0.50983   0.51009   0.52658   0.52743   0.53569
 Alpha virt. eigenvalues --    0.54192   0.55208   0.57096   0.57743   0.58396
 Alpha virt. eigenvalues --    0.59063   0.59265   0.59849   0.60516   0.60871
 Alpha virt. eigenvalues --    0.61460   0.62402   0.63475   0.64867   0.65470
 Alpha virt. eigenvalues --    0.65903   0.67338   0.68908   0.69730   0.70215
 Alpha virt. eigenvalues --    0.70812   0.71735   0.73271   0.76626   0.79150
 Alpha virt. eigenvalues --    0.80045   0.81139   0.82437   0.83118   0.83700
 Alpha virt. eigenvalues --    0.85020   0.86200   0.86362   0.87499   0.87955
 Alpha virt. eigenvalues --    0.88378   0.88913   0.89751   0.90402   0.90583
 Alpha virt. eigenvalues --    0.91763   0.92002   0.92619   0.93939   0.95200
 Alpha virt. eigenvalues --    0.95807   0.96974   0.97690   0.98833   0.99535
 Alpha virt. eigenvalues --    1.00311   1.00519   1.04178   1.04455   1.06494
 Alpha virt. eigenvalues --    1.08637   1.10054   1.11346   1.15769   1.17138
 Alpha virt. eigenvalues --    1.19065   1.19718   1.22772   1.24838   1.26520
 Alpha virt. eigenvalues --    1.29059   1.30255   1.33876   1.36045   1.38183
 Alpha virt. eigenvalues --    1.39049   1.40460   1.42405   1.44751   1.46104
 Alpha virt. eigenvalues --    1.47250   1.48252   1.48940   1.50924   1.51093
 Alpha virt. eigenvalues --    1.52971   1.54156   1.60046   1.61824   1.65541
 Alpha virt. eigenvalues --    1.67329   1.70540   1.71704   1.72801   1.74802
 Alpha virt. eigenvalues --    1.77470   1.79015   1.81040   1.82227   1.83469
 Alpha virt. eigenvalues --    1.85016   1.85876   1.87328   1.87574   1.88423
 Alpha virt. eigenvalues --    1.90099   1.92286   1.92658   1.93081   1.94244
 Alpha virt. eigenvalues --    1.96109   1.98876   2.01163   2.01536   2.03412
 Alpha virt. eigenvalues --    2.05161   2.07911   2.09345   2.09768   2.10955
 Alpha virt. eigenvalues --    2.14332   2.15695   2.16374   2.20377   2.20927
 Alpha virt. eigenvalues --    2.21383   2.24191   2.25459   2.26276   2.26905
 Alpha virt. eigenvalues --    2.27061   2.29220   2.29690   2.31450   2.32891
 Alpha virt. eigenvalues --    2.34620   2.35545   2.37064   2.41349   2.42661
 Alpha virt. eigenvalues --    2.45779   2.52421   2.53957   2.57000   2.59371
 Alpha virt. eigenvalues --    2.61962   2.62235   2.63467   2.66171   2.69458
 Alpha virt. eigenvalues --    2.70244   2.72772   2.73794   2.73951   2.76593
 Alpha virt. eigenvalues --    2.76752   2.81032   2.83516   2.88734   2.93575
 Alpha virt. eigenvalues --    2.95424   2.97821   3.06527   3.10657   3.22803
 Alpha virt. eigenvalues --    3.41357   3.48337   4.04090   4.07911   4.09600
 Alpha virt. eigenvalues --    4.12436   4.12983   4.17566   4.20776   4.26973
 Alpha virt. eigenvalues --    4.31076   4.32143   4.34655   4.36304   4.41212
 Alpha virt. eigenvalues --    4.48617   4.64455   4.72245   4.88135
          Condensed to atoms (all electrons):
              1          2          3          4          5          6
     1  O    8.066110   0.530846  -0.076414  -0.002187   0.002332   0.001390
     2  C    0.530846   4.402017   0.356734  -0.040107  -0.042717  -0.046169
     3  C   -0.076414   0.356734   4.973571   0.371722   0.356658   0.368838
     4  C   -0.002187  -0.040107   0.371722   5.135217  -0.054744  -0.054594
     5  C    0.002332  -0.042717   0.356658  -0.054744   5.151249  -0.065740
     6  C    0.001390  -0.046169   0.368838  -0.054594  -0.065740   5.135868
     7  O   -0.065965   0.222499  -0.092216  -0.000942   0.001288   0.002981
     8  C   -0.003109  -0.005549   0.004226  -0.000012  -0.000236  -0.000075
     9  C    0.003933  -0.005510   0.000099  -0.000011   0.000023   0.000006
    10  C   -0.000082   0.000247   0.000003  -0.000001  -0.000000  -0.000000
    11  C    0.000004   0.000005   0.000000   0.000000  -0.000000  -0.000000
    12  C   -0.000014   0.000080   0.000001  -0.000000  -0.000001  -0.000000
    13  C   -0.000586   0.000654  -0.000221  -0.000007  -0.000060   0.000005
    14  N    0.000005   0.000700  -0.000158   0.000001  -0.000133  -0.000000
    15  C    0.000000   0.000008  -0.000001   0.000000  -0.000000   0.000000
    16  C   -0.000000   0.000000   0.000000  -0.000000  -0.000000  -0.000000
    17  C    0.000000   0.000001  -0.000000   0.000000   0.000000   0.000000
    18  H   -0.000067  -0.004994  -0.031085   0.367311  -0.004589   0.005821
    19  H    0.002060  -0.002421  -0.032382   0.366825   0.005901  -0.005268
    20  H   -0.000054   0.004309  -0.029469   0.372199  -0.005424  -0.004530
    21  H    0.000002  -0.006922  -0.023700  -0.004534   0.367183   0.005407
    22  H   -0.000059   0.004009  -0.026978  -0.005030   0.361108  -0.006081
    23  H    0.000113  -0.003371  -0.031768   0.005257   0.372463  -0.002958
    24  H    0.005725  -0.005726  -0.025397  -0.004719   0.005702   0.366036
    25  H    0.001291  -0.004189  -0.029940   0.005409  -0.003179   0.371398
    26  H    0.000415   0.005028  -0.028843  -0.004490  -0.005304   0.364082
    27  H    0.006399   0.002435  -0.000174   0.000007   0.000002   0.000008
    28  H   -0.000006  -0.000015  -0.000000  -0.000000   0.000000   0.000000
    29  H    0.000000   0.000000   0.000000   0.000000  -0.000000  -0.000000
    30  H    0.000000  -0.000001   0.000000   0.000000   0.000003   0.000000
    31  H    0.000000  -0.000000   0.000000  -0.000000   0.000000   0.000000
    32  H    0.000000   0.000000   0.000000   0.000000   0.000000  -0.000000
              7          8          9         10         11         12
     1  O   -0.065965  -0.003109   0.003933  -0.000082   0.000004  -0.000014
     2  C    0.222499  -0.005549  -0.005510   0.000247   0.000005   0.000080
     3  C   -0.092216   0.004226   0.000099   0.000003   0.000000   0.000001
     4  C   -0.000942  -0.000012  -0.000011  -0.000001   0.000000  -0.000000
     5  C    0.001288  -0.000236   0.000023  -0.000000  -0.000000  -0.000001
     6  C    0.002981  -0.000075   0.000006  -0.000000  -0.000000  -0.000000
     7  O    8.353341   0.204703  -0.056679   0.003550   0.000162   0.003788
     8  C    0.204703   4.758397   0.526451   0.003292  -0.054779  -0.049634
     9  C   -0.056679   0.526451   5.008713   0.472037  -0.032946  -0.041207
    10  C    0.003550   0.003292   0.472037   4.912711   0.499969   0.012989
    11  C    0.000162  -0.054779  -0.032946   0.499969   5.138533   0.421419
    12  C    0.003788  -0.049634  -0.041207   0.012989   0.421419   4.789657
    13  C   -0.048887   0.398508  -0.059749  -0.043373  -0.020360   0.412816
    14  N   -0.002416  -0.094140   0.005907  -0.000888   0.011578  -0.058437
    15  C    0.000197   0.005263  -0.000063   0.000023   0.000079  -0.039309
    16  C   -0.000013  -0.000349  -0.000021  -0.000402   0.009489   0.001355
    17  C   -0.000063   0.010906   0.000264   0.008720  -0.091199   0.460209
    18  H    0.004397  -0.000058   0.000016   0.000000   0.000000  -0.000000
    19  H   -0.000006  -0.000006  -0.000009  -0.000000   0.000000  -0.000000
    20  H   -0.000048   0.000001   0.000000   0.000000  -0.000000   0.000000
    21  H    0.004846  -0.000027   0.000007   0.000000  -0.000000   0.000000
    22  H    0.000345   0.000010   0.000001  -0.000000  -0.000000   0.000000
    23  H    0.000570  -0.000171  -0.000002   0.000000  -0.000000   0.000001
    24  H    0.000062  -0.000003  -0.000002   0.000000   0.000000   0.000000
    25  H    0.000044  -0.000009  -0.000000  -0.000000   0.000000  -0.000000
    26  H   -0.000038   0.000001  -0.000000   0.000000  -0.000000   0.000000
    27  H   -0.006774  -0.030582   0.353835  -0.041239   0.004932   0.000207
    28  H   -0.000049   0.002979  -0.036931   0.357147  -0.034787   0.002890
    29  H    0.000002   0.000412   0.004840  -0.043293   0.356337  -0.041656
    30  H    0.000004  -0.000181   0.000004  -0.000001   0.000025   0.000880
    31  H   -0.000000   0.000025  -0.000000   0.000002  -0.000120   0.003981
    32  H    0.000000  -0.000144   0.000006   0.000323  -0.009487  -0.045140
             13         14         15         16         17         18
     1  O   -0.000586   0.000005   0.000000  -0.000000   0.000000  -0.000067
     2  C    0.000654   0.000700   0.000008   0.000000   0.000001  -0.004994
     3  C   -0.000221  -0.000158  -0.000001   0.000000  -0.000000  -0.031085
     4  C   -0.000007   0.000001   0.000000  -0.000000   0.000000   0.367311
     5  C   -0.000060  -0.000133  -0.000000  -0.000000   0.000000  -0.004589
     6  C    0.000005  -0.000000   0.000000  -0.000000   0.000000   0.005821
     7  O   -0.048887  -0.002416   0.000197  -0.000013  -0.000063   0.004397
     8  C    0.398508  -0.094140   0.005263  -0.000349   0.010906  -0.000058
     9  C   -0.059749   0.005907  -0.000063  -0.000021   0.000264   0.000016
    10  C   -0.043373  -0.000888   0.000023  -0.000402   0.008720   0.000000
    11  C   -0.020360   0.011578   0.000079   0.009489  -0.091199   0.000000
    12  C    0.412816  -0.058437  -0.039309   0.001355   0.460209  -0.000000
    13  C    4.863797   0.383442  -0.053597  -0.039537  -0.040391  -0.000001
    14  N    0.383442   6.920896   0.478379  -0.016373  -0.066080  -0.000001
    15  C   -0.053597   0.478379   4.787954   0.463982  -0.029146   0.000000
    16  C   -0.039537  -0.016373   0.463982   4.982541   0.505790  -0.000000
    17  C   -0.040391  -0.066080  -0.029146   0.505790   5.078329   0.000000
    18  H   -0.000001  -0.000001   0.000000  -0.000000   0.000000   0.560896
    19  H    0.000001   0.000000  -0.000000   0.000000  -0.000000  -0.030271
    20  H    0.000000  -0.000000  -0.000000   0.000000  -0.000000  -0.028281
    21  H   -0.000042   0.000712   0.000007   0.000000   0.000000   0.004064
    22  H   -0.000002   0.000007  -0.000000   0.000000   0.000000  -0.000205
    23  H    0.000018   0.000573   0.000007   0.000000   0.000000  -0.000053
    24  H    0.000000   0.000000  -0.000000   0.000000  -0.000000  -0.000044
    25  H   -0.000001  -0.000000  -0.000000  -0.000000   0.000000  -0.000191
    26  H    0.000000   0.000000  -0.000000   0.000000  -0.000000  -0.000044
    27  H    0.004621  -0.000064   0.000002  -0.000000  -0.000000   0.000037
    28  H    0.001001   0.000004  -0.000000   0.000002  -0.000206   0.000000
    29  H    0.004065  -0.000104  -0.000004   0.000213  -0.008126  -0.000000
    30  H    0.003779  -0.052278   0.378361  -0.066004   0.003534   0.000000
    31  H    0.000702   0.004606  -0.037117   0.350960  -0.037531   0.000000
    32  H    0.004823  -0.000275   0.005212  -0.048946   0.363377  -0.000000
             19         20         21         22         23         24
     1  O    0.002060  -0.000054   0.000002  -0.000059   0.000113   0.005725
     2  C   -0.002421   0.004309  -0.006922   0.004009  -0.003371  -0.005726
     3  C   -0.032382  -0.029469  -0.023700  -0.026978  -0.031768  -0.025397
     4  C    0.366825   0.372199  -0.004534  -0.005030   0.005257  -0.004719
     5  C    0.005901  -0.005424   0.367183   0.361108   0.372463   0.005702
     6  C   -0.005268  -0.004530   0.005407  -0.006081  -0.002958   0.366036
     7  O   -0.000006  -0.000048   0.004846   0.000345   0.000570   0.000062
     8  C   -0.000006   0.000001  -0.000027   0.000010  -0.000171  -0.000003
     9  C   -0.000009   0.000000   0.000007   0.000001  -0.000002  -0.000002
    10  C   -0.000000   0.000000   0.000000  -0.000000   0.000000   0.000000
    11  C    0.000000  -0.000000  -0.000000  -0.000000  -0.000000   0.000000
    12  C   -0.000000   0.000000   0.000000   0.000000   0.000001   0.000000
    13  C    0.000001   0.000000  -0.000042  -0.000002   0.000018   0.000000
    14  N    0.000000  -0.000000   0.000712   0.000007   0.000573   0.000000
    15  C   -0.000000  -0.000000   0.000007  -0.000000   0.000007  -0.000000
    16  C    0.000000   0.000000   0.000000   0.000000   0.000000   0.000000
    17  C   -0.000000  -0.000000   0.000000   0.000000   0.000000  -0.000000
    18  H   -0.030271  -0.028281   0.004064  -0.000205  -0.000053  -0.000044
    19  H    0.566843  -0.029119  -0.000043  -0.000076  -0.000187   0.004590
    20  H   -0.029119   0.561501  -0.000089   0.003608  -0.000010  -0.000254
    21  H   -0.000043  -0.000089   0.541928  -0.030265  -0.026250  -0.000193
    22  H   -0.000076   0.003608  -0.030265   0.589052  -0.029994   0.000031
    23  H   -0.000187  -0.000010  -0.026250  -0.029994   0.558542  -0.000068
    24  H    0.004590  -0.000254  -0.000193   0.000031  -0.000068   0.554030
    25  H   -0.000047  -0.000014  -0.000057  -0.000213   0.003447  -0.027328
    26  H   -0.000138   0.003112   0.000009   0.003388  -0.000109  -0.030594
    27  H    0.000043   0.000000  -0.000000   0.000000  -0.000001   0.000000
    28  H   -0.000000  -0.000000   0.000000   0.000000   0.000000   0.000000
    29  H   -0.000000   0.000000   0.000000   0.000000   0.000000  -0.000000
    30  H   -0.000000  -0.000000  -0.000003  -0.000000  -0.000003  -0.000000
    31  H   -0.000000  -0.000000  -0.000000  -0.000000  -0.000000  -0.000000
    32  H   -0.000000   0.000000   0.000000   0.000000   0.000000  -0.000000
             25         26         27         28         29         30
     1  O    0.001291   0.000415   0.006399  -0.000006   0.000000   0.000000
     2  C   -0.004189   0.005028   0.002435  -0.000015   0.000000  -0.000001
     3  C   -0.029940  -0.028843  -0.000174  -0.000000   0.000000   0.000000
     4  C    0.005409  -0.004490   0.000007  -0.000000   0.000000   0.000000
     5  C   -0.003179  -0.005304   0.000002   0.000000  -0.000000   0.000003
     6  C    0.371398   0.364082   0.000008   0.000000  -0.000000   0.000000
     7  O    0.000044  -0.000038  -0.006774  -0.000049   0.000002   0.000004
     8  C   -0.000009   0.000001  -0.030582   0.002979   0.000412  -0.000181
     9  C   -0.000000  -0.000000   0.353835  -0.036931   0.004840   0.000004
    10  C   -0.000000   0.000000  -0.041239   0.357147  -0.043293  -0.000001
    11  C    0.000000  -0.000000   0.004932  -0.034787   0.356337   0.000025
    12  C   -0.000000   0.000000   0.000207   0.002890  -0.041656   0.000880
    13  C   -0.000001   0.000000   0.004621   0.001001   0.004065   0.003779
    14  N   -0.000000   0.000000  -0.000064   0.000004  -0.000104  -0.052278
    15  C   -0.000000  -0.000000   0.000002  -0.000000  -0.000004   0.378361
    16  C   -0.000000   0.000000  -0.000000   0.000002   0.000213  -0.066004
    17  C    0.000000  -0.000000  -0.000000  -0.000206  -0.008126   0.003534
    18  H   -0.000191  -0.000044   0.000037   0.000000  -0.000000   0.000000
    19  H   -0.000047  -0.000138   0.000043  -0.000000  -0.000000  -0.000000
    20  H   -0.000014   0.003112   0.000000  -0.000000   0.000000  -0.000000
    21  H   -0.000057   0.000009  -0.000000   0.000000   0.000000  -0.000003
    22  H   -0.000213   0.003388   0.000000   0.000000   0.000000  -0.000000
    23  H    0.003447  -0.000109  -0.000001   0.000000   0.000000  -0.000003
    24  H   -0.027328  -0.030594   0.000000   0.000000  -0.000000  -0.000000
    25  H    0.563764  -0.030098  -0.000001   0.000000  -0.000000   0.000000
    26  H   -0.030098   0.584872  -0.000000  -0.000000   0.000000  -0.000000
    27  H   -0.000001  -0.000000   0.549300  -0.005099  -0.000180  -0.000000
    28  H    0.000000  -0.000000  -0.005099   0.575886  -0.004758   0.000000
    29  H   -0.000000   0.000000  -0.000180  -0.004758   0.593408  -0.000000
    30  H    0.000000  -0.000000  -0.000000   0.000000  -0.000000   0.588525
    31  H    0.000000  -0.000000   0.000000  -0.000000  -0.000014  -0.002027
    32  H   -0.000000   0.000000  -0.000000  -0.000007   0.005617  -0.000193
             31         32
     1  O    0.000000   0.000000
     2  C   -0.000000   0.000000
     3  C    0.000000   0.000000
     4  C   -0.000000   0.000000
     5  C    0.000000   0.000000
     6  C    0.000000  -0.000000
     7  O   -0.000000   0.000000
     8  C    0.000025  -0.000144
     9  C   -0.000000   0.000006
    10  C    0.000002   0.000323
    11  C   -0.000120  -0.009487
    12  C    0.003981  -0.045140
    13  C    0.000702   0.004823
    14  N    0.004606  -0.000275
    15  C   -0.037117   0.005212
    16  C    0.350960  -0.048946
    17  C   -0.037531   0.363377
    18  H    0.000000  -0.000000
    19  H   -0.000000  -0.000000
    20  H   -0.000000   0.000000
    21  H   -0.000000   0.000000
    22  H   -0.000000   0.000000
    23  H   -0.000000   0.000000
    24  H   -0.000000  -0.000000
    25  H    0.000000  -0.000000
    26  H   -0.000000   0.000000
    27  H    0.000000  -0.000000
    28  H   -0.000000  -0.000007
    29  H   -0.000014   0.005617
    30  H   -0.002027  -0.000193
    31  H    0.581153  -0.005786
    32  H   -0.005786   0.585227
 Mulliken atomic charges:
              1
     1  O   -0.472083
     2  C    0.638119
     3  C   -0.003109
     4  C   -0.452567
     5  C   -0.441784
     6  C   -0.436422
     7  O   -0.528682
     8  C    0.323891
     9  C   -0.143011
    10  C   -0.141732
    11  C   -0.198854
    12  C    0.165123
    13  C    0.228581
    14  N   -0.515463
    15  C    0.039764
    16  C   -0.142689
    17  C   -0.158389
    18  H    0.157343
    19  H    0.153712
    20  H    0.152563
    21  H    0.167960
    22  H    0.137349
    23  H    0.153954
    24  H    0.158151
    25  H    0.149916
    26  H    0.138753
    27  H    0.162285
    28  H    0.141948
    29  H    0.133242
    30  H    0.145577
    31  H    0.141166
    32  H    0.145391
 Sum of Mulliken atomic charges =  -0.00000
 Mulliken charges with hydrogens summed into heavy atoms:
              1
     1  O   -0.472083
     2  C    0.638119
     3  C   -0.003109
     4  C    0.011050
     5  C    0.017479
     6  C    0.010398
     7  O   -0.528682
     8  C    0.323891
     9  C    0.019274
    10  C    0.000216
    11  C   -0.065612
    12  C    0.165123
    13  C    0.228581
    14  N   -0.515463
    15  C    0.185340
    16  C   -0.001523
    17  C   -0.012997
 Sum of Mulliken charges with hydrogens summed into heavy atoms =  -0.00000
 Electronic spatial extent (au):  <R**2>=           4609.9225
 Charge=              0.0000 electrons
 Dipole moment (field-independent basis, Debye):
    X=             -2.1436    Y=             -0.2032    Z=              0.9718  Tot=              2.3623
 Quadrupole moment (field-independent basis, Debye-Ang):
   XX=            -80.6089   YY=            -93.3837   ZZ=           -102.9868
   XY=             -1.8983   XZ=              4.1717   YZ=              3.9370
 Traceless Quadrupole moment (field-independent basis, Debye-Ang):
   XX=             11.7175   YY=             -1.0572   ZZ=            -10.6603
   XY=             -1.8983   XZ=              4.1717   YZ=              3.9370
 Octapole moment (field-independent basis, Debye-Ang**2):
  XXX=            -33.3068  YYY=              6.3528  ZZZ=             -0.7435  XYY=            -20.7125
  XXY=            -17.0593  XXZ=              1.4751  XZZ=             10.2597  YZZ=             -4.7256
  YYZ=              3.9504  XYZ=              4.4612
 Hexadecapole moment (field-independent basis, Debye-Ang**3):
 XXXX=          -4215.0434 YYYY=          -1228.4367 ZZZZ=           -326.2296 XXXY=             23.0884
 XXXZ=             46.9062 YYYX=             29.8628 YYYZ=             10.1434 ZZZX=             -4.0392
 ZZZY=             -4.2165 XXYY=           -916.3921 XXZZ=           -861.2528 YYZZ=           -296.4679
 XXYZ=              8.8175 YYXZ=             12.3924 ZZXY=             -2.3519
 N-N= 1.167763053942D+03 E-N=-4.073518702827D+03  KE= 7.406793731327D+02
 No NMR shielding tensors so no spin-rotation constants.
 Leave Link  601 at Wed Sep 29 03:41:58 2021, MaxMem= 1342177280 cpu:       1.9
 (Enter /sw/target/amd/app/gaussian/Gaussian09RevA.02_gcc-4.9.2/g09/l701.exe)
 Compute integral first derivatives.
 ... and contract with generalized density number  0.
 Leave Link  701 at Wed Sep 29 03:42:00 2021, MaxMem= 1342177280 cpu:       1.6
 (Enter /sw/target/amd/app/gaussian/Gaussian09RevA.02_gcc-4.9.2/g09/l702.exe)
 L702 exits ... SP integral derivatives will be done elsewhere.
 Leave Link  702 at Wed Sep 29 03:42:00 2021, MaxMem= 1342177280 cpu:       0.1
 (Enter /sw/target/amd/app/gaussian/Gaussian09RevA.02_gcc-4.9.2/g09/l703.exe)
 Compute integral first derivatives, UseDBF=F ICtDFT=           0.
 Integral derivatives from FoFDir, PRISM(SPDF).
 Calling FoFJK, ICntrl=      2127 FMM=F ISym2X=0 I1Cent= 0 IOpClX= 0 NMat=1 NMatS=1 NMatT=0.
 FoFCou: FMM=F IPFlag=           0 FMFlag=      100000 FMFlg1=         800
         NFxFlg=           0 DoJE=F BraDBF=F KetDBF=F FulRan=T
         Omega=  0.000000  0.000000  1.000000  0.000000  0.000000 ICntrl=    2127 IOpCl=  0
         NMat0=    1 NMatS0=    1 NMatT0=    0 NMatD0=    1 NMtDS0=    0 NMtDT0=    0
         I1Cent=           0 NGrid=           0.
 Symmetry not used in FoFCou.
 Leave Link  703 at Wed Sep 29 03:43:59 2021, MaxMem= 1342177280 cpu:     129.8
 (Enter /sw/target/amd/app/gaussian/Gaussian09RevA.02_gcc-4.9.2/g09/l716.exe)
 Dipole        =-8.43342617D-01-7.99301324D-02 3.82353677D-01
 ***** Axes restored to original set *****
 -------------------------------------------------------------------
 Center     Atomic                   Forces (Hartrees/Bohr)
 Number     Number              X              Y              Z
 -------------------------------------------------------------------
      1        8          -0.012758763   -0.018442347    0.021461677
      2        6           0.010517884    0.004540460   -0.011193789
      3        6          -0.006058535    0.007253288    0.004632034
      4        6           0.002731069   -0.008872645   -0.005653185
      5        6           0.001324360   -0.006515244    0.007762035
      6        6           0.004483049    0.005377093   -0.005943910
      7        8           0.015230586    0.010976424   -0.007180093
      8        6          -0.021482711    0.003537338   -0.036590073
      9        6          -0.021159790    0.005226121    0.008384374
     10        6           0.018677250   -0.005135328    0.017001542
     11        6           0.005824370   -0.000262466   -0.022311032
     12        6           0.021553236   -0.005401223   -0.003354774
     13        6          -0.004448757    0.000946586    0.015648029
     14        7          -0.002023228   -0.000345006    0.024848435
     15        6          -0.032098921    0.009261702   -0.033287328
     16        6           0.026361682   -0.005760875   -0.006205063
     17        6          -0.001663002   -0.000820595    0.022714981
     18        1          -0.000858952    0.000060843    0.001133788
     19        1          -0.000447001    0.001241591   -0.000328971
     20        1           0.000043047    0.001717535    0.001378597
     21        1           0.001292156    0.001923006   -0.000049535
     22        1          -0.000196185    0.001566125   -0.002871052
     23        1          -0.000806965   -0.000175908    0.000248128
     24        1           0.000794472   -0.000327528    0.001517949
     25        1          -0.000579034   -0.000278168   -0.000025558
     26        1           0.000067599   -0.002748976    0.001493827
     27        1          -0.002146157    0.001122587    0.003959828
     28        1          -0.000413254   -0.000275763    0.000729627
     29        1          -0.001486047    0.000358710    0.002913129
[...]
    14    O    1  dx2y2  Ryd( 3d)     0.00249
    15    O    1  dz2    Ryd( 3d)     0.00425

    16    C    2  S      Cor( 1S)     1.99926
    17    C    2  S      Val( 2S)     0.78599
    18    C    2  S      Ryd( 3S)     0.00692
    19    C    2  S      Ryd( 4S)     0.00051
    20    C    2  px     Val( 2p)     0.81593
    21    C    2  px     Ryd( 3p)     0.00532
    22    C    2  py     Val( 2p)     0.78861
    23    C    2  py     Ryd( 3p)     0.01304
    24    C    2  pz     Val( 2p)     0.71631
    25    C    2  pz     Ryd( 3p)     0.01338
    26    C    2  dxy    Ryd( 3d)     0.00229
    27    C    2  dxz    Ryd( 3d)     0.00269
    28    C    2  dyz    Ryd( 3d)     0.00090
    29    C    2  dx2y2  Ryd( 3d)     0.00169
    30    C    2  dz2    Ryd( 3d)     0.00214

    31    C    3  S      Cor( 1S)     1.99905
    32    C    3  S      Val( 2S)     0.94134
    33    C    3  S      Ryd( 3S)     0.00047
    34    C    3  S      Ryd( 4S)     0.00003
    35    C    3  px     Val( 2p)     1.05806
    36    C    3  px     Ryd( 3p)     0.00249
    37    C    3  py     Val( 2p)     1.07069
    38    C    3  py     Ryd( 3p)     0.00229
    39    C    3  pz     Val( 2p)     1.07056
    40    C    3  pz     Ryd( 3p)     0.00305
    41    C    3  dxy    Ryd( 3d)     0.00111
    42    C    3  dxz    Ryd( 3d)     0.00066
    43    C    3  dyz    Ryd( 3d)     0.00062
    44    C    3  dx2y2  Ryd( 3d)     0.00057
    45    C    3  dz2    Ryd( 3d)     0.00097

    46    C    4  S      Cor( 1S)     1.99938
    47    C    4  S      Val( 2S)     1.09528
    48    C    4  S      Ryd( 3S)     0.00057
    49    C    4  S      Ryd( 4S)     0.00002
    50    C    4  px     Val( 2p)     1.24972
    51    C    4  px     Ryd( 3p)     0.00208
    52    C    4  py     Val( 2p)     1.24927
    53    C    4  py     Ryd( 3p)     0.00228
    54    C    4  pz     Val( 2p)     1.06916
    55    C    4  pz     Ryd( 3p)     0.00155
    56    C    4  dxy    Ryd( 3d)     0.00077
    57    C    4  dxz    Ryd( 3d)     0.00069
    58    C    4  dyz    Ryd( 3d)     0.00053
    59    C    4  dx2y2  Ryd( 3d)     0.00064
    60    C    4  dz2    Ryd( 3d)     0.00071

    61    C    5  S      Cor( 1S)     1.99938
    62    C    5  S      Val( 2S)     1.09848
    63    C    5  S      Ryd( 3S)     0.00059
    64    C    5  S      Ryd( 4S)     0.00002
    65    C    5  px     Val( 2p)     1.25667
    66    C    5  px     Ryd( 3p)     0.00198
    67    C    5  py     Val( 2p)     1.06999
    68    C    5  py     Ryd( 3p)     0.00153
    69    C    5  pz     Val( 2p)     1.23929
    70    C    5  pz     Ryd( 3p)     0.00242
    71    C    5  dxy    Ryd( 3d)     0.00090
    72    C    5  dxz    Ryd( 3d)     0.00049
    73    C    5  dyz    Ryd( 3d)     0.00033
    74    C    5  dx2y2  Ryd( 3d)     0.00053
    75    C    5  dz2    Ryd( 3d)     0.00110

    76    C    6  S      Cor( 1S)     1.99939
    77    C    6  S      Val( 2S)     1.09105
    78    C    6  S      Ryd( 3S)     0.00057
    79    C    6  S      Ryd( 4S)     0.00002
    80    C    6  px     Val( 2p)     1.12714
    81    C    6  px     Ryd( 3p)     0.00204
    82    C    6  py     Val( 2p)     1.22887
    83    C    6  py     Ryd( 3p)     0.00265
    84    C    6  pz     Val( 2p)     1.21283
    85    C    6  pz     Ryd( 3p)     0.00236
    86    C    6  dxy    Ryd( 3d)     0.00085
    87    C    6  dxz    Ryd( 3d)     0.00041
    88    C    6  dyz    Ryd( 3d)     0.00028
    89    C    6  dx2y2  Ryd( 3d)     0.00062
    90    C    6  dz2    Ryd( 3d)     0.00116

    91    O    7  S      Cor( 1S)     1.99968
    92    O    7  S      Val( 2S)     1.59604
    93    O    7  S      Ryd( 3S)     0.00137
    94    O    7  S      Ryd( 4S)     0.00009
    95    O    7  px     Val( 2p)     1.42226
    96    O    7  px     Ryd( 3p)     0.00100
    97    O    7  py     Val( 2p)     1.79583
    98    O    7  py     Ryd( 3p)     0.00267
    99    O    7  pz     Val( 2p)     1.66720
   100    O    7  pz     Ryd( 3p)     0.00141
   101    O    7  dxy    Ryd( 3d)     0.00087
   102    O    7  dxz    Ryd( 3d)     0.00088
   103    O    7  dyz    Ryd( 3d)     0.00129
   104    O    7  dx2y2  Ryd( 3d)     0.00093
   105    O    7  dz2    Ryd( 3d)     0.00148

   106    C    8  S      Cor( 1S)     1.99867
   107    C    8  S      Val( 2S)     0.84828
   108    C    8  S      Ryd( 3S)     0.00152
   109    C    8  S      Ryd( 4S)     0.00014
   110    C    8  px     Val( 2p)     0.79261
   111    C    8  px     Ryd( 3p)     0.00630
   112    C    8  py     Val( 2p)     1.03342
   113    C    8  py     Ryd( 3p)     0.00635
   114    C    8  pz     Val( 2p)     0.90526
   115    C    8  pz     Ryd( 3p)     0.00375
   116    C    8  dxy    Ryd( 3d)     0.00169
   117    C    8  dxz    Ryd( 3d)     0.00124
   118    C    8  dyz    Ryd( 3d)     0.00102
   119    C    8  dx2y2  Ryd( 3d)     0.00157
   120    C    8  dz2    Ryd( 3d)     0.00050

   121    C    9  S      Cor( 1S)     1.99903
   122    C    9  S      Val( 2S)     0.97433
   123    C    9  S      Ryd( 3S)     0.00076
   124    C    9  S      Ryd( 4S)     0.00005
   125    C    9  px     Val( 2p)     1.15140
   126    C    9  px     Ryd( 3p)     0.00458
   127    C    9  py     Val( 2p)     1.11639
   128    C    9  py     Ryd( 3p)     0.00449
   129    C    9  pz     Val( 2p)     0.98507
   130    C    9  pz     Ryd( 3p)     0.00182
   131    C    9  dxy    Ryd( 3d)     0.00067
   132    C    9  dxz    Ryd( 3d)     0.00048
   133    C    9  dyz    Ryd( 3d)     0.00067
   134    C    9  dx2y2  Ryd( 3d)     0.00074
   135    C    9  dz2    Ryd( 3d)     0.00044

   136    C   10  S      Cor( 1S)     1.99913
   137    C   10  S      Val( 2S)     0.96862
   138    C   10  S      Ryd( 3S)     0.00063
   139    C   10  S      Ryd( 4S)     0.00004
   140    C   10  px     Val( 2p)     1.05271
   141    C   10  px     Ryd( 3p)     0.00483
   142    C   10  py     Val( 2p)     1.19964
   143    C   10  py     Ryd( 3p)     0.00520
   144    C   10  pz     Val( 2p)     0.99751
   145    C   10  pz     Ryd( 3p)     0.00141
   146    C   10  dxy    Ryd( 3d)     0.00069
   147    C   10  dxz    Ryd( 3d)     0.00063
   148    C   10  dyz    Ryd( 3d)     0.00042
   149    C   10  dx2y2  Ryd( 3d)     0.00082
   150    C   10  dz2    Ryd( 3d)     0.00045

   151    C   11  S      Cor( 1S)     1.99904
   152    C   11  S      Val( 2S)     0.96702
   153    C   11  S      Ryd( 3S)     0.00059
   154    C   11  S      Ryd( 4S)     0.00006
   155    C   11  px     Val( 2p)     1.17710
   156    C   11  px     Ryd( 3p)     0.00436
   157    C   11  py     Val( 2p)     1.06617
   158    C   11  py     Ryd( 3p)     0.00402
   159    C   11  pz     Val( 2p)     0.87587
   160    C   11  pz     Ryd( 3p)     0.00186
   161    C   11  dxy    Ryd( 3d)     0.00080
   162    C   11  dxz    Ryd( 3d)     0.00045
   163    C   11  dyz    Ryd( 3d)     0.00064
   164    C   11  dx2y2  Ryd( 3d)     0.00081
   165    C   11  dz2    Ryd( 3d)     0.00042

   166    C   12  S      Cor( 1S)     1.99902
   167    C   12  S      Val( 2S)     0.88297
   168    C   12  S      Ryd( 3S)     0.00084
   169    C   12  S      Ryd( 4S)     0.00006
   170    C   12  px     Val( 2p)     1.09890
   171    C   12  px     Ryd( 3p)     0.00567
   172    C   12  py     Val( 2p)     1.09117
   173    C   12  py     Ryd( 3p)     0.00459
   174    C   12  pz     Val( 2p)     1.00879
   175    C   12  pz     Ryd( 3p)     0.00067
   176    C   12  dxy    Ryd( 3d)     0.00062
   177    C   12  dxz    Ryd( 3d)     0.00073
   178    C   12  dyz    Ryd( 3d)     0.00073
   179    C   12  dx2y2  Ryd( 3d)     0.00079
   180    C   12  dz2    Ryd( 3d)     0.00037

   181    C   13  S      Cor( 1S)     1.99897
   182    C   13  S      Val( 2S)     0.84025
   183    C   13  S      Ryd( 3S)     0.00192
   184    C   13  S      Ryd( 4S)     0.00012
   185    C   13  px     Val( 2p)     1.05293
   186    C   13  px     Ryd( 3p)     0.00748
   187    C   13  py     Val( 2p)     0.95986
   188    C   13  py     Ryd( 3p)     0.00694
   189    C   13  pz     Val( 2p)     0.97339
   190    C   13  pz     Ryd( 3p)     0.00081
   191    C   13  dxy    Ryd( 3d)     0.00153
   192    C   13  dxz    Ryd( 3d)     0.00041
   193    C   13  dyz    Ryd( 3d)     0.00155
   194    C   13  dx2y2  Ryd( 3d)     0.00066
   195    C   13  dz2    Ryd( 3d)     0.00028

   196    N   14  S      Cor( 1S)     1.99940
   197    N   14  S      Val( 2S)     1.35467
   198    N   14  S      Ryd( 3S)     0.00077
   199    N   14  S      Ryd( 4S)     0.00002
   200    N   14  px     Val( 2p)     1.63727
   201    N   14  px     Ryd( 3p)     0.00550
   202    N   14  py     Val( 2p)     1.23404
   203    N   14  py     Ryd( 3p)     0.00410
   204    N   14  pz     Val( 2p)     1.28604
   205    N   14  pz     Ryd( 3p)     0.00322
   206    N   14  dxy    Ryd( 3d)     0.00266
   207    N   14  dxz    Ryd( 3d)     0.00261
   208    N   14  dyz    Ryd( 3d)     0.00051
   209    N   14  dx2y2  Ryd( 3d)     0.00258
   210    N   14  dz2    Ryd( 3d)     0.00197

   211    C   15  S      Cor( 1S)     1.99925
   212    C   15  S      Val( 2S)     0.92694
   213    C   15  S      Ryd( 3S)     0.00156
   214    C   15  S      Ryd( 4S)     0.00008
   215    C   15  px     Val( 2p)     0.96588
   216    C   15  px     Ryd( 3p)     0.01040
   217    C   15  py     Val( 2p)     1.11247
   218    C   15  py     Ryd( 3p)     0.00593
   219    C   15  pz     Val( 2p)     0.96557
   220    C   15  pz     Ryd( 3p)     0.00282
   221    C   15  dxy    Ryd( 3d)     0.00089
   222    C   15  dxz    Ryd( 3d)     0.00112
   223    C   15  dyz    Ryd( 3d)     0.00047
   224    C   15  dx2y2  Ryd( 3d)     0.00164
   225    C   15  dz2    Ryd( 3d)     0.00042

   226    C   16  S      Cor( 1S)     1.99909
   227    C   16  S      Val( 2S)     0.97424
   228    C   16  S      Ryd( 3S)     0.00067
   229    C   16  S      Ryd( 4S)     0.00004
   230    C   16  px     Val( 2p)     1.13807
   231    C   16  px     Ryd( 3p)     0.00476
   232    C   16  py     Val( 2p)     1.12861
   233    C   16  py     Ryd( 3p)     0.00406
   234    C   16  pz     Val( 2p)     1.01025
   235    C   16  pz     Ryd( 3p)     0.00216
   236    C   16  dxy    Ryd( 3d)     0.00082
   237    C   16  dxz    Ryd( 3d)     0.00052
   238    C   16  dyz    Ryd( 3d)     0.00073
   239    C   16  dx2y2  Ryd( 3d)     0.00063
   240    C   16  dz2    Ryd( 3d)     0.00043

   241    C   17  S      Cor( 1S)     1.99906
   242    C   17  S      Val( 2S)     0.93921
   243    C   17  S      Ryd( 3S)     0.00078
   244    C   17  S      Ryd( 4S)     0.00005
   245    C   17  px     Val( 2p)     1.15648
   246    C   17  px     Ryd( 3p)     0.00444
   247    C   17  py     Val( 2p)     1.07353
   248    C   17  py     Ryd( 3p)     0.00471
   249    C   17  pz     Val( 2p)     1.11230
   250    C   17  pz     Ryd( 3p)     0.00505
   251    C   17  dxy    Ryd( 3d)     0.00075
   252    C   17  dxz    Ryd( 3d)     0.00030
   253    C   17  dyz    Ryd( 3d)     0.00048
   254    C   17  dx2y2  Ryd( 3d)     0.00066
   255    C   17  dz2    Ryd( 3d)     0.00042

   256    H   18  S      Val( 1S)     0.74951
   257    H   18  S      Ryd( 2S)     0.00097

   258    H   19  S      Val( 1S)     0.76611
   259    H   19  S      Ryd( 2S)     0.00094

   260    H   20  S      Val( 1S)     0.76065
   261    H   20  S      Ryd( 2S)     0.00102

   262    H   21  S      Val( 1S)     0.73676
   263    H   21  S      Ryd( 2S)     0.00162

   264    H   22  S      Val( 1S)     0.76490
   265    H   22  S      Ryd( 2S)     0.00101

   266    H   23  S      Val( 1S)     0.76098
   267    H   23  S      Ryd( 2S)     0.00090

   268    H   24  S      Val( 1S)     0.76088
   269    H   24  S      Ryd( 2S)     0.00100

   270    H   25  S      Val( 1S)     0.75262
   271    H   25  S      Ryd( 2S)     0.00106

   272    H   26  S      Val( 1S)     0.76574
   273    H   26  S      Ryd( 2S)     0.00087

   274    H   27  S      Val( 1S)     0.73836
   275    H   27  S      Ryd( 2S)     0.00101

   276    H   28  S      Val( 1S)     0.75227
   277    H   28  S      Ryd( 2S)     0.00077

   278    H   29  S      Val( 1S)     0.75760
   279    H   29  S      Ryd( 2S)     0.00121

   280    H   30  S      Val( 1S)     0.78624
   281    H   30  S      Ryd( 2S)     0.00110

   282    H   31  S      Val( 1S)     0.76512
   283    H   31  S      Ryd( 2S)     0.00095

   284    H   32  S      Val( 1S)     0.77374
   285    H   32  S      Ryd( 2S)     0.00103

 WARNING:  1 low occupancy (<1.9990e) core orbital  found on  C    8
           1 low occupancy (<1.9990e) core orbital  found on  C   13


 Summary of Natural Population Analysis:                  
                                                          
                                       Natural Population 
                Natural  -----------------------------------------------
    Atom  No    Charge         Core      Valence    Rydberg      Total
 -----------------------------------------------------------------------
      O    1   -0.56416      1.99977     6.54433    0.02006     8.56416
      C    2    0.84502      1.99926     3.10685    0.04887     5.15498
      C    3   -0.15197      1.99905     4.14065    0.01227     6.15197
      C    4   -0.67266      1.99938     4.66343    0.00985     6.67266
      C    5   -0.67369      1.99938     4.66443    0.00988     6.67369
      C    6   -0.67025      1.99939     4.65989    0.01096     6.67025
      O    7   -0.49300      1.99968     6.48133    0.01199     8.49300
      C    8    0.39768      1.99867     3.57956    0.02408     5.60232
      C    9   -0.24093      1.99903     4.22719    0.01471     6.24093
      C   10   -0.23273      1.99913     4.21848    0.01512     6.23273
      C   11   -0.09923      1.99904     4.08617    0.01401     6.09923
      C   12   -0.09589      1.99902     4.08182    0.01506     6.09589
      C   13    0.15289      1.99897     3.82644    0.02171     5.84711
      N   14   -0.53536      1.99940     5.51201    0.02395     7.53536
      C   15    0.00459      1.99925     3.97085    0.02531     5.99541
      C   16   -0.26508      1.99909     4.25116    0.01483     6.26508
      C   17   -0.29825      1.99906     4.28153    0.01766     6.29825
      H   18    0.24951      0.00000     0.74951    0.00097     0.75049
      H   19    0.23294      0.00000     0.76611    0.00094     0.76706
      H   20    0.23833      0.00000     0.76065    0.00102     0.76167
      H   21    0.26161      0.00000     0.73676    0.00162     0.73839
      H   22    0.23409      0.00000     0.76490    0.00101     0.76591
      H   23    0.23812      0.00000     0.76098    0.00090     0.76188
      H   24    0.23812      0.00000     0.76088    0.00100     0.76188
      H   25    0.24632      0.00000     0.75262    0.00106     0.75368
      H   26    0.23338      0.00000     0.76574    0.00087     0.76662
      H   27    0.26064      0.00000     0.73836    0.00101     0.73936
      H   28    0.24696      0.00000     0.75227    0.00077     0.75304
      H   29    0.24119      0.00000     0.75760    0.00121     0.75881
      H   30    0.21266      0.00000     0.78624    0.00110     0.78734
      H   31    0.23393      0.00000     0.76512    0.00095     0.76607
      H   32    0.22523      0.00000     0.77374    0.00103     0.77477
 =======================================================================
   * Total *    0.00000     33.98656    87.68763    0.32581   122.00000

                                 Natural Population      
 --------------------------------------------------------
   Core                      33.98656 ( 99.9605% of  34)
   Valence                   87.68763 ( 99.6450% of  88)
   Natural Minimal Basis    121.67419 ( 99.7329% of 122)
   Natural Rydberg Basis      0.32581 (  0.2671% of 122)
 --------------------------------------------------------

    Atom  No          Natural Electron Configuration
 ----------------------------------------------------------------------------
      O    1      [core]2S( 1.70)2p( 4.85)3d( 0.02)
      C    2      [core]2S( 0.79)2p( 2.32)3S( 0.01)3p( 0.03)3d( 0.01)
      C    3      [core]2S( 0.94)2p( 3.20)3p( 0.01)
      C    4      [core]2S( 1.10)2p( 3.57)3p( 0.01)
      C    5      [core]2S( 1.10)2p( 3.57)3p( 0.01)
      C    6      [core]2S( 1.09)2p( 3.57)3p( 0.01)
      O    7      [core]2S( 1.60)2p( 4.89)3p( 0.01)3d( 0.01)
      C    8      [core]2S( 0.85)2p( 2.73)3p( 0.02)3d( 0.01)
      C    9      [core]2S( 0.97)2p( 3.25)3p( 0.01)
      C   10      [core]2S( 0.97)2p( 3.25)3p( 0.01)
      C   11      [core]2S( 0.97)2p( 3.12)3p( 0.01)
      C   12      [core]2S( 0.88)2p( 3.20)3p( 0.01)
      C   13      [core]2S( 0.84)2p( 2.99)3p( 0.02)
      N   14      [core]2S( 1.35)2p( 4.16)3p( 0.01)3d( 0.01)
      C   15      [core]2S( 0.93)2p( 3.04)3p( 0.02)
      C   16      [core]2S( 0.97)2p( 3.28)3p( 0.01)
      C   17      [core]2S( 0.94)2p( 3.34)3p( 0.01)
      H   18            1S( 0.75)
      H   19            1S( 0.77)
      H   20            1S( 0.76)
      H   21            1S( 0.74)
      H   22            1S( 0.76)
      H   23            1S( 0.76)
      H   24            1S( 0.76)
      H   25            1S( 0.75)
      H   26            1S( 0.77)
      H   27            1S( 0.74)
      H   28            1S( 0.75)
      H   29            1S( 0.76)
      H   30            1S( 0.79)
      H   31            1S( 0.77)
      H   32            1S( 0.77)


 NBO analysis skipped by request.
 Leave Link  607 at Wed Sep 29 13:44:26 2021, MaxMem= 1342177280 cpu:      21.6
 (Enter /sw/target/amd/app/gaussian/Gaussian09RevA.02_gcc-4.9.2/g09/l9999.exe)
 1\1\GINC-HERMITE\SP\RTD-B3LYP-FC\6-31G(d)\C14H15N1O2\JSCHLEINITZ\29-Se
 p-2021\0\\#p TD(NStates=10, Root=1) b3lyp/6-31G* volume pop=NPA densit
 y=current Geom=AllCheck Guess=Read\\O=C(C(C)(C)C)Oc1cccc2c1nccc2_conf_
 0\\0,1\O,0,5.3138447217,4.0724966957,-0.8279154125\C,0,4.5854026102,3.
 2348289273,-0.3552447236\C,0,3.0567495439,3.2848001934,-0.3047149477\C
 ,0,2.4662835112,1.963843036,-0.8431414122\C,0,2.6441526457,3.478641174
 1,1.174590809\C,0,2.5736305746,4.4707125948,-1.1538957396\O,0,5.041887
 9383,2.0892798352,0.254487788\C,0,6.393562972,1.8939272555,0.477993177
 \C,0,7.3199962063,1.9070056173,-0.5397461006\C,0,8.6789354693,1.628247
 7008,-0.2627484944\C,0,9.0923799259,1.3361603037,1.0166869391\C,0,8.15
 47675782,1.3169708713,2.0812742241\C,0,6.7757471325,1.6056196223,1.822
 7899094\N,0,5.8269664851,1.6168761311,2.8009822503\C,0,6.2126868816,1.
 3437236555,4.0310034478\C,0,7.5463044971,1.0375481076,4.4001201611\C,0
 ,8.5123846227,1.0262951528,3.4229341889\H,0,2.7809211584,1.1093970684,
 -0.2387160835\H,0,2.7721407645,1.7834727741,-1.8805308583\H,0,1.371709
 8948,2.0180303857,-0.8217571196\H,0,3.0437758897,2.679518504,1.8050490
 349\H,0,1.5506778134,3.481367947,1.2535929425\H,0,3.0128972811,4.43571
 79628,1.561101685\H,0,2.8593026277,4.3508048984,-2.2042111665\H,0,3.00
 25802429,5.4123262391,-0.7997589961\H,0,1.4815219986,4.5434418156,-1.1
 00638095\H,0,7.0035494821,2.1362983877,-1.5499864517\H,0,9.3958192857,
 1.6457880596,-1.0785237587\H,0,10.136308955,1.1189413104,1.2281914946\
 H,0,5.4348201847,1.3619282723,4.7940138696\H,0,7.7856942535,0.82019490
 26,5.4367088778\H,0,9.5495506908,0.7996745068,3.6590253613\\Version=AM
 64L-G09RevA.02\State=1-A\HF=-747.7461242\RMSD=9.009e-09\Dipole=0.27491
 18,-0.3232285,-0.8701791\Quadrupole=9.3223997,-7.4630189,-1.8593808,-3
 .7811574,-0.093809,2.655482\PG=C01 [X(C14H15N1O2)]\\@


 EVERYBODY NEEDS BEAUTY AS WELL AS BREAD, PLACES TO PLAY IN AND PRAY IN,
 WHERE NATURE MAY HEAL AND CHEER AND GIVE STRENGTH TO BODY AND SOUL ALIKE.

                                    -- JOHN MUIR
 Job cpu time:  0 days  4 hours 49 minutes 32.3 seconds.
 File lengths (MBytes):  RWF=    268 Int=      0 D2E=      0 Chk=     37 Scr=      1
 Normal termination of Gaussian 09 at Wed Sep 29 13:44:33 2021.
