 Entering Gaussian System, Link 0=g09
 Input=C14H18O2Si_6237_conf_0.com
 Output=C14H18O2Si_6237_conf_0.log
 Initial command:
 /sw/target/amd/app/gaussian/Gaussian09RevA.02_gcc-4.9.2/g09/l1.exe /home/jschleinitz/gaussian/Gau-3298000.inp -scrdir=/home/jschleinitz/gaussian/
 Entering Link 1 = /sw/target/amd/app/gaussian/Gaussian09RevA.02_gcc-4.9.2/g09/l1.exe PID=   3298006.
  
 Copyright (c) 1988,1990,1992,1993,1995,1998,2003,2009, Gaussian, Inc.
                  All Rights Reserved.
  
 This is part of the Gaussian(R) 09 program.  It is based on
 the Gaussian(R) 03 system (copyright 2003, Gaussian, Inc.),
 the Gaussian(R) 98 system (copyright 1998, Gaussian, Inc.),
 the Gaussian(R) 94 system (copyright 1995, Gaussian, Inc.),
 the Gaussian 92(TM) system (copyright 1992, Gaussian, Inc.),
 the Gaussian 90(TM) system (copyright 1990, Gaussian, Inc.),
 the Gaussian 88(TM) system (copyright 1988, Gaussian, Inc.),
 the Gaussian 86(TM) system (copyright 1986, Carnegie Mellon
 University), and the Gaussian 82(TM) system (copyright 1983,
 Carnegie Mellon University). Gaussian is a federally registered
 trademark of Gaussian, Inc.
  
 This software contains proprietary and confidential information,
 including trade secrets, belonging to Gaussian, Inc.
  
 This software is provided under written license and may be
 used, copied, transmitted, or stored only in accord with that
 written license.
  
 The following legend is applicable only to US Government
 contracts under FAR:
  
                    RESTRICTED RIGHTS LEGEND
  
 Use, reproduction and disclosure by the US Government is
 subject to restrictions as set forth in subparagraphs (a)
 and (c) of the Commercial Computer Software - Restricted
 Rights clause in FAR 52.227-19.
  
 Gaussian, Inc.
 340 Quinnipiac St., Bldg. 40, Wallingford CT 06492
  
  
 ---------------------------------------------------------------
 Warning -- This program may not be used in any manner that
 competes with the business of Gaussian, Inc. or will provide
 assistance to any competitor of Gaussian, Inc.  The licensee
 of this program is prohibited from giving any competitor of
 Gaussian, Inc. access to this program.  By using this program,
 the user acknowledges that Gaussian, Inc. is engaged in the
 business of creating and licensing software in the field of
 computational chemistry and represents and warrants to the
 licensee that it is not a competitor of Gaussian, Inc. and that
 it will not use this program in any manner prohibited above.
 ---------------------------------------------------------------
  

 Cite this work as:
 Gaussian 09, Revision A.02,
 M. J. Frisch, G. W. Trucks, H. B. Schlegel, G. E. Scuseria, 
 M. A. Robb, J. R. Cheeseman, G. Scalmani, V. Barone, B. Mennucci, 
 G. A. Petersson, H. Nakatsuji, M. Caricato, X. Li, H. P. Hratchian, 
 A. F. Izmaylov, J. Bloino, G. Zheng, J. L. Sonnenberg, M. Hada, 
 M. Ehara, K. Toyota, R. Fukuda, J. Hasegawa, M. Ishida, T. Nakajima, 
 Y. Honda, O. Kitao, H. Nakai, T. Vreven, J. A. Montgomery, Jr., 
 J. E. Peralta, F. Ogliaro, M. Bearpark, J. J. Heyd, E. Brothers, 
 K. N. Kudin, V. N. Staroverov, R. Kobayashi, J. Normand, 
 K. Raghavachari, A. Rendell, J. C. Burant, S. S. Iyengar, J. Tomasi, 
 M. Cossi, N. Rega, J. M. Millam, M. Klene, J. E. Knox, J. B. Cross, 
 V. Bakken, C. Adamo, J. Jaramillo, R. Gomperts, R. E. Stratmann, 
 O. Yazyev, A. J. Austin, R. Cammi, C. Pomelli, J. W. Ochterski, 
 R. L. Martin, K. Morokuma, V. G. Zakrzewski, G. A. Voth, 
 P. Salvador, J. J. Dannenberg, S. Dapprich, A. D. Daniels, 
 O. Farkas, J. B. Foresman, J. V. Ortiz, J. Cioslowski, 
 and D. J. Fox, Gaussian, Inc., Wallingford CT, 2009.
 
 ******************************************
 Gaussian 09:  AM64L-G09RevA.02 11-Jun-2009
                28-Sep-2021 
 ******************************************
 %nproc=5
 Will use up to    5 processors via shared memory.
 %mem=10gb
 %chk=C14H18O2Si_6237_conf_0.chk
 -----------------------------------
 #p opt b3lyp/6-31G* scf=(xqc,tight)
 -----------------------------------
 1/14=-1,18=20,19=15,26=3,38=1/1,3;
 2/9=110,12=2,17=6,18=5,40=1/2;
 3/5=1,6=6,7=1,11=2,16=1,25=1,30=1,71=1,74=-5/1,2,3;
 4//1;
 5/5=2,8=3,13=1,32=2,38=5/2,8;
 6/7=2,8=2,9=2,10=2,28=1/1;
 7//1,2,3,16;
 1/14=-1,18=20,19=15/3(2);
 2/9=110/2;
 99//99;
 2/9=110/2;
 3/5=1,6=6,7=1,11=2,16=1,25=1,30=1,71=1,74=-5/1,2,3;
 4/5=5,16=3/1;
 5/5=2,8=3,13=1,32=2,38=5/2,8;
 7//1,2,3,16;
 1/14=-1,18=20,19=15/3(-5);
 2/9=110/2;
 6/7=2,8=2,9=2,10=2,19=2,28=1/1;
 99/9=1/99;
 Leave Link    1 at Tue Sep 28 15:18:09 2021, MaxMem= 1342177280 cpu:       0.1
 (Enter /sw/target/amd/app/gaussian/Gaussian09RevA.02_gcc-4.9.2/g09/l101.exe)
 ---------------------------------------
 COc1ccc2c(c1)ccc(c2)O[Si](C)(C)C_conf_0
 ---------------------------------------
 Symbolic Z-matrix:
 Charge =  0 Multiplicity = 1
 C                     3.01342   0.8249   -1.00582 
 O                     2.31134  -0.11852  -0.20628 
 C                     2.99198  -0.60864   0.87442 
 C                     2.54592  -1.84632   1.33338 
 C                     3.16145  -2.45654   2.42431 
 C                     4.22895  -1.83132   3.08269 
 C                     4.6727   -0.56593   2.64093 
 C                     4.03988   0.03669   1.53707 
 C                     5.73918   0.04969   3.31904 
 C                     6.36855  -0.58941   4.39244 
 C                     5.93989  -1.84794   4.81246 
 C                     4.86344  -2.45341   4.16619 
 O                     6.62949  -2.41633   5.85097 
 Si                    6.51563  -3.89447   6.6285 
 C                     6.73329  -5.3271    5.42328 
 C                     7.83504  -4.06504   7.96027 
 C                     4.83823  -4.08346   7.46408 
 H                     2.4179    1.00658  -1.9057 
 H                     3.9857    0.43127  -1.32142 
 H                     3.12399   1.78021  -0.48374 
 H                     1.72345  -2.34658   0.82788 
 H                     2.80044  -3.4297    2.75302 
 H                     4.37691   1.01639   1.21517 
 H                     6.09479   1.0291    3.00961 
 H                     7.20075  -0.10448   4.89636 
 H                     4.50125  -3.42501   4.48632 
 H                     7.71111  -5.27718   4.93563 
 H                     5.96198  -5.31207   4.64863 
 H                     6.6606   -6.28129   5.95355 
 H                     8.83655  -3.98441   7.5285 
 H                     7.75077  -5.03947   8.45199 
 H                     7.71947  -3.2869    8.71985 
 H                     4.02657  -4.03053   6.73365 
 H                     4.68845  -3.29053   8.20231 
 H                     4.77478  -5.04901   7.97381 
 
 NAtoms=     35 NQM=     35 NQMF=      0 NMic=      0 NMicF=      0 NTot=     35.
                    Isotopes and Nuclear Properties:
 (Nuclear quadrupole moments (NQMom) in fm**2, nuclear magnetic moments (NMagM)
  in nuclear magnetons)

  Atom         1           2           3           4           5           6           7           8           9          10
 IAtWgt=          12          16          12          12          12          12          12          12          12          12
 AtmWgt=  12.0000000  15.9949146  12.0000000  12.0000000  12.0000000  12.0000000  12.0000000  12.0000000  12.0000000  12.0000000
 NucSpn=           0           0           0           0           0           0           0           0           0           0
 AtZEff=   0.0000000   0.0000000   0.0000000   0.0000000   0.0000000   0.0000000   0.0000000   0.0000000   0.0000000   0.0000000
 NQMom=    0.0000000   0.0000000   0.0000000   0.0000000   0.0000000   0.0000000   0.0000000   0.0000000   0.0000000   0.0000000
 NMagM=    0.0000000   0.0000000   0.0000000   0.0000000   0.0000000   0.0000000   0.0000000   0.0000000   0.0000000   0.0000000

  Atom        11          12          13          14          15          16          17          18          19          20
 IAtWgt=          12          12          16          28          12          12          12           1           1           1
 AtmWgt=  12.0000000  12.0000000  15.9949146  27.9769284  12.0000000  12.0000000  12.0000000   1.0078250   1.0078250   1.0078250
 NucSpn=           0           0           0           0           0           0           0           1           1           1
 AtZEff=   0.0000000   0.0000000   0.0000000   0.0000000   0.0000000   0.0000000   0.0000000   0.0000000   0.0000000   0.0000000
 NQMom=    0.0000000   0.0000000   0.0000000   0.0000000   0.0000000   0.0000000   0.0000000   0.0000000   0.0000000   0.0000000
 NMagM=    0.0000000   0.0000000   0.0000000   0.0000000   0.0000000   0.0000000   0.0000000   2.7928460   2.7928460   2.7928460

  Atom        21          22          23          24          25          26          27          28          29          30
 IAtWgt=           1           1           1           1           1           1           1           1           1           1
 AtmWgt=   1.0078250   1.0078250   1.0078250   1.0078250   1.0078250   1.0078250   1.0078250   1.0078250   1.0078250   1.0078250
 NucSpn=           1           1           1           1           1           1           1           1           1           1
 AtZEff=   0.0000000   0.0000000   0.0000000   0.0000000   0.0000000   0.0000000   0.0000000   0.0000000   0.0000000   0.0000000
 NQMom=    0.0000000   0.0000000   0.0000000   0.0000000   0.0000000   0.0000000   0.0000000   0.0000000   0.0000000   0.0000000
 NMagM=    2.7928460   2.7928460   2.7928460   2.7928460   2.7928460   2.7928460   2.7928460   2.7928460   2.7928460   2.7928460

  Atom        31          32          33          34          35
 IAtWgt=           1           1           1           1           1
 AtmWgt=   1.0078250   1.0078250   1.0078250   1.0078250   1.0078250
 NucSpn=           1           1           1           1           1
 AtZEff=   0.0000000   0.0000000   0.0000000   0.0000000   0.0000000
 NQMom=    0.0000000   0.0000000   0.0000000   0.0000000   0.0000000
 NMagM=    2.7928460   2.7928460   2.7928460   2.7928460   2.7928460
 Leave Link  101 at Tue Sep 28 15:18:09 2021, MaxMem= 1342177280 cpu:       0.2
 (Enter /sw/target/amd/app/gaussian/Gaussian09RevA.02_gcc-4.9.2/g09/l103.exe)

 GradGradGradGradGradGradGradGradGradGradGradGradGradGradGradGradGradGrad
 Berny optimization.
 Initialization pass.
                           ----------------------------
                           !    Initial Parameters    !
                           ! (Angstroms and Degrees)  !
 --------------------------                            --------------------------
 ! Name  Definition              Value          Derivative Info.                !
 --------------------------------------------------------------------------------
 ! R1    R(1,2)                  1.422          estimate D2E/DX2                !
 ! R2    R(1,18)                 1.0943         estimate D2E/DX2                !
 ! R3    R(1,19)                 1.0954         estimate D2E/DX2                !
 ! R4    R(1,20)                 1.0943         estimate D2E/DX2                !
 ! R5    R(2,3)                  1.368          estimate D2E/DX2                !
 ! R6    R(3,4)                  1.3934         estimate D2E/DX2                !
 ! R7    R(3,8)                  1.3977         estimate D2E/DX2                !
 ! R8    R(4,5)                  1.3933         estimate D2E/DX2                !
 ! R9    R(4,21)                 1.0873         estimate D2E/DX2                !
 ! R10   R(5,6)                  1.4014         estimate D2E/DX2                !
 ! R11   R(5,22)                 1.0888         estimate D2E/DX2                !
 ! R12   R(6,7)                  1.4118         estimate D2E/DX2                !
 ! R13   R(6,12)                 1.4013         estimate D2E/DX2                !
 ! R14   R(7,8)                  1.4079         estimate D2E/DX2                !
 ! R15   R(7,9)                  1.4058         estimate D2E/DX2                !
 ! R16   R(8,23)                 1.0849         estimate D2E/DX2                !
 ! R17   R(9,10)                 1.3988         estimate D2E/DX2                !
 ! R18   R(9,24)                 1.0869         estimate D2E/DX2                !
 ! R19   R(10,11)                1.3943         estimate D2E/DX2                !
 ! R20   R(10,25)                1.087          estimate D2E/DX2                !
 ! R21   R(11,12)                1.3939         estimate D2E/DX2                !
 ! R22   R(11,13)                1.3701         estimate D2E/DX2                !
 ! R23   R(12,26)                1.0852         estimate D2E/DX2                !
 ! R24   R(13,14)                1.674          estimate D2E/DX2                !
 ! R25   R(14,15)                1.8848         estimate D2E/DX2                !
 ! R26   R(14,16)                1.8824         estimate D2E/DX2                !
 ! R27   R(14,17)                1.8835         estimate D2E/DX2                !
 ! R28   R(15,27)                1.0938         estimate D2E/DX2                !
 ! R29   R(15,28)                1.0933         estimate D2E/DX2                !
 ! R30   R(15,29)                1.094          estimate D2E/DX2                !
 ! R31   R(16,30)                1.0936         estimate D2E/DX2                !
 ! R32   R(16,31)                1.0947         estimate D2E/DX2                !
 ! R33   R(16,32)                1.0935         estimate D2E/DX2                !
 ! R34   R(17,33)                1.0932         estimate D2E/DX2                !
 ! R35   R(17,34)                1.0937         estimate D2E/DX2                !
 ! R36   R(17,35)                1.0937         estimate D2E/DX2                !
 ! A1    A(2,1,18)             107.6876         estimate D2E/DX2                !
 ! A2    A(2,1,19)             111.2112         estimate D2E/DX2                !
 ! A3    A(2,1,20)             111.1508         estimate D2E/DX2                !
 ! A4    A(18,1,19)            107.8046         estimate D2E/DX2                !
 ! A5    A(18,1,20)            107.6015         estimate D2E/DX2                !
 ! A6    A(19,1,20)            111.1923         estimate D2E/DX2                !
 ! A7    A(1,2,3)              115.8623         estimate D2E/DX2                !
 ! A8    A(2,3,4)              114.7825         estimate D2E/DX2                !
 ! A9    A(2,3,8)              125.6008         estimate D2E/DX2                !
 ! A10   A(4,3,8)              119.6012         estimate D2E/DX2                !
 ! A11   A(3,4,5)              120.3645         estimate D2E/DX2                !
 ! A12   A(3,4,21)             119.8486         estimate D2E/DX2                !
 ! A13   A(5,4,21)             119.7796         estimate D2E/DX2                !
 ! A14   A(4,5,6)              120.5944         estimate D2E/DX2                !
 ! A15   A(4,5,22)             118.7742         estimate D2E/DX2                !
 ! A16   A(6,5,22)             120.6309         estimate D2E/DX2                !
 ! A17   A(5,6,7)              119.4908         estimate D2E/DX2                !
 ! A18   A(5,6,12)             120.6711         estimate D2E/DX2                !
 ! A19   A(7,6,12)             119.8366         estimate D2E/DX2                !
 ! A20   A(6,7,8)              119.189          estimate D2E/DX2                !
 ! A21   A(6,7,9)              118.6862         estimate D2E/DX2                !
 ! A22   A(8,7,9)              122.1245         estimate D2E/DX2                !
 ! A23   A(3,8,7)              120.7357         estimate D2E/DX2                !
 ! A24   A(3,8,23)             120.6079         estimate D2E/DX2                !
 ! A25   A(7,8,23)             118.6548         estimate D2E/DX2                !
 ! A26   A(7,9,10)             120.7572         estimate D2E/DX2                !
 ! A27   A(7,9,24)             120.3632         estimate D2E/DX2                !
 ! A28   A(10,9,24)            118.8769         estimate D2E/DX2                !
 ! A29   A(9,10,11)            120.3467         estimate D2E/DX2                !
 ! A30   A(9,10,25)            119.7589         estimate D2E/DX2                !
 ! A31   A(11,10,25)           119.8929         estimate D2E/DX2                !
 ! A32   A(10,11,12)           119.3286         estimate D2E/DX2                !
 ! A33   A(10,11,13)           116.6195         estimate D2E/DX2                !
 ! A34   A(12,11,13)           124.0507         estimate D2E/DX2                !
 ! A35   A(6,12,11)            121.0196         estimate D2E/DX2                !
 ! A36   A(6,12,26)            118.3242         estimate D2E/DX2                !
 ! A37   A(11,12,26)           120.6543         estimate D2E/DX2                !
 ! A38   A(11,13,14)           133.168          estimate D2E/DX2                !
 ! A39   A(13,14,15)           111.4875         estimate D2E/DX2                !
 ! A40   A(13,14,16)           111.1574         estimate D2E/DX2                !
 ! A41   A(13,14,17)           110.8071         estimate D2E/DX2                !
 ! A42   A(15,14,16)           107.6123         estimate D2E/DX2                !
 ! A43   A(15,14,17)           108.0747         estimate D2E/DX2                !
 ! A44   A(16,14,17)           107.5337         estimate D2E/DX2                !
 ! A45   A(14,15,27)           110.7095         estimate D2E/DX2                !
 ! A46   A(14,15,28)           111.172          estimate D2E/DX2                !
 ! A47   A(14,15,29)           110.202          estimate D2E/DX2                !
 ! A48   A(27,15,28)           108.311          estimate D2E/DX2                !
 ! A49   A(27,15,29)           108.3781         estimate D2E/DX2                !
 ! A50   A(28,15,29)           107.9715         estimate D2E/DX2                !
 ! A51   A(14,16,30)           110.8478         estimate D2E/DX2                !
 ! A52   A(14,16,31)           110.1498         estimate D2E/DX2                !
 ! A53   A(14,16,32)           110.6625         estimate D2E/DX2                !
 ! A54   A(30,16,31)           108.2684         estimate D2E/DX2                !
 ! A55   A(30,16,32)           108.5768         estimate D2E/DX2                !
 ! A56   A(31,16,32)           108.2552         estimate D2E/DX2                !
 ! A57   A(14,17,33)           111.0965         estimate D2E/DX2                !
 ! A58   A(14,17,34)           110.4055         estimate D2E/DX2                !
 ! A59   A(14,17,35)           110.3046         estimate D2E/DX2                !
 ! A60   A(33,17,34)           108.3135         estimate D2E/DX2                !
 ! A61   A(33,17,35)           108.1239         estimate D2E/DX2                !
 ! A62   A(34,17,35)           108.5138         estimate D2E/DX2                !
 ! D1    D(18,1,2,3)           171.2708         estimate D2E/DX2                !
 ! D2    D(19,1,2,3)            53.364          estimate D2E/DX2                !
 ! D3    D(20,1,2,3)           -71.1029         estimate D2E/DX2                !
 ! D4    D(1,2,3,4)           -156.5855         estimate D2E/DX2                !
 ! D5    D(1,2,3,8)             24.8666         estimate D2E/DX2                !
 ! D6    D(2,3,4,5)            179.6664         estimate D2E/DX2                !
 ! D7    D(2,3,4,21)             0.6555         estimate D2E/DX2                !
 ! D8    D(8,3,4,5)             -1.6915         estimate D2E/DX2                !
 ! D9    D(8,3,4,21)           179.2976         estimate D2E/DX2                !
 ! D10   D(2,3,8,7)           -179.8263         estimate D2E/DX2                !
 ! D11   D(2,3,8,23)             0.6475         estimate D2E/DX2                !
 ! D12   D(4,3,8,7)              1.69           estimate D2E/DX2                !
 ! D13   D(4,3,8,23)          -177.8363         estimate D2E/DX2                !
 ! D14   D(3,4,5,6)              0.5458         estimate D2E/DX2                !
 ! D15   D(3,4,5,22)          -179.2026         estimate D2E/DX2                !
 ! D16   D(21,4,5,6)           179.5573         estimate D2E/DX2                !
 ! D17   D(21,4,5,22)           -0.1911         estimate D2E/DX2                !
 ! D18   D(4,5,6,7)              0.6135         estimate D2E/DX2                !
 ! D19   D(4,5,6,12)          -178.9457         estimate D2E/DX2                !
 ! D20   D(22,5,6,7)          -179.6428         estimate D2E/DX2                !
 ! D21   D(22,5,6,12)            0.798          estimate D2E/DX2                !
 ! D22   D(5,6,7,8)             -0.6126         estimate D2E/DX2                !
 ! D23   D(5,6,7,9)            179.5961         estimate D2E/DX2                !
 ! D24   D(12,6,7,8)           178.9504         estimate D2E/DX2                !
 ! D25   D(12,6,7,9)            -0.841          estimate D2E/DX2                !
 ! D26   D(5,6,12,11)          178.9444         estimate D2E/DX2                !
 ! D27   D(5,6,12,26)           -0.5464         estimate D2E/DX2                !
 ! D28   D(7,6,12,11)           -0.6133         estimate D2E/DX2                !
 ! D29   D(7,6,12,26)          179.8959         estimate D2E/DX2                !
 ! D30   D(6,7,8,3)             -0.5373         estimate D2E/DX2                !
 ! D31   D(6,7,8,23)           178.9981         estimate D2E/DX2                !
 ! D32   D(9,7,8,3)            179.2466         estimate D2E/DX2                !
 ! D33   D(9,7,8,23)            -1.218          estimate D2E/DX2                !
 ! D34   D(6,7,9,10)             1.3492         estimate D2E/DX2                !
 ! D35   D(6,7,9,24)          -179.2553         estimate D2E/DX2                !
 ! D36   D(8,7,9,10)          -178.4357         estimate D2E/DX2                !
 ! D37   D(8,7,9,24)             0.9598         estimate D2E/DX2                !
 ! D38   D(7,9,10,11)           -0.4073         estimate D2E/DX2                !
 ! D39   D(7,9,10,25)          179.1482         estimate D2E/DX2                !
 ! D40   D(24,9,10,11)        -179.8117         estimate D2E/DX2                !
 ! D41   D(24,9,10,25)          -0.2561         estimate D2E/DX2                !
 ! D42   D(9,10,11,12)          -1.0542         estimate D2E/DX2                !
 ! D43   D(9,10,11,13)         178.578          estimate D2E/DX2                !
 ! D44   D(25,10,11,12)        179.3909         estimate D2E/DX2                !
 ! D45   D(25,10,11,13)         -0.977          estimate D2E/DX2                !
 ! D46   D(10,11,12,6)           1.5667         estimate D2E/DX2                !
 ! D47   D(10,11,12,26)       -178.9544         estimate D2E/DX2                !
 ! D48   D(13,11,12,6)        -178.0365         estimate D2E/DX2                !
 ! D49   D(13,11,12,26)          1.4425         estimate D2E/DX2                !
 ! D50   D(10,11,13,14)       -177.244          estimate D2E/DX2                !
 ! D51   D(12,11,13,14)          2.3689         estimate D2E/DX2                !
 ! D52   D(11,13,14,15)         57.781          estimate D2E/DX2                !
 ! D53   D(11,13,14,16)        177.8493         estimate D2E/DX2                !
 ! D54   D(11,13,14,17)        -62.6358         estimate D2E/DX2                !
 ! D55   D(13,14,15,27)         59.8084         estimate D2E/DX2                !
 ! D56   D(13,14,15,28)        -60.6303         estimate D2E/DX2                !
 ! D57   D(13,14,15,29)        179.6942         estimate D2E/DX2                !
 ! D58   D(16,14,15,27)        -62.3279         estimate D2E/DX2                !
 ! D59   D(16,14,15,28)        177.2333         estimate D2E/DX2                !
 ! D60   D(16,14,15,29)         57.5579         estimate D2E/DX2                !
 ! D61   D(17,14,15,27)       -178.1829         estimate D2E/DX2                !
 ! D62   D(17,14,15,28)         61.3783         estimate D2E/DX2                !
 ! D63   D(17,14,15,29)        -58.2971         estimate D2E/DX2                !
 ! D64   D(13,14,16,30)        -59.7376         estimate D2E/DX2                !
 ! D65   D(13,14,16,31)       -179.5416         estimate D2E/DX2                !
 ! D66   D(13,14,16,32)         60.7893         estimate D2E/DX2                !
 ! D67   D(15,14,16,30)         62.603          estimate D2E/DX2                !
 ! D68   D(15,14,16,31)        -57.201          estimate D2E/DX2                !
 ! D69   D(15,14,16,32)       -176.8701         estimate D2E/DX2                !
 ! D70   D(17,14,16,30)        178.8138         estimate D2E/DX2                !
 ! D71   D(17,14,16,31)         59.0098         estimate D2E/DX2                !
 ! D72   D(17,14,16,32)        -60.6593         estimate D2E/DX2                !
 ! D73   D(13,14,17,33)         60.4257         estimate D2E/DX2                !
 ! D74   D(13,14,17,34)        -59.7635         estimate D2E/DX2                !
 ! D75   D(13,14,17,35)       -179.6896         estimate D2E/DX2                !
 ! D76   D(15,14,17,33)        -62.0006         estimate D2E/DX2                !
 ! D77   D(15,14,17,34)        177.8102         estimate D2E/DX2                !
 ! D78   D(15,14,17,35)         57.8841         estimate D2E/DX2                !
 ! D79   D(16,14,17,33)       -177.9069         estimate D2E/DX2                !
 ! D80   D(16,14,17,34)         61.9039         estimate D2E/DX2                !
 ! D81   D(16,14,17,35)        -58.0222         estimate D2E/DX2                !
 --------------------------------------------------------------------------------
 Trust Radius=3.00D-01 FncErr=1.00D-07 GrdErr=1.00D-06
 Number of steps in this run= 189 maximum allowed number of steps= 210.
 GradGradGradGradGradGradGradGradGradGradGradGradGradGradGradGradGradGrad

 Leave Link  103 at Tue Sep 28 15:18:09 2021, MaxMem= 1342177280 cpu:       0.0
 (Enter /sw/target/amd/app/gaussian/Gaussian09RevA.02_gcc-4.9.2/g09/l202.exe)
                          Input orientation:                          
 ---------------------------------------------------------------------
 Center     Atomic      Atomic             Coordinates (Angstroms)
 Number     Number       Type             X           Y           Z
 ---------------------------------------------------------------------
      1          6           0        3.013417    0.824904   -1.005815
      2          8           0        2.311339   -0.118522   -0.206283
      3          6           0        2.991982   -0.608638    0.874424
      4          6           0        2.545924   -1.846316    1.333376
      5          6           0        3.161450   -2.456538    2.424310
      6          6           0        4.228949   -1.831316    3.082690
      7          6           0        4.672695   -0.565931    2.640934
      8          6           0        4.039885    0.036686    1.537070
      9          6           0        5.739177    0.049692    3.319043
     10          6           0        6.368547   -0.589413    4.392442
     11          6           0        5.939893   -1.847942    4.812462
     12          6           0        4.863436   -2.453413    4.166186
     13          8           0        6.629492   -2.416335    5.850970
     14         14           0        6.515630   -3.894466    6.628504
     15          6           0        6.733291   -5.327103    5.423278
     16          6           0        7.835043   -4.065037    7.960268
     17          6           0        4.838227   -4.083457    7.464082
     18          1           0        2.417899    1.006585   -1.905700
     19          1           0        3.985704    0.431265   -1.321423
     20          1           0        3.123986    1.780212   -0.483738
     21          1           0        1.723450   -2.346580    0.827883
     22          1           0        2.800440   -3.429700    2.753018
     23          1           0        4.376913    1.016395    1.215172
     24          1           0        6.094794    1.029100    3.009607
     25          1           0        7.200752   -0.104481    4.896361
     26          1           0        4.501247   -3.425008    4.486325
     27          1           0        7.711112   -5.277183    4.935632
     28          1           0        5.961984   -5.312074    4.648634
     29          1           0        6.660599   -6.281286    5.953547
     30          1           0        8.836551   -3.984409    7.528496
     31          1           0        7.750768   -5.039473    8.451991
     32          1           0        7.719467   -3.286904    8.719850
     33          1           0        4.026569   -4.030532    6.733651
     34          1           0        4.688449   -3.290531    8.202305
     35          1           0        4.774780   -5.049013    7.973814
 ---------------------------------------------------------------------
                    Distance matrix (angstroms):
                    1          2          3          4          5
     1  C    0.000000
     2  O    1.422047   0.000000
     3  C    2.364487   1.367997   0.000000
     4  C    3.581310   2.326124   1.393359   0.000000
     5  C    4.749266   3.620639   2.417767   1.393334   0.000000
     6  C    5.024828   4.174714   2.810955   2.427529   1.401399
     7  C    4.241038   3.725966   2.438684   2.805753   2.430058
     8  C    2.853277   2.459927   1.397728   2.412282   2.788369
     9  C    5.170601   4.919988   3.735859   4.211244   3.704916
    10  C    6.511403   6.150687   4.876271   5.054715   4.200615
    11  C    7.039937   6.430015   5.072889   4.860357   3.713947
    12  C    6.396838   5.575249   4.212035   3.710019   2.435343
    13  O    8.402210   7.785673   6.423804   6.116298   4.875544
    14  Si   9.634354   8.868378   7.504812   6.927616   5.567172
    15  C    9.644578   8.852962   7.546747   6.810082   5.476495
    16  C   11.293815  10.619738   9.252628   8.764314   7.421359
    17  C    9.957967   8.996687   7.675063   6.917009   5.554975
    18  H    1.094278   2.040892   3.266130   4.318223   5.594200
    19  H    1.095400   2.085497   2.625000   3.782631   4.800970
    20  H    1.094259   2.083883   2.751115   4.097287   5.138890
    21  H    3.883912   2.525738   2.152157   1.087314   2.151399
    22  H    5.681183   4.467727   3.394731   2.141791   1.088771
    23  H    2.613154   2.752302   2.162146   3.400236   3.873064
    24  H    5.065590   5.096422   4.107145   4.865413   4.593120
    25  H    7.296109   7.067073   5.843278   6.115249   5.287642
    26  H    7.102041   6.144031   4.822411   4.031953   2.642895
    27  H    9.726489   9.066897   7.781961   7.171211   5.912884
    28  H    8.850386   7.991896   6.722193   5.888283   4.576537
    29  H   10.593988   9.738543   8.451933   7.612193   6.271224
    30  H   11.396177  10.832834   9.477948   9.084214   7.784207
    31  H   12.094772  11.347637   9.984882   9.378770   8.004145
    32  H   11.560382  10.906986   9.543214   9.132406   7.816575
    33  H    9.192446   8.149142   6.863692   6.010497   4.668651
    34  H   10.224090   9.296056   7.985512   7.338825   6.034277
    35  H   10.873778   9.863684   8.561346   7.701979   6.334095
                    6          7          8          9         10
     6  C    0.000000
     7  C    1.411828   0.000000
     8  C    2.431895   1.407874   0.000000
     9  C    2.423807   1.405776   2.462354   0.000000
    10  C    2.799224   2.438083   3.737354   1.398838   0.000000
    11  C    2.433046   2.822212   4.229663   2.423140   1.394295
    12  C    1.401265   2.434208   3.713634   2.783902   2.406460
    13  O    3.710556   4.190153   5.597598   3.644805   2.352242
    14  Si   4.696626   5.511467   6.892457   5.206899   3.993117
    15  C    4.895979   5.886957   7.150334   5.858839   4.862239
    16  C    6.464069   7.109114   8.513802   6.547108   5.192298
    17  C    4.963865   5.971863   7.262396   5.922498   4.897469
    18  H    6.018108   5.313078   3.927367   6.264541   7.604040
    19  H    4.957283   4.143263   2.886107   4.975358   6.274391
    20  H    5.194563   4.203149   2.821776   4.929002   6.318183
    21  H    3.409865   3.893060   3.398348   5.298496   6.113154
    22  H    2.168906   3.423314   3.876929   4.589414   4.846270
    23  H    3.408661   2.150358   1.084913   2.686364   4.079249
    24  H    3.415947   2.168504   2.715862   1.086947   2.146335
    25  H    3.886254   3.419204   4.614742   2.155900   1.087040
    26  H    2.141072   3.407225   4.571026   3.868922   3.396502
    27  H    5.237638   6.057517   7.298310   5.905717   4.906397
    28  H    4.191810   5.312156   6.479624   5.528652   4.747048
    29  H    5.827261   6.898583   8.141878   6.918881   5.909295
    30  H    6.755072   7.274061   8.664548   6.602060   5.239454
    31  H    7.178083   7.953332   9.346345   7.502883   6.180090
    32  H    6.788227   7.323915   8.727995   6.650048   5.275216
    33  H    4.266969   5.401044   6.599006   5.589347   4.775712
    34  H    5.343305   6.192943   7.477724   6.008941   4.963248
    35  H    5.880017   6.967644   8.236266   6.970922   5.937538
                   11         12         13         14         15
    11  C    0.000000
    12  C    1.393925   0.000000
    13  O    1.370079   2.441070   0.000000
    14  Si   2.796022   3.296875   1.674035   0.000000
    15  C    3.620378   3.651675   2.943852   1.884780   0.000000
    16  C    4.291362   5.081617   2.936104   1.882430   3.040228
    17  C    3.638994   3.678831   2.930879   1.883504   3.050049
    18  H    8.104719   7.404056   9.466775  10.660410  10.604345
    19  H    6.829216   6.261441   8.157307   9.397543   9.284344
    20  H    7.010176   6.524650   8.368280   9.710263   9.921383
    21  H    5.822706   4.584233   7.021789   7.681676   7.422916
    22  H    4.074239   2.684424   5.028503   5.388694   5.118373
    23  H    4.856731   4.580912   6.192606   7.615434   7.968729
    24  H    3.398772   3.870635   4.497807   6.124950   6.828968
    25  H    2.153245   3.393182   2.565597   4.222997   5.269909
    26  H    2.159445   1.085203   2.721967   2.977761   3.078615
    27  H    3.861616   4.083501   3.192522   2.491365   1.093812
    28  H    3.468074   3.100243   3.205696   2.497203   1.093259
    29  H    4.634223   4.590976   3.866437   2.484652   1.094045
    30  H    4.509098   5.425378   3.184975   2.490934   3.264731
    31  H    5.168298   5.778626   3.860495   2.482280   3.207973
    32  H    4.528264   5.439437   3.190048   2.488390   4.000293
    33  H    3.480728   3.127223   3.187470   2.494993   3.274831
    34  H    3.890785   4.125729   3.171851   2.485996   4.006494
    35  H    4.647417   4.609016   3.857125   2.484631   3.227744
                   16         17         18         19         20
    16  C    0.000000
    17  C    3.037671   0.000000
    18  H   12.345207  10.934319   0.000000
    19  H   11.008357   9.914364   1.769289   0.000000
    20  H   11.298771  10.024424   1.766079   1.806634   0.000000
    21  H    9.548591   7.533772   4.381603   4.177766   4.551072
    22  H    7.270923   5.174369   6.444426   5.736983   6.142024
    23  H    9.125565   8.078996   3.684790   2.632439   2.244891
    24  H    7.313531   6.896343   6.138430   4.854224   4.646863
    25  H    5.047361   5.292161   8.389171   7.020284   7.008391
    26  H    4.857172   3.068249   8.052164   6.990462   7.327529
    27  H    3.260841   4.008928  10.691477   9.252880  10.010900
    28  H    4.003795   3.270945   9.769610   8.516643   9.203043
    29  H    3.212166   3.230047  11.527416  10.253711  10.905687
    30  H    1.093594   4.000069  12.454444  11.015896  11.404392
    31  H    1.094723   3.220687  13.125398  11.816273  12.155759
    32  H    1.093532   3.242375  12.627074  11.339882  11.467351
    33  H    4.001282   1.093216  10.129104   9.208339   9.309678
    34  H    3.249537   1.093681  11.215720  10.249245  10.178769
    35  H    3.214592   1.093687  11.824972  10.819312  10.995164
                   21         22         23         24         25
    21  H    0.000000
    22  H    2.457479   0.000000
    23  H    4.301216   4.961653   0.000000
    24  H    5.938332   5.549730   2.484206   0.000000
    25  H    7.181946   5.917241   4.773005   2.463328   0.000000
    26  H    4.718406   2.428398   5.517423   4.955720   4.298995
    27  H    7.830334   5.682578   8.035411   6.789054   5.197967
    28  H    6.430977   4.139088   7.372288   6.550919   5.358633
    29  H    8.132022   5.768513   8.995752   7.901181   6.289859
    30  H    9.908426   7.716704   9.206220   7.285112   4.965664
    31  H   10.085002   7.718511  10.021376   8.318014   6.107305
    32  H    9.955882   7.734358   9.274225   7.339913   5.001595
    33  H    6.558822   4.208304   7.486509   6.614071   5.372611
    34  H    8.004022   5.768767   8.213812   6.899357   5.233722
    35  H    8.226670   5.811790   9.089924   7.957967   6.309077
                   26         27         28         29         30
    26  H    0.000000
    27  H    3.733050   0.000000
    28  H    2.391886   1.772860   0.000000
    29  H    3.869608   1.774246   1.769246   0.000000
    30  H    5.325655   3.108187   4.280121   3.534243   0.000000
    31  H    5.375165   3.524608   4.211839   2.995462   1.773394
    32  H    5.319657   4.275698   4.874922   4.211884   1.775870
    33  H    2.375385   4.285192   3.120173   3.551418   4.875432
    34  H    3.723122   4.873852   4.282185   4.229764   4.259371
    35  H    3.856786   4.231389   3.540548   3.025936   4.222519
                   31         32         33         34         35
    31  H    0.000000
    32  H    1.773197   0.000000
    33  H    4.223780   4.258576   0.000000
    34  H    3.535384   3.074888   1.772747   0.000000
    35  H    3.014175   3.511806   1.770629   1.775365   0.000000
 Stoichiometry    C14H18O2Si
 Framework group  C1[X(C14H18O2Si)]
 Deg. of freedom    99
 Full point group                 C1      NOp   1
 Largest Abelian subgroup         C1      NOp   1
 Largest concise Abelian subgroup C1      NOp   1
                         Standard orientation:                         
 ---------------------------------------------------------------------
 Center     Atomic      Atomic             Coordinates (Angstroms)
 Number     Number       Type             X           Y           Z
 ---------------------------------------------------------------------
      1          6           0        5.923255    0.415430    0.452908
      2          8           0        5.165760   -0.665792   -0.075653
      3          6           0        3.808830   -0.492765   -0.090406
      4          6           0        3.069646   -1.673708   -0.111182
      5          6           0        1.676944   -1.632827   -0.120688
      6          6           0        0.999378   -0.406115   -0.121020
      7          6           0        1.739056    0.796433   -0.124775
      8          6           0        3.145657    0.737374   -0.114975
      9          6           0        1.042166    2.017281   -0.133744
     10          6           0       -0.356245    2.042932   -0.110557
     11          6           0       -1.082334    0.852856   -0.086628
     12          6           0       -0.401170   -0.363107   -0.108396
     13          8           0       -2.446647    0.967074   -0.034485
     14         14           0       -3.686611   -0.152926    0.067914
     15          6           0       -3.508845   -1.241937    1.595935
     16          6           0       -5.363408    0.696928    0.166115
     17          6           0       -3.705068   -1.271090   -1.447656
     18          1           0        6.960459    0.079748    0.547618
     19          1           0        5.569724    0.696510    1.450861
     20          1           0        5.913826    1.273351   -0.226272
     21          1           0        3.581716   -2.632863   -0.103754
     22          1           0        1.125087   -2.571373   -0.123661
     23          1           0        3.705524    1.666459   -0.134601
     24          1           0        1.584271    2.959270   -0.149008
     25          1           0       -0.878364    2.996349   -0.103902
     26          1           0       -0.945146   -1.302125   -0.107500
     27          1           0       -3.525590   -0.636308    2.506626
     28          1           0       -2.570896   -1.803167    1.573871
     29          1           0       -4.331622   -1.961361    1.644942
     30          1           0       -5.419400    1.347122    1.043645
     31          1           0       -6.160713   -0.049509    0.240648
     32          1           0       -5.542537    1.301433   -0.727361
     33          1           0       -2.766593   -1.824119   -1.540088
     34          1           0       -3.846136   -0.679254   -2.356484
     35          1           0       -4.521138   -1.995577   -1.374859
 ---------------------------------------------------------------------
 Rotational constants (GHZ):      1.2475940      0.1734701      0.1606147
 Leave Link  202 at Tue Sep 28 15:18:10 2021, MaxMem= 1342177280 cpu:       0.0
 (Enter /sw/target/amd/app/gaussian/Gaussian09RevA.02_gcc-4.9.2/g09/l301.exe)
 Standard basis: 6-31G(d) (6D, 7F)
 Ernie: Thresh=  0.10000D-02 Tol=  0.10000D-05 Strict=F.
 There are   295 symmetry adapted basis functions of A   symmetry.
 Integral buffers will be    131072 words long.
 Raffenetti 2 integral format.
 Two-electron integral symmetry is turned on.
   295 basis functions,   572 primitive gaussians,   295 cartesian basis functions
    66 alpha electrons       66 beta electrons
       nuclear repulsion energy      1259.7978006190 Hartrees.
 IExCor=  402 DFT=T Ex+Corr=B3LYP ExCW=0 ScaHFX=  0.200000
 ScaDFX=  0.800000  0.720000  1.000000  0.810000 ScalE2=  1.000000  1.000000
 IRadAn=      0 IRanWt=     -1 IRanGd=            0 ICorTp=0
 NAtoms=   35 NActive=   35 NUniq=   35 SFac= 7.50D-01 NAtFMM=   80 NAOKFM=F Big=F
 Leave Link  301 at Tue Sep 28 15:18:10 2021, MaxMem= 1342177280 cpu:       0.1
 (Enter /sw/target/amd/app/gaussian/Gaussian09RevA.02_gcc-4.9.2/g09/l302.exe)
 NPDir=0 NMtPBC=     1 NCelOv=     1 NCel=       1 NClECP=     1 NCelD=      1
         NCelK=      1 NCelE2=     1 NClLst=     1 CellRange=     0.0.
 One-electron integrals computed using PRISM.
 NBasis=   295 RedAO= T  NBF=   295
 NBsUse=   295 1.00D-06 NBFU=   295
 Precomputing XC quadrature grid using
 IXCGrd= 2 IRadAn=           0 IRanWt=          -1 IRanGd=           0 AccXCQ= 1.00D-10.
 NRdTot=    2239 NPtTot=      285314 NUsed=      301455 NTot=      301487
 NSgBfM=   291   291   291   291   291 NAtAll=    35    35.
 Leave Link  302 at Tue Sep 28 15:18:11 2021, MaxMem= 1342177280 cpu:       3.0
 (Enter /sw/target/amd/app/gaussian/Gaussian09RevA.02_gcc-4.9.2/g09/l303.exe)
 DipDrv:  MaxL=1.
 Leave Link  303 at Tue Sep 28 15:18:12 2021, MaxMem= 1342177280 cpu:       0.2
 (Enter /sw/target/amd/app/gaussian/Gaussian09RevA.02_gcc-4.9.2/g09/l401.exe)
 Harris functional with IExCor=  402 diagonalized for initial guess.
 ExpMin= 7.78D-02 ExpMax= 1.61D+04 ExpMxC= 2.43D+03 IAcc=2 IRadAn=         0 AccDes= 0.00D+00
 HarFok:  IExCor=  402 AccDes= 0.00D+00 IRadAn=         0 IDoV= 1
 ScaDFX=  1.000000  1.000000  1.000000  1.000000
 FoFCou: FMM=F IPFlag=           0 FMFlag=      100000 FMFlg1=           0
         NFxFlg=           0 DoJE=T BraDBF=F KetDBF=T FulRan=T
         Omega=  0.000000  0.000000  1.000000  0.000000  0.000000 ICntrl=     500 IOpCl=  0
         NMat0=    1 NMatS0=    1 NMatT0=    0 NMatD0=    1 NMtDS0=    0 NMtDT0=    0
         I1Cent=           4 NGrid=           0.
 Petite list used in FoFCou.
 Harris En= -984.549138540593    
 Initial guess orbital symmetries:
       Occupied  (A) (A) (A) (A) (A) (A) (A) (A) (A) (A) (A) (A)
                 (A) (A) (A) (A) (A) (A) (A) (A) (A) (A) (A) (A)
                 (A) (A) (A) (A) (A) (A) (A) (A) (A) (A) (A) (A)
                 (A) (A) (A) (A) (A) (A) (A) (A) (A) (A) (A) (A)
                 (A) (A) (A) (A) (A) (A) (A) (A) (A) (A) (A) (A)
                 (A) (A) (A) (A) (A) (A)
       Virtual   (A) (A) (A) (A) (A) (A) (A) (A) (A) (A) (A) (A)
                 (A) (A) (A) (A) (A) (A) (A) (A) (A) (A) (A) (A)
                 (A) (A) (A) (A) (A) (A) (A) (A) (A) (A) (A) (A)
                 (A) (A) (A) (A) (A) (A) (A) (A) (A) (A) (A) (A)
                 (A) (A) (A) (A) (A) (A) (A) (A) (A) (A) (A) (A)
                 (A) (A) (A) (A) (A) (A) (A) (A) (A) (A) (A) (A)
                 (A) (A) (A) (A) (A) (A) (A) (A) (A) (A) (A) (A)
                 (A) (A) (A) (A) (A) (A) (A) (A) (A) (A) (A) (A)
                 (A) (A) (A) (A) (A) (A) (A) (A) (A) (A) (A) (A)
                 (A) (A) (A) (A) (A) (A) (A) (A) (A) (A) (A) (A)
                 (A) (A) (A) (A) (A) (A) (A) (A) (A) (A) (A) (A)
                 (A) (A) (A) (A) (A) (A) (A) (A) (A) (A) (A) (A)
                 (A) (A) (A) (A) (A) (A) (A) (A) (A) (A) (A) (A)
                 (A) (A) (A) (A) (A) (A) (A) (A) (A) (A) (A) (A)
                 (A) (A) (A) (A) (A) (A) (A) (A) (A) (A) (A) (A)
                 (A) (A) (A) (A) (A) (A) (A) (A) (A) (A) (A) (A)
                 (A) (A) (A) (A) (A) (A) (A) (A) (A) (A) (A) (A)
                 (A) (A) (A) (A) (A) (A) (A) (A) (A) (A) (A) (A)
                 (A) (A) (A) (A) (A) (A) (A) (A) (A) (A) (A) (A)
                 (A)
 The electronic state of the initial guess is 1-A.
 Leave Link  401 at Tue Sep 28 15:18:27 2021, MaxMem= 1342177280 cpu:      29.5
 (Enter /sw/target/amd/app/gaussian/Gaussian09RevA.02_gcc-4.9.2/g09/l502.exe)
 Closed shell SCF:
 Requested convergence on RMS density matrix=1.00D-08 within  64 cycles.
 Requested convergence on MAX density matrix=1.00D-06.
 Requested convergence on             energy=1.00D-06.
 No special actions if energy rises.
 Using DIIS extrapolation, IDIIS=  1040.
 Integral symmetry usage will be decided dynamically.
       301127 words used for storage of precomputed grid.
 Keep R1 ints in memory in canonical form, NReq=966658414.
 IEnd=      571750 IEndB=      571750 NGot=  1342177280 MDV=   388577417
 LenX=   388577417 LenY=   388489951
 Symmetry not used in FoFDir.
 MinBra= 0 MaxBra= 2 Meth= 1.
 IRaf=       0 NMat=   1 IRICut=       1 DoRegI=T DoRafI=F ISym2E= 0 JSym2E=0.
 Integral accuracy reduced to 1.0D-05 until final iterations.

 Cycle   1  Pass 0  IDiag  1:
 E= -983.710950470819    
 DIIS: error= 5.24D-02 at cycle   1 NSaved=   1.
 NSaved= 1 IEnMin= 1 EnMin= -983.710950470819     IErMin= 1 ErrMin= 5.24D-02
 ErrMax= 5.24D-02 EMaxC= 1.00D-01 BMatC= 6.22D-01 BMatP= 6.22D-01
 IDIUse=3 WtCom= 4.76D-01 WtEn= 5.24D-01
 Coeff-Com:  0.100D+01
 Coeff-En:   0.100D+01
 Coeff:      0.100D+01
 Gap=     0.176 Goal=   None    Shift=    0.000
 GapD=    0.176 DampG=1.000 DampE=0.500 DampFc=0.5000 IDamp=-1.
 Damping current iteration by 5.00D-01
 RMSDP=5.69D-03 MaxDP=1.84D-01              OVMax= 2.13D-01

 Cycle   2  Pass 0  IDiag  1:
 E= -984.009635329626     Delta-E=       -0.298684858807 Rises=F Damp=T
 DIIS: error= 1.06D-02 at cycle   2 NSaved=   2.
 NSaved= 2 IEnMin= 2 EnMin= -984.009635329626     IErMin= 2 ErrMin= 1.06D-02
 ErrMax= 1.06D-02 EMaxC= 1.00D-01 BMatC= 2.05D-02 BMatP= 6.22D-01
 IDIUse=3 WtCom= 8.94D-01 WtEn= 1.06D-01
 Coeff-Com:  0.388D-01 0.961D+00
 Coeff-En:   0.618D-01 0.938D+00
 Coeff:      0.413D-01 0.959D+00
 Gap=     0.165 Goal=   None    Shift=    0.000
 RMSDP=1.42D-03 MaxDP=4.76D-02 DE=-2.99D-01 OVMax= 1.18D-01

 Cycle   3  Pass 0  IDiag  1:
 E= -984.333312702176     Delta-E=       -0.323677372550 Rises=F Damp=F
 DIIS: error= 5.53D-03 at cycle   3 NSaved=   3.
 NSaved= 3 IEnMin= 3 EnMin= -984.333312702176     IErMin= 3 ErrMin= 5.53D-03
 ErrMax= 5.53D-03 EMaxC= 1.00D-01 BMatC= 9.05D-03 BMatP= 2.05D-02
 IDIUse=3 WtCom= 9.45D-01 WtEn= 5.53D-02
 Coeff-Com: -0.329D-02 0.368D+00 0.636D+00
 Coeff-En:   0.000D+00 0.000D+00 0.100D+01
 Coeff:     -0.311D-02 0.347D+00 0.656D+00
 Gap=     0.159 Goal=   None    Shift=    0.000
 RMSDP=6.13D-04 MaxDP=2.52D-02 DE=-3.24D-01 OVMax= 4.35D-02

 Cycle   4  Pass 0  IDiag  1:
 E= -984.336571151678     Delta-E=       -0.003258449502 Rises=F Damp=F
 DIIS: error= 5.03D-03 at cycle   4 NSaved=   4.
 NSaved= 4 IEnMin= 4 EnMin= -984.336571151678     IErMin= 4 ErrMin= 5.03D-03
 ErrMax= 5.03D-03 EMaxC= 1.00D-01 BMatC= 5.55D-03 BMatP= 9.05D-03
 IDIUse=3 WtCom= 9.50D-01 WtEn= 5.03D-02
 Coeff-Com: -0.559D-02 0.721D-01 0.437D+00 0.497D+00
 Coeff-En:   0.000D+00 0.000D+00 0.408D+00 0.592D+00
 Coeff:     -0.531D-02 0.685D-01 0.435D+00 0.502D+00
 Gap=     0.158 Goal=   None    Shift=    0.000
 RMSDP=2.99D-04 MaxDP=1.11D-02 DE=-3.26D-03 OVMax= 2.38D-02

 Cycle   5  Pass 0  IDiag  1:
 E= -984.342001758511     Delta-E=       -0.005430606833 Rises=F Damp=F
 DIIS: error= 7.34D-04 at cycle   5 NSaved=   5.
 NSaved= 5 IEnMin= 5 EnMin= -984.342001758511     IErMin= 5 ErrMin= 7.34D-04
 ErrMax= 7.34D-04 EMaxC= 1.00D-01 BMatC= 2.44D-04 BMatP= 5.55D-03
 IDIUse=3 WtCom= 9.93D-01 WtEn= 7.34D-03
 Coeff-Com: -0.175D-02 0.145D-01 0.195D+00 0.273D+00 0.519D+00
 Coeff-En:   0.000D+00 0.000D+00 0.000D+00 0.000D+00 0.100D+01
 Coeff:     -0.174D-02 0.144D-01 0.194D+00 0.271D+00 0.522D+00
 Gap=     0.158 Goal=   None    Shift=    0.000
 RMSDP=7.00D-05 MaxDP=2.60D-03 DE=-5.43D-03 OVMax= 5.82D-03

 Cycle   6  Pass 0  IDiag  1:
 E= -984.342225839056     Delta-E=       -0.000224080545 Rises=F Damp=F
 DIIS: error= 2.00D-04 at cycle   6 NSaved=   6.
 NSaved= 6 IEnMin= 6 EnMin= -984.342225839056     IErMin= 6 ErrMin= 2.00D-04
 ErrMax= 2.00D-04 EMaxC= 1.00D-01 BMatC= 2.92D-05 BMatP= 2.44D-04
 IDIUse=3 WtCom= 9.98D-01 WtEn= 2.00D-03
 Coeff-Com: -0.304D-03 0.334D-03 0.652D-01 0.103D+00 0.309D+00 0.522D+00
 Coeff-En:   0.000D+00 0.000D+00 0.000D+00 0.000D+00 0.536D-01 0.946D+00
 Coeff:     -0.303D-03 0.333D-03 0.651D-01 0.103D+00 0.309D+00 0.523D+00
 Gap=     0.158 Goal=   None    Shift=    0.000
 RMSDP=2.23D-05 MaxDP=8.05D-04 DE=-2.24D-04 OVMax= 1.91D-03

 Cycle   7  Pass 0  IDiag  1:
 E= -984.342250468055     Delta-E=       -0.000024628999 Rises=F Damp=F
 DIIS: error= 5.50D-05 at cycle   7 NSaved=   7.
 NSaved= 7 IEnMin= 7 EnMin= -984.342250468055     IErMin= 7 ErrMin= 5.50D-05
 ErrMax= 5.50D-05 EMaxC= 1.00D-01 BMatC= 2.02D-06 BMatP= 2.92D-05
 IDIUse=1 WtCom= 1.00D+00 WtEn= 0.00D+00
 Coeff-Com: -0.134D-04-0.739D-03 0.246D-01 0.408D-01 0.143D+00 0.295D+00
 Coeff-Com:  0.498D+00
 Coeff:     -0.134D-04-0.739D-03 0.246D-01 0.408D-01 0.143D+00 0.295D+00
 Coeff:      0.498D+00
 Gap=     0.158 Goal=   None    Shift=    0.000
 RMSDP=5.97D-06 MaxDP=2.81D-04 DE=-2.46D-05 OVMax= 5.57D-04

 Initial convergence to 1.0D-05 achieved.  Increase integral accuracy.
 Cycle   8  Pass 1  IDiag  1:
 E= -984.342209695021     Delta-E=        0.000040773035 Rises=F Damp=F
 DIIS: error= 4.13D-05 at cycle   1 NSaved=   1.
 NSaved= 1 IEnMin= 1 EnMin= -984.342209695021     IErMin= 1 ErrMin= 4.13D-05
 ErrMax= 4.13D-05 EMaxC= 1.00D-01 BMatC= 3.09D-07 BMatP= 3.09D-07
 IDIUse=1 WtCom= 1.00D+00 WtEn= 0.00D+00
 Coeff-Com:  0.100D+01
 Coeff:      0.100D+01
 Gap=     0.158 Goal=   None    Shift=    0.000
 RMSDP=5.97D-06 MaxDP=2.81D-04 DE= 4.08D-05 OVMax= 4.24D-04

 Cycle   9  Pass 1  IDiag  1:
 E= -984.342209766301     Delta-E=       -0.000000071280 Rises=F Damp=F
 DIIS: error= 3.95D-05 at cycle   2 NSaved=   2.
 NSaved= 2 IEnMin= 2 EnMin= -984.342209766301     IErMin= 2 ErrMin= 3.95D-05
 ErrMax= 3.95D-05 EMaxC= 1.00D-01 BMatC= 3.33D-07 BMatP= 3.09D-07
 IDIUse=1 WtCom= 1.00D+00 WtEn= 0.00D+00
 Coeff-Com:  0.512D+00 0.488D+00
 Coeff:      0.512D+00 0.488D+00
 Gap=     0.158 Goal=   None    Shift=    0.000
 RMSDP=3.44D-06 MaxDP=1.53D-04 DE=-7.13D-08 OVMax= 4.57D-04

 Cycle  10  Pass 1  IDiag  1:
 E= -984.342210041072     Delta-E=       -0.000000274772 Rises=F Damp=F
 DIIS: error= 2.26D-05 at cycle   3 NSaved=   3.
 NSaved= 3 IEnMin= 3 EnMin= -984.342210041072     IErMin= 3 ErrMin= 2.26D-05
 ErrMax= 2.26D-05 EMaxC= 1.00D-01 BMatC= 9.02D-08 BMatP= 3.09D-07
 IDIUse=1 WtCom= 1.00D+00 WtEn= 0.00D+00
 Coeff-Com:  0.157D-01 0.338D+00 0.647D+00
 Coeff:      0.157D-01 0.338D+00 0.647D+00
 Gap=     0.158 Goal=   None    Shift=    0.000
 RMSDP=1.43D-06 MaxDP=5.27D-05 DE=-2.75D-07 OVMax= 1.89D-04

 Cycle  11  Pass 1  IDiag  1:
 E= -984.342210141283     Delta-E=       -0.000000100211 Rises=F Damp=F
 DIIS: error= 3.68D-06 at cycle   4 NSaved=   4.
 NSaved= 4 IEnMin= 4 EnMin= -984.342210141283     IErMin= 4 ErrMin= 3.68D-06
 ErrMax= 3.68D-06 EMaxC= 1.00D-01 BMatC= 7.21D-09 BMatP= 9.02D-08
 IDIUse=1 WtCom= 1.00D+00 WtEn= 0.00D+00
 Coeff-Com: -0.162D-01 0.175D+00 0.384D+00 0.457D+00
 Coeff:     -0.162D-01 0.175D+00 0.384D+00 0.457D+00
 Gap=     0.158 Goal=   None    Shift=    0.000
 RMSDP=3.03D-07 MaxDP=1.73D-05 DE=-1.00D-07 OVMax= 3.05D-05

 Cycle  12  Pass 1  IDiag  1:
 E= -984.342210148106     Delta-E=       -0.000000006823 Rises=F Damp=F
 DIIS: error= 6.06D-07 at cycle   5 NSaved=   5.
 NSaved= 5 IEnMin= 5 EnMin= -984.342210148106     IErMin= 5 ErrMin= 6.06D-07
 ErrMax= 6.06D-07 EMaxC= 1.00D-01 BMatC= 2.12D-10 BMatP= 7.21D-09
 IDIUse=1 WtCom= 1.00D+00 WtEn= 0.00D+00
 Coeff-Com: -0.799D-02 0.619D-01 0.142D+00 0.218D+00 0.585D+00
 Coeff:     -0.799D-02 0.619D-01 0.142D+00 0.218D+00 0.585D+00
 Gap=     0.158 Goal=   None    Shift=    0.000
 RMSDP=6.87D-08 MaxDP=2.99D-06 DE=-6.82D-09 OVMax= 5.29D-06

 Cycle  13  Pass 1  IDiag  1:
 E= -984.342210148282     Delta-E=       -0.000000000176 Rises=F Damp=F
 DIIS: error= 2.51D-07 at cycle   6 NSaved=   6.
 NSaved= 6 IEnMin= 6 EnMin= -984.342210148282     IErMin= 6 ErrMin= 2.51D-07
 ErrMax= 2.51D-07 EMaxC= 1.00D-01 BMatC= 3.38D-11 BMatP= 2.12D-10
 IDIUse=1 WtCom= 1.00D+00 WtEn= 0.00D+00
 Coeff-Com: -0.332D-02 0.212D-01 0.502D-01 0.888D-01 0.338D+00 0.505D+00
 Coeff:     -0.332D-02 0.212D-01 0.502D-01 0.888D-01 0.338D+00 0.505D+00
 Gap=     0.158 Goal=   None    Shift=    0.000
 RMSDP=2.33D-08 MaxDP=1.20D-06 DE=-1.76D-10 OVMax= 2.16D-06

 Cycle  14  Pass 1  IDiag  1:
 E= -984.342210148292     Delta-E=       -0.000000000010 Rises=F Damp=F
 DIIS: error= 6.72D-08 at cycle   7 NSaved=   7.
 NSaved= 7 IEnMin= 7 EnMin= -984.342210148292     IErMin= 7 ErrMin= 6.72D-08
 ErrMax= 6.72D-08 EMaxC= 1.00D-01 BMatC= 2.12D-12 BMatP= 3.38D-11
 IDIUse=1 WtCom= 1.00D+00 WtEn= 0.00D+00
 Coeff-Com: -0.479D-03 0.160D-02 0.415D-02 0.121D-01 0.753D-01 0.235D+00
 Coeff-Com:  0.672D+00
 Coeff:     -0.479D-03 0.160D-02 0.415D-02 0.121D-01 0.753D-01 0.235D+00
 Coeff:      0.672D+00
 Gap=     0.158 Goal=   None    Shift=    0.000
 RMSDP=7.28D-09 MaxDP=3.34D-07 DE=-1.00D-11 OVMax= 7.37D-07

 SCF Done:  E(RB3LYP) =  -984.342210148     A.U. after   14 cycles
             Convg  =    0.7282D-08             -V/T =  2.0078
 KE= 9.767563268947D+02 PE=-4.823092613718D+03 EE= 1.602196276056D+03
 Leave Link  502 at Tue Sep 28 15:35:45 2021, MaxMem= 1342177280 cpu:     446.0
 (Enter /sw/target/amd/app/gaussian/Gaussian09RevA.02_gcc-4.9.2/g09/l508.exe)
 QCSCF skips out because SCF is already converged.
 Leave Link  508 at Tue Sep 28 15:35:50 2021, MaxMem= 1342177280 cpu:       0.0
 (Enter /sw/target/amd/app/gaussian/Gaussian09RevA.02_gcc-4.9.2/g09/l601.exe)
 Copying SCF densities to generalized density rwf, IOpCl= 0 IROHF=0.

 **********************************************************************

            Population analysis using the SCF density.

 **********************************************************************

 Orbital symmetries:
       Occupied  (A) (A) (A) (A) (A) (A) (A) (A) (A) (A) (A) (A)
                 (A) (A) (A) (A) (A) (A) (A) (A) (A) (A) (A) (A)
                 (A) (A) (A) (A) (A) (A) (A) (A) (A) (A) (A) (A)
                 (A) (A) (A) (A) (A) (A) (A) (A) (A) (A) (A) (A)
                 (A) (A) (A) (A) (A) (A) (A) (A) (A) (A) (A) (A)
                 (A) (A) (A) (A) (A) (A)
       Virtual   (A) (A) (A) (A) (A) (A) (A) (A) (A) (A) (A) (A)
                 (A) (A) (A) (A) (A) (A) (A) (A) (A) (A) (A) (A)
                 (A) (A) (A) (A) (A) (A) (A) (A) (A) (A) (A) (A)
                 (A) (A) (A) (A) (A) (A) (A) (A) (A) (A) (A) (A)
                 (A) (A) (A) (A) (A) (A) (A) (A) (A) (A) (A) (A)
                 (A) (A) (A) (A) (A) (A) (A) (A) (A) (A) (A) (A)
                 (A) (A) (A) (A) (A) (A) (A) (A) (A) (A) (A) (A)
                 (A) (A) (A) (A) (A) (A) (A) (A) (A) (A) (A) (A)
                 (A) (A) (A) (A) (A) (A) (A) (A) (A) (A) (A) (A)
                 (A) (A) (A) (A) (A) (A) (A) (A) (A) (A) (A) (A)
                 (A) (A) (A) (A) (A) (A) (A) (A) (A) (A) (A) (A)
                 (A) (A) (A) (A) (A) (A) (A) (A) (A) (A) (A) (A)
                 (A) (A) (A) (A) (A) (A) (A) (A) (A) (A) (A) (A)
                 (A) (A) (A) (A) (A) (A) (A) (A) (A) (A) (A) (A)
                 (A) (A) (A) (A) (A) (A) (A) (A) (A) (A) (A) (A)
                 (A) (A) (A) (A) (A) (A) (A) (A) (A) (A) (A) (A)
                 (A) (A) (A) (A) (A) (A) (A) (A) (A) (A) (A) (A)
                 (A) (A) (A) (A) (A) (A) (A) (A) (A) (A) (A) (A)
                 (A) (A) (A) (A) (A) (A) (A) (A) (A) (A) (A) (A)
                 (A)
 The electronic state is 1-A.
 Alpha  occ. eigenvalues --  -66.14531 -19.17276 -19.15649 -10.24636 -10.24077
 Alpha  occ. eigenvalues --  -10.23714 -10.18944 -10.18812 -10.18785 -10.18718
 Alpha  occ. eigenvalues --  -10.18398 -10.18334 -10.18241 -10.18101 -10.16286
 Alpha  occ. eigenvalues --  -10.15887 -10.15839  -5.28677  -3.64765  -3.64475
 Alpha  occ. eigenvalues --   -3.64454  -1.05843  -1.02775  -0.87002  -0.81182
 Alpha  occ. eigenvalues --   -0.76884  -0.74693  -0.71442  -0.71218  -0.69061
 Alpha  occ. eigenvalues --   -0.67799  -0.67663  -0.62762  -0.60523  -0.59534
 Alpha  occ. eigenvalues --   -0.54417  -0.52291  -0.50894  -0.48294  -0.46697
 Alpha  occ. eigenvalues --   -0.46333  -0.44707  -0.43475  -0.42835  -0.41933
 Alpha  occ. eigenvalues --   -0.41841  -0.40665  -0.40495  -0.40286  -0.40058
 Alpha  occ. eigenvalues --   -0.39081  -0.38887  -0.38362  -0.38141  -0.37397
 Alpha  occ. eigenvalues --   -0.36417  -0.34682  -0.34229  -0.32526  -0.31793
 Alpha  occ. eigenvalues --   -0.29616  -0.28705  -0.28534  -0.26079  -0.22372
 Alpha  occ. eigenvalues --   -0.19283
 Alpha virt. eigenvalues --   -0.03443   0.01148   0.03636   0.06899   0.07533
 Alpha virt. eigenvalues --    0.09879   0.10067   0.10495   0.10993   0.12075
 Alpha virt. eigenvalues --    0.12367   0.12697   0.13998   0.14144   0.14462
 Alpha virt. eigenvalues --    0.15634   0.16000   0.16654   0.17413   0.17654
 Alpha virt. eigenvalues --    0.19057   0.19118   0.19730   0.20587   0.20813
 Alpha virt. eigenvalues --    0.21169   0.22017   0.24034   0.25066   0.26304
 Alpha virt. eigenvalues --    0.28314   0.31369   0.32014   0.34034   0.35103
 Alpha virt. eigenvalues --    0.35759   0.36174   0.38314   0.39637   0.40458
 Alpha virt. eigenvalues --    0.42210   0.44647   0.45998   0.49252   0.50177
 Alpha virt. eigenvalues --    0.51789   0.51868   0.54112   0.54320   0.54633
 Alpha virt. eigenvalues --    0.55023   0.55624   0.56586   0.57247   0.57910
 Alpha virt. eigenvalues --    0.58825   0.59585   0.60466   0.61578   0.62216
 Alpha virt. eigenvalues --    0.62358   0.62966   0.64451   0.65415   0.65971
 Alpha virt. eigenvalues --    0.66885   0.68362   0.69603   0.71984   0.72990
 Alpha virt. eigenvalues --    0.73581   0.75501   0.75874   0.76798   0.77321
 Alpha virt. eigenvalues --    0.78322   0.78710   0.81654   0.82887   0.83514
 Alpha virt. eigenvalues --    0.84312   0.84624   0.85574   0.86153   0.86671
 Alpha virt. eigenvalues --    0.87209   0.87784   0.88245   0.89005   0.89930
 Alpha virt. eigenvalues --    0.90996   0.91955   0.92284   0.92558   0.93554
 Alpha virt. eigenvalues --    0.94082   0.94569   0.94794   0.95936   0.97224
 Alpha virt. eigenvalues --    0.98275   0.99005   1.01056   1.02272   1.02912
 Alpha virt. eigenvalues --    1.03711   1.04730   1.05573   1.07802   1.09187
 Alpha virt. eigenvalues --    1.12355   1.12936   1.14679   1.19300   1.20313
 Alpha virt. eigenvalues --    1.20941   1.22512   1.24292   1.25248   1.26918
 Alpha virt. eigenvalues --    1.27240   1.30067   1.33304   1.37673   1.37917
 Alpha virt. eigenvalues --    1.40676   1.42133   1.43447   1.44496   1.45155
 Alpha virt. eigenvalues --    1.48026   1.48384   1.49211   1.49894   1.51242
 Alpha virt. eigenvalues --    1.51845   1.53471   1.61198   1.66232   1.69359
 Alpha virt. eigenvalues --    1.70537   1.71715   1.75766   1.77920   1.79383
 Alpha virt. eigenvalues --    1.79676   1.81551   1.82565   1.84072   1.85522
 Alpha virt. eigenvalues --    1.86205   1.86893   1.88575   1.90270   1.92908
 Alpha virt. eigenvalues --    1.94239   1.95776   1.96253   1.96879   1.97668
 Alpha virt. eigenvalues --    1.98772   2.00471   2.03317   2.06757   2.07532
 Alpha virt. eigenvalues --    2.08125   2.09072   2.11360   2.12355   2.15727
 Alpha virt. eigenvalues --    2.19204   2.20108   2.22851   2.23372   2.24762
 Alpha virt. eigenvalues --    2.26386   2.27267   2.27913   2.28047   2.28722
 Alpha virt. eigenvalues --    2.28920   2.29730   2.30022   2.31590   2.32609
 Alpha virt. eigenvalues --    2.34012   2.35975   2.36388   2.40262   2.43370
 Alpha virt. eigenvalues --    2.49896   2.51963   2.52785   2.58627   2.61353
 Alpha virt. eigenvalues --    2.63294   2.66657   2.69320   2.72239   2.74109
 Alpha virt. eigenvalues --    2.78585   2.79322   2.82567   2.86533   2.90330
 Alpha virt. eigenvalues --    2.97367   3.00061   3.06149   3.10842   3.14047
 Alpha virt. eigenvalues --    3.15242   3.41614   3.51019   4.04961   4.07598
 Alpha virt. eigenvalues --    4.10211   4.11827   4.14177   4.17362   4.19276
 Alpha virt. eigenvalues --    4.22274   4.24643   4.25939   4.29245   4.34149
 Alpha virt. eigenvalues --    4.42402   4.48511   4.66899   4.87414
          Condensed to atoms (all electrons):
              1          2          3          4          5          6
     1  C    4.896821   0.250328  -0.044632   0.003761  -0.000154   0.000015
     2  O    0.250328   8.208365   0.268007  -0.053945   0.003345   0.000361
     3  C   -0.044632   0.268007   4.563651   0.507009  -0.005134  -0.037032
     4  C    0.003761  -0.053945   0.507009   5.013728   0.493155  -0.008323
     5  C   -0.000154   0.003345  -0.005134   0.493155   5.144278   0.440245
     6  C    0.000015   0.000361  -0.037032  -0.008323   0.440245   4.697070
     7  C    0.000422   0.003001   0.022547  -0.035958  -0.024449   0.490482
     8  C   -0.007500  -0.054818   0.428319  -0.058498  -0.078403  -0.033138
     9  C   -0.000021  -0.000053   0.007111  -0.000566   0.017193  -0.023982
    10  C   -0.000000   0.000000  -0.000252   0.000057  -0.000500  -0.033943
    11  C    0.000000  -0.000000   0.000047  -0.000290   0.008009   0.015559
    12  C   -0.000000   0.000000  -0.000735   0.008399  -0.093533   0.393337
    13  O   -0.000000   0.000000  -0.000000   0.000000  -0.000060   0.003151
    14  Si   0.000000  -0.000000  -0.000000   0.000001  -0.000131   0.000802
    15  C   -0.000000   0.000000  -0.000000  -0.000000  -0.000004   0.000017
    16  C   -0.000000   0.000000   0.000000   0.000000  -0.000000   0.000001
    17  C   -0.000000   0.000000  -0.000000  -0.000000  -0.000004   0.000038
    18  H    0.382004  -0.031447   0.003443  -0.000119   0.000003  -0.000000
    19  H    0.362149  -0.036574  -0.001703   0.000653  -0.000031  -0.000006
    20  H    0.366735  -0.036478  -0.006317  -0.000199   0.000013   0.000006
    21  H   -0.000173   0.000151  -0.035179   0.343215  -0.037345   0.003441
    22  H    0.000003  -0.000067   0.003939  -0.041672   0.353400  -0.040281
    23  H    0.005104  -0.006657  -0.047481   0.004780   0.000510   0.004859
    24  H   -0.000003   0.000000   0.000141   0.000013  -0.000207   0.004931
    25  H   -0.000000  -0.000000   0.000002  -0.000000   0.000006   0.000490
    26  H    0.000000   0.000000   0.000018   0.000209  -0.008894  -0.036819
    27  H   -0.000000  -0.000000   0.000000   0.000000   0.000000  -0.000002
    28  H   -0.000000  -0.000000   0.000000  -0.000000  -0.000021   0.000053
    29  H    0.000000  -0.000000   0.000000  -0.000000   0.000000  -0.000001
    30  H   -0.000000   0.000000   0.000000   0.000000  -0.000000   0.000000
    31  H    0.000000  -0.000000  -0.000000  -0.000000   0.000000  -0.000000
    32  H   -0.000000   0.000000  -0.000000   0.000000  -0.000000   0.000000
    33  H    0.000000  -0.000000   0.000000  -0.000000  -0.000020   0.000070
    34  H    0.000000  -0.000000   0.000000   0.000000   0.000000  -0.000002
    35  H   -0.000000  -0.000000  -0.000000   0.000000   0.000000  -0.000001
              7          8          9         10         11         12
     1  C    0.000422  -0.007500  -0.000021  -0.000000   0.000000  -0.000000
     2  O    0.003001  -0.054818  -0.000053   0.000000  -0.000000   0.000000
     3  C    0.022547   0.428319   0.007111  -0.000252   0.000047  -0.000735
     4  C   -0.035958  -0.058498  -0.000566   0.000057  -0.000290   0.008399
     5  C   -0.024449  -0.078403   0.017193  -0.000500   0.008009  -0.093533
     6  C    0.490482  -0.033138  -0.023982  -0.033943   0.015559   0.393337
     7  C    4.690458   0.387791   0.444579  -0.009067  -0.035605  -0.036467
     8  C    0.387791   5.413650  -0.096346   0.008292  -0.000784   0.019735
     9  C    0.444579  -0.096346   5.162060   0.472444  -0.000671  -0.076122
    10  C   -0.009067   0.008292   0.472444   5.056955   0.505428  -0.073047
    11  C   -0.035605  -0.000784  -0.000671   0.505428   4.501368   0.455025
    12  C   -0.036467   0.019735  -0.076122  -0.073047   0.455025   5.397966
    13  O    0.000385   0.000001   0.003706  -0.057615   0.251254  -0.043998
    14  Si   0.000143  -0.000006   0.000372  -0.003688  -0.016457   0.001999
    15  C    0.000000   0.000000   0.000002  -0.000100  -0.002225  -0.000585
    16  C    0.000000  -0.000000   0.000000   0.000015   0.000122  -0.000059
    17  C    0.000001   0.000000   0.000001  -0.000083  -0.002017  -0.000791
    18  H    0.000009   0.000199  -0.000000   0.000000   0.000000  -0.000000
    19  H   -0.000328   0.006449  -0.000013   0.000000   0.000000   0.000000
    20  H   -0.000134   0.002651  -0.000002  -0.000000  -0.000000   0.000000
    21  H    0.000437   0.007223   0.000008  -0.000000   0.000003  -0.000170
    22  H    0.004752   0.000378  -0.000203   0.000013   0.000228  -0.009452
    23  H   -0.036840   0.345294  -0.008683   0.000119   0.000017  -0.000212
    24  H   -0.038336  -0.009156   0.351578  -0.040405   0.003409   0.000392
    25  H    0.003194  -0.000157  -0.038044   0.345802  -0.033026   0.006673
    26  H    0.004484  -0.000211   0.000478   0.005097  -0.043320   0.337555
    27  H   -0.000000  -0.000000   0.000000   0.000005   0.000021   0.000098
    28  H    0.000001  -0.000000  -0.000002  -0.000002   0.000139   0.000964
    29  H   -0.000000  -0.000000  -0.000000   0.000001   0.000066   0.000014
    30  H    0.000000   0.000000  -0.000000  -0.000001  -0.000046   0.000002
    31  H   -0.000000  -0.000000  -0.000000   0.000000   0.000008   0.000001
    32  H    0.000000   0.000000  -0.000000  -0.000001  -0.000043   0.000001
    33  H    0.000001  -0.000000  -0.000001  -0.000004   0.000117   0.000508
    34  H   -0.000000  -0.000000   0.000000   0.000004   0.000004   0.000091
    35  H   -0.000000  -0.000000  -0.000000   0.000001   0.000059   0.000011
             13         14         15         16         17         18
     1  C   -0.000000   0.000000  -0.000000  -0.000000  -0.000000   0.382004
     2  O    0.000000  -0.000000   0.000000   0.000000   0.000000  -0.031447
     3  C   -0.000000  -0.000000  -0.000000   0.000000  -0.000000   0.003443
     4  C    0.000000   0.000001  -0.000000   0.000000  -0.000000  -0.000119
     5  C   -0.000060  -0.000131  -0.000004  -0.000000  -0.000004   0.000003
     6  C    0.003151   0.000802   0.000017   0.000001   0.000038  -0.000000
     7  C    0.000385   0.000143   0.000000   0.000000   0.000001   0.000009
     8  C    0.000001  -0.000006   0.000000  -0.000000   0.000000   0.000199
     9  C    0.003706   0.000372   0.000002   0.000000   0.000001  -0.000000
    10  C   -0.057615  -0.003688  -0.000100   0.000015  -0.000083   0.000000
    11  C    0.251254  -0.016457  -0.002225   0.000122  -0.002017   0.000000
    12  C   -0.043998   0.001999  -0.000585  -0.000059  -0.000791  -0.000000
    13  O    8.181387   0.353270  -0.017273  -0.017166  -0.018031  -0.000000
    14  Si   0.353270  11.764536   0.385751   0.390668   0.385713  -0.000000
    15  C   -0.017273   0.385751   5.297630  -0.033748  -0.034698  -0.000000
    16  C   -0.017166   0.390668  -0.033748   5.270171  -0.034109  -0.000000
    17  C   -0.018031   0.385713  -0.034698  -0.034109   5.298783  -0.000000
    18  H   -0.000000  -0.000000  -0.000000  -0.000000  -0.000000   0.549191
    19  H   -0.000000  -0.000000  -0.000000   0.000000  -0.000000  -0.031023
    20  H    0.000000   0.000000  -0.000000  -0.000000   0.000000  -0.037156
    21  H   -0.000000  -0.000000   0.000000  -0.000000   0.000000  -0.000034
    22  H    0.000000  -0.000008  -0.000005   0.000000  -0.000004  -0.000000
    23  H    0.000000   0.000000  -0.000000   0.000000  -0.000000  -0.000152
    24  H   -0.000059  -0.000011   0.000000  -0.000000  -0.000000   0.000000
    25  H   -0.001674   0.000787   0.000001  -0.000019   0.000002  -0.000000
    26  H   -0.006592   0.007268  -0.000129  -0.000016   0.000283   0.000000
    27  H   -0.000626  -0.020765   0.365564  -0.001037   0.001272   0.000000
    28  H   -0.000737  -0.025119   0.364179   0.001369  -0.001611   0.000000
    29  H    0.000487  -0.010187   0.358087  -0.000618  -0.000783   0.000000
    30  H   -0.000345  -0.020321  -0.001260   0.364026   0.001338  -0.000000
    31  H    0.000383  -0.010416  -0.000777   0.360892  -0.000705   0.000000
    32  H   -0.000351  -0.020585   0.001337   0.364207  -0.001368  -0.000000
    33  H   -0.000742  -0.025886  -0.001547   0.001372   0.364526  -0.000000
    34  H   -0.000644  -0.020789   0.001274  -0.001114   0.365561  -0.000000
    35  H    0.000519  -0.009927  -0.000753  -0.000552   0.357680   0.000000
             19         20         21         22         23         24
     1  C    0.362149   0.366735  -0.000173   0.000003   0.005104  -0.000003
     2  O   -0.036574  -0.036478   0.000151  -0.000067  -0.006657   0.000000
     3  C   -0.001703  -0.006317  -0.035179   0.003939  -0.047481   0.000141
     4  C    0.000653  -0.000199   0.343215  -0.041672   0.004780   0.000013
     5  C   -0.000031   0.000013  -0.037345   0.353400   0.000510  -0.000207
     6  C   -0.000006   0.000006   0.003441  -0.040281   0.004859   0.004931
     7  C   -0.000328  -0.000134   0.000437   0.004752  -0.036840  -0.038336
     8  C    0.006449   0.002651   0.007223   0.000378   0.345294  -0.009156
     9  C   -0.000013  -0.000002   0.000008  -0.000203  -0.008683   0.351578
    10  C    0.000000  -0.000000  -0.000000   0.000013   0.000119  -0.040405
    11  C    0.000000  -0.000000   0.000003   0.000228   0.000017   0.003409
    12  C    0.000000   0.000000  -0.000170  -0.009452  -0.000212   0.000392
    13  O   -0.000000   0.000000  -0.000000   0.000000   0.000000  -0.000059
    14  Si  -0.000000   0.000000  -0.000000  -0.000008   0.000000  -0.000011
    15  C   -0.000000  -0.000000   0.000000  -0.000005  -0.000000   0.000000
    16  C    0.000000  -0.000000  -0.000000   0.000000   0.000000  -0.000000
    17  C   -0.000000   0.000000   0.000000  -0.000004  -0.000000  -0.000000
    18  H   -0.031023  -0.037156  -0.000034  -0.000000  -0.000152   0.000000
    19  H    0.591382  -0.045965   0.000037   0.000000   0.001073  -0.000001
    20  H   -0.045965   0.603110   0.000029  -0.000000   0.002860  -0.000007
    21  H    0.000037   0.000029   0.587456  -0.005970  -0.000171  -0.000000
    22  H    0.000000  -0.000000  -0.005970   0.599156   0.000019   0.000003
    23  H    0.001073   0.002860  -0.000171   0.000019   0.602754   0.006610
    24  H   -0.000001  -0.000007  -0.000000   0.000003   0.006610   0.598102
    25  H    0.000000   0.000000   0.000000  -0.000000  -0.000012  -0.005762
    26  H    0.000000  -0.000000  -0.000014   0.006914   0.000003   0.000019
    27  H    0.000000  -0.000000  -0.000000   0.000000   0.000000   0.000000
    28  H    0.000000  -0.000000  -0.000000   0.000021   0.000000   0.000000
    29  H   -0.000000  -0.000000  -0.000000   0.000000   0.000000   0.000000
    30  H   -0.000000   0.000000  -0.000000  -0.000000   0.000000   0.000000
    31  H   -0.000000   0.000000   0.000000   0.000000   0.000000   0.000000
    32  H    0.000000  -0.000000  -0.000000  -0.000000   0.000000   0.000000
    33  H   -0.000000   0.000000  -0.000000   0.000012   0.000000   0.000000
    34  H   -0.000000   0.000000  -0.000000   0.000000   0.000000   0.000000
    35  H    0.000000  -0.000000  -0.000000   0.000000   0.000000   0.000000
             25         26         27         28         29         30
     1  C   -0.000000   0.000000  -0.000000  -0.000000   0.000000  -0.000000
     2  O   -0.000000   0.000000  -0.000000  -0.000000  -0.000000   0.000000
     3  C    0.000002   0.000018   0.000000   0.000000   0.000000   0.000000
     4  C   -0.000000   0.000209   0.000000  -0.000000  -0.000000   0.000000
     5  C    0.000006  -0.008894   0.000000  -0.000021   0.000000  -0.000000
     6  C    0.000490  -0.036819  -0.000002   0.000053  -0.000001   0.000000
     7  C    0.003194   0.004484  -0.000000   0.000001  -0.000000   0.000000
     8  C   -0.000157  -0.000211  -0.000000  -0.000000  -0.000000   0.000000
     9  C   -0.038044   0.000478   0.000000  -0.000002  -0.000000  -0.000000
    10  C    0.345802   0.005097   0.000005  -0.000002   0.000001  -0.000001
    11  C   -0.033026  -0.043320   0.000021   0.000139   0.000066  -0.000046
    12  C    0.006673   0.337555   0.000098   0.000964   0.000014   0.000002
    13  O   -0.001674  -0.006592  -0.000626  -0.000737   0.000487  -0.000345
    14  Si   0.000787   0.007268  -0.020765  -0.025119  -0.010187  -0.020321
    15  C    0.000001  -0.000129   0.365564   0.364179   0.358087  -0.001260
    16  C   -0.000019  -0.000016  -0.001037   0.001369  -0.000618   0.364026
    17  C    0.000002   0.000283   0.001272  -0.001611  -0.000783   0.001338
    18  H   -0.000000   0.000000   0.000000   0.000000   0.000000  -0.000000
    19  H    0.000000   0.000000   0.000000   0.000000  -0.000000  -0.000000
    20  H    0.000000  -0.000000  -0.000000  -0.000000  -0.000000   0.000000
    21  H    0.000000  -0.000014  -0.000000  -0.000000  -0.000000  -0.000000
    22  H   -0.000000   0.006914   0.000000   0.000021   0.000000  -0.000000
    23  H   -0.000012   0.000003   0.000000   0.000000   0.000000   0.000000
    24  H   -0.005762   0.000019   0.000000   0.000000   0.000000   0.000000
    25  H    0.584171  -0.000173  -0.000000  -0.000000  -0.000000  -0.000001
    26  H   -0.000173   0.593075  -0.000068   0.002742   0.000015   0.000001
    27  H   -0.000000  -0.000068   0.537020  -0.022685  -0.024931   0.000661
    28  H   -0.000000   0.002742  -0.022685   0.543179  -0.024771  -0.000004
    29  H   -0.000000   0.000015  -0.024931  -0.024771   0.541091  -0.000045
    30  H   -0.000001   0.000001   0.000661  -0.000004  -0.000045   0.535923
    31  H    0.000000   0.000001  -0.000039   0.000002   0.000023  -0.024927
    32  H   -0.000001   0.000001   0.000001  -0.000024   0.000001  -0.022748
    33  H   -0.000000   0.003050   0.000004   0.000230  -0.000004  -0.000025
    34  H   -0.000000  -0.000089  -0.000023   0.000004   0.000004   0.000002
    35  H   -0.000000   0.000003   0.000004  -0.000003   0.000077   0.000002
             31         32         33         34         35
     1  C    0.000000  -0.000000   0.000000   0.000000  -0.000000
     2  O   -0.000000   0.000000  -0.000000  -0.000000  -0.000000
     3  C   -0.000000  -0.000000   0.000000   0.000000  -0.000000
     4  C   -0.000000   0.000000  -0.000000   0.000000   0.000000
     5  C    0.000000  -0.000000  -0.000020   0.000000   0.000000
     6  C   -0.000000   0.000000   0.000070  -0.000002  -0.000001
     7  C   -0.000000   0.000000   0.000001  -0.000000  -0.000000
     8  C   -0.000000   0.000000  -0.000000  -0.000000  -0.000000
     9  C   -0.000000  -0.000000  -0.000001   0.000000  -0.000000
    10  C    0.000000  -0.000001  -0.000004   0.000004   0.000001
    11  C    0.000008  -0.000043   0.000117   0.000004   0.000059
    12  C    0.000001   0.000001   0.000508   0.000091   0.000011
    13  O    0.000383  -0.000351  -0.000742  -0.000644   0.000519
    14  Si  -0.010416  -0.020585  -0.025886  -0.020789  -0.009927
    15  C   -0.000777   0.001337  -0.001547   0.001274  -0.000753
    16  C    0.360892   0.364207   0.001372  -0.001114  -0.000552
    17  C   -0.000705  -0.001368   0.364526   0.365561   0.357680
    18  H    0.000000  -0.000000  -0.000000  -0.000000   0.000000
    19  H   -0.000000   0.000000  -0.000000  -0.000000   0.000000
    20  H    0.000000  -0.000000   0.000000   0.000000  -0.000000
    21  H    0.000000  -0.000000  -0.000000  -0.000000  -0.000000
    22  H    0.000000  -0.000000   0.000012   0.000000   0.000000
    23  H    0.000000   0.000000   0.000000   0.000000   0.000000
    24  H    0.000000   0.000000   0.000000   0.000000   0.000000
    25  H    0.000000  -0.000001  -0.000000  -0.000000  -0.000000
    26  H    0.000001   0.000001   0.003050  -0.000089   0.000003
    27  H   -0.000039   0.000001   0.000004  -0.000023   0.000004
    28  H    0.000002  -0.000024   0.000230   0.000004  -0.000003
    29  H    0.000023   0.000001  -0.000004   0.000004   0.000077
    30  H   -0.024927  -0.022748  -0.000025   0.000002   0.000002
    31  H    0.533101  -0.025031   0.000000  -0.000036   0.000001
    32  H   -0.025031   0.536084  -0.000002   0.000731  -0.000049
    33  H    0.000000  -0.000002   0.543416  -0.022555  -0.024616
    34  H   -0.000036   0.000731  -0.022555   0.536655  -0.024851
    35  H    0.000001  -0.000049  -0.024616  -0.024851   0.541196
 Mulliken atomic charges:
              1
     1  C   -0.214860
     2  O   -0.513519
     3  C    0.374230
     4  C   -0.175409
     5  C   -0.211268
     6  C    0.158604
     7  C    0.164497
     8  C   -0.280965
     9  C   -0.214825
    10  C   -0.175526
    11  C    0.393601
    12  C   -0.287600
    13  O   -0.628630
    14  Si   0.892983
    15  C   -0.680741
    16  C   -0.664405
    17  C   -0.680990
    18  H    0.165081
    19  H    0.153903
    20  H    0.150854
    21  H    0.137057
    22  H    0.128824
    23  H    0.126206
    24  H    0.128748
    25  H    0.137744
    26  H    0.135110
    27  H    0.165529
    28  H    0.162098
    29  H    0.161473
    30  H    0.167770
    31  H    0.167518
    32  H    0.167839
    33  H    0.162097
    34  H    0.165773
    35  H    0.161198
 Sum of Mulliken atomic charges =  -0.00000
 Mulliken charges with hydrogens summed into heavy atoms:
              1
     1  C    0.254978
     2  O   -0.513519
     3  C    0.374230
     4  C   -0.038352
     5  C   -0.082444
     6  C    0.158604
     7  C    0.164497
     8  C   -0.154759
     9  C   -0.086076
    10  C   -0.037782
    11  C    0.393601
    12  C   -0.152490
    13  O   -0.628630
    14  Si   0.892983
    15  C   -0.191642
    16  C   -0.161278
    17  C   -0.191923
 Sum of Mulliken charges with hydrogens summed into heavy atoms =  -0.00000
 Electronic spatial extent (au):  <R**2>=           6722.9462
 Charge=             -0.0000 electrons
 Dipole moment (field-independent basis, Debye):
    X=             -0.0591    Y=              0.2878    Z=              0.6694  Tot=              0.7310
 Quadrupole moment (field-independent basis, Debye-Ang):
   XX=            -92.9711   YY=           -102.1857   ZZ=           -110.9935
   XY=              8.9608   XZ=              3.2090   YZ=             -0.0333
 Traceless Quadrupole moment (field-independent basis, Debye-Ang):
   XX=              9.0790   YY=             -0.1356   ZZ=             -8.9434
   XY=              8.9608   XZ=              3.2090   YZ=             -0.0333
 Octapole moment (field-independent basis, Debye-Ang**2):
[...]
    37    C    3  py     Val( 2p)     1.09063
    38    C    3  py     Ryd( 3p)     0.00623
    39    C    3  pz     Val( 2p)     0.93422
    40    C    3  pz     Ryd( 3p)     0.00099
    41    C    3  dxy    Ryd( 3d)     0.00135
    42    C    3  dxz    Ryd( 3d)     0.00186
    43    C    3  dyz    Ryd( 3d)     0.00124
    44    C    3  dx2y2  Ryd( 3d)     0.00177
    45    C    3  dz2    Ryd( 3d)     0.00049

    46    C    4  S      Cor( 1S)     1.99905
    47    C    4  S      Val( 2S)     0.95221
    48    C    4  S      Ryd( 3S)     0.00086
    49    C    4  S      Ryd( 4S)     0.00004
    50    C    4  px     Val( 2p)     1.10213
    51    C    4  px     Ryd( 3p)     0.00535
    52    C    4  py     Val( 2p)     1.14106
    53    C    4  py     Ryd( 3p)     0.00451
    54    C    4  pz     Val( 2p)     1.13084
    55    C    4  pz     Ryd( 3p)     0.00384
    56    C    4  dxy    Ryd( 3d)     0.00081
    57    C    4  dxz    Ryd( 3d)     0.00059
    58    C    4  dyz    Ryd( 3d)     0.00032
    59    C    4  dx2y2  Ryd( 3d)     0.00053
    60    C    4  dz2    Ryd( 3d)     0.00046

    61    C    5  S      Cor( 1S)     1.99907
    62    C    5  S      Val( 2S)     0.94254
    63    C    5  S      Ryd( 3S)     0.00061
    64    C    5  S      Ryd( 4S)     0.00005
    65    C    5  px     Val( 2p)     1.09717
    66    C    5  px     Ryd( 3p)     0.00427
    67    C    5  py     Val( 2p)     1.13992
    68    C    5  py     Ryd( 3p)     0.00463
    69    C    5  pz     Val( 2p)     1.03870
    70    C    5  pz     Ryd( 3p)     0.00276
    71    C    5  dxy    Ryd( 3d)     0.00082
    72    C    5  dxz    Ryd( 3d)     0.00072
    73    C    5  dyz    Ryd( 3d)     0.00033
    74    C    5  dx2y2  Ryd( 3d)     0.00063
    75    C    5  dz2    Ryd( 3d)     0.00043

    76    C    6  S      Cor( 1S)     1.99903
    77    C    6  S      Val( 2S)     0.86751
    78    C    6  S      Ryd( 3S)     0.00052
    79    C    6  S      Ryd( 4S)     0.00007
    80    C    6  px     Val( 2p)     1.08221
    81    C    6  px     Ryd( 3p)     0.00492
    82    C    6  py     Val( 2p)     1.08633
    83    C    6  py     Ryd( 3p)     0.00562
    84    C    6  pz     Val( 2p)     0.99526
    85    C    6  pz     Ryd( 3p)     0.00113
    86    C    6  dxy    Ryd( 3d)     0.00071
    87    C    6  dxz    Ryd( 3d)     0.00078
    88    C    6  dyz    Ryd( 3d)     0.00073
    89    C    6  dx2y2  Ryd( 3d)     0.00069
    90    C    6  dz2    Ryd( 3d)     0.00035

    91    C    7  S      Cor( 1S)     1.99903
    92    C    7  S      Val( 2S)     0.86688
    93    C    7  S      Ryd( 3S)     0.00055
    94    C    7  S      Ryd( 4S)     0.00007
    95    C    7  px     Val( 2p)     1.07925
    96    C    7  px     Ryd( 3p)     0.00490
    97    C    7  py     Val( 2p)     1.08760
    98    C    7  py     Ryd( 3p)     0.00566
    99    C    7  pz     Val( 2p)     0.99481
   100    C    7  pz     Ryd( 3p)     0.00111
   101    C    7  dxy    Ryd( 3d)     0.00072
   102    C    7  dxz    Ryd( 3d)     0.00075
   103    C    7  dyz    Ryd( 3d)     0.00074
   104    C    7  dx2y2  Ryd( 3d)     0.00070
   105    C    7  dz2    Ryd( 3d)     0.00034

   106    C    8  S      Cor( 1S)     1.99899
   107    C    8  S      Val( 2S)     0.94703
   108    C    8  S      Ryd( 3S)     0.00063
   109    C    8  S      Ryd( 4S)     0.00006
   110    C    8  px     Val( 2p)     1.09563
   111    C    8  px     Ryd( 3p)     0.00337
   112    C    8  py     Val( 2p)     1.16377
   113    C    8  py     Ryd( 3p)     0.00361
   114    C    8  pz     Val( 2p)     1.08902
   115    C    8  pz     Ryd( 3p)     0.00269
   116    C    8  dxy    Ryd( 3d)     0.00083
   117    C    8  dxz    Ryd( 3d)     0.00042
   118    C    8  dyz    Ryd( 3d)     0.00048
   119    C    8  dx2y2  Ryd( 3d)     0.00055
   120    C    8  dz2    Ryd( 3d)     0.00045

   121    C    9  S      Cor( 1S)     1.99907
   122    C    9  S      Val( 2S)     0.94343
   123    C    9  S      Ryd( 3S)     0.00061
   124    C    9  S      Ryd( 4S)     0.00005
   125    C    9  px     Val( 2p)     1.09744
   126    C    9  px     Ryd( 3p)     0.00425
   127    C    9  py     Val( 2p)     1.14028
   128    C    9  py     Ryd( 3p)     0.00456
   129    C    9  pz     Val( 2p)     1.03609
   130    C    9  pz     Ryd( 3p)     0.00278
   131    C    9  dxy    Ryd( 3d)     0.00082
   132    C    9  dxz    Ryd( 3d)     0.00071
   133    C    9  dyz    Ryd( 3d)     0.00033
   134    C    9  dx2y2  Ryd( 3d)     0.00063
   135    C    9  dz2    Ryd( 3d)     0.00043

   136    C   10  S      Cor( 1S)     1.99905
   137    C   10  S      Val( 2S)     0.95614
   138    C   10  S      Ryd( 3S)     0.00082
   139    C   10  S      Ryd( 4S)     0.00005
   140    C   10  px     Val( 2p)     1.09928
   141    C   10  px     Ryd( 3p)     0.00514
   142    C   10  py     Val( 2p)     1.14494
   143    C   10  py     Ryd( 3p)     0.00452
   144    C   10  pz     Val( 2p)     1.12033
   145    C   10  pz     Ryd( 3p)     0.00359
   146    C   10  dxy    Ryd( 3d)     0.00081
   147    C   10  dxz    Ryd( 3d)     0.00059
   148    C   10  dyz    Ryd( 3d)     0.00033
   149    C   10  dx2y2  Ryd( 3d)     0.00057
   150    C   10  dz2    Ryd( 3d)     0.00045

   151    C   11  S      Cor( 1S)     1.99877
   152    C   11  S      Val( 2S)     0.83223
   153    C   11  S      Ryd( 3S)     0.00131
   154    C   11  S      Ryd( 4S)     0.00012
   155    C   11  px     Val( 2p)     0.74710
   156    C   11  px     Ryd( 3p)     0.00706
   157    C   11  py     Val( 2p)     1.08628
   158    C   11  py     Ryd( 3p)     0.00575
   159    C   11  pz     Val( 2p)     0.92626
   160    C   11  pz     Ryd( 3p)     0.00129
   161    C   11  dxy    Ryd( 3d)     0.00155
   162    C   11  dxz    Ryd( 3d)     0.00165
   163    C   11  dyz    Ryd( 3d)     0.00120
   164    C   11  dx2y2  Ryd( 3d)     0.00172
   165    C   11  dz2    Ryd( 3d)     0.00045

   166    C   12  S      Cor( 1S)     1.99899
   167    C   12  S      Val( 2S)     0.94715
   168    C   12  S      Ryd( 3S)     0.00059
   169    C   12  S      Ryd( 4S)     0.00006
   170    C   12  px     Val( 2p)     1.09190
   171    C   12  px     Ryd( 3p)     0.00347
   172    C   12  py     Val( 2p)     1.15764
   173    C   12  py     Ryd( 3p)     0.00362
   174    C   12  pz     Val( 2p)     1.08894
   175    C   12  pz     Ryd( 3p)     0.00315
   176    C   12  dxy    Ryd( 3d)     0.00082
   177    C   12  dxz    Ryd( 3d)     0.00042
   178    C   12  dyz    Ryd( 3d)     0.00047
   179    C   12  dx2y2  Ryd( 3d)     0.00057
   180    C   12  dz2    Ryd( 3d)     0.00044

   181    O   13  S      Cor( 1S)     1.99976
   182    O   13  S      Val( 2S)     1.64001
   183    O   13  S      Ryd( 3S)     0.00145
   184    O   13  S      Ryd( 4S)     0.00008
   185    O   13  px     Val( 2p)     1.53075
   186    O   13  px     Ryd( 3p)     0.00088
   187    O   13  py     Val( 2p)     1.86799
   188    O   13  py     Ryd( 3p)     0.00292
   189    O   13  pz     Val( 2p)     1.76706
   190    O   13  pz     Ryd( 3p)     0.00151
   191    O   13  dxy    Ryd( 3d)     0.00147
   192    O   13  dxz    Ryd( 3d)     0.00040
   193    O   13  dyz    Ryd( 3d)     0.00116
   194    O   13  dx2y2  Ryd( 3d)     0.00126
   195    O   13  dz2    Ryd( 3d)     0.00093

   196   Si   14  S      Cor( 1S)     2.00000
   197   Si   14  S      Cor( 2S)     1.99864
   198   Si   14  S      Val( 3S)     0.74110
   199   Si   14  S      Ryd( 4S)     0.00122
   200   Si   14  S      Ryd( 5S)     0.00001
   201   Si   14  px     Cor( 2p)     1.99967
   202   Si   14  px     Val( 3p)     0.36047
   203   Si   14  px     Ryd( 4p)     0.00101
   204   Si   14  py     Cor( 2p)     1.99971
   205   Si   14  py     Val( 3p)     0.38518
   206   Si   14  py     Ryd( 4p)     0.00373
   207   Si   14  pz     Cor( 2p)     1.99982
   208   Si   14  pz     Val( 3p)     0.45708
   209   Si   14  pz     Ryd( 4p)     0.00350
   210   Si   14  dxy    Ryd( 3d)     0.00827
   211   Si   14  dxz    Ryd( 3d)     0.00417
   212   Si   14  dyz    Ryd( 3d)     0.01039
   213   Si   14  dx2y2  Ryd( 3d)     0.00592
   214   Si   14  dz2    Ryd( 3d)     0.00755

   215    C   15  S      Cor( 1S)     1.99948
   216    C   15  S      Val( 2S)     1.23434
   217    C   15  S      Ryd( 3S)     0.00189
   218    C   15  S      Ryd( 4S)     0.00001
   219    C   15  px     Val( 2p)     1.27406
   220    C   15  px     Ryd( 3p)     0.00098
   221    C   15  py     Val( 2p)     1.31177
   222    C   15  py     Ryd( 3p)     0.00110
   223    C   15  pz     Val( 2p)     1.39568
   224    C   15  pz     Ryd( 3p)     0.00263
   225    C   15  dxy    Ryd( 3d)     0.00098
   226    C   15  dxz    Ryd( 3d)     0.00005
   227    C   15  dyz    Ryd( 3d)     0.00081
   228    C   15  dx2y2  Ryd( 3d)     0.00027
   229    C   15  dz2    Ryd( 3d)     0.00068

   230    C   16  S      Cor( 1S)     1.99949
   231    C   16  S      Val( 2S)     1.23292
   232    C   16  S      Ryd( 3S)     0.00158
   233    C   16  S      Ryd( 4S)     0.00001
   234    C   16  px     Val( 2p)     1.37580
   235    C   16  px     Ryd( 3p)     0.00204
   236    C   16  py     Val( 2p)     1.32478
   237    C   16  py     Ryd( 3p)     0.00197
   238    C   16  pz     Val( 2p)     1.27788
   239    C   16  pz     Ryd( 3p)     0.00057
   240    C   16  dxy    Ryd( 3d)     0.00085
   241    C   16  dxz    Ryd( 3d)     0.00003
   242    C   16  dyz    Ryd( 3d)     0.00096
   243    C   16  dx2y2  Ryd( 3d)     0.00020
   244    C   16  dz2    Ryd( 3d)     0.00071

   245    C   17  S      Cor( 1S)     1.99948
   246    C   17  S      Val( 2S)     1.23456
   247    C   17  S      Ryd( 3S)     0.00192
   248    C   17  S      Ryd( 4S)     0.00001
   249    C   17  px     Val( 2p)     1.27120
   250    C   17  px     Ryd( 3p)     0.00095
   251    C   17  py     Val( 2p)     1.33539
   252    C   17  py     Ryd( 3p)     0.00145
   253    C   17  pz     Val( 2p)     1.37387
   254    C   17  pz     Ryd( 3p)     0.00240
   255    C   17  dxy    Ryd( 3d)     0.00100
   256    C   17  dxz    Ryd( 3d)     0.00004
   257    C   17  dyz    Ryd( 3d)     0.00081
   258    C   17  dx2y2  Ryd( 3d)     0.00022
   259    C   17  dz2    Ryd( 3d)     0.00073

   260    H   18  S      Val( 1S)     0.76886
   261    H   18  S      Ryd( 2S)     0.00053

   262    H   19  S      Val( 1S)     0.78735
   263    H   19  S      Ryd( 2S)     0.00175

   264    H   20  S      Val( 1S)     0.78731
   265    H   20  S      Ryd( 2S)     0.00175

   266    H   21  S      Val( 1S)     0.75910
   267    H   21  S      Ryd( 2S)     0.00107

   268    H   22  S      Val( 1S)     0.77110
   269    H   22  S      Ryd( 2S)     0.00108

   270    H   23  S      Val( 1S)     0.76722
   271    H   23  S      Ryd( 2S)     0.00117

   272    H   24  S      Val( 1S)     0.77153
   273    H   24  S      Ryd( 2S)     0.00110

   274    H   25  S      Val( 1S)     0.75970
   275    H   25  S      Ryd( 2S)     0.00106

   276    H   26  S      Val( 1S)     0.77321
   277    H   26  S      Ryd( 2S)     0.00127

   278    H   27  S      Val( 1S)     0.74063
   279    H   27  S      Ryd( 2S)     0.00079

   280    H   28  S      Val( 1S)     0.74198
   281    H   28  S      Ryd( 2S)     0.00097

   282    H   29  S      Val( 1S)     0.74522
   283    H   29  S      Ryd( 2S)     0.00065

   284    H   30  S      Val( 1S)     0.74096
   285    H   30  S      Ryd( 2S)     0.00077

   286    H   31  S      Val( 1S)     0.74724
   287    H   31  S      Ryd( 2S)     0.00058

   288    H   32  S      Val( 1S)     0.74072
   289    H   32  S      Ryd( 2S)     0.00078

   290    H   33  S      Val( 1S)     0.74508
   291    H   33  S      Ryd( 2S)     0.00078

   292    H   34  S      Val( 1S)     0.74037
   293    H   34  S      Ryd( 2S)     0.00079

   294    H   35  S      Val( 1S)     0.74521
   295    H   35  S      Ryd( 2S)     0.00065

 WARNING:  1 low occupancy (<1.9990e) core orbital  found on  C    3
           1 low occupancy (<1.9990e) core orbital  found on  C    8
           1 low occupancy (<1.9990e) core orbital  found on  C   11
           1 low occupancy (<1.9990e) core orbital  found on  C   12
           1 low occupancy (<1.9990e) core orbital  found on Si   14


 Summary of Natural Population Analysis:                  
                                                          
                                       Natural Population 
                Natural  -----------------------------------------------
    Atom  No    Charge         Core      Valence    Rydberg      Total
 -----------------------------------------------------------------------
      C    1   -0.32282      1.99943     4.30923    0.01416     6.32282
      O    2   -0.46832      1.99975     6.45684    0.01174     8.46832
      C    3    0.36598      1.99879     3.61265    0.02259     5.63402
      C    4   -0.34260      1.99905     4.32624    0.01731     6.34260
      C    5   -0.23267      1.99907     4.21834    0.01526     6.23267
      C    6   -0.04586      1.99903     4.03131    0.01552     6.04586
      C    7   -0.04312      1.99903     4.02854    0.01555     6.04312
      C    8   -0.30751      1.99899     4.29545    0.01308     6.30751
      C    9   -0.23151      1.99907     4.21725    0.01519     6.23151
      C   10   -0.33659      1.99905     4.32069    0.01685     6.33659
      C   11    0.38725      1.99877     3.59187    0.02211     5.61275
      C   12   -0.29822      1.99899     4.28563    0.01361     6.29822
      O   13   -0.81764      1.99976     6.80581    0.01207     8.81764
     Si   14    2.01253      9.99784     1.94384    0.04578    11.98747
      C   15   -1.22475      1.99948     5.21586    0.00940     7.22475
      C   16   -1.21979      1.99949     5.21137    0.00893     7.21979
      C   17   -1.22404      1.99948     5.21502    0.00953     7.22404
      H   18    0.23062      0.00000     0.76886    0.00053     0.76938
      H   19    0.21090      0.00000     0.78735    0.00175     0.78910
      H   20    0.21094      0.00000     0.78731    0.00175     0.78906
      H   21    0.23983      0.00000     0.75910    0.00107     0.76017
      H   22    0.22783      0.00000     0.77110    0.00108     0.77217
      H   23    0.23161      0.00000     0.76722    0.00117     0.76839
      H   24    0.22737      0.00000     0.77153    0.00110     0.77263
      H   25    0.23924      0.00000     0.75970    0.00106     0.76076
      H   26    0.22551      0.00000     0.77321    0.00127     0.77449
      H   27    0.25858      0.00000     0.74063    0.00079     0.74142
      H   28    0.25705      0.00000     0.74198    0.00097     0.74295
      H   29    0.25412      0.00000     0.74522    0.00065     0.74588
      H   30    0.25827      0.00000     0.74096    0.00077     0.74173
      H   31    0.25218      0.00000     0.74724    0.00058     0.74782
      H   32    0.25850      0.00000     0.74072    0.00078     0.74150
      H   33    0.25415      0.00000     0.74508    0.00078     0.74585
      H   34    0.25884      0.00000     0.74037    0.00079     0.74116
      H   35    0.25414      0.00000     0.74521    0.00065     0.74586
 =======================================================================
   * Total *    0.00000     41.98506    89.71873    0.29621   132.00000

                                 Natural Population      
 --------------------------------------------------------
   Core                      41.98506 ( 99.9644% of  42)
   Valence                   89.71873 ( 99.6875% of  90)
   Natural Minimal Basis    131.70379 ( 99.7756% of 132)
   Natural Rydberg Basis      0.29621 (  0.2244% of 132)
 --------------------------------------------------------

    Atom  No          Natural Electron Configuration
 ----------------------------------------------------------------------------
      C    1      [core]2S( 1.10)2p( 3.21)3p( 0.01)3d( 0.01)
      O    2      [core]2S( 1.60)2p( 4.86)3p( 0.01)3d( 0.01)
      C    3      [core]2S( 0.84)2p( 2.77)3p( 0.01)3d( 0.01)
      C    4      [core]2S( 0.95)2p( 3.37)3p( 0.01)
      C    5      [core]2S( 0.94)2p( 3.28)3p( 0.01)
      C    6      [core]2S( 0.87)2p( 3.16)3p( 0.01)
      C    7      [core]2S( 0.87)2p( 3.16)3p( 0.01)
      C    8      [core]2S( 0.95)2p( 3.35)3p( 0.01)
      C    9      [core]2S( 0.94)2p( 3.27)3p( 0.01)
      C   10      [core]2S( 0.96)2p( 3.36)3p( 0.01)
      C   11      [core]2S( 0.83)2p( 2.76)3p( 0.01)3d( 0.01)
      C   12      [core]2S( 0.95)2p( 3.34)3p( 0.01)
      O   13      [core]2S( 1.64)2p( 5.17)3p( 0.01)3d( 0.01)
     Si   14      [core]3S( 0.74)3p( 1.20)3d( 0.04)4p( 0.01)
      C   15      [core]2S( 1.23)2p( 3.98)
      C   16      [core]2S( 1.23)2p( 3.98)
      C   17      [core]2S( 1.23)2p( 3.98)
      H   18            1S( 0.77)
      H   19            1S( 0.79)
      H   20            1S( 0.79)
      H   21            1S( 0.76)
      H   22            1S( 0.77)
      H   23            1S( 0.77)
      H   24            1S( 0.77)
      H   25            1S( 0.76)
      H   26            1S( 0.77)
      H   27            1S( 0.74)
      H   28            1S( 0.74)
      H   29            1S( 0.75)
      H   30            1S( 0.74)
      H   31            1S( 0.75)
      H   32            1S( 0.74)
      H   33            1S( 0.75)
      H   34            1S( 0.74)
      H   35            1S( 0.75)


 NBO analysis skipped by request.
 Leave Link  607 at Wed Sep 29 02:10:51 2021, MaxMem= 1342177280 cpu:      23.5
 (Enter /sw/target/amd/app/gaussian/Gaussian09RevA.02_gcc-4.9.2/g09/l9999.exe)
 1\1\GINC-HERMITE\SP\RTD-B3LYP-FC\6-31G(d)\C14H18O2Si1\JSCHLEINITZ\29-S
 ep-2021\0\\#p TD(NStates=10, Root=1) b3lyp/6-31G* volume pop=NPA densi
 ty=current Geom=AllCheck Guess=Read\\COc1ccc2c(c1)ccc(c2)O[Si](C)(C)C_
 conf_0\\0,1\C,0,2.8936551299,1.053959392,-0.8634783445\O,0,2.430294100
 8,-0.1675378769,-0.3140778769\C,0,3.0847588869,-0.6653121969,0.7780282
 173\C,0,2.563180416,-1.8920437353,1.2718722289\C,0,3.1292704851,-2.498
 7827539,2.3641478495\C,0,4.2474129481,-1.9239664537,3.0316909257\C,0,4
 .767744649,-0.6894649602,2.5317724677\C,0,4.1678634696,-0.0752404655,1
 .3976725628\C,0,5.8824233623,-0.1155875089,3.2006308757\C,0,6.44927670
 91,-0.7245712148,4.2945583981\C,0,5.9327492129,-1.9514863299,4.7887876
 32\C,0,4.8473916379,-2.5351921176,4.1634491429\O,0,6.5647211312,-2.468
 9134603,5.8822762257\Si,0,6.4460888121,-3.9564568319,6.6791455055\C,0,
 6.7705879933,-5.3720429278,5.4758899759\C,0,7.7991108313,-3.8643983543
 ,7.9795218119\C,0,4.7592560049,-4.1355387904,7.5060148154\H,0,2.242730
 5131,1.2689171423,-1.7131085211\H,0,3.9318522268,0.970556114,-1.212368
 2868\H,0,2.8255588703,1.8741747169,-0.1360923701\H,0,1.7103157761,-2.3
 264323991,0.7594263673\H,0,2.721857582,-3.4370400255,2.7335811759\H,0,
 4.5825549299,0.8607070384,1.0388512528\H,0,6.28954007,0.8236965232,2.8
 332179549\H,0,7.3011722119,-0.2873207991,4.8061690594\H,0,4.4320894475
 ,-3.4690781252,4.5304772751\H,0,7.7633202824,-5.2771780152,5.020725404
 1\H,0,6.0373226176,-5.4091124159,4.6631808316\H,0,6.7357077705,-6.3361
 59509,5.9987157581\H,0,8.7842496433,-3.7368714746,7.5168461228\H,0,7.8
 285215236,-4.7786414588,8.584879421\H,0,7.6376269754,-3.0190465438,8.6
 579401974\H,0,3.9339893164,-4.1827924359,6.7871751134\H,0,4.5647213841
 ,-3.2906264312,8.1769525719\H,0,4.7249248304,-5.0519377013,8.108893675
 2\\Version=AM64L-G09RevA.02\State=1-A\HF=-984.3505174\RMSD=6.668e-09\D
 ipole=0.1489741,-0.0330748,0.0362069\Quadrupole=-7.8483245,4.1853176,3
 .6630069,-2.2686159,2.3924904,-12.7355021\PG=C01 [X(C14H18O2Si1)]\\@


 ACHIEVEMENT--  THE MAN WHO ROWS THE BOAT GENERALLY 
                DOESN'T HAVE TIME TO ROCK IT.

                   -- FROM THE BACK OF A SUGAR PACKET
 Job cpu time:  0 days  5 hours  8 minutes 22.2 seconds.
 File lengths (MBytes):  RWF=    281 Int=      0 D2E=      0 Chk=     39 Scr=      1
 Normal termination of Gaussian 09 at Wed Sep 29 02:10:56 2021.
