 Entering Gaussian System, Link 0=g09
 Input=C14H14O_8db2_conf_0.com
 Output=C14H14O_8db2_conf_0.log
 Initial command:
 /sw/target/amd/app/gaussian/Gaussian09RevA.02_gcc-4.9.2/g09/l1.exe /home/jschleinitz/gaussian/Gau-3908610.inp -scrdir=/home/jschleinitz/gaussian/
 Entering Link 1 = /sw/target/amd/app/gaussian/Gaussian09RevA.02_gcc-4.9.2/g09/l1.exe PID=   3908612.
  
 Copyright (c) 1988,1990,1992,1993,1995,1998,2003,2009, Gaussian, Inc.
                  All Rights Reserved.
  
 This is part of the Gaussian(R) 09 program.  It is based on
 the Gaussian(R) 03 system (copyright 2003, Gaussian, Inc.),
 the Gaussian(R) 98 system (copyright 1998, Gaussian, Inc.),
 the Gaussian(R) 94 system (copyright 1995, Gaussian, Inc.),
 the Gaussian 92(TM) system (copyright 1992, Gaussian, Inc.),
 the Gaussian 90(TM) system (copyright 1990, Gaussian, Inc.),
 the Gaussian 88(TM) system (copyright 1988, Gaussian, Inc.),
 the Gaussian 86(TM) system (copyright 1986, Carnegie Mellon
 University), and the Gaussian 82(TM) system (copyright 1983,
 Carnegie Mellon University). Gaussian is a federally registered
 trademark of Gaussian, Inc.
  
 This software contains proprietary and confidential information,
 including trade secrets, belonging to Gaussian, Inc.
  
 This software is provided under written license and may be
 used, copied, transmitted, or stored only in accord with that
 written license.
  
 The following legend is applicable only to US Government
 contracts under FAR:
  
                    RESTRICTED RIGHTS LEGEND
  
 Use, reproduction and disclosure by the US Government is
 subject to restrictions as set forth in subparagraphs (a)
 and (c) of the Commercial Computer Software - Restricted
 Rights clause in FAR 52.227-19.
  
 Gaussian, Inc.
 340 Quinnipiac St., Bldg. 40, Wallingford CT 06492
  
  
 ---------------------------------------------------------------
 Warning -- This program may not be used in any manner that
 competes with the business of Gaussian, Inc. or will provide
 assistance to any competitor of Gaussian, Inc.  The licensee
 of this program is prohibited from giving any competitor of
 Gaussian, Inc. access to this program.  By using this program,
 the user acknowledges that Gaussian, Inc. is engaged in the
 business of creating and licensing software in the field of
 computational chemistry and represents and warrants to the
 licensee that it is not a competitor of Gaussian, Inc. and that
 it will not use this program in any manner prohibited above.
 ---------------------------------------------------------------
  

 Cite this work as:
 Gaussian 09, Revision A.02,
 M. J. Frisch, G. W. Trucks, H. B. Schlegel, G. E. Scuseria, 
 M. A. Robb, J. R. Cheeseman, G. Scalmani, V. Barone, B. Mennucci, 
 G. A. Petersson, H. Nakatsuji, M. Caricato, X. Li, H. P. Hratchian, 
 A. F. Izmaylov, J. Bloino, G. Zheng, J. L. Sonnenberg, M. Hada, 
 M. Ehara, K. Toyota, R. Fukuda, J. Hasegawa, M. Ishida, T. Nakajima, 
 Y. Honda, O. Kitao, H. Nakai, T. Vreven, J. A. Montgomery, Jr., 
 J. E. Peralta, F. Ogliaro, M. Bearpark, J. J. Heyd, E. Brothers, 
 K. N. Kudin, V. N. Staroverov, R. Kobayashi, J. Normand, 
 K. Raghavachari, A. Rendell, J. C. Burant, S. S. Iyengar, J. Tomasi, 
 M. Cossi, N. Rega, J. M. Millam, M. Klene, J. E. Knox, J. B. Cross, 
 V. Bakken, C. Adamo, J. Jaramillo, R. Gomperts, R. E. Stratmann, 
 O. Yazyev, A. J. Austin, R. Cammi, C. Pomelli, J. W. Ochterski, 
 R. L. Martin, K. Morokuma, V. G. Zakrzewski, G. A. Voth, 
 P. Salvador, J. J. Dannenberg, S. Dapprich, A. D. Daniels, 
 O. Farkas, J. B. Foresman, J. V. Ortiz, J. Cioslowski, 
 and D. J. Fox, Gaussian, Inc., Wallingford CT, 2009.
 
 ******************************************
 Gaussian 09:  AM64L-G09RevA.02 11-Jun-2009
                30-Sep-2021 
 ******************************************
 %nproc=4
 Will use up to    4 processors via shared memory.
 %mem=8gb
 %chk=C14H14O_8db2_conf_0.chk
 -----------------------------------
 #p opt b3lyp/6-31G* scf=(xqc,tight)
 -----------------------------------
 1/14=-1,18=20,19=15,26=3,38=1/1,3;
 2/9=110,12=2,17=6,18=5,40=1/2;
 3/5=1,6=6,7=1,11=2,16=1,25=1,30=1,71=1,74=-5/1,2,3;
 4//1;
 5/5=2,8=3,13=1,32=2,38=5/2,8;
 6/7=2,8=2,9=2,10=2,28=1/1;
 7//1,2,3,16;
 1/14=-1,18=20,19=15/3(2);
 2/9=110/2;
 99//99;
 2/9=110/2;
 3/5=1,6=6,7=1,11=2,16=1,25=1,30=1,71=1,74=-5/1,2,3;
 4/5=5,16=3/1;
 5/5=2,8=3,13=1,32=2,38=5/2,8;
 7//1,2,3,16;
 1/14=-1,18=20,19=15/3(-5);
 2/9=110/2;
 6/7=2,8=2,9=2,10=2,19=2,28=1/1;
 99/9=1/99;
 Leave Link    1 at Thu Sep 30 17:31:50 2021, MaxMem= 1073741824 cpu:       0.1
 (Enter /sw/target/amd/app/gaussian/Gaussian09RevA.02_gcc-4.9.2/g09/l101.exe)
 ------------------------------
 COc1ccc(cc1)c1ccc(cc1)C_conf_0
 ------------------------------
 Symbolic Z-matrix:
 Charge =  0 Multiplicity = 1
 C                     1.04713   0.34793  -0.55068 
 O                     2.37128  -0.00123  -0.16845 
 C                     2.995    -0.96324  -0.91428 
 C                     2.45424  -1.6364   -2.00363 
 C                     3.20345  -2.61825  -2.67063 
 C                     4.51668  -2.94488  -2.28371 
 C                     5.04317  -2.24059  -1.18653 
 C                     4.2917   -1.27233  -0.50942 
 C                     5.29956  -3.98688  -2.99524 
 C                     5.12866  -4.22518  -4.37164 
 C                     5.8436   -5.22585  -5.04187 
 C                     6.76128  -6.02219  -4.35544 
 C                     6.96998  -5.78244  -2.99603 
 C                     6.24181  -4.78958  -2.32744 
 C                     7.55127  -7.07393  -5.07462 
 H                     0.68693   1.11001   0.14766 
 H                     0.37328  -0.51237  -0.47897 
 H                     1.02939   0.7815   -1.55585 
 H                     1.44986  -1.43612  -2.36101 
 H                     2.72844  -3.13922  -3.49895 
 H                     6.05799  -2.42837  -0.84224 
 H                     4.72733  -0.75455   0.34292 
 H                     4.43599  -3.62195  -4.95468 
 H                     5.67375  -5.37503  -6.10584 
 H                     7.69573  -6.37202  -2.43989 
 H                     6.4177   -4.66474  -1.26131 
 H                     7.00136  -7.45298  -5.94277 
 H                     7.74823  -7.92832  -4.41842 
 H                     8.50497  -6.65976  -5.4153 
 
 NAtoms=     29 NQM=     29 NQMF=      0 NMic=      0 NMicF=      0 NTot=     29.
                    Isotopes and Nuclear Properties:
 (Nuclear quadrupole moments (NQMom) in fm**2, nuclear magnetic moments (NMagM)
  in nuclear magnetons)

  Atom         1           2           3           4           5           6           7           8           9          10
 IAtWgt=          12          16          12          12          12          12          12          12          12          12
 AtmWgt=  12.0000000  15.9949146  12.0000000  12.0000000  12.0000000  12.0000000  12.0000000  12.0000000  12.0000000  12.0000000
 NucSpn=           0           0           0           0           0           0           0           0           0           0
 AtZEff=   0.0000000   0.0000000   0.0000000   0.0000000   0.0000000   0.0000000   0.0000000   0.0000000   0.0000000   0.0000000
 NQMom=    0.0000000   0.0000000   0.0000000   0.0000000   0.0000000   0.0000000   0.0000000   0.0000000   0.0000000   0.0000000
 NMagM=    0.0000000   0.0000000   0.0000000   0.0000000   0.0000000   0.0000000   0.0000000   0.0000000   0.0000000   0.0000000

  Atom        11          12          13          14          15          16          17          18          19          20
 IAtWgt=          12          12          12          12          12           1           1           1           1           1
 AtmWgt=  12.0000000  12.0000000  12.0000000  12.0000000  12.0000000   1.0078250   1.0078250   1.0078250   1.0078250   1.0078250
 NucSpn=           0           0           0           0           0           1           1           1           1           1
 AtZEff=   0.0000000   0.0000000   0.0000000   0.0000000   0.0000000   0.0000000   0.0000000   0.0000000   0.0000000   0.0000000
 NQMom=    0.0000000   0.0000000   0.0000000   0.0000000   0.0000000   0.0000000   0.0000000   0.0000000   0.0000000   0.0000000
 NMagM=    0.0000000   0.0000000   0.0000000   0.0000000   0.0000000   2.7928460   2.7928460   2.7928460   2.7928460   2.7928460

  Atom        21          22          23          24          25          26          27          28          29
 IAtWgt=           1           1           1           1           1           1           1           1           1
 AtmWgt=   1.0078250   1.0078250   1.0078250   1.0078250   1.0078250   1.0078250   1.0078250   1.0078250   1.0078250
 NucSpn=           1           1           1           1           1           1           1           1           1
 AtZEff=   0.0000000   0.0000000   0.0000000   0.0000000   0.0000000   0.0000000   0.0000000   0.0000000   0.0000000
 NQMom=    0.0000000   0.0000000   0.0000000   0.0000000   0.0000000   0.0000000   0.0000000   0.0000000   0.0000000
 NMagM=    2.7928460   2.7928460   2.7928460   2.7928460   2.7928460   2.7928460   2.7928460   2.7928460   2.7928460
 Leave Link  101 at Thu Sep 30 17:31:50 2021, MaxMem= 1073741824 cpu:       0.1
 (Enter /sw/target/amd/app/gaussian/Gaussian09RevA.02_gcc-4.9.2/g09/l103.exe)

 GradGradGradGradGradGradGradGradGradGradGradGradGradGradGradGradGradGrad
 Berny optimization.
 Initialization pass.
                           ----------------------------
                           !    Initial Parameters    !
                           ! (Angstroms and Degrees)  !
 --------------------------                            --------------------------
 ! Name  Definition              Value          Derivative Info.                !
 --------------------------------------------------------------------------------
 ! R1    R(1,2)                  1.4218         estimate D2E/DX2                !
 ! R2    R(1,16)                 1.0946         estimate D2E/DX2                !
 ! R3    R(1,17)                 1.0951         estimate D2E/DX2                !
 ! R4    R(1,18)                 1.0948         estimate D2E/DX2                !
 ! R5    R(2,3)                  1.3678         estimate D2E/DX2                !
 ! R6    R(3,4)                  1.3901         estimate D2E/DX2                !
 ! R7    R(3,8)                  1.3932         estimate D2E/DX2                !
 ! R8    R(4,5)                  1.4037         estimate D2E/DX2                !
 ! R9    R(4,19)                 1.0847         estimate D2E/DX2                !
 ! R10   R(5,6)                  1.4075         estimate D2E/DX2                !
 ! R11   R(5,20)                 1.0877         estimate D2E/DX2                !
 ! R12   R(6,7)                  1.4061         estimate D2E/DX2                !
 ! R13   R(6,9)                  1.4849         estimate D2E/DX2                !
 ! R14   R(7,8)                  1.4003         estimate D2E/DX2                !
 ! R15   R(7,21)                 1.088          estimate D2E/DX2                !
 ! R16   R(8,22)                 1.0883         estimate D2E/DX2                !
 ! R17   R(9,10)                 1.4073         estimate D2E/DX2                !
 ! R18   R(9,14)                 1.4065         estimate D2E/DX2                !
 ! R19   R(10,11)                1.4006         estimate D2E/DX2                !
 ! R20   R(10,23)                1.0879         estimate D2E/DX2                !
 ! R21   R(11,12)                1.3955         estimate D2E/DX2                !
 ! R22   R(11,24)                1.0877         estimate D2E/DX2                !
 ! R23   R(12,13)                1.3961         estimate D2E/DX2                !
 ! R24   R(12,15)                1.4991         estimate D2E/DX2                !
 ! R25   R(13,14)                1.4011         estimate D2E/DX2                !
 ! R26   R(13,25)                1.0879         estimate D2E/DX2                !
 ! R27   R(14,26)                1.0877         estimate D2E/DX2                !
 ! R28   R(15,27)                1.0953         estimate D2E/DX2                !
 ! R29   R(15,28)                1.0952         estimate D2E/DX2                !
 ! R30   R(15,29)                1.0941         estimate D2E/DX2                !
 ! A1    A(2,1,16)             107.8143         estimate D2E/DX2                !
 ! A2    A(2,1,17)             111.2561         estimate D2E/DX2                !
 ! A3    A(2,1,18)             111.0495         estimate D2E/DX2                !
 ! A4    A(16,1,17)            107.6174         estimate D2E/DX2                !
 ! A5    A(16,1,18)            107.7397         estimate D2E/DX2                !
 ! A6    A(17,1,18)            111.1765         estimate D2E/DX2                !
 ! A7    A(1,2,3)              116.7981         estimate D2E/DX2                !
 ! A8    A(2,3,4)              126.1954         estimate D2E/DX2                !
 ! A9    A(2,3,8)              114.9629         estimate D2E/DX2                !
 ! A10   A(4,3,8)              118.8414         estimate D2E/DX2                !
 ! A11   A(3,4,5)              120.2315         estimate D2E/DX2                !
 ! A12   A(3,4,19)             121.9376         estimate D2E/DX2                !
 ! A13   A(5,4,19)             117.8279         estimate D2E/DX2                !
 ! A14   A(4,5,6)              121.9866         estimate D2E/DX2                !
 ! A15   A(4,5,20)             117.6324         estimate D2E/DX2                !
 ! A16   A(6,5,20)             120.3746         estimate D2E/DX2                !
 ! A17   A(5,6,7)              116.5927         estimate D2E/DX2                !
 ! A18   A(5,6,9)              121.5367         estimate D2E/DX2                !
 ! A19   A(7,6,9)              121.8695         estimate D2E/DX2                !
 ! A20   A(6,7,8)              121.5165         estimate D2E/DX2                !
 ! A21   A(6,7,21)             120.6472         estimate D2E/DX2                !
 ! A22   A(8,7,21)             117.8342         estimate D2E/DX2                !
 ! A23   A(3,8,7)              120.8238         estimate D2E/DX2                !
 ! A24   A(3,8,22)             119.6445         estimate D2E/DX2                !
 ! A25   A(7,8,22)             119.5316         estimate D2E/DX2                !
 ! A26   A(6,9,10)             121.5645         estimate D2E/DX2                !
 ! A27   A(6,9,14)             121.7483         estimate D2E/DX2                !
 ! A28   A(10,9,14)            116.6862         estimate D2E/DX2                !
 ! A29   A(9,10,11)            121.8041         estimate D2E/DX2                !
 ! A30   A(9,10,23)            120.5024         estimate D2E/DX2                !
 ! A31   A(11,10,23)           117.6903         estimate D2E/DX2                !
 ! A32   A(10,11,12)           120.5296         estimate D2E/DX2                !
 ! A33   A(10,11,24)           119.102          estimate D2E/DX2                !
 ! A34   A(12,11,24)           120.3683         estimate D2E/DX2                !
 ! A35   A(11,12,13)           118.6377         estimate D2E/DX2                !
 ! A36   A(11,12,15)           120.7231         estimate D2E/DX2                !
 ! A37   A(13,12,15)           120.5859         estimate D2E/DX2                !
 ! A38   A(12,13,14)           120.5749         estimate D2E/DX2                !
 ! A39   A(12,13,25)           120.293          estimate D2E/DX2                !
 ! A40   A(14,13,25)           119.1299         estimate D2E/DX2                !
 ! A41   A(9,14,13)            121.7389         estimate D2E/DX2                !
 ! A42   A(9,14,26)            120.5446         estimate D2E/DX2                !
 ! A43   A(13,14,26)           117.7111         estimate D2E/DX2                !
 ! A44   A(12,15,27)           111.0048         estimate D2E/DX2                !
 ! A45   A(12,15,28)           110.7719         estimate D2E/DX2                !
 ! A46   A(12,15,29)           110.0674         estimate D2E/DX2                !
 ! A47   A(27,15,28)           107.1712         estimate D2E/DX2                !
 ! A48   A(27,15,29)           108.7724         estimate D2E/DX2                !
 ! A49   A(28,15,29)           108.9724         estimate D2E/DX2                !
 ! D1    D(16,1,2,3)           179.0673         estimate D2E/DX2                !
 ! D2    D(17,1,2,3)            61.2852         estimate D2E/DX2                !
 ! D3    D(18,1,2,3)           -63.1195         estimate D2E/DX2                !
 ! D4    D(1,2,3,4)             -0.4273         estimate D2E/DX2                !
 ! D5    D(1,2,3,8)            179.7912         estimate D2E/DX2                !
 ! D6    D(2,3,4,5)           -179.1661         estimate D2E/DX2                !
 ! D7    D(2,3,4,19)             0.1832         estimate D2E/DX2                !
 ! D8    D(8,3,4,5)              0.6077         estimate D2E/DX2                !
 ! D9    D(8,3,4,19)           179.9571         estimate D2E/DX2                !
 ! D10   D(2,3,8,7)            179.9752         estimate D2E/DX2                !
 ! D11   D(2,3,8,22)            -0.0937         estimate D2E/DX2                !
 ! D12   D(4,3,8,7)              0.1765         estimate D2E/DX2                !
 ! D13   D(4,3,8,22)          -179.8924         estimate D2E/DX2                !
 ! D14   D(3,4,5,6)             -0.854          estimate D2E/DX2                !
 ! D15   D(3,4,5,20)           178.2243         estimate D2E/DX2                !
 ! D16   D(19,4,5,6)           179.7703         estimate D2E/DX2                !
 ! D17   D(19,4,5,20)           -1.1513         estimate D2E/DX2                !
 ! D18   D(4,5,6,7)              0.2831         estimate D2E/DX2                !
 ! D19   D(4,5,6,9)            179.9062         estimate D2E/DX2                !
 ! D20   D(20,5,6,7)          -178.7705         estimate D2E/DX2                !
 ! D21   D(20,5,6,9)             0.8526         estimate D2E/DX2                !
 ! D22   D(5,6,7,8)              0.5129         estimate D2E/DX2                !
 ! D23   D(5,6,7,21)          -178.952          estimate D2E/DX2                !
 ! D24   D(9,6,7,8)           -179.1088         estimate D2E/DX2                !
 ! D25   D(9,6,7,21)             1.4263         estimate D2E/DX2                !
 ! D26   D(5,6,9,10)            31.8785         estimate D2E/DX2                !
 ! D27   D(5,6,9,14)          -147.733          estimate D2E/DX2                !
 ! D28   D(7,6,9,10)          -148.5184         estimate D2E/DX2                !
 ! D29   D(7,6,9,14)            31.8702         estimate D2E/DX2                !
 ! D30   D(6,7,8,3)             -0.7561         estimate D2E/DX2                !
 ! D31   D(6,7,8,22)           179.3127         estimate D2E/DX2                !
 ! D32   D(21,7,8,3)           178.7232         estimate D2E/DX2                !
 ! D33   D(21,7,8,22)           -1.208          estimate D2E/DX2                !
 ! D34   D(6,9,10,11)         -178.6093         estimate D2E/DX2                !
 ! D35   D(6,9,10,23)            2.0587         estimate D2E/DX2                !
 ! D36   D(14,9,10,11)           1.0208         estimate D2E/DX2                !
 ! D37   D(14,9,10,23)        -178.3112         estimate D2E/DX2                !
 ! D38   D(6,9,14,13)          179.3001         estimate D2E/DX2                !
 ! D39   D(6,9,14,26)            0.1702         estimate D2E/DX2                !
 ! D40   D(10,9,14,13)          -0.3294         estimate D2E/DX2                !
 ! D41   D(10,9,14,26)        -179.4593         estimate D2E/DX2                !
 ! D42   D(9,10,11,12)          -0.2341         estimate D2E/DX2                !
 ! D43   D(9,10,11,24)         179.7308         estimate D2E/DX2                !
 ! D44   D(23,10,11,12)        179.1159         estimate D2E/DX2                !
 ! D45   D(23,10,11,24)         -0.9192         estimate D2E/DX2                !
 ! D46   D(10,11,12,13)         -1.2626         estimate D2E/DX2                !
 ! D47   D(10,11,12,15)       -178.6208         estimate D2E/DX2                !
 ! D48   D(24,11,12,13)        178.773          estimate D2E/DX2                !
 ! D49   D(24,11,12,15)          1.4148         estimate D2E/DX2                !
 ! D50   D(11,12,13,14)          1.9439         estimate D2E/DX2                !
 ! D51   D(11,12,13,25)       -178.5988         estimate D2E/DX2                !
 ! D52   D(15,12,13,14)        179.3058         estimate D2E/DX2                !
 ! D53   D(15,12,13,25)         -1.2369         estimate D2E/DX2                !
 ! D54   D(11,12,15,27)        -28.4426         estimate D2E/DX2                !
 ! D55   D(11,12,15,28)       -147.3807         estimate D2E/DX2                !
 ! D56   D(11,12,15,29)         92.0387         estimate D2E/DX2                !
 ! D57   D(13,12,15,27)        154.2509         estimate D2E/DX2                !
 ! D58   D(13,12,15,28)         35.3127         estimate D2E/DX2                !
 ! D59   D(13,12,15,29)        -85.2678         estimate D2E/DX2                !
 ! D60   D(12,13,14,9)          -1.1614         estimate D2E/DX2                !
 ! D61   D(12,13,14,26)        177.9922         estimate D2E/DX2                !
 ! D62   D(25,13,14,9)         179.3751         estimate D2E/DX2                !
 ! D63   D(25,13,14,26)         -1.4713         estimate D2E/DX2                !
 --------------------------------------------------------------------------------
 Trust Radius=3.00D-01 FncErr=1.00D-07 GrdErr=1.00D-06
 Number of steps in this run= 152 maximum allowed number of steps= 174.
 GradGradGradGradGradGradGradGradGradGradGradGradGradGradGradGradGradGrad

 Leave Link  103 at Thu Sep 30 17:31:50 2021, MaxMem= 1073741824 cpu:       0.0
 (Enter /sw/target/amd/app/gaussian/Gaussian09RevA.02_gcc-4.9.2/g09/l202.exe)
                          Input orientation:                          
 ---------------------------------------------------------------------
 Center     Atomic      Atomic             Coordinates (Angstroms)
 Number     Number       Type             X           Y           Z
 ---------------------------------------------------------------------
      1          6           0        1.047128    0.347933   -0.550682
      2          8           0        2.371276   -0.001227   -0.168453
      3          6           0        2.995001   -0.963239   -0.914278
      4          6           0        2.454242   -1.636397   -2.003629
      5          6           0        3.203453   -2.618248   -2.670628
      6          6           0        4.516678   -2.944881   -2.283705
      7          6           0        5.043170   -2.240592   -1.186526
      8          6           0        4.291703   -1.272328   -0.509419
      9          6           0        5.299560   -3.986885   -2.995241
     10          6           0        5.128664   -4.225178   -4.371645
     11          6           0        5.843595   -5.225851   -5.041873
     12          6           0        6.761283   -6.022192   -4.355441
     13          6           0        6.969981   -5.782444   -2.996034
     14          6           0        6.241805   -4.789584   -2.327444
     15          6           0        7.551268   -7.073931   -5.074620
     16          1           0        0.686930    1.110011    0.147660
     17          1           0        0.373283   -0.512367   -0.478967
     18          1           0        1.029385    0.781499   -1.555851
     19          1           0        1.449862   -1.436124   -2.361010
     20          1           0        2.728440   -3.139225   -3.498955
     21          1           0        6.057992   -2.428369   -0.842242
     22          1           0        4.727326   -0.754546    0.342918
     23          1           0        4.435988   -3.621951   -4.954680
     24          1           0        5.673752   -5.375033   -6.105841
     25          1           0        7.695734   -6.372017   -2.439893
     26          1           0        6.417699   -4.664736   -1.261314
     27          1           0        7.001360   -7.452977   -5.942774
     28          1           0        7.748235   -7.928319   -4.418416
     29          1           0        8.504965   -6.659763   -5.415299
 ---------------------------------------------------------------------
                    Distance matrix (angstroms):
                    1          2          3          4          5
     1  C    0.000000
     2  O    1.421753   0.000000
     3  C    2.376044   1.367755   0.000000
     4  C    2.833477   2.459377   1.390053   0.000000
     5  C    4.235817   3.715131   2.422246   1.403651   0.000000
     6  C    5.087609   4.212141   2.849164   2.458498   1.407465
     7  C    4.803448   3.631837   2.429145   2.781233   2.393688
     8  C    3.626875   2.328088   1.393156   2.396137   2.768865
     9  C    6.545968   5.696582   4.334032   3.821508   2.524323
    10  C    7.223022   6.565955   5.210197   4.411555   3.030201
    11  C    8.616494   7.943798   6.581899   5.796794   4.403720
    12  C    9.365161   8.547224   7.184670   6.581551   5.204188
    13  C    8.868002   7.909852   6.584748   6.210190   4.929985
    14  C    7.519019   6.524615   5.213415   4.938935   3.750208
    15  C   10.856054  10.046189   8.683811   8.060858   6.673513
    16  H    1.094617   2.042499   3.279218   3.910779   5.308065
    17  H    1.095138   2.085584   2.695587   2.813971   4.153069
    18  H    1.094833   2.082836   2.705434   2.841997   4.186595
    19  H    2.573392   2.777633   2.168896   1.084716   2.137373
    20  H    4.866148   4.589862   3.389177   2.137679   1.087740
    21  H    5.735994   4.465073   3.396132   3.868211   3.395209
    22  H    3.944343   2.525858   2.150592   3.383911   3.857076
    23  H    6.829315   6.346703   5.046785   4.071663   2.782706
    24  H    9.220509   8.662373   7.320653   6.416446   5.050042
    25  H    9.640063   8.607918   7.326614   7.077405   5.858721
    26  H    7.380711   6.270263   5.053353   5.042902   4.062715
    27  H   11.197399  10.502811   9.135282   8.368138   6.964599
    28  H   11.329632  10.479153   9.131515   8.570055   7.204628
    29  H   11.331004  10.463634   9.114235   8.572336   7.209236
                    6          7          8          9         10
     6  C    0.000000
     7  C    1.406065   0.000000
     8  C    2.448701   1.400253   0.000000
     9  C    1.484911   2.527197   3.816268   0.000000
    10  C    2.524516   3.753781   4.933215   1.407294   0.000000
    11  C    3.817202   4.941271   6.211429   2.453511   1.400600
    12  C    4.335918   5.224407   6.591806   2.851184   2.427954
    13  C    3.818098   4.419461   5.804960   2.452415   2.776297
    14  C    2.526046   3.039043   4.413524   1.406451   2.395077
    15  C    5.834980   6.690964   8.069969   4.350156   3.805072
    16  H    6.084460   5.655388   4.370547   7.558607   8.283560
    17  H    5.132439   5.029438   3.991552   6.532391   7.179942
    18  H    5.155278   5.037847   3.994489   6.560771   7.056883
    19  H    3.418725   3.865028   3.395774   4.661417   5.035381
    20  H    2.170805   3.393058   3.855699   2.753709   2.775240
    21  H    2.172613   1.087959   2.137049   2.763981   4.068028
    22  H    3.426527   2.155757   1.088276   4.681749   5.868003
    23  H    2.756636   4.059040   5.030098   2.172173   1.087940
    24  H    4.674739   5.867028   7.075463   3.426777   2.150982
    25  H    4.677185   5.067120   6.428140   3.426210   3.863991
    26  H    2.759903   2.787723   4.073528   2.171686   3.395434
    27  H    6.315486   7.322934   8.663948   4.857763   4.048965
    28  H    6.311467   7.079035   8.457546   4.853487   4.536253
    29  H    6.285990   7.028202   8.416869   4.824477   4.291366
                   11         12         13         14         15
    11  C    0.000000
    12  C    1.395528   0.000000
    13  C    2.400832   1.396073   0.000000
    14  C    2.777954   2.429393   1.401079   0.000000
    15  C    2.516469   1.499150   2.515224   3.805247   0.000000
    16  H    9.678099  10.394421   9.842026   8.472780  11.889838
    17  H    8.541743   9.283952   8.810549   7.493398  10.756283
    18  H    8.450871   9.326444   8.969401   7.668223  10.799281
    19  H    6.391709   7.295269   7.054464   5.848892   8.739319
    20  H    4.054479   5.030794   5.022967   4.054609   6.420615
    21  H    5.050621   5.074716   4.089054   2.795522   6.459422
    22  H    7.087637   7.345722   6.438777   5.070109   8.789709
    23  H    2.135757   3.395179   3.863307   3.395101   4.651400
    24  H    1.087717   2.159962   3.393683   3.865452   2.733996
    25  H    3.393289   2.159838   1.087937   2.151894   2.730446
    26  H    3.864851   3.396226   2.136244   1.087731   4.650860
    27  H    2.666857   2.150444   3.387468   4.554250   1.095339
    28  H    3.364474   2.147408   2.689541   4.061176   1.095161
    29  H    3.046053   2.137809   2.996449   4.260788   1.094137
                   16         17         18         19         20
    16  H    0.000000
    17  H    1.767242   0.000000
    18  H    1.768374   1.806721   0.000000
    19  H    3.654900   2.356786   2.396442   0.000000
    20  H    5.959997   4.644080   4.694093   2.414587   0.000000
    21  H    6.507561   6.009905   6.008276   4.952380   4.318489
    22  H    4.454156   4.437549   4.431651   4.303202   4.943907
    23  H    7.904478   6.797580   6.522833   4.519060   2.295186
    24  H   10.297110   9.132481   8.954074   6.883314   4.524329
    25  H   10.573529   9.581181   9.818072   7.961167   6.020512
    26  H    8.256793   7.374904   7.666952   6.026000   4.576554
    27  H   12.259289  11.043399  11.077733   8.935920   6.545117
    28  H   12.345140  11.176114  11.366536   9.276369   6.998512
    29  H   12.346561  11.326170  11.231741   9.294598   7.030989
                   21         22         23         24         25
    21  H    0.000000
    22  H    2.444782   0.000000
    23  H    4.579048   6.030873   0.000000
    24  H    6.044496   7.989437   2.435268   0.000000
    25  H    4.559281   6.936243   4.951057   4.303668   0.000000
    26  H    2.303551   4.551978   4.319205   4.952516   2.436644
    27  H    7.221638   9.463093   4.715318   2.471231   3.731059
    28  H    6.774613   9.124648   5.459246   3.697316   2.517813
    29  H    6.693670   9.071891   5.098730   3.184830   3.096884
                   26         27         28         29
    26  H    0.000000
    27  H    5.480056   0.000000
    28  H    4.731658   1.762793   0.000000
    29  H    5.058893   1.779957   1.782036   0.000000
 Stoichiometry    C14H14O
 Framework group  C1[X(C14H14O)]
 Deg. of freedom    81
 Full point group                 C1      NOp   1
 Largest Abelian subgroup         C1      NOp   1
 Largest concise Abelian subgroup C1      NOp   1
                         Standard orientation:                         
 ---------------------------------------------------------------------
 Center     Atomic      Atomic             Coordinates (Angstroms)
 Number     Number       Type             X           Y           Z
 ---------------------------------------------------------------------
      1          6           0       -5.330002   -0.710866    0.207795
      2          8           0       -4.515907    0.418398   -0.080988
      3          6           0       -3.162047    0.225999   -0.052672
      4          6           0       -2.508154   -0.965363    0.239439
      5          6           0       -1.105513   -1.017590    0.249697
      6          6           0       -0.315309    0.108592   -0.047369
      7          6           0       -1.002354    1.297261   -0.350776
      8          6           0       -2.401373    1.355805   -0.345580
      9          6           0        1.168051    0.042602   -0.031559
     10          6           0        1.856781   -1.134923   -0.377336
     11          6           0        3.254696   -1.211420   -0.336607
     12          6           0        4.014240   -0.105865    0.048540
     13          6           0        3.353375    1.082329    0.365511
     14          6           0        1.954185    1.149142    0.336772
     15          6           0        5.511787   -0.173378    0.064171
     16          1           0       -6.375670   -0.390563    0.161218
     17          1           0       -5.143215   -1.086711    1.219318
     18          1           0       -5.188859   -1.498731   -0.539203
     19          1           0       -3.050466   -1.874741    0.475107
     20          1           0       -0.637813   -1.963815    0.512551
     21          1           0       -0.456964    2.203157   -0.606818
     22          1           0       -2.899775    2.295789   -0.574425
     23          1           0        1.311185   -2.019752   -0.698298
     24          1           0        3.741575   -2.145200   -0.608883
     25          1           0        3.920162    1.967259    0.647043
     26          1           0        1.486630    2.088235    0.624271
     27          1           0        5.856782   -1.196693    0.247397
     28          1           0        5.920524    0.453647    0.863641
     29          1           0        5.912973    0.166989   -0.895171
 ---------------------------------------------------------------------
 Rotational constants (GHZ):      2.5748613      0.2347756      0.2184042
 Leave Link  202 at Thu Sep 30 17:31:50 2021, MaxMem= 1073741824 cpu:       0.1
 (Enter /sw/target/amd/app/gaussian/Gaussian09RevA.02_gcc-4.9.2/g09/l301.exe)
 Standard basis: 6-31G(d) (6D, 7F)
 Ernie: Thresh=  0.10000D-02 Tol=  0.10000D-05 Strict=F.
 There are   253 symmetry adapted basis functions of A   symmetry.
 Integral buffers will be    131072 words long.
 Raffenetti 2 integral format.
 Two-electron integral symmetry is turned on.
   253 basis functions,   476 primitive gaussians,   253 cartesian basis functions
    53 alpha electrons       53 beta electrons
       nuclear repulsion energy       877.6654650297 Hartrees.
 IExCor=  402 DFT=T Ex+Corr=B3LYP ExCW=0 ScaHFX=  0.200000
 ScaDFX=  0.800000  0.720000  1.000000  0.810000 ScalE2=  1.000000  1.000000
 IRadAn=      0 IRanWt=     -1 IRanGd=            0 ICorTp=0
 NAtoms=   29 NActive=   29 NUniq=   29 SFac= 7.50D-01 NAtFMM=   80 NAOKFM=F Big=F
 Leave Link  301 at Thu Sep 30 17:31:51 2021, MaxMem= 1073741824 cpu:       0.1
 (Enter /sw/target/amd/app/gaussian/Gaussian09RevA.02_gcc-4.9.2/g09/l302.exe)
 NPDir=0 NMtPBC=     1 NCelOv=     1 NCel=       1 NClECP=     1 NCelD=      1
         NCelK=      1 NCelE2=     1 NClLst=     1 CellRange=     0.0.
 One-electron integrals computed using PRISM.
 NBasis=   253 RedAO= T  NBF=   253
 NBsUse=   253 1.00D-06 NBFU=   253
 Precomputing XC quadrature grid using
 IXCGrd= 2 IRadAn=           0 IRanWt=          -1 IRanGd=           0 AccXCQ= 1.00D-10.
 NRdTot=    1847 NPtTot=      235626 NUsed=      248945 NTot=      248977
 NSgBfM=   251   251   251   251   251 NAtAll=    29    29.
 Leave Link  302 at Thu Sep 30 17:31:54 2021, MaxMem= 1073741824 cpu:       2.2
 (Enter /sw/target/amd/app/gaussian/Gaussian09RevA.02_gcc-4.9.2/g09/l303.exe)
 DipDrv:  MaxL=1.
 Leave Link  303 at Thu Sep 30 17:31:55 2021, MaxMem= 1073741824 cpu:       0.2
 (Enter /sw/target/amd/app/gaussian/Gaussian09RevA.02_gcc-4.9.2/g09/l401.exe)
 Harris functional with IExCor=  402 diagonalized for initial guess.
 ExpMin= 1.61D-01 ExpMax= 5.48D+03 ExpMxC= 8.25D+02 IAcc=1 IRadAn=         1 AccDes= 0.00D+00
 HarFok:  IExCor=  402 AccDes= 0.00D+00 IRadAn=         1 IDoV= 1
 ScaDFX=  1.000000  1.000000  1.000000  1.000000
 FoFCou: FMM=F IPFlag=           0 FMFlag=      100000 FMFlg1=           0
         NFxFlg=           0 DoJE=T BraDBF=F KetDBF=T FulRan=T
         Omega=  0.000000  0.000000  1.000000  0.000000  0.000000 ICntrl=     500 IOpCl=  0
         NMat0=    1 NMatS0=    1 NMatT0=    0 NMatD0=    1 NMtDS0=    0 NMtDT0=    0
         I1Cent=           4 NGrid=           0.
 Petite list used in FoFCou.
 Harris En= -617.227942737239    
 Initial guess orbital symmetries:
       Occupied  (A) (A) (A) (A) (A) (A) (A) (A) (A) (A) (A) (A)
                 (A) (A) (A) (A) (A) (A) (A) (A) (A) (A) (A) (A)
                 (A) (A) (A) (A) (A) (A) (A) (A) (A) (A) (A) (A)
                 (A) (A) (A) (A) (A) (A) (A) (A) (A) (A) (A) (A)
                 (A) (A) (A) (A) (A)
       Virtual   (A) (A) (A) (A) (A) (A) (A) (A) (A) (A) (A) (A)
                 (A) (A) (A) (A) (A) (A) (A) (A) (A) (A) (A) (A)
                 (A) (A) (A) (A) (A) (A) (A) (A) (A) (A) (A) (A)
                 (A) (A) (A) (A) (A) (A) (A) (A) (A) (A) (A) (A)
                 (A) (A) (A) (A) (A) (A) (A) (A) (A) (A) (A) (A)
                 (A) (A) (A) (A) (A) (A) (A) (A) (A) (A) (A) (A)
                 (A) (A) (A) (A) (A) (A) (A) (A) (A) (A) (A) (A)
                 (A) (A) (A) (A) (A) (A) (A) (A) (A) (A) (A) (A)
                 (A) (A) (A) (A) (A) (A) (A) (A) (A) (A) (A) (A)
                 (A) (A) (A) (A) (A) (A) (A) (A) (A) (A) (A) (A)
                 (A) (A) (A) (A) (A) (A) (A) (A) (A) (A) (A) (A)
                 (A) (A) (A) (A) (A) (A) (A) (A) (A) (A) (A) (A)
                 (A) (A) (A) (A) (A) (A) (A) (A) (A) (A) (A) (A)
                 (A) (A) (A) (A) (A) (A) (A) (A) (A) (A) (A) (A)
                 (A) (A) (A) (A) (A) (A) (A) (A) (A) (A) (A) (A)
                 (A) (A) (A) (A) (A) (A) (A) (A) (A) (A) (A) (A)
                 (A) (A) (A) (A) (A) (A) (A) (A)
 The electronic state of the initial guess is 1-A.
 Leave Link  401 at Thu Sep 30 17:32:07 2021, MaxMem= 1073741824 cpu:       9.5
 (Enter /sw/target/amd/app/gaussian/Gaussian09RevA.02_gcc-4.9.2/g09/l502.exe)
 Closed shell SCF:
 Requested convergence on RMS density matrix=1.00D-08 within  64 cycles.
 Requested convergence on MAX density matrix=1.00D-06.
 Requested convergence on             energy=1.00D-06.
 No special actions if energy rises.
 Using DIIS extrapolation, IDIIS=  1040.
 Integral symmetry usage will be decided dynamically.
       248671 words used for storage of precomputed grid.
 Keep R1 ints in memory in canonical form, NReq=524859736.
 IEnd=      449671 IEndB=      449671 NGot=  1073741824 MDV=   557143966
 LenX=   557143966 LenY=   557079516
 Symmetry not used in FoFDir.
 MinBra= 0 MaxBra= 2 Meth= 1.
 IRaf=       0 NMat=   1 IRICut=       1 DoRegI=T DoRafI=F ISym2E= 0 JSym2E=0.
 Integral accuracy reduced to 1.0D-05 until final iterations.

 Cycle   1  Pass 0  IDiag  1:
 E= -616.789346458903    
 DIIS: error= 4.57D-02 at cycle   1 NSaved=   1.
 NSaved= 1 IEnMin= 1 EnMin= -616.789346458903     IErMin= 1 ErrMin= 4.57D-02
 ErrMax= 4.57D-02 EMaxC= 1.00D-01 BMatC= 3.19D-01 BMatP= 3.19D-01
 IDIUse=3 WtCom= 5.43D-01 WtEn= 4.57D-01
 Coeff-Com:  0.100D+01
 Coeff-En:   0.100D+01
 Coeff:      0.100D+01
 Gap=     0.199 Goal=   None    Shift=    0.000
 GapD=    0.199 DampG=1.000 DampE=0.500 DampFc=0.5000 IDamp=-1.
 Damping current iteration by 5.00D-01
 RMSDP=5.18D-03 MaxDP=1.38D-01              OVMax= 1.60D-01

 Cycle   2  Pass 0  IDiag  1:
 E= -616.962776691306     Delta-E=       -0.173430232403 Rises=F Damp=T
 DIIS: error= 7.03D-03 at cycle   2 NSaved=   2.
 NSaved= 2 IEnMin= 2 EnMin= -616.962776691306     IErMin= 2 ErrMin= 7.03D-03
 ErrMax= 7.03D-03 EMaxC= 1.00D-01 BMatC= 1.46D-02 BMatP= 3.19D-01
 IDIUse=3 WtCom= 9.30D-01 WtEn= 7.03D-02
 Coeff-Com: -0.131D-01 0.101D+01
 Coeff-En:   0.000D+00 0.100D+01
 Coeff:     -0.122D-01 0.101D+01
 Gap=     0.194 Goal=   None    Shift=    0.000
 RMSDP=1.29D-03 MaxDP=3.39D-02 DE=-1.73D-01 OVMax= 1.25D-01

 Cycle   3  Pass 0  IDiag  1:
 E= -617.138932676927     Delta-E=       -0.176155985621 Rises=F Damp=F
 DIIS: error= 3.98D-03 at cycle   3 NSaved=   3.
 NSaved= 3 IEnMin= 3 EnMin= -617.138932676927     IErMin= 3 ErrMin= 3.98D-03
 ErrMax= 3.98D-03 EMaxC= 1.00D-01 BMatC= 5.54D-03 BMatP= 1.46D-02
 IDIUse=3 WtCom= 9.60D-01 WtEn= 3.98D-02
 Coeff-Com: -0.367D-01 0.363D+00 0.674D+00
 Coeff-En:   0.000D+00 0.000D+00 0.100D+01
 Coeff:     -0.352D-01 0.348D+00 0.687D+00
 Gap=     0.190 Goal=   None    Shift=    0.000
 RMSDP=5.77D-04 MaxDP=2.71D-02 DE=-1.76D-01 OVMax= 5.43D-02

 Cycle   4  Pass 0  IDiag  1:
 E= -617.141123043986     Delta-E=       -0.002190367058 Rises=F Damp=F
 DIIS: error= 3.75D-03 at cycle   4 NSaved=   4.
 NSaved= 4 IEnMin= 4 EnMin= -617.141123043986     IErMin= 4 ErrMin= 3.75D-03
 ErrMax= 3.75D-03 EMaxC= 1.00D-01 BMatC= 3.44D-03 BMatP= 5.54D-03
 IDIUse=3 WtCom= 9.62D-01 WtEn= 3.75D-02
 Coeff-Com: -0.203D-01 0.992D-01 0.450D+00 0.471D+00
 Coeff-En:   0.000D+00 0.000D+00 0.403D+00 0.597D+00
 Coeff:     -0.196D-01 0.955D-01 0.448D+00 0.476D+00
 Gap=     0.185 Goal=   None    Shift=    0.000
 RMSDP=2.81D-04 MaxDP=1.16D-02 DE=-2.19D-03 OVMax= 2.61D-02

 Cycle   5  Pass 0  IDiag  1:
 E= -617.144754722498     Delta-E=       -0.003631678513 Rises=F Damp=F
 DIIS: error= 5.02D-04 at cycle   5 NSaved=   5.
 NSaved= 5 IEnMin= 5 EnMin= -617.144754722498     IErMin= 5 ErrMin= 5.02D-04
 ErrMax= 5.02D-04 EMaxC= 1.00D-01 BMatC= 9.44D-05 BMatP= 3.44D-03
 IDIUse=3 WtCom= 9.95D-01 WtEn= 5.02D-03
 Coeff-Com: -0.573D-02 0.185D-01 0.156D+00 0.220D+00 0.611D+00
 Coeff-En:   0.000D+00 0.000D+00 0.000D+00 0.000D+00 0.100D+01
 Coeff:     -0.570D-02 0.184D-01 0.156D+00 0.219D+00 0.613D+00
 Gap=     0.185 Goal=   None    Shift=    0.000
 RMSDP=5.86D-05 MaxDP=1.84D-03 DE=-3.63D-03 OVMax= 5.02D-03

 Cycle   6  Pass 0  IDiag  1:
 E= -617.144821541345     Delta-E=       -0.000066818846 Rises=F Damp=F
 DIIS: error= 3.06D-04 at cycle   6 NSaved=   6.
 NSaved= 6 IEnMin= 6 EnMin= -617.144821541345     IErMin= 6 ErrMin= 3.06D-04
 ErrMax= 3.06D-04 EMaxC= 1.00D-01 BMatC= 2.63D-05 BMatP= 9.44D-05
 IDIUse=3 WtCom= 9.97D-01 WtEn= 3.06D-03
 Coeff-Com: -0.200D-02 0.393D-02 0.631D-01 0.102D+00 0.402D+00 0.431D+00
 Coeff-En:   0.000D+00 0.000D+00 0.000D+00 0.000D+00 0.235D+00 0.765D+00
 Coeff:     -0.200D-02 0.391D-02 0.629D-01 0.101D+00 0.402D+00 0.432D+00
 Gap=     0.185 Goal=   None    Shift=    0.000
 RMSDP=2.65D-05 MaxDP=7.93D-04 DE=-6.68D-05 OVMax= 1.84D-03

 Cycle   7  Pass 0  IDiag  1:
 E= -617.144849058978     Delta-E=       -0.000027517633 Rises=F Damp=F
 DIIS: error= 6.08D-05 at cycle   7 NSaved=   7.
 NSaved= 7 IEnMin= 7 EnMin= -617.144849058978     IErMin= 7 ErrMin= 6.08D-05
 ErrMax= 6.08D-05 EMaxC= 1.00D-01 BMatC= 1.34D-06 BMatP= 2.63D-05
 IDIUse=1 WtCom= 1.00D+00 WtEn= 0.00D+00
 Coeff-Com: -0.769D-03 0.938D-03 0.273D-01 0.457D-01 0.199D+00 0.256D+00
 Coeff-Com:  0.472D+00
 Coeff:     -0.769D-03 0.938D-03 0.273D-01 0.457D-01 0.199D+00 0.256D+00
 Coeff:      0.472D+00
 Gap=     0.185 Goal=   None    Shift=    0.000
 RMSDP=5.99D-06 MaxDP=1.71D-04 DE=-2.75D-05 OVMax= 5.59D-04

 Initial convergence to 1.0D-05 achieved.  Increase integral accuracy.
 Cycle   8  Pass 1  IDiag  1:
 E= -617.144837551518     Delta-E=        0.000011507459 Rises=F Damp=F
 DIIS: error= 1.57D-05 at cycle   1 NSaved=   1.
 NSaved= 1 IEnMin= 1 EnMin= -617.144837551518     IErMin= 1 ErrMin= 1.57D-05
 ErrMax= 1.57D-05 EMaxC= 1.00D-01 BMatC= 1.41D-07 BMatP= 1.41D-07
 IDIUse=1 WtCom= 1.00D+00 WtEn= 0.00D+00
 Coeff-Com:  0.100D+01
 Coeff:      0.100D+01
 Gap=     0.185 Goal=   None    Shift=    0.000
 RMSDP=5.99D-06 MaxDP=1.71D-04 DE= 1.15D-05 OVMax= 3.44D-04

 Cycle   9  Pass 1  IDiag  1:
 E= -617.144837348528     Delta-E=        0.000000202991 Rises=F Damp=F
 DIIS: error= 3.28D-05 at cycle   2 NSaved=   2.
 NSaved= 2 IEnMin= 1 EnMin= -617.144837551518     IErMin= 1 ErrMin= 1.57D-05
 ErrMax= 3.28D-05 EMaxC= 1.00D-01 BMatC= 3.28D-07 BMatP= 1.41D-07
 IDIUse=1 WtCom= 1.00D+00 WtEn= 0.00D+00
 Coeff-Com:  0.614D+00 0.386D+00
 Coeff:      0.614D+00 0.386D+00
 Gap=     0.185 Goal=   None    Shift=    0.000
 RMSDP=2.92D-06 MaxDP=9.23D-05 DE= 2.03D-07 OVMax= 2.71D-04

 Cycle  10  Pass 1  IDiag  1:
 E= -617.144837691665     Delta-E=       -0.000000343138 Rises=F Damp=F
 DIIS: error= 8.66D-06 at cycle   3 NSaved=   3.
 NSaved= 3 IEnMin= 3 EnMin= -617.144837691665     IErMin= 3 ErrMin= 8.66D-06
 ErrMax= 8.66D-06 EMaxC= 1.00D-01 BMatC= 1.60D-08 BMatP= 1.41D-07
 IDIUse=1 WtCom= 1.00D+00 WtEn= 0.00D+00
 Coeff-Com:  0.184D+00 0.203D+00 0.613D+00
 Coeff:      0.184D+00 0.203D+00 0.613D+00
 Gap=     0.185 Goal=   None    Shift=    0.000
 RMSDP=8.14D-07 MaxDP=2.32D-05 DE=-3.43D-07 OVMax= 6.04D-05

 Cycle  11  Pass 1  IDiag  1:
 E= -617.144837705039     Delta-E=       -0.000000013374 Rises=F Damp=F
 DIIS: error= 3.29D-06 at cycle   4 NSaved=   4.
 NSaved= 4 IEnMin= 4 EnMin= -617.144837705039     IErMin= 4 ErrMin= 3.29D-06
 ErrMax= 3.29D-06 EMaxC= 1.00D-01 BMatC= 4.81D-09 BMatP= 1.60D-08
 IDIUse=1 WtCom= 1.00D+00 WtEn= 0.00D+00
 Coeff-Com: -0.338D-02 0.596D-01 0.409D+00 0.535D+00
 Coeff:     -0.338D-02 0.596D-01 0.409D+00 0.535D+00
 Gap=     0.185 Goal=   None    Shift=    0.000
 RMSDP=3.04D-07 MaxDP=9.82D-06 DE=-1.34D-08 OVMax= 2.59D-05

 Cycle  12  Pass 1  IDiag  1:
 E= -617.144837709830     Delta-E=       -0.000000004790 Rises=F Damp=F
 DIIS: error= 5.21D-07 at cycle   5 NSaved=   5.
 NSaved= 5 IEnMin= 5 EnMin= -617.144837709830     IErMin= 5 ErrMin= 5.21D-07
 ErrMax= 5.21D-07 EMaxC= 1.00D-01 BMatC= 8.99D-11 BMatP= 4.81D-09
 IDIUse=1 WtCom= 1.00D+00 WtEn= 0.00D+00
 Coeff-Com: -0.863D-02 0.211D-01 0.170D+00 0.252D+00 0.565D+00
 Coeff:     -0.863D-02 0.211D-01 0.170D+00 0.252D+00 0.565D+00
 Gap=     0.185 Goal=   None    Shift=    0.000
 RMSDP=5.94D-08 MaxDP=1.95D-06 DE=-4.79D-09 OVMax= 4.59D-06

 Cycle  13  Pass 1  IDiag  1:
 E= -617.144837709876     Delta-E=       -0.000000000046 Rises=F Damp=F
 DIIS: error= 2.35D-07 at cycle   6 NSaved=   6.
 NSaved= 6 IEnMin= 6 EnMin= -617.144837709876     IErMin= 6 ErrMin= 2.35D-07
 ErrMax= 2.35D-07 EMaxC= 1.00D-01 BMatC= 1.98D-11 BMatP= 8.99D-11
 IDIUse=1 WtCom= 1.00D+00 WtEn= 0.00D+00
 Coeff-Com: -0.492D-02 0.797D-02 0.687D-01 0.107D+00 0.357D+00 0.464D+00
 Coeff:     -0.492D-02 0.797D-02 0.687D-01 0.107D+00 0.357D+00 0.464D+00
 Gap=     0.185 Goal=   None    Shift=    0.000
 RMSDP=2.12D-08 MaxDP=9.16D-07 DE=-4.59D-11 OVMax= 2.05D-06

 Cycle  14  Pass 1  IDiag  1:
 E= -617.144837709922     Delta-E=       -0.000000000047 Rises=F Damp=F
 DIIS: error= 2.16D-08 at cycle   7 NSaved=   7.
 NSaved= 7 IEnMin= 7 EnMin= -617.144837709922     IErMin= 7 ErrMin= 2.16D-08
 ErrMax= 2.16D-08 EMaxC= 1.00D-01 BMatC= 2.61D-13 BMatP= 1.98D-11
 IDIUse=1 WtCom= 1.00D+00 WtEn= 0.00D+00
 Coeff-Com: -0.724D-03 0.793D-03 0.671D-02 0.109D-01 0.564D-01 0.132D+00
 Coeff-Com:  0.794D+00
 Coeff:     -0.724D-03 0.793D-03 0.671D-02 0.109D-01 0.564D-01 0.132D+00
 Coeff:      0.794D+00
 Gap=     0.185 Goal=   None    Shift=    0.000
 RMSDP=3.01D-09 MaxDP=8.54D-08 DE=-4.66D-11 OVMax= 2.14D-07

 SCF Done:  E(RB3LYP) =  -617.144837710     A.U. after   14 cycles
             Convg  =    0.3010D-08             -V/T =  2.0098
 KE= 6.111781713450D+02 PE=-3.186817487164D+03 EE= 1.080829013079D+03
 Leave Link  502 at Thu Sep 30 17:38:30 2021, MaxMem= 1073741824 cpu:     221.7
 (Enter /sw/target/amd/app/gaussian/Gaussian09RevA.02_gcc-4.9.2/g09/l508.exe)
 QCSCF skips out because SCF is already converged.
 Leave Link  508 at Thu Sep 30 17:38:33 2021, MaxMem= 1073741824 cpu:       0.0
 (Enter /sw/target/amd/app/gaussian/Gaussian09RevA.02_gcc-4.9.2/g09/l601.exe)
 Copying SCF densities to generalized density rwf, IOpCl= 0 IROHF=0.

 **********************************************************************

            Population analysis using the SCF density.

 **********************************************************************

 Orbital symmetries:
       Occupied  (A) (A) (A) (A) (A) (A) (A) (A) (A) (A) (A) (A)
                 (A) (A) (A) (A) (A) (A) (A) (A) (A) (A) (A) (A)
                 (A) (A) (A) (A) (A) (A) (A) (A) (A) (A) (A) (A)
                 (A) (A) (A) (A) (A) (A) (A) (A) (A) (A) (A) (A)
                 (A) (A) (A) (A) (A)
       Virtual   (A) (A) (A) (A) (A) (A) (A) (A) (A) (A) (A) (A)
                 (A) (A) (A) (A) (A) (A) (A) (A) (A) (A) (A) (A)
                 (A) (A) (A) (A) (A) (A) (A) (A) (A) (A) (A) (A)
                 (A) (A) (A) (A) (A) (A) (A) (A) (A) (A) (A) (A)
                 (A) (A) (A) (A) (A) (A) (A) (A) (A) (A) (A) (A)
                 (A) (A) (A) (A) (A) (A) (A) (A) (A) (A) (A) (A)
                 (A) (A) (A) (A) (A) (A) (A) (A) (A) (A) (A) (A)
                 (A) (A) (A) (A) (A) (A) (A) (A) (A) (A) (A) (A)
                 (A) (A) (A) (A) (A) (A) (A) (A) (A) (A) (A) (A)
                 (A) (A) (A) (A) (A) (A) (A) (A) (A) (A) (A) (A)
                 (A) (A) (A) (A) (A) (A) (A) (A) (A) (A) (A) (A)
                 (A) (A) (A) (A) (A) (A) (A) (A) (A) (A) (A) (A)
                 (A) (A) (A) (A) (A) (A) (A) (A) (A) (A) (A) (A)
                 (A) (A) (A) (A) (A) (A) (A) (A) (A) (A) (A) (A)
                 (A) (A) (A) (A) (A) (A) (A) (A) (A) (A) (A) (A)
                 (A) (A) (A) (A) (A) (A) (A) (A) (A) (A) (A) (A)
                 (A) (A) (A) (A) (A) (A) (A) (A)
 The electronic state is 1-A.
 Alpha  occ. eigenvalues --  -19.17663 -10.24293 -10.23973 -10.19231 -10.19044
 Alpha  occ. eigenvalues --  -10.18907 -10.18888 -10.18709 -10.18600 -10.18337
 Alpha  occ. eigenvalues --  -10.18324 -10.18128 -10.18127 -10.18118 -10.17896
 Alpha  occ. eigenvalues --   -1.06123  -0.85889  -0.84018  -0.78227  -0.74738
 Alpha  occ. eigenvalues --   -0.74008  -0.73385  -0.70142  -0.66754  -0.61603
 Alpha  occ. eigenvalues --   -0.59689  -0.58921  -0.56476  -0.53254  -0.50257
 Alpha  occ. eigenvalues --   -0.48047  -0.46929  -0.46031  -0.44972  -0.43896
 Alpha  occ. eigenvalues --   -0.43182  -0.42021  -0.41875  -0.41086  -0.40555
 Alpha  occ. eigenvalues --   -0.38247  -0.37505  -0.37079  -0.35815  -0.34915
 Alpha  occ. eigenvalues --   -0.33429  -0.33200  -0.32181  -0.31457  -0.25049
 Alpha  occ. eigenvalues --   -0.24453  -0.24191  -0.20094
 Alpha virt. eigenvalues --   -0.01609  -0.00199   0.00602   0.04516   0.09492
 Alpha virt. eigenvalues --    0.10297   0.10921   0.12687   0.12802   0.13969
 Alpha virt. eigenvalues --    0.14043   0.15271   0.15786   0.16681   0.17045
 Alpha virt. eigenvalues --    0.17484   0.18400   0.18802   0.19987   0.21128
 Alpha virt. eigenvalues --    0.23463   0.23739   0.25292   0.26855   0.29843
 Alpha virt. eigenvalues --    0.30541   0.32808   0.33118   0.35513   0.37444
 Alpha virt. eigenvalues --    0.38449   0.39293   0.46657   0.48754   0.50748
 Alpha virt. eigenvalues --    0.51855   0.52248   0.53232   0.53545   0.54375
 Alpha virt. eigenvalues --    0.54616   0.55613   0.56870   0.57043   0.57900
 Alpha virt. eigenvalues --    0.59705   0.60084   0.60193   0.60390   0.60525
 Alpha virt. eigenvalues --    0.61367   0.61582   0.62496   0.63013   0.65468
 Alpha virt. eigenvalues --    0.66567   0.66645   0.68183   0.69191   0.71718
 Alpha virt. eigenvalues --    0.73719   0.74226   0.74828   0.75823   0.79241
 Alpha virt. eigenvalues --    0.79816   0.81506   0.83137   0.83564   0.84090
 Alpha virt. eigenvalues --    0.85329   0.85999   0.86809   0.87156   0.88442
 Alpha virt. eigenvalues --    0.89204   0.90666   0.91220   0.92258   0.93577
 Alpha virt. eigenvalues --    0.94840   0.95752   0.96321   0.97432   0.99348
 Alpha virt. eigenvalues --    1.01429   1.02584   1.04007   1.04770   1.05345
 Alpha virt. eigenvalues --    1.07373   1.10375   1.14145   1.15937   1.16720
 Alpha virt. eigenvalues --    1.17843   1.19712   1.20795   1.21876   1.23885
 Alpha virt. eigenvalues --    1.27942   1.29515   1.31036   1.36314   1.37581
 Alpha virt. eigenvalues --    1.40024   1.40245   1.44349   1.45128   1.45977
 Alpha virt. eigenvalues --    1.47618   1.48646   1.49039   1.49840   1.51355
 Alpha virt. eigenvalues --    1.52026   1.52638   1.53139   1.63926   1.68962
 Alpha virt. eigenvalues --    1.75670   1.77755   1.78716   1.81799   1.82773
 Alpha virt. eigenvalues --    1.83510   1.84136   1.86866   1.89045   1.90402
 Alpha virt. eigenvalues --    1.92136   1.92746   1.94909   1.96957   1.98337
 Alpha virt. eigenvalues --    1.99420   2.01165   2.03626   2.05262   2.06875
 Alpha virt. eigenvalues --    2.09440   2.10745   2.11564   2.12525   2.13338
 Alpha virt. eigenvalues --    2.14928   2.15755   2.17058   2.21157   2.22857
 Alpha virt. eigenvalues --    2.25180   2.26043   2.27926   2.30924   2.31572
 Alpha virt. eigenvalues --    2.33455   2.35052   2.35485   2.36487   2.37599
 Alpha virt. eigenvalues --    2.39932   2.44921   2.51082   2.54052   2.57612
 Alpha virt. eigenvalues --    2.59595   2.61117   2.62862   2.64654   2.68296
 Alpha virt. eigenvalues --    2.68434   2.70744   2.74232   2.77018   2.78631
 Alpha virt. eigenvalues --    2.82598   2.87409   2.87850   2.96209   2.98138
 Alpha virt. eigenvalues --    3.00756   3.11695   3.24249   3.37485   3.47401
 Alpha virt. eigenvalues --    4.05694   4.09222   4.11242   4.11813   4.12173
 Alpha virt. eigenvalues --    4.14630   4.21168   4.25285   4.31179   4.33943
 Alpha virt. eigenvalues --    4.35011   4.40267   4.50982   4.69933   4.80606
          Condensed to atoms (all electrons):
              1          2          3          4          5          6
     1  C    4.895614   0.248909  -0.043652  -0.006473   0.000331  -0.000006
     2  O    0.248909   8.201423   0.280643  -0.063200   0.003686   0.000131
     3  C   -0.043652   0.280643   4.501464   0.467748  -0.003288  -0.030917
     4  C   -0.006473  -0.063200   0.467748   5.126023   0.468011  -0.018162
     5  C    0.000331   0.003686  -0.003288   0.468011   5.027062   0.522692
     6  C   -0.000006   0.000131  -0.030917  -0.018162   0.522692   4.766322
     7  C   -0.000134   0.003193  -0.018751  -0.042762  -0.059307   0.511109
     8  C    0.004350  -0.055383   0.543710  -0.066419  -0.040511  -0.019452
     9  C   -0.000000  -0.000000   0.000484   0.006126  -0.046189   0.346613
    10  C    0.000000  -0.000000   0.000000   0.000380  -0.014430  -0.047490
    11  C   -0.000000   0.000000   0.000000  -0.000004   0.000358   0.005758
    12  C   -0.000000  -0.000000   0.000000   0.000000   0.000000   0.000705
    13  C   -0.000000   0.000000   0.000000   0.000001  -0.000151   0.005791
    14  C   -0.000000   0.000000   0.000004  -0.000162   0.006052  -0.047215
    15  C    0.000000  -0.000000  -0.000000   0.000000   0.000000  -0.000002
    16  H    0.383933  -0.031127   0.003196   0.000153   0.000001  -0.000000
    17  H    0.363755  -0.035761  -0.005060   0.005237  -0.000147  -0.000004
    18  H    0.364602  -0.036223  -0.004689   0.004932  -0.000131  -0.000001
    19  H    0.005801  -0.007280  -0.046384   0.351672  -0.035862   0.003190
    20  H   -0.000008  -0.000048   0.003191  -0.040950   0.347235  -0.036761
    21  H    0.000003  -0.000061   0.004341   0.000196   0.006568  -0.039870
    22  H   -0.000183  -0.000327  -0.036277   0.007615   0.000218   0.003696
    23  H    0.000000  -0.000000  -0.000006   0.000011   0.005309  -0.010016
    24  H    0.000000  -0.000000  -0.000000  -0.000000  -0.000002  -0.000166
    25  H    0.000000  -0.000000  -0.000000  -0.000000   0.000001  -0.000168
    26  H    0.000000  -0.000000  -0.000005  -0.000004  -0.000072  -0.010209
    27  H    0.000000   0.000000   0.000000   0.000000   0.000000  -0.000000
    28  H    0.000000  -0.000000   0.000000   0.000000  -0.000000  -0.000000
    29  H   -0.000000  -0.000000   0.000000  -0.000000  -0.000000   0.000000
              7          8          9         10         11         12
     1  C   -0.000134   0.004350  -0.000000   0.000000  -0.000000  -0.000000
     2  O    0.003193  -0.055383  -0.000000  -0.000000   0.000000  -0.000000
     3  C   -0.018751   0.543710   0.000484   0.000000   0.000000   0.000000
     4  C   -0.042762  -0.066419   0.006126   0.000380  -0.000004   0.000000
     5  C   -0.059307  -0.040511  -0.046189  -0.014430   0.000358   0.000000
     6  C    0.511109  -0.019452   0.346613  -0.047490   0.005758   0.000705
     7  C    5.015696   0.504363  -0.047225   0.006391  -0.000162  -0.000001
     8  C    0.504363   4.998703   0.005484  -0.000157   0.000002  -0.000000
     9  C   -0.047225   0.005484   4.755363   0.518636  -0.019632  -0.025322
    10  C    0.006391  -0.000157   0.518636   5.042301   0.486421  -0.025030
    11  C   -0.000162   0.000002  -0.019632   0.486421   4.973763   0.556752
    12  C   -0.000001  -0.000000  -0.025322  -0.025030   0.556752   4.608491
    13  C    0.000333  -0.000003  -0.019145  -0.051269  -0.025537   0.552829
    14  C   -0.013970   0.000347   0.518780  -0.055668  -0.050500  -0.023963
    15  C    0.000000   0.000000   0.000374   0.007640  -0.064320   0.350392
    16  H    0.000004  -0.000107  -0.000000   0.000000   0.000000  -0.000000
    17  H   -0.000002   0.000068   0.000000   0.000000   0.000000  -0.000000
    18  H    0.000002   0.000051   0.000000  -0.000000  -0.000000  -0.000000
    19  H    0.000766   0.004593  -0.000170  -0.000002  -0.000000  -0.000000
    20  H    0.006330   0.000485  -0.010431   0.005898   0.000012  -0.000005
    21  H    0.349592  -0.042167  -0.010339  -0.000074  -0.000003  -0.000007
    22  H   -0.039212   0.344153  -0.000136   0.000001  -0.000000  -0.000000
    23  H   -0.000061  -0.000006  -0.040072   0.345481  -0.041424   0.003824
    24  H    0.000001  -0.000000   0.003376  -0.041818   0.353645  -0.044445
    25  H   -0.000001  -0.000000   0.003409   0.000572   0.005939  -0.045984
    26  H    0.005366   0.000012  -0.039724   0.006097   0.000684   0.003784
    27  H    0.000000  -0.000000   0.000012   0.000145  -0.003124  -0.029265
    28  H   -0.000000  -0.000000   0.000014  -0.000191   0.002894  -0.028880
    29  H   -0.000000   0.000000   0.000040  -0.000193  -0.001725  -0.027559
             13         14         15         16         17         18
     1  C   -0.000000  -0.000000   0.000000   0.383933   0.363755   0.364602
     2  O    0.000000   0.000000  -0.000000  -0.031127  -0.035761  -0.036223
     3  C    0.000000   0.000004  -0.000000   0.003196  -0.005060  -0.004689
     4  C    0.000001  -0.000162   0.000000   0.000153   0.005237   0.004932
     5  C   -0.000151   0.006052   0.000000   0.000001  -0.000147  -0.000131
     6  C    0.005791  -0.047215  -0.000002  -0.000000  -0.000004  -0.000001
     7  C    0.000333  -0.013970   0.000000   0.000004  -0.000002   0.000002
     8  C   -0.000003   0.000347   0.000000  -0.000107   0.000068   0.000051
     9  C   -0.019145   0.518780   0.000374  -0.000000   0.000000   0.000000
    10  C   -0.051269  -0.055668   0.007640   0.000000   0.000000  -0.000000
    11  C   -0.025537  -0.050500  -0.064320   0.000000   0.000000  -0.000000
    12  C    0.552829  -0.023963   0.350392  -0.000000  -0.000000  -0.000000
    13  C    4.977674   0.487766  -0.067642  -0.000000  -0.000000   0.000000
    14  C    0.487766   5.038353   0.007398   0.000000   0.000000  -0.000000
    15  C   -0.067642   0.007398   5.221666  -0.000000   0.000000  -0.000000
    16  H   -0.000000   0.000000  -0.000000   0.544149  -0.033893  -0.034080
    17  H   -0.000000   0.000000   0.000000  -0.033893   0.597446  -0.046485
    18  H    0.000000  -0.000000  -0.000000  -0.034080  -0.046485   0.597410
    19  H   -0.000000   0.000001  -0.000000  -0.000123   0.001841   0.001725
    20  H   -0.000003  -0.000092  -0.000000  -0.000000   0.000003   0.000001
    21  H    0.000020   0.005363  -0.000000  -0.000000  -0.000000  -0.000000
    22  H   -0.000000  -0.000002  -0.000000  -0.000027   0.000030   0.000028
    23  H    0.000681   0.006084  -0.000209  -0.000000   0.000000  -0.000000
    24  H    0.006056   0.000546  -0.009839   0.000000  -0.000000   0.000000
    25  H    0.354646  -0.041413  -0.009361   0.000000   0.000000  -0.000000
    26  H   -0.041515   0.345969  -0.000208  -0.000000  -0.000000   0.000000
    27  H    0.003314  -0.000188   0.364223   0.000000   0.000000  -0.000000
    28  H   -0.003185   0.000113   0.364070   0.000000   0.000000  -0.000000
    29  H   -0.002155  -0.000155   0.362824   0.000000  -0.000000   0.000000
             19         20         21         22         23         24
     1  C    0.005801  -0.000008   0.000003  -0.000183   0.000000   0.000000
     2  O   -0.007280  -0.000048  -0.000061  -0.000327  -0.000000  -0.000000
     3  C   -0.046384   0.003191   0.004341  -0.036277  -0.000006  -0.000000
     4  C    0.351672  -0.040950   0.000196   0.007615   0.000011  -0.000000
     5  C   -0.035862   0.347235   0.006568   0.000218   0.005309  -0.000002
     6  C    0.003190  -0.036761  -0.039870   0.003696  -0.010016  -0.000166
     7  C    0.000766   0.006330   0.349592  -0.039212  -0.000061   0.000001
     8  C    0.004593   0.000485  -0.042167   0.344153  -0.000006  -0.000000
     9  C   -0.000170  -0.010431  -0.010339  -0.000136  -0.040072   0.003376
    10  C   -0.000002   0.005898  -0.000074   0.000001   0.345481  -0.041818
    11  C   -0.000000   0.000012  -0.000003  -0.000000  -0.041424   0.353645
    12  C   -0.000000  -0.000005  -0.000007  -0.000000   0.003824  -0.044445
    13  C   -0.000000  -0.000003   0.000020  -0.000000   0.000681   0.006056
    14  C    0.000001  -0.000092   0.005363  -0.000002   0.006084   0.000546
    15  C   -0.000000  -0.000000  -0.000000  -0.000000  -0.000209  -0.009839
    16  H   -0.000123  -0.000000  -0.000000  -0.000027  -0.000000   0.000000
    17  H    0.001841   0.000003  -0.000000   0.000030   0.000000  -0.000000
    18  H    0.001725   0.000001  -0.000000   0.000028  -0.000000   0.000000
    19  H    0.595468  -0.005856   0.000016  -0.000173   0.000005   0.000000
    20  H   -0.005856   0.596369  -0.000181   0.000015   0.003195   0.000005
    21  H    0.000016  -0.000181   0.597957  -0.006429   0.000000   0.000000
    22  H   -0.000173   0.000015  -0.006429   0.589899   0.000000   0.000000
    23  H    0.000005   0.003195   0.000000   0.000000   0.606954  -0.005548
    24  H    0.000000   0.000005   0.000000   0.000000  -0.005548   0.611100
    25  H    0.000000   0.000000   0.000005   0.000000   0.000020  -0.000182
    26  H    0.000000   0.000000   0.003128   0.000005  -0.000178   0.000019
    27  H   -0.000000   0.000000   0.000000   0.000000  -0.000008   0.005527
    28  H   -0.000000   0.000000  -0.000000   0.000000   0.000003   0.000036
    29  H    0.000000  -0.000000   0.000000  -0.000000   0.000003   0.000523
             25         26         27         28         29
     1  C    0.000000   0.000000   0.000000   0.000000  -0.000000
     2  O   -0.000000  -0.000000   0.000000  -0.000000  -0.000000
     3  C   -0.000000  -0.000005   0.000000   0.000000   0.000000
     4  C   -0.000000  -0.000004   0.000000   0.000000  -0.000000
     5  C    0.000001  -0.000072   0.000000  -0.000000  -0.000000
     6  C   -0.000168  -0.010209  -0.000000  -0.000000   0.000000
     7  C   -0.000001   0.005366   0.000000  -0.000000  -0.000000
     8  C   -0.000000   0.000012  -0.000000  -0.000000   0.000000
     9  C    0.003409  -0.039724   0.000012   0.000014   0.000040
    10  C    0.000572   0.006097   0.000145  -0.000191  -0.000193
    11  C    0.005939   0.000684  -0.003124   0.002894  -0.001725
    12  C   -0.045984   0.003784  -0.029265  -0.028880  -0.027559
    13  C    0.354646  -0.041515   0.003314  -0.003185  -0.002155
    14  C   -0.041413   0.345969  -0.000188   0.000113  -0.000155
    15  C   -0.009361  -0.000208   0.364223   0.364070   0.362824
    16  H    0.000000  -0.000000   0.000000   0.000000   0.000000
    17  H    0.000000  -0.000000   0.000000   0.000000  -0.000000
    18  H   -0.000000   0.000000  -0.000000  -0.000000   0.000000
    19  H    0.000000   0.000000  -0.000000  -0.000000   0.000000
    20  H    0.000000   0.000000   0.000000   0.000000  -0.000000
    21  H    0.000005   0.003128   0.000000  -0.000000   0.000000
    22  H    0.000000   0.000005   0.000000   0.000000  -0.000000
    23  H    0.000020  -0.000178  -0.000008   0.000003   0.000003
    24  H   -0.000182   0.000019   0.005527   0.000036   0.000523
    25  H    0.610984  -0.005505   0.000030   0.004837   0.000703
    26  H   -0.005505   0.605022   0.000003  -0.000006   0.000002
    27  H    0.000030   0.000003   0.562751  -0.028698  -0.028707
    28  H    0.004837  -0.000006  -0.028698   0.562576  -0.029040
    29  H    0.000703   0.000002  -0.028707  -0.029040   0.559106
 Mulliken atomic charges:
              1
     1  C   -0.216842
     2  O   -0.508576
     3  C    0.384247
     4  C   -0.199971
     5  C   -0.187434
     6  C    0.094432
     7  C   -0.181557
     8  C   -0.182117
     9  C    0.099675
    10  C   -0.183643
    11  C   -0.179797
    12  C    0.173685
    13  C   -0.178508
    14  C   -0.183448
    15  C   -0.527007
    16  H    0.167921
    17  H    0.152972
    18  H    0.152858
    19  H    0.130770
    20  H    0.131596
    21  H    0.131941
    22  H    0.137106
    23  H    0.125958
    24  H    0.121163
    25  H    0.121468
    26  H    0.127333
    27  H    0.153984
    28  H    0.155458
    29  H    0.166332
 Sum of Mulliken atomic charges =  -0.00000
 Mulliken charges with hydrogens summed into heavy atoms:
              1
     1  C    0.256909
     2  O   -0.508576
     3  C    0.384247
     4  C   -0.069201
     5  C   -0.055838
     6  C    0.094432
     7  C   -0.049616
     8  C   -0.045010
     9  C    0.099675
    10  C   -0.057685
    11  C   -0.058634
    12  C    0.173685
    13  C   -0.057040
    14  C   -0.056115
    15  C   -0.051232
 Sum of Mulliken charges with hydrogens summed into heavy atoms =  -0.00000
 Electronic spatial extent (au):  <R**2>=           4869.3418
 Charge=             -0.0000 electrons
 Dipole moment (field-independent basis, Debye):
    X=             -0.3995    Y=             -1.1563    Z=              0.2849  Tot=              1.2561
 Quadrupole moment (field-independent basis, Debye-Ang):
   XX=            -72.4718   YY=            -80.6583   ZZ=            -91.5171
   XY=              6.4424   XZ=             -1.6432   YZ=              0.1023
 Traceless Quadrupole moment (field-independent basis, Debye-Ang):
   XX=              9.0773   YY=              0.8908   ZZ=             -9.9681
   XY=              6.4424   XZ=             -1.6432   YZ=              0.1023
 Octapole moment (field-independent basis, Debye-Ang**2):
  XXX=            -51.5214  YYY=              2.2356  ZZZ=              0.3677  XYY=             -5.3969
  XXY=            -33.1123  XXZ=              9.4935  XZZ=             -8.7634  YZZ=              0.0684
  YYZ=             -0.9147  XYZ=              7.3519
 Hexadecapole moment (field-independent basis, Debye-Ang**3):
 XXXX=          -5155.9300 YYYY=           -574.5891 ZZZZ=           -152.2950 XXXY=            164.6273
 XXXZ=            -42.8668 YYYX=            -10.3383 YYYZ=             -0.0652 ZZZX=             -3.6566
 ZZZY=             -0.4978 XXYY=          -1017.6439 XXZZ=          -1004.5966 YYZZ=           -128.8566
 XXYZ=              5.9805 YYXZ=              3.7431 ZZXY=              4.1301
 N-N= 8.776654650297D+02 E-N=-3.186817490177D+03  KE= 6.111781713450D+02
 No NMR shielding tensors so no spin-rotation constants.
 Leave Link  601 at Thu Sep 30 17:38:35 2021, MaxMem= 1073741824 cpu:       1.3
 (Enter /sw/target/amd/app/gaussian/Gaussian09RevA.02_gcc-4.9.2/g09/l701.exe)
 Compute integral first derivatives.
 ... and contract with generalized density number  0.
 Leave Link  701 at Thu Sep 30 17:38:37 2021, MaxMem= 1073741824 cpu:       1.2
 (Enter /sw/target/amd/app/gaussian/Gaussian09RevA.02_gcc-4.9.2/g09/l702.exe)
 L702 exits ... SP integral derivatives will be done elsewhere.
 Leave Link  702 at Thu Sep 30 17:38:37 2021, MaxMem= 1073741824 cpu:       0.1
 (Enter /sw/target/amd/app/gaussian/Gaussian09RevA.02_gcc-4.9.2/g09/l703.exe)
 Compute integral first derivatives, UseDBF=F ICtDFT=           0.
 Integral derivatives from FoFDir, PRISM(SPDF).
 Calling FoFJK, ICntrl=      2127 FMM=F ISym2X=0 I1Cent= 0 IOpClX= 0 NMat=1 NMatS=1 NMatT=0.
 FoFCou: FMM=F IPFlag=           0 FMFlag=      100000 FMFlg1=         800
         NFxFlg=           0 DoJE=F BraDBF=F KetDBF=F FulRan=T
         Omega=  0.000000  0.000000  1.000000  0.000000  0.000000 ICntrl=    2127 IOpCl=  0
         NMat0=    1 NMatS0=    1 NMatT0=    0 NMatD0=    1 NMtDS0=    0 NMtDT0=    0
         I1Cent=           0 NGrid=           0.
 Symmetry not used in FoFCou.
 Leave Link  703 at Thu Sep 30 17:40:22 2021, MaxMem= 1073741824 cpu:      87.7
 (Enter /sw/target/amd/app/gaussian/Gaussian09RevA.02_gcc-4.9.2/g09/l716.exe)
 Dipole        =-1.57189096D-01-4.54925462D-01 1.12097075D-01
 ***** Axes restored to original set *****
 -------------------------------------------------------------------
 Center     Atomic                   Forces (Hartrees/Bohr)
 Number     Number              X              Y              Z
 -------------------------------------------------------------------
      1        6          -0.000093540    0.003728583    0.004441988
      2        8          -0.006334974    0.000790431   -0.002553638
      3        6           0.002474918    0.004550138    0.006851182
      4        6          -0.002837033   -0.007739361   -0.010448712
      5        6           0.000415640    0.004096811    0.003326431
      6        6          -0.004183792    0.000289702   -0.002049584
      7        6          -0.004829505    0.007027336    0.006952758
      8        6           0.015975671   -0.009504668   -0.001222133
      9        6           0.001088286   -0.002041112   -0.002322087
     10        6           0.000709575   -0.003107450   -0.005263589
     11        6          -0.006749886    0.007551433    0.007755077
     12        6           0.002572566   -0.000297447   -0.001655198
     13        6          -0.007876554    0.008773626    0.004784943
     14        6           0.005779054   -0.004125069    0.000161119
     15        6          -0.002561442   -0.004745563   -0.000520567
     16        1           0.004534356   -0.000916708    0.001408256
     17        1          -0.000863195   -0.001563265   -0.003311373
     18        1          -0.001618967   -0.002248355   -0.002923290
     19        1          -0.000145181    0.000928514    0.001516186
     20        1           0.001671862   -0.000491212    0.000933856
     21        1          -0.000850244   -0.000722100   -0.001906856
     22        1          -0.002387628    0.000673057   -0.001545510
     23        1           0.000131568    0.001202522    0.002476033
     24        1           0.000623343   -0.000686558    0.000272751
     25        1          -0.000743335   -0.000838540   -0.000602703
     26        1          -0.002220929    0.001476717   -0.000382700
     27        1           0.002084593    0.000683751   -0.001619584
     28        1           0.003189196    0.000004983   -0.000514813
     29        1           0.003045576   -0.002750196   -0.002038242
 -------------------------------------------------------------------
 Cartesian Forces:  Max     0.015975671 RMS     0.004072269
 Leave Link  716 at Thu Sep 30 17:40:23 2021, MaxMem= 1073741824 cpu:       0.1
 (Enter /sw/target/amd/app/gaussian/Gaussian09RevA.02_gcc-4.9.2/g09/l103.exe)

 GradGradGradGradGradGradGradGradGradGradGradGradGradGradGradGradGradGrad
 Berny optimization.
 Internal  Forces:  Max     0.010061081 RMS     0.002476300
 Search for a local minimum.
 Step number   1 out of a maximum of  152
 All quantities printed in internal units (Hartrees-Bohrs-Radians)
 RMS Force = .24763D-02 SwitMx=.10000D-02 MixMth= 1
 Mixed Optimization -- RFO/linear search
 Second derivative matrix not updated -- first step.
     Eigenvalues ---    0.00777   0.00966   0.01404   0.01571   0.01669
     Eigenvalues ---    0.01683   0.02007   0.02011   0.02017   0.02034
     Eigenvalues ---    0.02041   0.02047   0.02075   0.02077   0.02106
     Eigenvalues ---    0.02115   0.02118   0.02125   0.02135   0.02137
     Eigenvalues ---    0.02163   0.02195   0.07310   0.07327   0.09986
     Eigenvalues ---    0.10539   0.15998   0.15998   0.15999   0.15999
     Eigenvalues ---    0.15999   0.15999   0.16000   0.16000   0.16000
     Eigenvalues ---    0.16000   0.16000   0.16000   0.16000   0.16000
     Eigenvalues ---    0.21998   0.22000   0.22954   0.22960   0.23993
     Eigenvalues ---    0.24000   0.24972   0.24999   0.24999   0.25000
     Eigenvalues ---    0.25000   0.32467   0.34013   0.34203   0.34223
     Eigenvalues ---    0.34226   0.34260   0.34284   0.34339   0.35013
     Eigenvalues ---    0.35050   0.35052   0.35052   0.35075   0.35076
     Eigenvalues ---    0.35078   0.35430   0.41030   0.41089   0.41628
     Eigenvalues ---    0.41795   0.42197   0.44670   0.44729   0.45335
     Eigenvalues ---    0.45482   0.45584   0.46037   0.46186   0.46868
     Eigenvalues ---    0.514101000.000001000.000001000.000001000.00000
     Eigenvalues --- 1000.000001000.000001000.000001000.000001000.00000
     Eigenvalues --- 1000.000001000.000001000.000001000.000001000.00000
     Eigenvalues --- 1000.000001000.000001000.000001000.000001000.00000
     Eigenvalues --- 1000.000001000.000001000.000001000.000001000.00000
     Eigenvalues --- 1000.000001000.000001000.000001000.000001000.00000
     Eigenvalues --- 1000.000001000.000001000.000001000.000001000.00000
     Eigenvalues --- 1000.000001000.000001000.000001000.000001000.00000
     Eigenvalues --- 1000.000001000.000001000.000001000.000001000.00000
     Eigenvalues --- 1000.000001000.000001000.000001000.000001000.00000
     Eigenvalues --- 1000.000001000.000001000.000001000.000001000.00000
     Eigenvalues --- 1000.000001000.000001000.000001000.000001000.00000
     Eigenvalues --- 1000.000001000.00000
 RFO step:  Lambda=-3.44169228D-03 EMin= 7.77192617D-03
 Linear search not attempted -- first point.
 Iteration  1 RMS(Cart)=  0.03760607 RMS(Int)=  0.00056465
 Iteration  2 RMS(Cart)=  0.00073097 RMS(Int)=  0.00008141
 Iteration  3 RMS(Cart)=  0.00000036 RMS(Int)=  0.00008141
 Variable       Old X    -DE/DX   Delta X   Delta X   Delta X     New X
                                 (Linear)    (Quad)   (Total)
    R1        2.68672  -0.00197   0.00000  -0.00462  -0.00462   2.68211
    R2        2.06853  -0.00123   0.00000  -0.00356  -0.00356   2.06497
    R3        2.06951   0.00154   0.00000   0.00446   0.00446   2.07397
    R4        2.06893   0.00182   0.00000   0.00526   0.00526   2.07419
    R5        2.58468   0.00025   0.00000   0.00048   0.00048   2.58516
    R6        2.62682   0.00687   0.00000   0.01528   0.01526   2.64208
    R7        2.63268   0.00723   0.00000   0.01616   0.01614   2.64882
    R8        2.65252  -0.00625   0.00000  -0.01371  -0.01372   2.63880
    R9        2.04982  -0.00019   0.00000  -0.00054  -0.00054   2.04928
   R10        2.65972  -0.00417   0.00000  -0.01016  -0.01014   2.64958
   R11        2.05553  -0.00121   0.00000  -0.00340  -0.00340   2.05213
   R12        2.65708   0.00118   0.00000   0.00170   0.00173   2.65881
   R13        2.80608  -0.00152   0.00000  -0.00441  -0.00441   2.80166
   R14        2.64610  -0.01001   0.00000  -0.02185  -0.02185   2.62425
   R15        2.05595  -0.00127   0.00000  -0.00359  -0.00359   2.05235
   R16        2.05654  -0.00185   0.00000  -0.00522  -0.00522   2.05132
   R17        2.65940  -0.00265   0.00000  -0.00628  -0.00627   2.65313
   R18        2.65781  -0.00192   0.00000  -0.00464  -0.00464   2.65317
   R19        2.64675  -0.00553   0.00000  -0.01204  -0.01203   2.63472
   R20        2.05591  -0.00074   0.00000  -0.00210  -0.00210   2.05381
   R21        2.63717   0.00391   0.00000   0.00873   0.00873   2.64590
   R22        2.05549  -0.00027   0.00000  -0.00076  -0.00076   2.05472
   R23        2.63820   0.00362   0.00000   0.00810   0.00809   2.64629
   R24        2.83298   0.01006   0.00000   0.03066   0.03066   2.86365
   R25        2.64766  -0.00607   0.00000  -0.01327  -0.01328   2.63437
   R26        2.05590  -0.00035   0.00000  -0.00099  -0.00099   2.05492
   R27        2.05551  -0.00056   0.00000  -0.00159  -0.00159   2.05392
   R28        2.06989   0.00000   0.00000   0.00000   0.00000   2.06989
   R29        2.06956   0.00026   0.00000   0.00076   0.00076   2.07031
   R30        2.06762   0.00225   0.00000   0.00648   0.00648   2.07410
    A1        1.88171  -0.00635   0.00000  -0.03634  -0.03626   1.84545
    A2        1.94179   0.00130   0.00000   0.00660   0.00665   1.94843
    A3        1.93818   0.00193   0.00000   0.01055   0.01061   1.94879
    A4        1.87828   0.00342   0.00000   0.02337   0.02343   1.90171
    A5        1.88041   0.00320   0.00000   0.02222   0.02232   1.90273
    A6        1.94040  -0.00349   0.00000  -0.02579  -0.02576   1.91464
    A7        2.03851   0.00434   0.00000   0.01713   0.01713   2.05564
    A8        2.20253  -0.00483   0.00000  -0.02083  -0.02081   2.18171
    A9        2.00648   0.00445   0.00000   0.01577   0.01579   2.02228
   A10        2.07417   0.00037   0.00000   0.00507   0.00502   2.07920
   A11        2.09844  -0.00235   0.00000  -0.00809  -0.00813   2.09031
   A12        2.12821  -0.00061   0.00000  -0.00686  -0.00684   2.12137
   A13        2.05648   0.00296   0.00000   0.01498   0.01500   2.07148
   A14        2.12907   0.00047   0.00000   0.00082   0.00079   2.12986
   A15        2.05307   0.00134   0.00000   0.00912   0.00908   2.06216
   A16        2.10093  -0.00181   0.00000  -0.01013  -0.01016   2.09077
   A17        2.03493   0.00308   0.00000   0.00917   0.00920   2.04413
   A18        2.12122  -0.00111   0.00000  -0.00287  -0.00289   2.11832
   A19        2.12702  -0.00197   0.00000  -0.00627  -0.00629   2.12073
   A20        2.12086   0.00056   0.00000   0.00081   0.00077   2.12163
   A21        2.10569  -0.00210   0.00000  -0.01159  -0.01167   2.09402
   A22        2.05659   0.00153   0.00000   0.01061   0.01053   2.06712
   A23        2.10877  -0.00213   0.00000  -0.00751  -0.00752   2.10125
   A24        2.08819  -0.00119   0.00000  -0.01006  -0.01006   2.07813
   A25        2.08622   0.00332   0.00000   0.01756   0.01756   2.10378
   A26        2.12170  -0.00079   0.00000  -0.00239  -0.00237   2.11933
   A27        2.12491  -0.00188   0.00000  -0.00671  -0.00669   2.11822
   A28        2.03656   0.00268   0.00000   0.00910   0.00905   2.04561
   A29        2.12588  -0.00157   0.00000  -0.00790  -0.00797   2.11792
   A30        2.10316  -0.00191   0.00000  -0.01263  -0.01264   2.09052
   A31        2.05408   0.00348   0.00000   0.02038   0.02035   2.07443
   A32        2.10364   0.00284   0.00000   0.01337   0.01331   2.11695
   A33        2.07872  -0.00047   0.00000  -0.00085  -0.00085   2.07787
   A34        2.10082  -0.00237   0.00000  -0.01251  -0.01251   2.08832
   A35        2.07062  -0.00533   0.00000  -0.01950  -0.01966   2.05096
   A36        2.10702   0.00276   0.00000   0.01060   0.01054   2.11756
   A37        2.10462   0.00259   0.00000   0.00991   0.00985   2.11447
   A38        2.10443   0.00271   0.00000   0.01271   0.01263   2.11706
   A39        2.09951  -0.00214   0.00000  -0.01118  -0.01114   2.08837
   A40        2.07921  -0.00056   0.00000  -0.00152  -0.00148   2.07773
   A41        2.12474  -0.00130   0.00000  -0.00675  -0.00687   2.11787
   A42        2.10390  -0.00201   0.00000  -0.01300  -0.01301   2.09089
   A43        2.05445   0.00330   0.00000   0.01951   0.01950   2.07394
   A44        1.93740   0.00119   0.00000   0.00955   0.00942   1.94682
   A45        1.93334   0.00189   0.00000   0.01338   0.01324   1.94657
   A46        1.92104   0.00427   0.00000   0.02207   0.02201   1.94305
   A47        1.87049  -0.00016   0.00000   0.00687   0.00668   1.87717
   A48        1.89844  -0.00351   0.00000  -0.02493  -0.02497   1.87346
   A49        1.90193  -0.00402   0.00000  -0.02891  -0.02897   1.87296
    D1        3.12531   0.00010   0.00000   0.00743   0.00745   3.13276
    D2        1.06963  -0.00093   0.00000  -0.00256  -0.00254   1.06709
    D3       -1.10164   0.00123   0.00000   0.01836   0.01831  -1.08334
    D4       -0.00746   0.00016   0.00000   0.00654   0.00653  -0.00093
[...]
 Using the total density.
 Monte-Carlo method of calculating molar volume:
 based on  0.001 e/bohr**3 density envelope.
 Number of points per bohr**3 =   20 CutOff= 1.00D-04
 Using the CI density.
 There are       412 points.  Will hold       412 in memory.
 LenV=  1073571678 MDV=  1073741824.
 Box volume = 8750.927 fraction occupied=0.214
 Integrated density= 6.4314938031140926D+01 error=-4.1685061968859074D+01
 Molar volume = 1869.130 bohr**3/mol (166.799 cm**3/mol)
 Recommended a0 for SCRF calculation =  4.95 angstrom (  9.36 bohr)
 Leave Link  604 at Thu Sep 30 23:39:57 2021, MaxMem= 1073741824 cpu:       0.4
 (Enter /sw/target/amd/app/gaussian/Gaussian09RevA.02_gcc-4.9.2/g09/l607.exe)
 ******************************Gaussian NBO Version 3.1******************************
             N A T U R A L   A T O M I C   O R B I T A L   A N D
          N A T U R A L   B O N D   O R B I T A L   A N A L Y S I S
 ******************************Gaussian NBO Version 3.1******************************
       /RESON  / : Allow strongly delocalized NBO set

 Analyzing the CI density

 Job title: COc1ccc(cc1)c1ccc(cc1)C_conf_0                                  

 Storage needed:    194832 in NPA (1073737329 available)


 NATURAL POPULATIONS:  Natural atomic orbital occupancies 
                                                          
   NAO  Atom  No  lang   Type(AO)    Occupancy
 --------------------------------------------
     1    C    1  S      Cor( 1S)     1.99942
     2    C    1  S      Val( 2S)     1.10335
     3    C    1  S      Ryd( 3S)     0.00148
     4    C    1  S      Ryd( 4S)     0.00003
     5    C    1  px     Val( 2p)     1.05922
     6    C    1  px     Ryd( 3p)     0.00245
     7    C    1  py     Val( 2p)     0.94248
     8    C    1  py     Ryd( 3p)     0.00317
     9    C    1  pz     Val( 2p)     1.20534
    10    C    1  pz     Ryd( 3p)     0.00061
    11    C    1  dxy    Ryd( 3d)     0.00159
    12    C    1  dxz    Ryd( 3d)     0.00063
    13    C    1  dyz    Ryd( 3d)     0.00154
    14    C    1  dx2y2  Ryd( 3d)     0.00145
    15    C    1  dz2    Ryd( 3d)     0.00129

    16    O    2  S      Cor( 1S)     1.99975
    17    O    2  S      Val( 2S)     1.59501
    18    O    2  S      Ryd( 3S)     0.00079
    19    O    2  S      Ryd( 4S)     0.00006
    20    O    2  px     Val( 2p)     1.43126
    21    O    2  px     Ryd( 3p)     0.00114
    22    O    2  py     Val( 2p)     1.67554
    23    O    2  py     Ryd( 3p)     0.00212
    24    O    2  pz     Val( 2p)     1.74592
    25    O    2  pz     Ryd( 3p)     0.00235
    26    O    2  dxy    Ryd( 3d)     0.00127
    27    O    2  dxz    Ryd( 3d)     0.00077
    28    O    2  dyz    Ryd( 3d)     0.00128
    29    O    2  dx2y2  Ryd( 3d)     0.00128
    30    O    2  dz2    Ryd( 3d)     0.00086

    31    C    3  S      Cor( 1S)     1.99878
    32    C    3  S      Val( 2S)     0.83725
    33    C    3  S      Ryd( 3S)     0.00139
    34    C    3  S      Ryd( 4S)     0.00013
    35    C    3  px     Val( 2p)     0.75183
    36    C    3  px     Ryd( 3p)     0.00683
    37    C    3  py     Val( 2p)     1.07545
    38    C    3  py     Ryd( 3p)     0.00567
    39    C    3  pz     Val( 2p)     0.99590
    40    C    3  pz     Ryd( 3p)     0.00248
    41    C    3  dxy    Ryd( 3d)     0.00144
    42    C    3  dxz    Ryd( 3d)     0.00183
    43    C    3  dyz    Ryd( 3d)     0.00069
    44    C    3  dx2y2  Ryd( 3d)     0.00172
    45    C    3  dz2    Ryd( 3d)     0.00062

    46    C    4  S      Cor( 1S)     1.99904
    47    C    4  S      Val( 2S)     0.96497
    48    C    4  S      Ryd( 3S)     0.00064
    49    C    4  S      Ryd( 4S)     0.00005
    50    C    4  px     Val( 2p)     1.11998
    51    C    4  px     Ryd( 3p)     0.00399
    52    C    4  py     Val( 2p)     1.14319
    53    C    4  py     Ryd( 3p)     0.00379
    54    C    4  pz     Val( 2p)     1.02798
    55    C    4  pz     Ryd( 3p)     0.00118
    56    C    4  dxy    Ryd( 3d)     0.00089
    57    C    4  dxz    Ryd( 3d)     0.00071
    58    C    4  dyz    Ryd( 3d)     0.00051
    59    C    4  dx2y2  Ryd( 3d)     0.00050
    60    C    4  dz2    Ryd( 3d)     0.00044

    61    C    5  S      Cor( 1S)     1.99907
    62    C    5  S      Val( 2S)     0.94731
    63    C    5  S      Ryd( 3S)     0.00080
    64    C    5  S      Ryd( 4S)     0.00006
    65    C    5  px     Val( 2p)     1.07137
    66    C    5  px     Ryd( 3p)     0.00396
    67    C    5  py     Val( 2p)     1.16799
    68    C    5  py     Ryd( 3p)     0.00528
    69    C    5  pz     Val( 2p)     1.05830
    70    C    5  pz     Ryd( 3p)     0.00439
    71    C    5  dxy    Ryd( 3d)     0.00074
    72    C    5  dxz    Ryd( 3d)     0.00053
    73    C    5  dyz    Ryd( 3d)     0.00047
    74    C    5  dx2y2  Ryd( 3d)     0.00064
    75    C    5  dz2    Ryd( 3d)     0.00039

    76    C    6  S      Cor( 1S)     1.99902
    77    C    6  S      Val( 2S)     0.87986
    78    C    6  S      Ryd( 3S)     0.00061
    79    C    6  S      Ryd( 4S)     0.00006
    80    C    6  px     Val( 2p)     1.08043
    81    C    6  px     Ryd( 3p)     0.00501
    82    C    6  py     Val( 2p)     1.06830
    83    C    6  py     Ryd( 3p)     0.00537
    84    C    6  pz     Val( 2p)     0.94775
    85    C    6  pz     Ryd( 3p)     0.00245
    86    C    6  dxy    Ryd( 3d)     0.00082
    87    C    6  dxz    Ryd( 3d)     0.00098
    88    C    6  dyz    Ryd( 3d)     0.00050
    89    C    6  dx2y2  Ryd( 3d)     0.00065
    90    C    6  dz2    Ryd( 3d)     0.00039

    91    C    7  S      Cor( 1S)     1.99906
    92    C    7  S      Val( 2S)     0.95805
    93    C    7  S      Ryd( 3S)     0.00067
    94    C    7  S      Ryd( 4S)     0.00006
    95    C    7  px     Val( 2p)     1.09677
    96    C    7  px     Ryd( 3p)     0.00371
    97    C    7  py     Val( 2p)     1.14097
    98    C    7  py     Ryd( 3p)     0.00466
    99    C    7  pz     Val( 2p)     0.97870
   100    C    7  pz     Ryd( 3p)     0.00119
   101    C    7  dxy    Ryd( 3d)     0.00084
   102    C    7  dxz    Ryd( 3d)     0.00072
   103    C    7  dyz    Ryd( 3d)     0.00048
   104    C    7  dx2y2  Ryd( 3d)     0.00063
   105    C    7  dz2    Ryd( 3d)     0.00040

   106    C    8  S      Cor( 1S)     1.99905
   107    C    8  S      Val( 2S)     0.96406
   108    C    8  S      Ryd( 3S)     0.00088
   109    C    8  S      Ryd( 4S)     0.00005
   110    C    8  px     Val( 2p)     1.09876
   111    C    8  px     Ryd( 3p)     0.00540
   112    C    8  py     Val( 2p)     1.14944
   113    C    8  py     Ryd( 3p)     0.00448
   114    C    8  pz     Val( 2p)     1.04965
   115    C    8  pz     Ryd( 3p)     0.00279
   116    C    8  dxy    Ryd( 3d)     0.00086
   117    C    8  dxz    Ryd( 3d)     0.00057
   118    C    8  dyz    Ryd( 3d)     0.00049
   119    C    8  dx2y2  Ryd( 3d)     0.00049
   120    C    8  dz2    Ryd( 3d)     0.00043

   121    C    9  S      Cor( 1S)     1.99901
   122    C    9  S      Val( 2S)     0.86449
   123    C    9  S      Ryd( 3S)     0.00059
   124    C    9  S      Ryd( 4S)     0.00007
   125    C    9  px     Val( 2p)     1.05260
   126    C    9  px     Ryd( 3p)     0.00454
   127    C    9  py     Val( 2p)     1.09859
   128    C    9  py     Ryd( 3p)     0.00568
   129    C    9  pz     Val( 2p)     1.08524
   130    C    9  pz     Ryd( 3p)     0.00303
   131    C    9  dxy    Ryd( 3d)     0.00067
   132    C    9  dxz    Ryd( 3d)     0.00064
   133    C    9  dyz    Ryd( 3d)     0.00050
   134    C    9  dx2y2  Ryd( 3d)     0.00068
   135    C    9  dz2    Ryd( 3d)     0.00041

   136    C   10  S      Cor( 1S)     1.99906
   137    C   10  S      Val( 2S)     0.94223
   138    C   10  S      Ryd( 3S)     0.00064
   139    C   10  S      Ryd( 4S)     0.00005
   140    C   10  px     Val( 2p)     1.09867
   141    C   10  px     Ryd( 3p)     0.00386
   142    C   10  py     Val( 2p)     1.13520
   143    C   10  py     Ryd( 3p)     0.00474
   144    C   10  pz     Val( 2p)     1.06586
   145    C   10  pz     Ryd( 3p)     0.00379
   146    C   10  dxy    Ryd( 3d)     0.00079
   147    C   10  dxz    Ryd( 3d)     0.00061
   148    C   10  dyz    Ryd( 3d)     0.00051
   149    C   10  dx2y2  Ryd( 3d)     0.00057
   150    C   10  dz2    Ryd( 3d)     0.00037

   151    C   11  S      Cor( 1S)     1.99904
   152    C   11  S      Val( 2S)     0.95082
   153    C   11  S      Ryd( 3S)     0.00061
   154    C   11  S      Ryd( 4S)     0.00004
   155    C   11  px     Val( 2p)     1.09385
   156    C   11  px     Ryd( 3p)     0.00401
   157    C   11  py     Val( 2p)     1.14399
   158    C   11  py     Ryd( 3p)     0.00444
   159    C   11  pz     Val( 2p)     1.01268
   160    C   11  pz     Ryd( 3p)     0.00128
   161    C   11  dxy    Ryd( 3d)     0.00083
   162    C   11  dxz    Ryd( 3d)     0.00074
   163    C   11  dyz    Ryd( 3d)     0.00048
   164    C   11  dx2y2  Ryd( 3d)     0.00065
   165    C   11  dz2    Ryd( 3d)     0.00042

   166    C   12  S      Cor( 1S)     1.99902
   167    C   12  S      Val( 2S)     0.88021
   168    C   12  S      Ryd( 3S)     0.00043
   169    C   12  S      Ryd( 4S)     0.00005
   170    C   12  px     Val( 2p)     1.05449
   171    C   12  px     Ryd( 3p)     0.00446
   172    C   12  py     Val( 2p)     1.07498
   173    C   12  py     Ryd( 3p)     0.00423
   174    C   12  pz     Val( 2p)     1.03546
   175    C   12  pz     Ryd( 3p)     0.00377
   176    C   12  dxy    Ryd( 3d)     0.00079
   177    C   12  dxz    Ryd( 3d)     0.00060
   178    C   12  dyz    Ryd( 3d)     0.00048
   179    C   12  dx2y2  Ryd( 3d)     0.00064
   180    C   12  dz2    Ryd( 3d)     0.00040

   181    C   13  S      Cor( 1S)     1.99904
   182    C   13  S      Val( 2S)     0.94702
   183    C   13  S      Ryd( 3S)     0.00065
   184    C   13  S      Ryd( 4S)     0.00005
   185    C   13  px     Val( 2p)     1.09739
   186    C   13  px     Ryd( 3p)     0.00414
   187    C   13  py     Val( 2p)     1.14017
   188    C   13  py     Ryd( 3p)     0.00455
   189    C   13  pz     Val( 2p)     1.06334
   190    C   13  pz     Ryd( 3p)     0.00279
   191    C   13  dxy    Ryd( 3d)     0.00079
   192    C   13  dxz    Ryd( 3d)     0.00059
   193    C   13  dyz    Ryd( 3d)     0.00052
   194    C   13  dx2y2  Ryd( 3d)     0.00062
   195    C   13  dz2    Ryd( 3d)     0.00040

   196    C   14  S      Cor( 1S)     1.99906
   197    C   14  S      Val( 2S)     0.94893
   198    C   14  S      Ryd( 3S)     0.00062
   199    C   14  S      Ryd( 4S)     0.00005
   200    C   14  px     Val( 2p)     1.09345
   201    C   14  px     Ryd( 3p)     0.00370
   202    C   14  py     Val( 2p)     1.12974
   203    C   14  py     Ryd( 3p)     0.00432
   204    C   14  pz     Val( 2p)     1.00541
   205    C   14  pz     Ryd( 3p)     0.00169
   206    C   14  dxy    Ryd( 3d)     0.00084
   207    C   14  dxz    Ryd( 3d)     0.00080
   208    C   14  dyz    Ryd( 3d)     0.00048
   209    C   14  dx2y2  Ryd( 3d)     0.00060
   210    C   14  dz2    Ryd( 3d)     0.00039

   211    C   15  S      Cor( 1S)     1.99940
   212    C   15  S      Val( 2S)     1.09584
   213    C   15  S      Ryd( 3S)     0.00019
   214    C   15  S      Ryd( 4S)     0.00001
   215    C   15  px     Val( 2p)     1.09557
   216    C   15  px     Ryd( 3p)     0.00088
   217    C   15  py     Val( 2p)     1.24648
   218    C   15  py     Ryd( 3p)     0.00235
   219    C   15  pz     Val( 2p)     1.23919
   220    C   15  pz     Ryd( 3p)     0.00050
   221    C   15  dxy    Ryd( 3d)     0.00057
   222    C   15  dxz    Ryd( 3d)     0.00082
   223    C   15  dyz    Ryd( 3d)     0.00062
   224    C   15  dx2y2  Ryd( 3d)     0.00075
   225    C   15  dz2    Ryd( 3d)     0.00065

   226    H   16  S      Val( 1S)     0.76508
   227    H   16  S      Ryd( 2S)     0.00056

   228    H   17  S      Val( 1S)     0.78588
   229    H   17  S      Ryd( 2S)     0.00229

   230    H   18  S      Val( 1S)     0.78591
   231    H   18  S      Ryd( 2S)     0.00250

   232    H   19  S      Val( 1S)     0.75976
   233    H   19  S      Ryd( 2S)     0.00094

   234    H   20  S      Val( 1S)     0.75698
   235    H   20  S      Ryd( 2S)     0.00160

   236    H   21  S      Val( 1S)     0.75376
   237    H   21  S      Ryd( 2S)     0.00113

   238    H   22  S      Val( 1S)     0.74958
   239    H   22  S      Ryd( 2S)     0.00121

   240    H   23  S      Val( 1S)     0.77401
   241    H   23  S      Ryd( 2S)     0.00169

   242    H   24  S      Val( 1S)     0.77219
   243    H   24  S      Ryd( 2S)     0.00110

   244    H   25  S      Val( 1S)     0.77262
   245    H   25  S      Ryd( 2S)     0.00114

   246    H   26  S      Val( 1S)     0.77322
   247    H   26  S      Ryd( 2S)     0.00126

   248    H   27  S      Val( 1S)     0.76565
   249    H   27  S      Ryd( 2S)     0.00106

   250    H   28  S      Val( 1S)     0.76650
   251    H   28  S      Ryd( 2S)     0.00165

   252    H   29  S      Val( 1S)     0.76368
   253    H   29  S      Ryd( 2S)     0.00236

 WARNING:  1 low occupancy (<1.9990e) core orbital  found on  C    3


 Summary of Natural Population Analysis:                  
                                                          
                                       Natural Population 
                Natural  -----------------------------------------------
    Atom  No    Charge         Core      Valence    Rydberg      Total
 -----------------------------------------------------------------------
      C    1   -0.32404      1.99942     4.31039    0.01423     6.32404
      O    2   -0.45941      1.99975     6.44773    0.01193     8.45941
      C    3    0.31800      1.99878     3.66042    0.02280     5.68200
      C    4   -0.26787      1.99904     4.25612    0.01271     6.26787
      C    5   -0.26129      1.99907     4.24497    0.01725     6.26129
      C    6    0.00778      1.99902     3.97634    0.01686     5.99222
      C    7   -0.18691      1.99906     4.17449    0.01336     6.18691
      C    8   -0.27742      1.99905     4.26192    0.01645     6.27742
      C    9   -0.11672      1.99901     4.10091    0.01680     6.11672
      C   10   -0.25694      1.99906     4.24195    0.01593     6.25694
      C   11   -0.21389      1.99904     4.20135    0.01350     6.21389
      C   12   -0.06002      1.99902     4.04514    0.01585     6.06002
      C   13   -0.26205      1.99904     4.24792    0.01509     6.26205
      C   14   -0.19008      1.99906     4.17753    0.01350     6.19008
      C   15   -0.68383      1.99940     4.67708    0.00735     6.68383
      H   16    0.23436      0.00000     0.76508    0.00056     0.76564
      H   17    0.21183      0.00000     0.78588    0.00229     0.78817
      H   18    0.21158      0.00000     0.78591    0.00250     0.78842
      H   19    0.23929      0.00000     0.75976    0.00094     0.76071
      H   20    0.24143      0.00000     0.75698    0.00160     0.75857
      H   21    0.24511      0.00000     0.75376    0.00113     0.75489
      H   22    0.24921      0.00000     0.74958    0.00121     0.75079
      H   23    0.22430      0.00000     0.77401    0.00169     0.77570
      H   24    0.22671      0.00000     0.77219    0.00110     0.77329
      H   25    0.22625      0.00000     0.77262    0.00114     0.77375
      H   26    0.22552      0.00000     0.77322    0.00126     0.77448
      H   27    0.23329      0.00000     0.76565    0.00106     0.76671
      H   28    0.23185      0.00000     0.76650    0.00165     0.76815
      H   29    0.23396      0.00000     0.76368    0.00236     0.76604
 =======================================================================
   * Total *    0.00000     29.98681    75.76909    0.24410   106.00000

                                 Natural Population      
 --------------------------------------------------------
   Core                      29.98681 ( 99.9560% of  30)
   Valence                   75.76909 ( 99.6962% of  76)
   Natural Minimal Basis    105.75590 ( 99.7697% of 106)
   Natural Rydberg Basis      0.24410 (  0.2303% of 106)
 --------------------------------------------------------

    Atom  No          Natural Electron Configuration
 ----------------------------------------------------------------------------
      C    1      [core]2S( 1.10)2p( 3.21)3p( 0.01)3d( 0.01)
      O    2      [core]2S( 1.60)2p( 4.85)3p( 0.01)3d( 0.01)
      C    3      [core]2S( 0.84)2p( 2.82)3p( 0.01)3d( 0.01)
      C    4      [core]2S( 0.96)2p( 3.29)3p( 0.01)
      C    5      [core]2S( 0.95)2p( 3.30)3p( 0.01)
      C    6      [core]2S( 0.88)2p( 3.10)3p( 0.01)
      C    7      [core]2S( 0.96)2p( 3.22)3p( 0.01)
      C    8      [core]2S( 0.96)2p( 3.30)3p( 0.01)
      C    9      [core]2S( 0.86)2p( 3.24)3p( 0.01)
      C   10      [core]2S( 0.94)2p( 3.30)3p( 0.01)
      C   11      [core]2S( 0.95)2p( 3.25)3p( 0.01)
      C   12      [core]2S( 0.88)2p( 3.16)3p( 0.01)
      C   13      [core]2S( 0.95)2p( 3.30)3p( 0.01)
      C   14      [core]2S( 0.95)2p( 3.23)3p( 0.01)
      C   15      [core]2S( 1.10)2p( 3.58)
      H   16            1S( 0.77)
      H   17            1S( 0.79)
      H   18            1S( 0.79)
      H   19            1S( 0.76)
      H   20            1S( 0.76)
      H   21            1S( 0.75)
      H   22            1S( 0.75)
      H   23            1S( 0.77)
      H   24            1S( 0.77)
      H   25            1S( 0.77)
      H   26            1S( 0.77)
      H   27            1S( 0.77)
      H   28            1S( 0.77)
      H   29            1S( 0.76)


 NBO analysis skipped by request.
 Leave Link  607 at Thu Sep 30 23:40:20 2021, MaxMem= 1073741824 cpu:      16.2
 (Enter /sw/target/amd/app/gaussian/Gaussian09RevA.02_gcc-4.9.2/g09/l9999.exe)
 1\1\GINC-HERMITE\SP\RTD-B3LYP-FC\6-31G(d)\C14H14O1\JSCHLEINITZ\30-Sep-
 2021\0\\#p TD(NStates=10, Root=1) b3lyp/6-31G* volume pop=NPA density=
 current Geom=AllCheck Guess=Read\\COc1ccc(cc1)c1ccc(cc1)C_conf_0\\0,1\
 C,0,1.0530240846,0.3461952699,-0.5452687886\O,0,2.3915803724,0.0204845
 162,-0.2093044475\C,0,3.0175290178,-0.9580660557,-0.9274697878\C,0,2.4
 353578735,-1.6756510115,-1.9781385194\C,0,3.1766091502,-2.6571988503,-
 2.6391711035\C,0,4.4999975417,-2.951357423,-2.2841790801\C,0,5.0633706
 148,-2.2146418241,-1.2242055857\C,0,4.3408520431,-1.236887386,-0.55564
 99973\C,0,5.2772568126,-3.9970577355,-2.9937249535\C,0,5.1426086481,-4
 .1943173071,-4.377892557\C,0,5.8688294838,-5.1819794766,-5.0398903332\
 C,0,6.7652758338,-6.0097273155,-4.3525573927\C,0,6.9001759482,-5.81547
 23453,-2.9716328959\C,0,6.1732852827,-4.8321916477,-2.3049535152\C,0,7
 .5773391812,-7.0575871,-5.0771093174\H,0,0.7560281327,1.1403356361,0.1
 423583007\H,0,0.3825290194,-0.5139397902,-0.4158144943\H,0,0.972275844
 8,0.7123585243,-1.5775611217\H,0,1.4111237961,-1.4910185399,-2.2818741
 999\H,0,2.6990558188,-3.223500272,-3.4340900601\H,0,6.0953903322,-2.39
 62280713,-0.9372346515\H,0,4.7833495005,-0.6651237563,0.2542877652\H,0
 ,4.4765839645,-3.5512031442,-4.9469284497\H,0,5.7434692447,-5.30568222
 44,-6.1136345514\H,0,7.5770477718,-6.4526082397,-2.4059430159\H,0,6.27
 91529227,-4.7294723933,-1.2282777593\H,0,7.0738030097,-7.3957556338,-5
 .9890596064\H,0,7.7565505254,-7.9344234616,-4.445135104\H,0,8.56030719
 02,-6.6672439204,-5.3742297812\\Version=AM64L-G09RevA.02\State=1-A\HF=
 -617.1468337\RMSD=5.787e-09\Dipole=-1.2813305,1.1522808,0.5894644\Quad
 rupole=4.6093614,-1.5000544,-3.109307,-8.0302074,-0.5223103,2.4899836\
 PG=C01 [X(C14H14O1)]\\@


 IF YOU WANT TO LEARN FROM THE THEORETICAL PHYSICISTS ABOUT THE
 METHODS WHICH THEY USE, I ADVISE YOU TO FOLLOW THIS PRINCIPLE VERY STRICTLY:
 DON'T LISTEN TO THEIR WORDS; PAY ATTENTION, INSTEAD, TO THEIR ACTIONS.
 -- A.EINSTEIN, 1934
 Job cpu time:  0 days  3 hours  9 minutes 18.2 seconds.
 File lengths (MBytes):  RWF=    209 Int=      0 D2E=      0 Chk=     29 Scr=      1
 Normal termination of Gaussian 09 at Thu Sep 30 23:40:25 2021.
