 Entering Gaussian System, Link 0=g09
 Input=C14H12N2_2782_conf_0.com
 Output=C14H12N2_2782_conf_0.log
 Initial command:
 /sw/target/amd/app/gaussian/Gaussian09RevA.02_gcc-4.9.2/g09/l1.exe /home/jschleinitz/gaussian/Gau-2202794.inp -scrdir=/home/jschleinitz/gaussian/
 Entering Link 1 = /sw/target/amd/app/gaussian/Gaussian09RevA.02_gcc-4.9.2/g09/l1.exe PID=   2202904.
  
 Copyright (c) 1988,1990,1992,1993,1995,1998,2003,2009, Gaussian, Inc.
                  All Rights Reserved.
  
 This is part of the Gaussian(R) 09 program.  It is based on
 the Gaussian(R) 03 system (copyright 2003, Gaussian, Inc.),
 the Gaussian(R) 98 system (copyright 1998, Gaussian, Inc.),
 the Gaussian(R) 94 system (copyright 1995, Gaussian, Inc.),
 the Gaussian 92(TM) system (copyright 1992, Gaussian, Inc.),
 the Gaussian 90(TM) system (copyright 1990, Gaussian, Inc.),
 the Gaussian 88(TM) system (copyright 1988, Gaussian, Inc.),
 the Gaussian 86(TM) system (copyright 1986, Carnegie Mellon
 University), and the Gaussian 82(TM) system (copyright 1983,
 Carnegie Mellon University). Gaussian is a federally registered
 trademark of Gaussian, Inc.
  
 This software contains proprietary and confidential information,
 including trade secrets, belonging to Gaussian, Inc.
  
 This software is provided under written license and may be
 used, copied, transmitted, or stored only in accord with that
 written license.
  
 The following legend is applicable only to US Government
 contracts under FAR:
  
                    RESTRICTED RIGHTS LEGEND
  
 Use, reproduction and disclosure by the US Government is
 subject to restrictions as set forth in subparagraphs (a)
 and (c) of the Commercial Computer Software - Restricted
 Rights clause in FAR 52.227-19.
  
 Gaussian, Inc.
 340 Quinnipiac St., Bldg. 40, Wallingford CT 06492
  
  
 ---------------------------------------------------------------
 Warning -- This program may not be used in any manner that
 competes with the business of Gaussian, Inc. or will provide
 assistance to any competitor of Gaussian, Inc.  The licensee
 of this program is prohibited from giving any competitor of
 Gaussian, Inc. access to this program.  By using this program,
 the user acknowledges that Gaussian, Inc. is engaged in the
 business of creating and licensing software in the field of
 computational chemistry and represents and warrants to the
 licensee that it is not a competitor of Gaussian, Inc. and that
 it will not use this program in any manner prohibited above.
 ---------------------------------------------------------------
  

 Cite this work as:
 Gaussian 09, Revision A.02,
 M. J. Frisch, G. W. Trucks, H. B. Schlegel, G. E. Scuseria, 
 M. A. Robb, J. R. Cheeseman, G. Scalmani, V. Barone, B. Mennucci, 
 G. A. Petersson, H. Nakatsuji, M. Caricato, X. Li, H. P. Hratchian, 
 A. F. Izmaylov, J. Bloino, G. Zheng, J. L. Sonnenberg, M. Hada, 
 M. Ehara, K. Toyota, R. Fukuda, J. Hasegawa, M. Ishida, T. Nakajima, 
 Y. Honda, O. Kitao, H. Nakai, T. Vreven, J. A. Montgomery, Jr., 
 J. E. Peralta, F. Ogliaro, M. Bearpark, J. J. Heyd, E. Brothers, 
 K. N. Kudin, V. N. Staroverov, R. Kobayashi, J. Normand, 
 K. Raghavachari, A. Rendell, J. C. Burant, S. S. Iyengar, J. Tomasi, 
 M. Cossi, N. Rega, J. M. Millam, M. Klene, J. E. Knox, J. B. Cross, 
 V. Bakken, C. Adamo, J. Jaramillo, R. Gomperts, R. E. Stratmann, 
 O. Yazyev, A. J. Austin, R. Cammi, C. Pomelli, J. W. Ochterski, 
 R. L. Martin, K. Morokuma, V. G. Zakrzewski, G. A. Voth, 
 P. Salvador, J. J. Dannenberg, S. Dapprich, A. D. Daniels, 
 O. Farkas, J. B. Foresman, J. V. Ortiz, J. Cioslowski, 
 and D. J. Fox, Gaussian, Inc., Wallingford CT, 2009.
 
 ******************************************
 Gaussian 09:  AM64L-G09RevA.02 11-Jun-2009
                 3-Oct-2021 
 ******************************************
 %nproc=4
 Will use up to    4 processors via shared memory.
 %mem=8gb
 %chk=C14H12N2_2782_conf_0.chk
 -----------------------------------
 #p opt b3lyp/6-31G* scf=(xqc,tight)
 -----------------------------------
 1/14=-1,18=20,19=15,26=3,38=1/1,3;
 2/9=110,12=2,17=6,18=5,40=1/2;
 3/5=1,6=6,7=1,11=2,16=1,25=1,30=1,71=1,74=-5/1,2,3;
 4//1;
 5/5=2,8=3,13=1,32=2,38=5/2,8;
 6/7=2,8=2,9=2,10=2,28=1/1;
 7//1,2,3,16;
 1/14=-1,18=20,19=15/3(2);
 2/9=110/2;
 99//99;
 2/9=110/2;
 3/5=1,6=6,7=1,11=2,16=1,25=1,30=1,71=1,74=-5/1,2,3;
 4/5=5,16=3/1;
 5/5=2,8=3,13=1,32=2,38=5/2,8;
 7//1,2,3,16;
 1/14=-1,18=20,19=15/3(-5);
 2/9=110/2;
 6/7=2,8=2,9=2,10=2,19=2,28=1/1;
 99/9=1/99;
 Leave Link    1 at Sun Oct  3 20:11:27 2021, MaxMem= 1073741824 cpu:       0.1
 (Enter /sw/target/amd/app/gaussian/Gaussian09RevA.02_gcc-4.9.2/g09/l101.exe)
 -----------------------------
 Cc1ccccc1n1cnc2c1cccc2_conf_0
 -----------------------------
 Symbolic Z-matrix:
 Charge =  0 Multiplicity = 1
 C                     2.43747   0.29479  -0.13123 
 C                     0.95508   0.06649   0.00093 
 C                     0.13816   1.21014   0.08999 
 C                    -1.2516    1.10649   0.14359 
 C                    -1.85413  -0.14474   0.11815 
 C                    -1.06697  -1.29412   0.05026 
 C                     0.3359   -1.20285   0.0007 
 N                     1.08253  -2.41604  -0.00752 
 C                     2.22271  -2.66817   0.72556 
 N                     2.66645  -3.89537   0.58222 
 C                     1.78239  -4.48842  -0.27685 
 C                     0.78077  -3.60047  -0.67184 
 C                    -0.20622  -3.97119  -1.60202 
 C                    -0.18737  -5.28545  -2.08427 
 C                     0.78868  -6.19115  -1.67327 
 C                     1.78565  -5.8017   -0.77318 
 H                     2.6437    1.27684  -0.57244 
 H                     2.89724  -0.43903  -0.80006 
 H                     2.91805   0.26172   0.85075 
 H                     0.58562   2.20306   0.10005 
 H                    -1.86168   2.00424   0.20414 
 H                    -2.93675  -0.22889   0.17013 
 H                    -1.57069  -2.25721   0.09557 
 H                     2.65829  -1.93725   1.39151 
 H                    -0.95401  -3.27021  -1.95806 
 H                    -0.94357  -5.60187  -2.80014 
 H                     0.78578  -7.20599  -2.06357 
 H                     2.55991  -6.49446  -0.46166 
 
 NAtoms=     28 NQM=     28 NQMF=      0 NMic=      0 NMicF=      0 NTot=     28.
                    Isotopes and Nuclear Properties:
 (Nuclear quadrupole moments (NQMom) in fm**2, nuclear magnetic moments (NMagM)
  in nuclear magnetons)

  Atom         1           2           3           4           5           6           7           8           9          10
 IAtWgt=          12          12          12          12          12          12          12          14          12          14
 AtmWgt=  12.0000000  12.0000000  12.0000000  12.0000000  12.0000000  12.0000000  12.0000000  14.0030740  12.0000000  14.0030740
 NucSpn=           0           0           0           0           0           0           0           2           0           2
 AtZEff=   0.0000000   0.0000000   0.0000000   0.0000000   0.0000000   0.0000000   0.0000000   0.0000000   0.0000000   0.0000000
 NQMom=    0.0000000   0.0000000   0.0000000   0.0000000   0.0000000   0.0000000   0.0000000   2.0440000   0.0000000   2.0440000
 NMagM=    0.0000000   0.0000000   0.0000000   0.0000000   0.0000000   0.0000000   0.0000000   0.4037610   0.0000000   0.4037610

  Atom        11          12          13          14          15          16          17          18          19          20
 IAtWgt=          12          12          12          12          12          12           1           1           1           1
 AtmWgt=  12.0000000  12.0000000  12.0000000  12.0000000  12.0000000  12.0000000   1.0078250   1.0078250   1.0078250   1.0078250
 NucSpn=           0           0           0           0           0           0           1           1           1           1
 AtZEff=   0.0000000   0.0000000   0.0000000   0.0000000   0.0000000   0.0000000   0.0000000   0.0000000   0.0000000   0.0000000
 NQMom=    0.0000000   0.0000000   0.0000000   0.0000000   0.0000000   0.0000000   0.0000000   0.0000000   0.0000000   0.0000000
 NMagM=    0.0000000   0.0000000   0.0000000   0.0000000   0.0000000   0.0000000   2.7928460   2.7928460   2.7928460   2.7928460

  Atom        21          22          23          24          25          26          27          28
 IAtWgt=           1           1           1           1           1           1           1           1
 AtmWgt=   1.0078250   1.0078250   1.0078250   1.0078250   1.0078250   1.0078250   1.0078250   1.0078250
 NucSpn=           1           1           1           1           1           1           1           1
 AtZEff=   0.0000000   0.0000000   0.0000000   0.0000000   0.0000000   0.0000000   0.0000000   0.0000000
 NQMom=    0.0000000   0.0000000   0.0000000   0.0000000   0.0000000   0.0000000   0.0000000   0.0000000
 NMagM=    2.7928460   2.7928460   2.7928460   2.7928460   2.7928460   2.7928460   2.7928460   2.7928460
 Leave Link  101 at Sun Oct  3 20:11:28 2021, MaxMem= 1073741824 cpu:       0.2
 (Enter /sw/target/amd/app/gaussian/Gaussian09RevA.02_gcc-4.9.2/g09/l103.exe)

 GradGradGradGradGradGradGradGradGradGradGradGradGradGradGradGradGradGrad
 Berny optimization.
 Initialization pass.
                           ----------------------------
                           !    Initial Parameters    !
                           ! (Angstroms and Degrees)  !
 --------------------------                            --------------------------
 ! Name  Definition              Value          Derivative Info.                !
 --------------------------------------------------------------------------------
 ! R1    R(1,2)                  1.5057         estimate D2E/DX2                !
 ! R2    R(1,17)                 1.0962         estimate D2E/DX2                !
 ! R3    R(1,18)                 1.0942         estimate D2E/DX2                !
 ! R4    R(1,19)                 1.0938         estimate D2E/DX2                !
 ! R5    R(2,3)                  1.4083         estimate D2E/DX2                !
 ! R6    R(2,7)                  1.4123         estimate D2E/DX2                !
 ! R7    R(3,4)                  1.3947         estimate D2E/DX2                !
 ! R8    R(3,20)                 1.0891         estimate D2E/DX2                !
 ! R9    R(4,5)                  1.389          estimate D2E/DX2                !
 ! R10   R(4,21)                 1.0871         estimate D2E/DX2                !
 ! R11   R(5,6)                  1.3947         estimate D2E/DX2                !
 ! R12   R(5,22)                 1.0871         estimate D2E/DX2                !
 ! R13   R(6,7)                  1.4067         estimate D2E/DX2                !
 ! R14   R(6,23)                 1.0878         estimate D2E/DX2                !
 ! R15   R(7,8)                  1.4245         estimate D2E/DX2                !
 ! R16   R(8,9)                  1.3788         estimate D2E/DX2                !
 ! R17   R(8,12)                 1.3911         estimate D2E/DX2                !
 ! R18   R(9,10)                 1.3128         estimate D2E/DX2                !
 ! R19   R(9,24)                 1.0805         estimate D2E/DX2                !
 ! R20   R(10,11)                1.3679         estimate D2E/DX2                !
 ! R21   R(11,12)                1.3956         estimate D2E/DX2                !
 ! R22   R(11,16)                1.4039         estimate D2E/DX2                !
 ! R23   R(12,13)                1.406          estimate D2E/DX2                !
 ! R24   R(13,14)                1.4001         estimate D2E/DX2                !
 ! R25   R(13,25)                1.085          estimate D2E/DX2                !
 ! R26   R(14,15)                1.3935         estimate D2E/DX2                !
 ! R27   R(14,26)                1.0883         estimate D2E/DX2                !
 ! R28   R(15,16)                1.3985         estimate D2E/DX2                !
 ! R29   R(15,27)                1.0873         estimate D2E/DX2                !
 ! R30   R(16,28)                1.0846         estimate D2E/DX2                !
 ! A1    A(2,1,17)             110.8786         estimate D2E/DX2                !
 ! A2    A(2,1,18)             111.448          estimate D2E/DX2                !
 ! A3    A(2,1,19)             110.4382         estimate D2E/DX2                !
 ! A4    A(17,1,18)            106.0067         estimate D2E/DX2                !
 ! A5    A(17,1,19)            107.8054         estimate D2E/DX2                !
 ! A6    A(18,1,19)            110.1141         estimate D2E/DX2                !
 ! A7    A(1,2,3)              116.9706         estimate D2E/DX2                !
 ! A8    A(1,2,7)              124.6039         estimate D2E/DX2                !
 ! A9    A(3,2,7)              118.3968         estimate D2E/DX2                !
 ! A10   A(2,3,4)              121.3411         estimate D2E/DX2                !
 ! A11   A(2,3,20)             120.1731         estimate D2E/DX2                !
 ! A12   A(4,3,20)             118.4766         estimate D2E/DX2                !
 ! A13   A(3,4,5)              119.9018         estimate D2E/DX2                !
 ! A14   A(3,4,21)             119.999          estimate D2E/DX2                !
 ! A15   A(5,4,21)             120.0991         estimate D2E/DX2                !
 ! A16   A(4,5,6)              119.8957         estimate D2E/DX2                !
 ! A17   A(4,5,22)             120.0556         estimate D2E/DX2                !
 ! A18   A(6,5,22)             120.0385         estimate D2E/DX2                !
 ! A19   A(5,6,7)              120.7363         estimate D2E/DX2                !
 ! A20   A(5,6,23)             117.7897         estimate D2E/DX2                !
 ! A21   A(7,6,23)             121.3796         estimate D2E/DX2                !
 ! A22   A(2,7,6)              119.7045         estimate D2E/DX2                !
 ! A23   A(2,7,8)              122.3875         estimate D2E/DX2                !
 ! A24   A(6,7,8)              117.8806         estimate D2E/DX2                !
 ! A25   A(7,8,9)              125.8797         estimate D2E/DX2                !
 ! A26   A(7,8,12)             127.8909         estimate D2E/DX2                !
 ! A27   A(9,8,12)             106.1162         estimate D2E/DX2                !
 ! A28   A(8,9,10)             113.1044         estimate D2E/DX2                !
 ! A29   A(8,9,24)             122.5049         estimate D2E/DX2                !
 ! A30   A(10,9,24)            124.2906         estimate D2E/DX2                !
 ! A31   A(9,10,11)            104.7968         estimate D2E/DX2                !
 ! A32   A(10,11,12)           111.4518         estimate D2E/DX2                !
 ! A33   A(10,11,16)           128.7595         estimate D2E/DX2                !
 ! A34   A(12,11,16)           119.7871         estimate D2E/DX2                !
 ! A35   A(8,12,11)            104.5298         estimate D2E/DX2                !
 ! A36   A(8,12,13)            133.8437         estimate D2E/DX2                !
 ! A37   A(11,12,13)           121.5534         estimate D2E/DX2                !
 ! A38   A(12,13,14)           117.7707         estimate D2E/DX2                !
 ! A39   A(12,13,25)           122.0422         estimate D2E/DX2                !
 ! A40   A(14,13,25)           120.1785         estimate D2E/DX2                !
 ! A41   A(13,14,15)           121.1947         estimate D2E/DX2                !
 ! A42   A(13,14,26)           119.3491         estimate D2E/DX2                !
 ! A43   A(15,14,26)           119.4537         estimate D2E/DX2                !
 ! A44   A(14,15,16)           120.5414         estimate D2E/DX2                !
 ! A45   A(14,15,27)           119.9261         estimate D2E/DX2                !
 ! A46   A(16,15,27)           119.5276         estimate D2E/DX2                !
 ! A47   A(11,16,15)           119.102          estimate D2E/DX2                !
 ! A48   A(11,16,28)           119.84           estimate D2E/DX2                !
 ! A49   A(15,16,28)           121.0564         estimate D2E/DX2                !
 ! D1    D(17,1,2,3)           -25.0185         estimate D2E/DX2                !
 ! D2    D(17,1,2,7)           152.9975         estimate D2E/DX2                !
 ! D3    D(18,1,2,3)          -142.8542         estimate D2E/DX2                !
 ! D4    D(18,1,2,7)            35.1618         estimate D2E/DX2                !
 ! D5    D(19,1,2,3)            94.4145         estimate D2E/DX2                !
 ! D6    D(19,1,2,7)           -87.5695         estimate D2E/DX2                !
 ! D7    D(1,2,3,4)            176.5633         estimate D2E/DX2                !
 ! D8    D(1,2,3,20)            -2.3117         estimate D2E/DX2                !
 ! D9    D(7,2,3,4)             -1.5804         estimate D2E/DX2                !
 ! D10   D(7,2,3,20)           179.5447         estimate D2E/DX2                !
 ! D11   D(1,2,7,6)           -176.2021         estimate D2E/DX2                !
 ! D12   D(1,2,7,8)              5.7421         estimate D2E/DX2                !
 ! D13   D(3,2,7,6)              1.7878         estimate D2E/DX2                !
 ! D14   D(3,2,7,8)           -176.268          estimate D2E/DX2                !
 ! D15   D(2,3,4,5)              0.4254         estimate D2E/DX2                !
 ! D16   D(2,3,4,21)          -179.5113         estimate D2E/DX2                !
 ! D17   D(20,3,4,5)           179.3189         estimate D2E/DX2                !
 ! D18   D(20,3,4,21)           -0.6178         estimate D2E/DX2                !
 ! D19   D(3,4,5,6)              0.5308         estimate D2E/DX2                !
 ! D20   D(3,4,5,22)           179.3702         estimate D2E/DX2                !
 ! D21   D(21,4,5,6)          -179.5326         estimate D2E/DX2                !
 ! D22   D(21,4,5,22)           -0.6931         estimate D2E/DX2                !
 ! D23   D(4,5,6,7)             -0.2975         estimate D2E/DX2                !
 ! D24   D(4,5,6,23)           176.217          estimate D2E/DX2                !
 ! D25   D(22,5,6,7)          -179.1372         estimate D2E/DX2                !
 ! D26   D(22,5,6,23)           -2.6227         estimate D2E/DX2                !
 ! D27   D(5,6,7,2)             -0.8832         estimate D2E/DX2                !
 ! D28   D(5,6,7,8)            177.2595         estimate D2E/DX2                !
 ! D29   D(23,6,7,2)          -177.2713         estimate D2E/DX2                !
 ! D30   D(23,6,7,8)             0.8714         estimate D2E/DX2                !
 ! D31   D(2,7,8,9)             41.5287         estimate D2E/DX2                !
 ! D32   D(2,7,8,12)          -142.8865         estimate D2E/DX2                !
 ! D33   D(6,7,8,9)           -136.5608         estimate D2E/DX2                !
 ! D34   D(6,7,8,12)            39.0239         estimate D2E/DX2                !
 ! D35   D(7,8,9,10)           176.529          estimate D2E/DX2                !
 ! D36   D(7,8,9,24)             0.0248         estimate D2E/DX2                !
 ! D37   D(12,8,9,10)            0.1548         estimate D2E/DX2                !
 ! D38   D(12,8,9,24)         -176.3493         estimate D2E/DX2                !
 ! D39   D(7,8,12,11)         -176.227          estimate D2E/DX2                !
 ! D40   D(7,8,12,13)            6.9698         estimate D2E/DX2                !
 ! D41   D(9,8,12,11)            0.0502         estimate D2E/DX2                !
 ! D42   D(9,8,12,13)         -176.7529         estimate D2E/DX2                !
 ! D43   D(8,9,10,11)           -0.291          estimate D2E/DX2                !
 ! D44   D(24,9,10,11)         176.1405         estimate D2E/DX2                !
 ! D45   D(9,10,11,12)           0.3219         estimate D2E/DX2                !
 ! D46   D(9,10,11,16)         179.8428         estimate D2E/DX2                !
 ! D47   D(10,11,12,8)          -0.2318         estimate D2E/DX2                !
 ! D48   D(10,11,12,13)        177.0629         estimate D2E/DX2                !
 ! D49   D(16,11,12,8)        -179.8014         estimate D2E/DX2                !
 ! D50   D(16,11,12,13)         -2.5067         estimate D2E/DX2                !
 ! D51   D(10,11,16,15)       -178.6393         estimate D2E/DX2                !
 ! D52   D(10,11,16,28)          0.918          estimate D2E/DX2                !
 ! D53   D(12,11,16,15)          0.847          estimate D2E/DX2                !
 ! D54   D(12,11,16,28)       -179.5958         estimate D2E/DX2                !
 ! D55   D(8,12,13,14)         178.9148         estimate D2E/DX2                !
 ! D56   D(8,12,13,25)          -0.0191         estimate D2E/DX2                !
 ! D57   D(11,12,13,14)          2.5468         estimate D2E/DX2                !
 ! D58   D(11,12,13,25)       -176.387          estimate D2E/DX2                !
 ! D59   D(12,13,14,15)         -0.986          estimate D2E/DX2                !
 ! D60   D(12,13,14,26)        179.5909         estimate D2E/DX2                !
 ! D61   D(25,13,14,15)        177.9686         estimate D2E/DX2                !
 ! D62   D(25,13,14,26)         -1.4545         estimate D2E/DX2                !
 ! D63   D(13,14,15,16)         -0.6002         estimate D2E/DX2                !
 ! D64   D(13,14,15,27)       -179.7947         estimate D2E/DX2                !
 ! D65   D(26,14,15,16)        178.8223         estimate D2E/DX2                !
 ! D66   D(26,14,15,27)         -0.3722         estimate D2E/DX2                !
 ! D67   D(14,15,16,11)          0.6783         estimate D2E/DX2                !
 ! D68   D(14,15,16,28)       -178.8734         estimate D2E/DX2                !
 ! D69   D(27,15,16,11)        179.876          estimate D2E/DX2                !
 ! D70   D(27,15,16,28)          0.3243         estimate D2E/DX2                !
 --------------------------------------------------------------------------------
 Trust Radius=3.00D-01 FncErr=1.00D-07 GrdErr=1.00D-06
 Number of steps in this run= 159 maximum allowed number of steps= 168.
 GradGradGradGradGradGradGradGradGradGradGradGradGradGradGradGradGradGrad

 Leave Link  103 at Sun Oct  3 20:11:29 2021, MaxMem= 1073741824 cpu:       0.0
 (Enter /sw/target/amd/app/gaussian/Gaussian09RevA.02_gcc-4.9.2/g09/l202.exe)
                          Input orientation:                          
 ---------------------------------------------------------------------
 Center     Atomic      Atomic             Coordinates (Angstroms)
 Number     Number       Type             X           Y           Z
 ---------------------------------------------------------------------
      1          6           0        2.437474    0.294793   -0.131230
      2          6           0        0.955084    0.066490    0.000925
      3          6           0        0.138158    1.210141    0.089988
      4          6           0       -1.251603    1.106490    0.143591
      5          6           0       -1.854130   -0.144742    0.118150
      6          6           0       -1.066967   -1.294119    0.050258
      7          6           0        0.335904   -1.202852    0.000698
      8          7           0        1.082526   -2.416040   -0.007524
      9          6           0        2.222712   -2.668170    0.725557
     10          7           0        2.666445   -3.895368    0.582223
     11          6           0        1.782387   -4.488425   -0.276851
     12          6           0        0.780774   -3.600465   -0.671841
     13          6           0       -0.206224   -3.971187   -1.602017
     14          6           0       -0.187368   -5.285451   -2.084265
     15          6           0        0.788677   -6.191147   -1.673266
     16          6           0        1.785651   -5.801703   -0.773178
     17          1           0        2.643699    1.276839   -0.572439
     18          1           0        2.897238   -0.439026   -0.800060
     19          1           0        2.918052    0.261723    0.850750
     20          1           0        0.585619    2.203064    0.100052
     21          1           0       -1.861678    2.004242    0.204144
     22          1           0       -2.936748   -0.228886    0.170128
     23          1           0       -1.570689   -2.257211    0.095573
     24          1           0        2.658288   -1.937251    1.391511
     25          1           0       -0.954012   -3.270210   -1.958063
     26          1           0       -0.943573   -5.601869   -2.800143
     27          1           0        0.785783   -7.205985   -2.063569
     28          1           0        2.559907   -6.494461   -0.461661
 ---------------------------------------------------------------------
                    Distance matrix (angstroms):
                    1          2          3          4          5
     1  C    0.000000
     2  C    1.505679   0.000000
     3  C    2.484684   1.408274   0.000000
     4  C    3.787303   2.443649   1.394651   0.000000
     5  C    4.321255   2.819582   2.409504   1.388981   0.000000
     6  C    3.852102   2.437700   2.779429   2.409507   1.394741
     7  C    2.583977   1.412307   2.422727   2.806004   2.435085
     8  N    3.033117   2.485814   3.748403   4.228382   3.714638
     9  C    3.091821   3.100055   4.448664   5.163100   4.832936
    10  N    4.256629   4.354651   5.718457   6.368837   5.892211
    11  C    4.830064   4.637763   5.942366   6.378475   5.678720
    12  C    4.267312   3.732233   4.912766   5.191426   4.416879
    13  C    5.229813   4.496766   5.461469   5.470171   4.507355
    14  C    6.468637   5.856321   6.857555   6.852215   5.835719
    15  C    6.867592   6.479864   7.636184   7.792254   6.837588
    16  C    6.164758   5.977020   7.254326   7.601875   6.785549
    17  H    1.096179   2.155253   2.592489   3.964228   4.767418
    18  H    1.094169   2.160807   3.335335   4.526807   4.848217
    19  H    1.093771   2.147920   3.034150   4.312740   4.845166
    20  H    2.669149   2.170548   1.089137   2.140037   3.385986
    21  H    4.638685   3.424956   2.154755   1.087114   2.150718
    22  H    5.408079   3.906691   3.395919   2.150266   1.087127
    23  H    4.757051   3.433376   3.865581   3.379142   2.131518
    24  H    2.711001   2.974830   4.236873   5.109688   5.019606
    25  H    5.248689   4.314609   5.045879   4.864258   3.858681
    26  H    7.302411   6.601604   7.478401   7.332294   6.255060
    27  H    7.919829   7.561726   8.711395   8.838537   7.847942
    28  H    6.798393   6.770194   8.095065   8.524576   7.754923
                    6          7          8          9         10
     6  C    0.000000
     7  C    1.406711   0.000000
     8  N    2.425359   1.424548   0.000000
     9  C    3.628503   2.496522   1.378767   0.000000
    10  N    4.581250   3.608218   2.246110   1.312805   0.000000
    11  C    4.292949   3.600603   2.203888   2.124155   1.367949
    12  C    3.042171   2.529578   1.391127   2.213838   2.283725
    13  C    3.261531   3.244423   2.573280   3.607656   3.609555
    14  C    4.610923   4.613947   3.762846   4.533624   4.145690
    15  C    5.513151   5.281122   4.136723   4.496907   3.726104
    16  C    5.397572   4.883655   3.541656   3.500893   2.499405
    17  H    4.557042   3.435589   4.048919   4.174341   5.299574
    18  H    4.143568   2.790175   2.798192   2.784165   3.729648
    19  H    4.352219   3.087888   3.358005   3.013875   4.173346
    20  H    3.868309   3.416503   4.647000   5.176896   6.461671
    21  H    3.396238   3.893097   5.315264   6.227804   7.446626
    22  H    2.155266   3.418709   4.579276   5.733990   6.708851
    23  H    1.087811   2.180773   2.659964   3.867254   4.568774
    24  H    4.011248   2.804848   2.160917   1.080493   2.118781
    25  H    2.819760   3.126435   2.946472   4.201885   4.466719
    26  H    5.166887   5.369649   4.696095   5.573375   5.233047
    27  H    6.546076   6.364055   5.221011   5.516860   4.636517
    28  H    6.360804   5.758567   4.361469   4.020409   2.802914
                   11         12         13         14         15
    11  C    0.000000
    12  C    1.395607   0.000000
    13  C    2.445031   1.405997   0.000000
    14  C    2.789612   2.402378   1.400075   0.000000
    15  C    2.415926   2.777507   2.433747   1.393510   0.000000
    16  C    1.403941   2.421879   2.829369   2.424514   1.398493
    17  H    5.836737   5.221922   6.060023   7.305082   7.773271
    18  H    4.232526   3.806647   4.769778   5.886580   6.188329
    19  H    5.012497   4.669340   5.804713   7.002077   7.248753
    20  H    6.808108   5.857888   6.453328   7.838789   8.581880
    21  H    7.460918   6.258006   6.458212   7.821749   8.815523
    22  H    6.372888   5.088853   4.959948   6.181443   7.268112
    23  H    4.044767   2.814717   2.771514   3.979386   4.916427
    24  H    3.171612   3.247886   4.615575   5.602608   5.566321
    25  H    3.434880   2.184700   1.085045   2.159830   3.413201
    26  H    3.877837   3.392442   2.153674   1.088323   2.148905
    27  H    3.401575   3.864804   3.414824   2.153114   1.087309
    28  H    2.159368   3.403631   3.913925   3.412048   2.167312
                   16         17         18         19         20
    16  C    0.000000
    17  H    7.133183   0.000000
    18  H    5.476738   1.749367   0.000000
    19  H    6.378449   1.769519   1.793504   0.000000
    20  H    8.141186   2.354959   3.624144   3.126115   0.000000
    21  H    8.671271   4.629322   5.442910   5.128381   2.457566
    22  H    7.365268   5.827522   5.917839   5.914611   4.280930
    23  H    4.958142   5.540471   4.906152   5.202318   4.954163
    24  H    4.514572   3.766655   2.665476   2.279339   4.806874
    25  H    3.913842   5.961471   4.918201   5.946163   6.046737
    26  H    3.405464   8.071420   6.738480   7.913462   8.465610
    27  H    2.153335   8.810995   7.200447   8.294968   9.656683
    28  H    1.084633   7.772541   6.074257   6.891785   8.936458
                   21         22         23         24         25
    21  H    0.000000
    22  H    2.478668   0.000000
    23  H    4.272756   2.446585   0.000000
    24  H    6.113534   5.976179   4.434645   0.000000
    25  H    5.772248   4.208336   2.371472   5.103443   0.000000
    26  H    8.229313   6.454782   4.468242   6.631198   2.479081
    27  H    9.847835   8.217454   5.891114   6.572930   4.304456
    28  H    9.603211   8.358816   5.943620   4.920577   4.998263
                   26         27         28
    26  H    0.000000
    27  H    2.471114   0.000000
    28  H    4.305763   2.493971   0.000000
 Stoichiometry    C14H12N2
 Framework group  C1[X(C14H12N2)]
 Deg. of freedom    78
 Full point group                 C1      NOp   1
 Largest Abelian subgroup         C1      NOp   1
 Largest concise Abelian subgroup C1      NOp   1
                         Standard orientation:                         
 ---------------------------------------------------------------------
 Center     Atomic      Atomic             Coordinates (Angstroms)
 Number     Number       Type             X           Y           Z
 ---------------------------------------------------------------------
      1          6           0        2.217486    2.082608    0.946374
      2          6           0        2.322172    0.702701    0.353107
      3          6           0        3.601614    0.114931    0.325011
      4          6           0        3.791991   -1.186533   -0.138671
      5          6           0        2.707079   -1.925436   -0.592822
      6          6           0        1.432257   -1.359636   -0.594100
      7          6           0        1.228147   -0.046211   -0.133567
      8          7           0       -0.088124    0.492077   -0.217314
      9          6           0       -0.416213    1.762378   -0.641215
     10          7           0       -1.711424    1.971484   -0.687703
     11          6           0       -2.270745    0.790070   -0.284336
     12          6           0       -1.294145   -0.158736    0.021834
     13          6           0       -1.633232   -1.430065    0.517384
     14          6           0       -2.992788   -1.739111    0.645088
     15          6           0       -3.978145   -0.811562    0.312536
     16          6           0       -3.628968    0.462038   -0.147682
     17          1           0        3.032544    2.265547    1.656179
     18          1           0        1.290030    2.204800    1.513913
     19          1           0        2.280897    2.841652    0.161412
     20          1           0        4.466744    0.669272    0.686227
     21          1           0        4.788238   -1.621605   -0.143322
     22          1           0        2.854114   -2.936470   -0.964353
     23          1           0        0.617890   -1.945255   -1.015039
     24          1           0        0.327894    2.479512   -0.956632
     25          1           0       -0.879546   -2.152850    0.812108
     26          1           0       -3.284297   -2.718455    1.019731
     27          1           0       -5.027948   -1.072285    0.422899
     28          1           0       -4.388782    1.196602   -0.391665
 ---------------------------------------------------------------------
 Rotational constants (GHZ):      1.1858171      0.3674114      0.2989731
 Leave Link  202 at Sun Oct  3 20:11:29 2021, MaxMem= 1073741824 cpu:       0.1
 (Enter /sw/target/amd/app/gaussian/Gaussian09RevA.02_gcc-4.9.2/g09/l301.exe)
 Standard basis: 6-31G(d) (6D, 7F)
 Ernie: Thresh=  0.10000D-02 Tol=  0.10000D-05 Strict=F.
 There are   264 symmetry adapted basis functions of A   symmetry.
 Integral buffers will be    131072 words long.
 Raffenetti 2 integral format.
 Two-electron integral symmetry is turned on.
   264 basis functions,   496 primitive gaussians,   264 cartesian basis functions
    55 alpha electrons       55 beta electrons
       nuclear repulsion energy      1001.5231775615 Hartrees.
 IExCor=  402 DFT=T Ex+Corr=B3LYP ExCW=0 ScaHFX=  0.200000
 ScaDFX=  0.800000  0.720000  1.000000  0.810000 ScalE2=  1.000000  1.000000
 IRadAn=      0 IRanWt=     -1 IRanGd=            0 ICorTp=0
 NAtoms=   28 NActive=   28 NUniq=   28 SFac= 7.50D-01 NAtFMM=   80 NAOKFM=F Big=F
 Leave Link  301 at Sun Oct  3 20:11:30 2021, MaxMem= 1073741824 cpu:       0.1
 (Enter /sw/target/amd/app/gaussian/Gaussian09RevA.02_gcc-4.9.2/g09/l302.exe)
 NPDir=0 NMtPBC=     1 NCelOv=     1 NCel=       1 NClECP=     1 NCelD=      1
         NCelK=      1 NCelE2=     1 NClLst=     1 CellRange=     0.0.
 One-electron integrals computed using PRISM.
 NBasis=   264 RedAO= T  NBF=   264
 NBsUse=   264 1.00D-06 NBFU=   264
 Precomputing XC quadrature grid using
 IXCGrd= 2 IRadAn=           0 IRanWt=          -1 IRanGd=           0 AccXCQ= 1.00D-10.
 NRdTot=    1768 NPtTot=      225146 NUsed=      237899 NTot=      237931
 NSgBfM=   263   263   263   263   263 NAtAll=    28    28.
 Leave Link  302 at Sun Oct  3 20:11:35 2021, MaxMem= 1073741824 cpu:       2.3
 (Enter /sw/target/amd/app/gaussian/Gaussian09RevA.02_gcc-4.9.2/g09/l303.exe)
 DipDrv:  MaxL=1.
 Leave Link  303 at Sun Oct  3 20:11:36 2021, MaxMem= 1073741824 cpu:       0.2
 (Enter /sw/target/amd/app/gaussian/Gaussian09RevA.02_gcc-4.9.2/g09/l401.exe)
 Harris functional with IExCor=  402 diagonalized for initial guess.
 ExpMin= 1.61D-01 ExpMax= 4.17D+03 ExpMxC= 6.27D+02 IAcc=1 IRadAn=         1 AccDes= 0.00D+00
 HarFok:  IExCor=  402 AccDes= 0.00D+00 IRadAn=         1 IDoV= 1
 ScaDFX=  1.000000  1.000000  1.000000  1.000000
 FoFCou: FMM=F IPFlag=           0 FMFlag=      100000 FMFlg1=           0
         NFxFlg=           0 DoJE=T BraDBF=F KetDBF=T FulRan=T
         Omega=  0.000000  0.000000  1.000000  0.000000  0.000000 ICntrl=     500 IOpCl=  0
         NMat0=    1 NMatS0=    1 NMatT0=    0 NMatD0=    1 NMtDS0=    0 NMtDT0=    0
         I1Cent=           4 NGrid=           0.
 Petite list used in FoFCou.
 Harris En= -650.302327699869    
 Initial guess orbital symmetries:
       Occupied  (A) (A) (A) (A) (A) (A) (A) (A) (A) (A) (A) (A)
                 (A) (A) (A) (A) (A) (A) (A) (A) (A) (A) (A) (A)
                 (A) (A) (A) (A) (A) (A) (A) (A) (A) (A) (A) (A)
                 (A) (A) (A) (A) (A) (A) (A) (A) (A) (A) (A) (A)
                 (A) (A) (A) (A) (A) (A) (A)
       Virtual   (A) (A) (A) (A) (A) (A) (A) (A) (A) (A) (A) (A)
                 (A) (A) (A) (A) (A) (A) (A) (A) (A) (A) (A) (A)
                 (A) (A) (A) (A) (A) (A) (A) (A) (A) (A) (A) (A)
                 (A) (A) (A) (A) (A) (A) (A) (A) (A) (A) (A) (A)
                 (A) (A) (A) (A) (A) (A) (A) (A) (A) (A) (A) (A)
                 (A) (A) (A) (A) (A) (A) (A) (A) (A) (A) (A) (A)
                 (A) (A) (A) (A) (A) (A) (A) (A) (A) (A) (A) (A)
                 (A) (A) (A) (A) (A) (A) (A) (A) (A) (A) (A) (A)
                 (A) (A) (A) (A) (A) (A) (A) (A) (A) (A) (A) (A)
                 (A) (A) (A) (A) (A) (A) (A) (A) (A) (A) (A) (A)
                 (A) (A) (A) (A) (A) (A) (A) (A) (A) (A) (A) (A)
                 (A) (A) (A) (A) (A) (A) (A) (A) (A) (A) (A) (A)
                 (A) (A) (A) (A) (A) (A) (A) (A) (A) (A) (A) (A)
                 (A) (A) (A) (A) (A) (A) (A) (A) (A) (A) (A) (A)
                 (A) (A) (A) (A) (A) (A) (A) (A) (A) (A) (A) (A)
                 (A) (A) (A) (A) (A) (A) (A) (A) (A) (A) (A) (A)
                 (A) (A) (A) (A) (A) (A) (A) (A) (A) (A) (A) (A)
                 (A) (A) (A) (A) (A)
 The electronic state of the initial guess is 1-A.
 Leave Link  401 at Sun Oct  3 20:11:57 2021, MaxMem= 1073741824 cpu:      10.6
 (Enter /sw/target/amd/app/gaussian/Gaussian09RevA.02_gcc-4.9.2/g09/l502.exe)
 Closed shell SCF:
 Requested convergence on RMS density matrix=1.00D-08 within  64 cycles.
 Requested convergence on MAX density matrix=1.00D-06.
 Requested convergence on             energy=1.00D-06.
 No special actions if energy rises.
 Using DIIS extrapolation, IDIIS=  1040.
 Integral symmetry usage will be decided dynamically.
       237634 words used for storage of precomputed grid.
 Keep R1 ints in memory in canonical form, NReq=621578220.
 IEnd=      455836 IEndB=      455836 NGot=  1073741824 MDV=   461542455
 LenX=   461542455 LenY=   461472318
 Symmetry not used in FoFDir.
 MinBra= 0 MaxBra= 2 Meth= 1.
 IRaf=       0 NMat=   1 IRICut=       1 DoRegI=T DoRafI=F ISym2E= 0 JSym2E=0.
 Integral accuracy reduced to 1.0D-05 until final iterations.

 Cycle   1  Pass 0  IDiag  1:
 E= -649.851167761405    
 DIIS: error= 3.60D-02 at cycle   1 NSaved=   1.
 NSaved= 1 IEnMin= 1 EnMin= -649.851167761405     IErMin= 1 ErrMin= 3.60D-02
 ErrMax= 3.60D-02 EMaxC= 1.00D-01 BMatC= 3.46D-01 BMatP= 3.46D-01
 IDIUse=3 WtCom= 6.40D-01 WtEn= 3.60D-01
 Coeff-Com:  0.100D+01
 Coeff-En:   0.100D+01
 Coeff:      0.100D+01
 Gap=     0.223 Goal=   None    Shift=    0.000
 GapD=    0.223 DampG=1.000 DampE=0.500 DampFc=0.5000 IDamp=-1.
 Damping current iteration by 5.00D-01
 RMSDP=5.83D-03 MaxDP=1.57D-01              OVMax= 2.56D-01

 Cycle   2  Pass 0  IDiag  1:
 E= -649.992459341350     Delta-E=       -0.141291579945 Rises=F Damp=T
 DIIS: error= 8.87D-03 at cycle   2 NSaved=   2.
 NSaved= 2 IEnMin= 2 EnMin= -649.992459341350     IErMin= 2 ErrMin= 8.87D-03
 ErrMax= 8.87D-03 EMaxC= 1.00D-01 BMatC= 4.33D-02 BMatP= 3.46D-01
 IDIUse=3 WtCom= 9.11D-01 WtEn= 8.87D-02
 Coeff-Com:  0.136D+00 0.864D+00
 Coeff-En:   0.217D+00 0.783D+00
 Coeff:      0.143D+00 0.857D+00
 Gap=     0.205 Goal=   None    Shift=    0.000
 RMSDP=2.06D-03 MaxDP=1.02D-01 DE=-1.41D-01 OVMax= 2.70D-01

 Cycle   3  Pass 0  IDiag  1:
 E= -650.154957317515     Delta-E=       -0.162497976166 Rises=F Damp=F
 DIIS: error= 1.47D-02 at cycle   3 NSaved=   3.
 NSaved= 3 IEnMin= 3 EnMin= -650.154957317515     IErMin= 2 ErrMin= 8.87D-03
 ErrMax= 1.47D-02 EMaxC= 1.00D-01 BMatC= 7.17D-02 BMatP= 4.33D-02
 IDIUse=2 WtCom= 0.00D+00 WtEn= 1.00D+00
 Coeff-En:   0.000D+00 0.000D+00 0.100D+01
 Coeff:      0.000D+00 0.000D+00 0.100D+01
 Gap=     0.224 Goal=   None    Shift=    0.000
 RMSDP=3.68D-03 MaxDP=1.62D-01 DE=-1.62D-01 OVMax= 2.52D-01

 Cycle   4  Pass 0  IDiag  1:
 E= -649.798872584887     Delta-E=        0.356084732628 Rises=F Damp=F
 DIIS: error= 3.67D-02 at cycle   4 NSaved=   4.
 NSaved= 4 IEnMin= 3 EnMin= -650.154957317515     IErMin= 2 ErrMin= 8.87D-03
 ErrMax= 3.67D-02 EMaxC= 1.00D-01 BMatC= 4.31D-01 BMatP= 4.33D-02
 IDIUse=2 WtCom= 0.00D+00 WtEn= 1.00D+00
 Coeff-En:   0.000D+00 0.000D+00 0.795D+00 0.205D+00
 Coeff:      0.000D+00 0.000D+00 0.795D+00 0.205D+00
 Gap=     0.189 Goal=   None    Shift=    0.000
 RMSDP=1.93D-03 MaxDP=9.19D-02 DE= 3.56D-01 OVMax= 1.64D-01

 Cycle   5  Pass 0  IDiag  1:
 E= -650.195906769056     Delta-E=       -0.397034184169 Rises=F Damp=F
 DIIS: error= 9.85D-03 at cycle   5 NSaved=   5.
 NSaved= 5 IEnMin= 5 EnMin= -650.195906769056     IErMin= 2 ErrMin= 8.87D-03
 ErrMax= 9.85D-03 EMaxC= 1.00D-01 BMatC= 3.30D-02 BMatP= 4.33D-02
 IDIUse=3 WtCom= 9.01D-01 WtEn= 9.85D-02
 Coeff-Com: -0.331D-02 0.296D-01 0.301D+00-0.102D+00 0.774D+00
 Coeff-En:   0.000D+00 0.000D+00 0.358D+00 0.000D+00 0.642D+00
 Coeff:     -0.298D-02 0.267D-01 0.307D+00-0.915D-01 0.761D+00
 Gap=     0.193 Goal=   None    Shift=    0.000
 RMSDP=7.61D-04 MaxDP=3.15D-02 DE=-3.97D-01 OVMax= 6.29D-02

 Cycle   6  Pass 0  IDiag  1:
 E= -650.229442180026     Delta-E=       -0.033535410970 Rises=F Damp=F
 DIIS: error= 5.38D-04 at cycle   6 NSaved=   6.
 NSaved= 6 IEnMin= 6 EnMin= -650.229442180026     IErMin= 6 ErrMin= 5.38D-04
 ErrMax= 5.38D-04 EMaxC= 1.00D-01 BMatC= 1.69D-04 BMatP= 3.30D-02
 IDIUse=3 WtCom= 9.95D-01 WtEn= 5.38D-03
 Coeff-Com: -0.408D-02 0.172D-01 0.155D+00-0.712D-01 0.468D+00 0.436D+00
 Coeff-En:   0.000D+00 0.000D+00 0.000D+00 0.000D+00 0.000D+00 0.100D+01
 Coeff:     -0.406D-02 0.172D-01 0.154D+00-0.708D-01 0.465D+00 0.439D+00
 Gap=     0.191 Goal=   None    Shift=    0.000
 RMSDP=6.33D-05 MaxDP=2.05D-03 DE=-3.35D-02 OVMax= 5.31D-03

 Cycle   7  Pass 0  IDiag  1:
 E= -650.229607283698     Delta-E=       -0.000165103672 Rises=F Damp=F
 DIIS: error= 1.25D-04 at cycle   7 NSaved=   7.
 NSaved= 7 IEnMin= 7 EnMin= -650.229607283698     IErMin= 7 ErrMin= 1.25D-04
 ErrMax= 1.25D-04 EMaxC= 1.00D-01 BMatC= 8.17D-06 BMatP= 1.69D-04
 IDIUse=3 WtCom= 9.99D-01 WtEn= 1.25D-03
 Coeff-Com: -0.490D-03 0.130D-02 0.357D-01-0.164D-01 0.106D+00 0.189D+00
 Coeff-Com:  0.684D+00
 Coeff-En:   0.000D+00 0.000D+00 0.000D+00 0.000D+00 0.000D+00 0.000D+00
 Coeff-En:   0.100D+01
 Coeff:     -0.489D-03 0.130D-02 0.357D-01-0.164D-01 0.106D+00 0.189D+00
 Coeff:      0.685D+00
 Gap=     0.191 Goal=   None    Shift=    0.000
 RMSDP=1.46D-05 MaxDP=4.60D-04 DE=-1.65D-04 OVMax= 1.00D-03

 Cycle   8  Pass 0  IDiag  1:
 E= -650.229614523622     Delta-E=       -0.000007239924 Rises=F Damp=F
 DIIS: error= 5.31D-05 at cycle   8 NSaved=   8.
 NSaved= 8 IEnMin= 8 EnMin= -650.229614523622     IErMin= 8 ErrMin= 5.31D-05
 ErrMax= 5.31D-05 EMaxC= 1.00D-01 BMatC= 1.77D-06 BMatP= 8.17D-06
 IDIUse=1 WtCom= 1.00D+00 WtEn= 0.00D+00
 Coeff-Com:  0.192D-03-0.127D-02 0.774D-02-0.295D-02 0.202D-01 0.772D-01
 Coeff-Com:  0.429D+00 0.470D+00
 Coeff:      0.192D-03-0.127D-02 0.774D-02-0.295D-02 0.202D-01 0.772D-01
 Coeff:      0.429D+00 0.470D+00
 Gap=     0.191 Goal=   None    Shift=    0.000
 RMSDP=5.61D-06 MaxDP=1.74D-04 DE=-7.24D-06 OVMax= 3.34D-04

 Initial convergence to 1.0D-05 achieved.  Increase integral accuracy.
 Cycle   9  Pass 1  IDiag  1:
 E= -650.229635265851     Delta-E=       -0.000020742229 Rises=F Damp=F
 DIIS: error= 2.39D-05 at cycle   1 NSaved=   1.
 NSaved= 1 IEnMin= 1 EnMin= -650.229635265851     IErMin= 1 ErrMin= 2.39D-05
 ErrMax= 2.39D-05 EMaxC= 1.00D-01 BMatC= 1.52D-07 BMatP= 1.52D-07
 IDIUse=1 WtCom= 1.00D+00 WtEn= 0.00D+00
 Coeff-Com:  0.100D+01
 Coeff:      0.100D+01
 Gap=     0.191 Goal=   None    Shift=    0.000
 RMSDP=5.61D-06 MaxDP=1.74D-04 DE=-2.07D-05 OVMax= 1.84D-04

 Cycle  10  Pass 1  IDiag  1:
 E= -650.229635370167     Delta-E=       -0.000000104316 Rises=F Damp=F
 DIIS: error= 1.41D-05 at cycle   2 NSaved=   2.
 NSaved= 2 IEnMin= 2 EnMin= -650.229635370167     IErMin= 2 ErrMin= 1.41D-05
 ErrMax= 1.41D-05 EMaxC= 1.00D-01 BMatC= 9.33D-08 BMatP= 1.52D-07
 IDIUse=1 WtCom= 1.00D+00 WtEn= 0.00D+00
 Coeff-Com:  0.410D+00 0.590D+00
 Coeff:      0.410D+00 0.590D+00
 Gap=     0.191 Goal=   None    Shift=    0.000
 RMSDP=2.40D-06 MaxDP=6.42D-05 DE=-1.04D-07 OVMax= 1.93D-04

 Cycle  11  Pass 1  IDiag  1:
 E= -650.229635400966     Delta-E=       -0.000000030799 Rises=F Damp=F
 DIIS: error= 1.25D-05 at cycle   3 NSaved=   3.
 NSaved= 3 IEnMin= 3 EnMin= -650.229635400966     IErMin= 3 ErrMin= 1.25D-05
 ErrMax= 1.25D-05 EMaxC= 1.00D-01 BMatC= 6.61D-08 BMatP= 9.33D-08
 IDIUse=1 WtCom= 1.00D+00 WtEn= 0.00D+00
 Coeff-Com:  0.464D-02 0.455D+00 0.540D+00
 Coeff:      0.464D-02 0.455D+00 0.540D+00
 Gap=     0.191 Goal=   None    Shift=    0.000
 RMSDP=1.23D-06 MaxDP=3.46D-05 DE=-3.08D-08 OVMax= 9.16D-05

 Cycle  12  Pass 1  IDiag  1:
 E= -650.229635473263     Delta-E=       -0.000000072297 Rises=F Damp=F
 DIIS: error= 3.89D-06 at cycle   4 NSaved=   4.
 NSaved= 4 IEnMin= 4 EnMin= -650.229635473263     IErMin= 4 ErrMin= 3.89D-06
 ErrMax= 3.89D-06 EMaxC= 1.00D-01 BMatC= 4.65D-09 BMatP= 6.61D-08
 IDIUse=1 WtCom= 1.00D+00 WtEn= 0.00D+00
 Coeff-Com: -0.161D-01 0.271D+00 0.351D+00 0.395D+00
 Coeff:     -0.161D-01 0.271D+00 0.351D+00 0.395D+00
 Gap=     0.191 Goal=   None    Shift=    0.000
 RMSDP=2.83D-07 MaxDP=1.62D-05 DE=-7.23D-08 OVMax= 2.21D-05

 Cycle  13  Pass 1  IDiag  1:
 E= -650.229635477313     Delta-E=       -0.000000004050 Rises=F Damp=F
 DIIS: error= 5.42D-07 at cycle   5 NSaved=   5.
 NSaved= 5 IEnMin= 5 EnMin= -650.229635477313     IErMin= 5 ErrMin= 5.42D-07
 ErrMax= 5.42D-07 EMaxC= 1.00D-01 BMatC= 1.62D-10 BMatP= 4.65D-09
 IDIUse=1 WtCom= 1.00D+00 WtEn= 0.00D+00
 Coeff-Com: -0.839D-02 0.992D-01 0.134D+00 0.209D+00 0.566D+00
 Coeff:     -0.839D-02 0.992D-01 0.134D+00 0.209D+00 0.566D+00
 Gap=     0.191 Goal=   None    Shift=    0.000
 RMSDP=6.75D-08 MaxDP=3.04D-06 DE=-4.05D-09 OVMax= 5.46D-06

 Cycle  14  Pass 1  IDiag  1:
 E= -650.229635477440     Delta-E=       -0.000000000127 Rises=F Damp=F
 DIIS: error= 2.18D-07 at cycle   6 NSaved=   6.
 NSaved= 6 IEnMin= 6 EnMin= -650.229635477440     IErMin= 6 ErrMin= 2.18D-07
 ErrMax= 2.18D-07 EMaxC= 1.00D-01 BMatC= 2.19D-11 BMatP= 1.62D-10
 IDIUse=1 WtCom= 1.00D+00 WtEn= 0.00D+00
 Coeff-Com: -0.381D-02 0.379D-01 0.525D-01 0.937D-01 0.340D+00 0.480D+00
 Coeff:     -0.381D-02 0.379D-01 0.525D-01 0.937D-01 0.340D+00 0.480D+00
 Gap=     0.191 Goal=   None    Shift=    0.000
 RMSDP=2.20D-08 MaxDP=1.04D-06 DE=-1.27D-10 OVMax= 1.66D-06

 Cycle  15  Pass 1  IDiag  1:
 E= -650.229635477470     Delta-E=       -0.000000000030 Rises=F Damp=F
 DIIS: error= 4.67D-08 at cycle   7 NSaved=   7.
 NSaved= 7 IEnMin= 7 EnMin= -650.229635477470     IErMin= 7 ErrMin= 4.67D-08
 ErrMax= 4.67D-08 EMaxC= 1.00D-01 BMatC= 1.06D-12 BMatP= 2.19D-11
 IDIUse=1 WtCom= 1.00D+00 WtEn= 0.00D+00
 Coeff-Com: -0.481D-03 0.243D-02 0.410D-02 0.105D-01 0.679D-01 0.206D+00
 Coeff-Com:  0.709D+00
 Coeff:     -0.481D-03 0.243D-02 0.410D-02 0.105D-01 0.679D-01 0.206D+00
 Coeff:      0.709D+00
 Gap=     0.191 Goal=   None    Shift=    0.000
 RMSDP=6.39D-09 MaxDP=1.96D-07 DE=-3.00D-11 OVMax= 5.26D-07

 SCF Done:  E(RB3LYP) =  -650.229635477     A.U. after   15 cycles
             Convg  =    0.6393D-08             -V/T =  2.0096
 KE= 6.440248608593D+02 PE=-3.509541788676D+03 EE= 1.213764114778D+03
 Leave Link  502 at Sun Oct  3 20:24:05 2021, MaxMem= 1073741824 cpu:     290.5
 (Enter /sw/target/amd/app/gaussian/Gaussian09RevA.02_gcc-4.9.2/g09/l508.exe)
 QCSCF skips out because SCF is already converged.
 Leave Link  508 at Sun Oct  3 20:24:12 2021, MaxMem= 1073741824 cpu:       0.0
 (Enter /sw/target/amd/app/gaussian/Gaussian09RevA.02_gcc-4.9.2/g09/l601.exe)
 Copying SCF densities to generalized density rwf, IOpCl= 0 IROHF=0.

 **********************************************************************

            Population analysis using the SCF density.

 **********************************************************************

 Orbital symmetries:
       Occupied  (A) (A) (A) (A) (A) (A) (A) (A) (A) (A) (A) (A)
                 (A) (A) (A) (A) (A) (A) (A) (A) (A) (A) (A) (A)
                 (A) (A) (A) (A) (A) (A) (A) (A) (A) (A) (A) (A)
                 (A) (A) (A) (A) (A) (A) (A) (A) (A) (A) (A) (A)
                 (A) (A) (A) (A) (A) (A) (A)
       Virtual   (A) (A) (A) (A) (A) (A) (A) (A) (A) (A) (A) (A)
                 (A) (A) (A) (A) (A) (A) (A) (A) (A) (A) (A) (A)
                 (A) (A) (A) (A) (A) (A) (A) (A) (A) (A) (A) (A)
                 (A) (A) (A) (A) (A) (A) (A) (A) (A) (A) (A) (A)
                 (A) (A) (A) (A) (A) (A) (A) (A) (A) (A) (A) (A)
                 (A) (A) (A) (A) (A) (A) (A) (A) (A) (A) (A) (A)
                 (A) (A) (A) (A) (A) (A) (A) (A) (A) (A) (A) (A)
                 (A) (A) (A) (A) (A) (A) (A) (A) (A) (A) (A) (A)
                 (A) (A) (A) (A) (A) (A) (A) (A) (A) (A) (A) (A)
                 (A) (A) (A) (A) (A) (A) (A) (A) (A) (A) (A) (A)
                 (A) (A) (A) (A) (A) (A) (A) (A) (A) (A) (A) (A)
                 (A) (A) (A) (A) (A) (A) (A) (A) (A) (A) (A) (A)
                 (A) (A) (A) (A) (A) (A) (A) (A) (A) (A) (A) (A)
                 (A) (A) (A) (A) (A) (A) (A) (A) (A) (A) (A) (A)
                 (A) (A) (A) (A) (A) (A) (A) (A) (A) (A) (A) (A)
                 (A) (A) (A) (A) (A) (A) (A) (A) (A) (A) (A) (A)
                 (A) (A) (A) (A) (A) (A) (A) (A) (A) (A) (A) (A)
                 (A) (A) (A) (A) (A)
 The electronic state is 1-A.
 Alpha  occ. eigenvalues --  -14.39970 -14.31274 -10.24949 -10.24751 -10.22067
 Alpha  occ. eigenvalues --  -10.21531 -10.20334 -10.20128 -10.20099 -10.20014
 Alpha  occ. eigenvalues --  -10.19818 -10.19528 -10.19328 -10.18635 -10.18309
 Alpha  occ. eigenvalues --  -10.18190  -1.02531  -0.90644  -0.85525  -0.83860
 Alpha  occ. eigenvalues --   -0.78617  -0.75905  -0.73646  -0.73204  -0.69970
 Alpha  occ. eigenvalues --   -0.64023  -0.62950  -0.61368  -0.59023  -0.57140
 Alpha  occ. eigenvalues --   -0.53853  -0.50543  -0.49311  -0.48295  -0.47816
 Alpha  occ. eigenvalues --   -0.45414  -0.44427  -0.43533  -0.43299  -0.42657
 Alpha  occ. eigenvalues --   -0.41842  -0.41339  -0.39746  -0.37081  -0.36603
 Alpha  occ. eigenvalues --   -0.36152  -0.35761  -0.34858  -0.33559  -0.30930
 Alpha  occ. eigenvalues --   -0.27064  -0.25852  -0.25372  -0.22723  -0.21468
 Alpha virt. eigenvalues --   -0.02375  -0.01498  -0.01141   0.03057   0.05798
 Alpha virt. eigenvalues --    0.08764   0.09438   0.10458   0.11975   0.13429
 Alpha virt. eigenvalues --    0.14906   0.15183   0.16038   0.16120   0.17501
 Alpha virt. eigenvalues --    0.18059   0.18559   0.19568   0.20487   0.21441
 Alpha virt. eigenvalues --    0.22356   0.24310   0.24685   0.27634   0.29624
 Alpha virt. eigenvalues --    0.30953   0.31068   0.32730   0.33792   0.34225
 Alpha virt. eigenvalues --    0.37224   0.37776   0.42735   0.46864   0.47542
 Alpha virt. eigenvalues --    0.49096   0.50458   0.51675   0.52331   0.53183
 Alpha virt. eigenvalues --    0.53535   0.53775   0.55060   0.55565   0.57152
 Alpha virt. eigenvalues --    0.57404   0.58438   0.59070   0.60107   0.60303
 Alpha virt. eigenvalues --    0.60815   0.61155   0.61412   0.61839   0.62987
 Alpha virt. eigenvalues --    0.63192   0.63713   0.65052   0.67024   0.67454
 Alpha virt. eigenvalues --    0.69255   0.69396   0.70361   0.72575   0.75907
 Alpha virt. eigenvalues --    0.76980   0.78488   0.79493   0.81446   0.81676
 Alpha virt. eigenvalues --    0.82649   0.83240   0.83758   0.84607   0.85435
 Alpha virt. eigenvalues --    0.86166   0.86859   0.89108   0.89827   0.90633
 Alpha virt. eigenvalues --    0.91133   0.91679   0.94297   0.95803   0.96641
 Alpha virt. eigenvalues --    0.97367   0.98960   0.99779   1.00831   1.01840
 Alpha virt. eigenvalues --    1.03601   1.04362   1.08302   1.10660   1.12493
 Alpha virt. eigenvalues --    1.13452   1.13999   1.16231   1.17164   1.18940
 Alpha virt. eigenvalues --    1.22086   1.24200   1.26394   1.29850   1.31918
 Alpha virt. eigenvalues --    1.35691   1.38062   1.39360   1.39843   1.40971
 Alpha virt. eigenvalues --    1.41965   1.42456   1.43967   1.45153   1.45910
 Alpha virt. eigenvalues --    1.47098   1.47371   1.49684   1.50742   1.52471
 Alpha virt. eigenvalues --    1.54815   1.62472   1.68435   1.69519   1.73392
 Alpha virt. eigenvalues --    1.75266   1.78252   1.80450   1.81615   1.84125
 Alpha virt. eigenvalues --    1.84849   1.86445   1.87099   1.87423   1.90816
 Alpha virt. eigenvalues --    1.91180   1.92516   1.94870   1.95894   1.96884
 Alpha virt. eigenvalues --    1.99562   2.02001   2.03796   2.05323   2.08202
 Alpha virt. eigenvalues --    2.10472   2.11384   2.12803   2.14566   2.16592
 Alpha virt. eigenvalues --    2.17279   2.18582   2.20815   2.24344   2.24750
 Alpha virt. eigenvalues --    2.25846   2.26394   2.27305   2.27742   2.28674
 Alpha virt. eigenvalues --    2.29365   2.30128   2.35563   2.37782   2.40823
 Alpha virt. eigenvalues --    2.44270   2.46046   2.53196   2.54420   2.57265
 Alpha virt. eigenvalues --    2.59320   2.60916   2.62218   2.63489   2.65154
 Alpha virt. eigenvalues --    2.67172   2.68009   2.72069   2.72863   2.74647
 Alpha virt. eigenvalues --    2.76276   2.76725   2.77922   2.83355   2.85733
 Alpha virt. eigenvalues --    2.89030   2.94315   3.01448   3.12534   3.15923
 Alpha virt. eigenvalues --    3.29088   3.40812   3.47602   4.07647   4.09304
 Alpha virt. eigenvalues --    4.10303   4.11484   4.12960   4.14308   4.18638
 Alpha virt. eigenvalues --    4.24160   4.27346   4.32420   4.37512   4.38551
 Alpha virt. eigenvalues --    4.43046   4.44605   4.71782   4.80722
          Condensed to atoms (all electrons):
              1          2          3          4          5          6
     1  C    5.245790   0.341422  -0.069268   0.007748  -0.000164   0.009061
     2  C    0.341422   4.745841   0.528669  -0.028186  -0.034617  -0.053598
     3  C   -0.069268   0.528669   4.960629   0.525026  -0.026565  -0.055519
     4  C    0.007748  -0.028186   0.525026   4.861541   0.548244  -0.030968
     5  C   -0.000164  -0.034617  -0.026565   0.548244   4.856320   0.522780
     6  C    0.009061  -0.053598  -0.055519  -0.030968   0.522780   5.038927
     7  C   -0.060523   0.527175   0.004432  -0.044334  -0.013497   0.483178
     8  N   -0.014308  -0.059897   0.006092   0.000076   0.005170  -0.064928
     9  C   -0.001103  -0.006812  -0.000110   0.000013  -0.000089   0.002476
    10  N   -0.000266   0.000409   0.000000  -0.000000   0.000001  -0.000329
    11  C   -0.000054  -0.000312   0.000003   0.000000  -0.000001   0.000114
    12  C    0.000017   0.003814  -0.000047   0.000005   0.000283  -0.006262
    13  C   -0.000017   0.000235  -0.000001  -0.000005   0.000043  -0.002538
    14  C   -0.000000   0.000000  -0.000000  -0.000000  -0.000003   0.000078
    15  C    0.000000  -0.000000  -0.000000   0.000000  -0.000000  -0.000003
    16  C   -0.000001   0.000004  -0.000000  -0.000000   0.000000   0.000004
    17  H    0.365305  -0.028764  -0.003671   0.000288   0.000027  -0.000164
    18  H    0.366293  -0.029395   0.002904  -0.000184   0.000009   0.000111
    19  H    0.359618  -0.026767  -0.001712  -0.000222   0.000041  -0.000227
    20  H   -0.010123  -0.041303   0.357223  -0.043791   0.004909   0.000477
    21  H   -0.000200   0.003970  -0.039428   0.356734  -0.042467   0.004802
    22  H    0.000009   0.000936   0.004546  -0.040973   0.357736  -0.038058
    23  H   -0.000120   0.003663   0.000646   0.004437  -0.037119   0.350933
    24  H    0.001987  -0.000340  -0.000112  -0.000001  -0.000002   0.000029
    25  H   -0.000003  -0.000062  -0.000007  -0.000011   0.000265   0.004650
    26  H   -0.000000  -0.000000   0.000000  -0.000000  -0.000000   0.000000
    27  H   -0.000000   0.000000   0.000000  -0.000000   0.000000   0.000000
    28  H    0.000000  -0.000000   0.000000   0.000000  -0.000000   0.000000
              7          8          9         10         11         12
     1  C   -0.060523  -0.014308  -0.001103  -0.000266  -0.000054   0.000017
     2  C    0.527175  -0.059897  -0.006812   0.000409  -0.000312   0.003814
     3  C    0.004432   0.006092  -0.000110   0.000000   0.000003  -0.000047
     4  C   -0.044334   0.000076   0.000013  -0.000000   0.000000   0.000005
     5  C   -0.013497   0.005170  -0.000089   0.000001  -0.000001   0.000283
     6  C    0.483178  -0.064928   0.002476  -0.000329   0.000114  -0.006262
     7  C    4.725662   0.210278  -0.024671   0.003795   0.007888  -0.029699
     8  N    0.210278   7.192455   0.351149  -0.089737  -0.035306   0.260480
     9  C   -0.024671   0.351149   4.745344   0.529641  -0.105721  -0.082906
    10  N    0.003795  -0.089737   0.529641   6.855155   0.378838  -0.076812
    11  C    0.007888  -0.035306  -0.105721   0.378838   4.687056   0.449919
    12  C   -0.029699   0.260480  -0.082906  -0.076812   0.449919   4.799499
    13  C   -0.001978  -0.085041   0.005965   0.012970  -0.041309   0.452430
    14  C    0.000039   0.004710   0.000039  -0.000434  -0.039089   0.002239
    15  C    0.000019   0.000020  -0.000121   0.004898  -0.005507  -0.044455
    16  C   -0.000198   0.010494   0.004560  -0.071558   0.509451  -0.044719
    17  H    0.002689   0.000215   0.000331   0.000000  -0.000000   0.000001
    18  H   -0.003866   0.004123   0.002273  -0.000211  -0.000053   0.000128
    19  H   -0.001685   0.000456  -0.002220   0.000055  -0.000006  -0.000017
    20  H    0.004610  -0.000084  -0.000003  -0.000000  -0.000000   0.000001
    21  H    0.000899   0.000005  -0.000000   0.000000   0.000000  -0.000000
    22  H    0.003294  -0.000118   0.000001  -0.000000  -0.000000  -0.000005
    23  H   -0.038165  -0.008047   0.000004  -0.000017  -0.000182   0.003440
    24  H    0.003411  -0.055737   0.374914  -0.036790   0.004989   0.003745
    25  H    0.002550  -0.005829  -0.000186  -0.000161   0.003965  -0.035568
    26  H   -0.000001  -0.000096   0.000003   0.000002   0.000906   0.002817
    27  H   -0.000000   0.000003   0.000004  -0.000085   0.003136   0.000621
    28  H    0.000001  -0.000101   0.000035  -0.001574  -0.035943   0.007300
             13         14         15         16         17         18
     1  C   -0.000017  -0.000000   0.000000  -0.000001   0.365305   0.366293
     2  C    0.000235   0.000000  -0.000000   0.000004  -0.028764  -0.029395
     3  C   -0.000001  -0.000000  -0.000000  -0.000000  -0.003671   0.002904
     4  C   -0.000005  -0.000000   0.000000  -0.000000   0.000288  -0.000184
     5  C    0.000043  -0.000003  -0.000000   0.000000   0.000027   0.000009
     6  C   -0.002538   0.000078  -0.000003   0.000004  -0.000164   0.000111
     7  C   -0.001978   0.000039   0.000019  -0.000198   0.002689  -0.003866
     8  N   -0.085041   0.004710   0.000020   0.010494   0.000215   0.004123
     9  C    0.005965   0.000039  -0.000121   0.004560   0.000331   0.002273
    10  N    0.012970  -0.000434   0.004898  -0.071558   0.000000  -0.000211
    11  C   -0.041309  -0.039089  -0.005507   0.509451  -0.000000  -0.000053
    12  C    0.452430   0.002239  -0.044455  -0.044719   0.000001   0.000128
    13  C    5.075685   0.520500  -0.030444  -0.050319  -0.000000  -0.000016
    14  C    0.520500   4.877528   0.526837  -0.025980   0.000000  -0.000000
    15  C   -0.030444   0.526837   4.885986   0.524870   0.000000   0.000000
    16  C   -0.050319  -0.025980   0.524870   5.007383  -0.000000   0.000000
    17  H   -0.000000   0.000000   0.000000  -0.000000   0.548424  -0.026941
    18  H   -0.000016  -0.000000   0.000000   0.000000  -0.026941   0.535936
    19  H    0.000001   0.000000  -0.000000  -0.000000  -0.028365  -0.029013
    20  H    0.000000   0.000000  -0.000000   0.000000   0.005493   0.000100
    21  H    0.000000  -0.000000  -0.000000  -0.000000  -0.000016   0.000003
    22  H    0.000004   0.000000  -0.000000   0.000000   0.000000  -0.000000
    23  H    0.004018   0.000192  -0.000006  -0.000014   0.000002  -0.000002
    24  H   -0.000104   0.000003   0.000005  -0.000255   0.000075  -0.000824
    25  H    0.343640  -0.039174   0.004106   0.000512  -0.000000   0.000002
    26  H   -0.039720   0.358615  -0.040198   0.004397  -0.000000  -0.000000
    27  H    0.004944  -0.042805   0.360249  -0.039043  -0.000000   0.000000
    28  H    0.000110   0.005078  -0.047712   0.347142  -0.000000  -0.000000
             19         20         21         22         23         24
     1  C    0.359618  -0.010123  -0.000200   0.000009  -0.000120   0.001987
     2  C   -0.026767  -0.041303   0.003970   0.000936   0.003663  -0.000340
     3  C   -0.001712   0.357223  -0.039428   0.004546   0.000646  -0.000112
     4  C   -0.000222  -0.043791   0.356734  -0.040973   0.004437  -0.000001
     5  C    0.000041   0.004909  -0.042467   0.357736  -0.037119  -0.000002
     6  C   -0.000227   0.000477   0.004802  -0.038058   0.350933   0.000029
     7  C   -0.001685   0.004610   0.000899   0.003294  -0.038165   0.003411
     8  N    0.000456  -0.000084   0.000005  -0.000118  -0.008047  -0.055737
     9  C   -0.002220  -0.000003  -0.000000   0.000001   0.000004   0.374914
    10  N    0.000055  -0.000000   0.000000  -0.000000  -0.000017  -0.036790
    11  C   -0.000006  -0.000000   0.000000  -0.000000  -0.000182   0.004989
    12  C   -0.000017   0.000001  -0.000000  -0.000005   0.003440   0.003745
    13  C    0.000001   0.000000   0.000000   0.000004   0.004018  -0.000104
    14  C    0.000000   0.000000  -0.000000   0.000000   0.000192   0.000003
    15  C   -0.000000  -0.000000  -0.000000  -0.000000  -0.000006   0.000005
    16  C   -0.000000   0.000000  -0.000000   0.000000  -0.000014  -0.000255
    17  H   -0.028365   0.005493  -0.000016   0.000000   0.000002   0.000075
    18  H   -0.029013   0.000100   0.000003  -0.000000  -0.000002  -0.000824
    19  H    0.557728   0.000701   0.000003  -0.000000   0.000002   0.003063
    20  H    0.000701   0.593812  -0.005438  -0.000204   0.000015   0.000001
    21  H    0.000003  -0.005438   0.593357  -0.005411  -0.000189   0.000000
    22  H   -0.000000  -0.000204  -0.005411   0.586063  -0.005317  -0.000000
    23  H    0.000002   0.000015  -0.000189  -0.005317   0.564055   0.000005
    24  H    0.003063   0.000001   0.000000  -0.000000   0.000005   0.534442
    25  H   -0.000000  -0.000000  -0.000000  -0.000002   0.000531  -0.000002
    26  H    0.000000  -0.000000   0.000000   0.000000  -0.000005  -0.000000
    27  H   -0.000000   0.000000  -0.000000  -0.000000   0.000000  -0.000000
    28  H    0.000000  -0.000000   0.000000   0.000000  -0.000000  -0.000003
             25         26         27         28
     1  C   -0.000003  -0.000000  -0.000000   0.000000
     2  C   -0.000062  -0.000000   0.000000  -0.000000
     3  C   -0.000007   0.000000   0.000000   0.000000
     4  C   -0.000011  -0.000000  -0.000000   0.000000
     5  C    0.000265  -0.000000   0.000000  -0.000000
     6  C    0.004650   0.000000   0.000000   0.000000
     7  C    0.002550  -0.000001  -0.000000   0.000001
     8  N   -0.005829  -0.000096   0.000003  -0.000101
     9  C   -0.000186   0.000003   0.000004   0.000035
    10  N   -0.000161   0.000002  -0.000085  -0.001574
    11  C    0.003965   0.000906   0.003136  -0.035943
    12  C   -0.035568   0.002817   0.000621   0.007300
    13  C    0.343640  -0.039720   0.004944   0.000110
    14  C   -0.039174   0.358615  -0.042805   0.005078
    15  C    0.004106  -0.040198   0.360249  -0.047712
    16  C    0.000512   0.004397  -0.039043   0.347142
    17  H   -0.000000  -0.000000  -0.000000  -0.000000
    18  H    0.000002  -0.000000   0.000000  -0.000000
    19  H   -0.000000   0.000000  -0.000000   0.000000
    20  H   -0.000000  -0.000000   0.000000  -0.000000
    21  H   -0.000000   0.000000  -0.000000   0.000000
    22  H   -0.000002   0.000000  -0.000000   0.000000
    23  H    0.000531  -0.000005   0.000000  -0.000000
    24  H   -0.000002  -0.000000  -0.000000  -0.000003
    25  H    0.587116  -0.005026  -0.000176   0.000018
    26  H   -0.005026   0.596141  -0.005531  -0.000165
    27  H   -0.000176  -0.005531   0.597394  -0.005635
    28  H    0.000018  -0.000165  -0.005635   0.593769
 Mulliken atomic charges:
              1
     1  C   -0.541100
     2  C    0.153917
     3  C   -0.193729
     4  C   -0.115437
     5  C   -0.141304
     6  C   -0.165028
     7  C    0.238699
     8  N   -0.626496
     9  C    0.207192
    10  N   -0.507792
    11  C    0.217220
    12  C    0.333751
    13  C   -0.169052
    14  C   -0.148372
    15  C   -0.138545
    16  C   -0.176729
    17  H    0.165074
    18  H    0.178623
    19  H    0.168567
    20  H    0.133605
    21  H    0.133375
    22  H    0.137501
    23  H    0.157242
    24  H    0.167501
    25  H    0.138850
    26  H    0.127862
    27  H    0.126924
    28  H    0.137681
 Sum of Mulliken atomic charges =  -0.00000
 Mulliken charges with hydrogens summed into heavy atoms:
              1
     1  C   -0.028835
     2  C    0.153917
     3  C   -0.060124
     4  C    0.017938
     5  C   -0.003803
     6  C   -0.007785
     7  C    0.238699
     8  N   -0.626496
     9  C    0.374693
    10  N   -0.507792
    11  C    0.217220
    12  C    0.333751
    13  C   -0.030202
    14  C   -0.020510
    15  C   -0.011621
    16  C   -0.039048
 Sum of Mulliken charges with hydrogens summed into heavy atoms =  -0.00000
 Electronic spatial extent (au):  <R**2>=           3651.1341
 Charge=             -0.0000 electrons
 Dipole moment (field-independent basis, Debye):
    X=              3.0812    Y=             -1.4950    Z=              0.6192  Tot=              3.4802
 Quadrupole moment (field-independent basis, Debye-Ang):
   XX=            -84.0676   YY=            -88.9651   ZZ=            -95.0796
   XY=              6.1163   XZ=             -1.0370   YZ=              2.0702
 Traceless Quadrupole moment (field-independent basis, Debye-Ang):
   XX=              5.3032   YY=              0.4056   ZZ=             -5.7088
   XY=              6.1163   XZ=             -1.0370   YZ=              2.0702
 Octapole moment (field-independent basis, Debye-Ang**2):
  XXX=             12.1916  YYY=            -17.9555  ZZZ=              0.3957  XYY=             22.0669
  XXY=            -12.2280  XXZ=             10.3853  XZZ=              4.8074  YZZ=              2.1214
  YYZ=              2.1349  XYZ=              5.8733
 Hexadecapole moment (field-independent basis, Debye-Ang**3):
 XXXX=          -3311.6776 YYYY=          -1110.7890 ZZZZ=           -262.2472 XXXY=             -0.1236
 XXXZ=             17.3497 YYYX=             39.6781 YYYZ=              7.8193 ZZZX=              9.0196
 ZZZY=              5.7972 XXYY=           -767.3936 XXZZ=           -692.8144 YYZZ=           -228.1462
 XXYZ=             10.5308 YYXZ=            -32.2956 ZZXY=             11.1772
 N-N= 1.001523177561D+03 E-N=-3.509541804406D+03  KE= 6.440248608593D+02
 No NMR shielding tensors so no spin-rotation constants.
 Leave Link  601 at Sun Oct  3 20:24:15 2021, MaxMem= 1073741824 cpu:       1.4
 (Enter /sw/target/amd/app/gaussian/Gaussian09RevA.02_gcc-4.9.2/g09/l701.exe)
 Compute integral first derivatives.
 ... and contract with generalized density number  0.
 Leave Link  701 at Sun Oct  3 20:24:21 2021, MaxMem= 1073741824 cpu:       1.3
 (Enter /sw/target/amd/app/gaussian/Gaussian09RevA.02_gcc-4.9.2/g09/l702.exe)
 L702 exits ... SP integral derivatives will be done elsewhere.
 Leave Link  702 at Sun Oct  3 20:24:21 2021, MaxMem= 1073741824 cpu:       0.1
 (Enter /sw/target/amd/app/gaussian/Gaussian09RevA.02_gcc-4.9.2/g09/l703.exe)
 Compute integral first derivatives, UseDBF=F ICtDFT=           0.
 Integral derivatives from FoFDir, PRISM(SPDF).
 Calling FoFJK, ICntrl=      2127 FMM=F ISym2X=0 I1Cent= 0 IOpClX= 0 NMat=1 NMatS=1 NMatT=0.
 FoFCou: FMM=F IPFlag=           0 FMFlag=      100000 FMFlg1=         800
         NFxFlg=           0 DoJE=F BraDBF=F KetDBF=F FulRan=T
         Omega=  0.000000  0.000000  1.000000  0.000000  0.000000 ICntrl=    2127 IOpCl=  0
         NMat0=    1 NMatS0=    1 NMatT0=    0 NMatD0=    1 NMtDS0=    0 NMtDT0=    0
         I1Cent=           0 NGrid=           0.
 Symmetry not used in FoFCou.
 Leave Link  703 at Sun Oct  3 20:27:56 2021, MaxMem= 1073741824 cpu:     123.7
 (Enter /sw/target/amd/app/gaussian/Gaussian09RevA.02_gcc-4.9.2/g09/l716.exe)
 Dipole        = 1.21223452D+00-5.88165216D-01 2.43620415D-01
 ***** Axes restored to original set *****
 -------------------------------------------------------------------
 Center     Atomic                   Forces (Hartrees/Bohr)
 Number     Number              X              Y              Z
 -------------------------------------------------------------------
      1        6           0.001497015   -0.001982055   -0.004209297
      2        6          -0.003151080    0.009378582   -0.003803420
      3        6          -0.006857177   -0.006544850   -0.000671118
      4        6           0.001958774    0.005634233    0.000781142
      5        6           0.000535907   -0.003816782   -0.000803222
      6        6          -0.004302172    0.002628109    0.004082946
      7        6          -0.008377646    0.001423470    0.002018286
      8        7          -0.003359340    0.016114678   -0.001840434
      9        6           0.004560632   -0.015113133    0.001016901
     10        7           0.009363881    0.011465516    0.013314331
     11        6           0.001919828   -0.021896196   -0.007304911
     12        6          -0.013222916    0.002326684   -0.011771704
     13        6          -0.000561373   -0.000815590   -0.000440375
     14        6          -0.006522275    0.012934269   -0.001008114
     15        6           0.013717355   -0.003610321    0.009155602
     16        6          -0.002380292   -0.004060991   -0.003965021
     17        1          -0.002081720    0.000203249    0.002794529
     18        1           0.002590852   -0.002592138    0.003859848
     19        1           0.005664789   -0.000898110   -0.000725761
     20        1           0.002405507   -0.003065187   -0.000601410
     21        1           0.000478201    0.000044935    0.000015963
     22        1           0.000669127   -0.001189130   -0.000374642
     23        1           0.005428861   -0.000317851   -0.001071882
     24        1          -0.001213175    0.001235254   -0.001412453
     25        1           0.000047110    0.000418244    0.001156297
     26        1           0.000385935    0.001589072    0.000801277
     27        1          -0.000125494    0.000545458    0.000466639
     28        1           0.000930886   -0.000039419    0.000540001
 -------------------------------------------------------------------
 Cartesian Forces:  Max     0.021896196 RMS     0.005816459
 Leave Link  716 at Sun Oct  3 20:27:56 2021, MaxMem= 1073741824 cpu:       0.1
 (Enter /sw/target/amd/app/gaussian/Gaussian09RevA.02_gcc-4.9.2/g09/l103.exe)

 GradGradGradGradGradGradGradGradGradGradGradGradGradGradGradGradGradGrad
 Berny optimization.
 Internal  Forces:  Max     0.017006999 RMS     0.003411910
 Search for a local minimum.
 Step number   1 out of a maximum of  159
 All quantities printed in internal units (Hartrees-Bohrs-Radians)
 RMS Force = .34119D-02 SwitMx=.10000D-02 MixMth= 1
 Mixed Optimization -- RFO/linear search
 Second derivative matrix not updated -- first step.
     Eigenvalues ---    0.00691   0.01367   0.01445   0.01729   0.01789
     Eigenvalues ---    0.01960   0.01963   0.01992   0.02045   0.02057
     Eigenvalues ---    0.02063   0.02071   0.02072   0.02083   0.02096
     Eigenvalues ---    0.02126   0.02129   0.02147   0.02182   0.02186
     Eigenvalues ---    0.02205   0.02232   0.02340   0.07111   0.07300
     Eigenvalues ---    0.15971   0.15972   0.15997   0.15997   0.15997
     Eigenvalues ---    0.15998   0.15999   0.16000   0.16000   0.16000
     Eigenvalues ---    0.16000   0.16000   0.21999   0.22000   0.22482
     Eigenvalues ---    0.22583   0.23627   0.24458   0.24488   0.24908
     Eigenvalues ---    0.24966   0.24981   0.24989   0.31789   0.34108
     Eigenvalues ---    0.34335   0.34380   0.34913   0.35007   0.35067
     Eigenvalues ---    0.35125   0.35147   0.35148   0.35392   0.35440
     Eigenvalues ---    0.35935   0.38979   0.41128   0.41177   0.41224
     Eigenvalues ---    0.41783   0.43821   0.44171   0.44351   0.45312
     Eigenvalues ---    0.45347   0.45673   0.45881   0.46259   0.47013
     Eigenvalues ---    0.47806   0.50394   0.608991000.000001000.00000
     Eigenvalues --- 1000.000001000.000001000.000001000.000001000.00000
     Eigenvalues --- 1000.000001000.000001000.000001000.000001000.00000
     Eigenvalues --- 1000.000001000.000001000.000001000.000001000.00000
     Eigenvalues --- 1000.000001000.000001000.000001000.000001000.00000
     Eigenvalues --- 1000.000001000.000001000.000001000.000001000.00000
     Eigenvalues --- 1000.000001000.000001000.000001000.000001000.00000
     Eigenvalues --- 1000.000001000.000001000.000001000.000001000.00000
     Eigenvalues --- 1000.000001000.000001000.000001000.000001000.00000
     Eigenvalues --- 1000.000001000.000001000.000001000.000001000.00000
     Eigenvalues --- 1000.000001000.000001000.000001000.000001000.00000
     Eigenvalues --- 1000.000001000.000001000.000001000.000001000.00000
     Eigenvalues --- 1000.000001000.000001000.000001000.000001000.00000
     Eigenvalues --- 1000.000001000.000001000.000001000.000001000.00000
     Eigenvalues --- 1000.000001000.000001000.000001000.00000
 RFO step:  Lambda=-6.88353746D-03 EMin= 6.90831686D-03
 Linear search not attempted -- first point.
 Maximum step size (   0.300) exceeded in Quadratic search.
    -- Step size scaled by   0.964
 Iteration  1 RMS(Cart)=  0.09683384 RMS(Int)=  0.00211880
 Iteration  2 RMS(Cart)=  0.00364236 RMS(Int)=  0.00010740
 Iteration  3 RMS(Cart)=  0.00000429 RMS(Int)=  0.00010736
 Iteration  4 RMS(Cart)=  0.00000000 RMS(Int)=  0.00010736
 Variable       Old X    -DE/DX   Delta X   Delta X   Delta X     New X
                                 (Linear)    (Quad)   (Total)
    R1        2.84532   0.00660   0.00000   0.01959   0.01959   2.86491
    R2        2.07148  -0.00133   0.00000  -0.00369  -0.00369   2.06779
    R3        2.06768   0.00047   0.00000   0.00129   0.00129   2.06897
    R4        2.06693   0.00186   0.00000   0.00512   0.00512   2.07204
    R5        2.66125  -0.00429   0.00000  -0.00954  -0.00955   2.65170
    R6        2.66887  -0.00297   0.00000  -0.00715  -0.00712   2.66175
    R7        2.63551  -0.00091   0.00000  -0.00155  -0.00158   2.63393
    R8        2.05817  -0.00181   0.00000  -0.00491  -0.00491   2.05326
    R9        2.62479   0.00423   0.00000   0.00910   0.00907   2.63386
   R10        2.05435  -0.00023   0.00000  -0.00062  -0.00062   2.05373
   R11        2.63568  -0.00256   0.00000  -0.00489  -0.00487   2.63080
   R12        2.05437  -0.00059   0.00000  -0.00159  -0.00159   2.05278
   R13        2.65830  -0.00395   0.00000  -0.00875  -0.00872   2.64958
   R14        2.05567  -0.00228   0.00000  -0.00614  -0.00614   2.04953
   R15        2.69201   0.00094   0.00000   0.00213   0.00213   2.69414
   R16        2.60549   0.00804   0.00000   0.01306   0.01310   2.61859
   R17        2.62885   0.00531   0.00000   0.01111   0.01111   2.63996
   R18        2.48084  -0.00339   0.00000  -0.00660  -0.00658   2.47426
   R19        2.04184  -0.00052   0.00000  -0.00138  -0.00138   2.04046
   R20        2.58505   0.01403   0.00000   0.02718   0.02716   2.61221
   R21        2.63732   0.01701   0.00000   0.03858   0.03853   2.67584
   R22        2.65306  -0.00246   0.00000  -0.00455  -0.00456   2.64850
   R23        2.65695  -0.00714   0.00000  -0.01490  -0.01492   2.64203
   R24        2.64576  -0.00646   0.00000  -0.01410  -0.01409   2.63167
   R25        2.05044  -0.00014   0.00000  -0.00038  -0.00038   2.05006
   R26        2.63335   0.01445   0.00000   0.02850   0.02853   2.66188
   R27        2.05663  -0.00126   0.00000  -0.00340  -0.00340   2.05323
   R28        2.64277  -0.00739   0.00000  -0.01560  -0.01557   2.62719
   R29        2.05472  -0.00068   0.00000  -0.00182  -0.00182   2.05290
   R30        2.04966   0.00085   0.00000   0.00226   0.00226   2.05192
    A1        1.93520  -0.00359   0.00000  -0.01720  -0.01710   1.91810
    A2        1.94513   0.00182   0.00000   0.01146   0.01146   1.95660
    A3        1.92751   0.00648   0.00000   0.03293   0.03299   1.96050
    A4        1.85017   0.00264   0.00000   0.02397   0.02401   1.87417
    A5        1.88156  -0.00191   0.00000  -0.01288  -0.01274   1.86882
    A6        1.92185  -0.00586   0.00000  -0.04034  -0.04037   1.88148
    A7        2.04152   0.00822   0.00000   0.03183   0.03181   2.07333
    A8        2.17475  -0.00508   0.00000  -0.01812  -0.01815   2.15660
    A9        2.06641  -0.00314   0.00000  -0.01384  -0.01380   2.05262
   A10        2.11780   0.00338   0.00000   0.01421   0.01421   2.13201
   A11        2.09742  -0.00527   0.00000  -0.02778  -0.02778   2.06963
   A12        2.06781   0.00189   0.00000   0.01360   0.01360   2.08140
   A13        2.09268  -0.00235   0.00000  -0.00804  -0.00807   2.08461
   A14        2.09438   0.00074   0.00000   0.00153   0.00153   2.09591
   A15        2.09612   0.00160   0.00000   0.00649   0.00649   2.10262
   A16        2.09257  -0.00136   0.00000  -0.00378  -0.00376   2.08882
   A17        2.09536   0.00197   0.00000   0.00941   0.00939   2.10475
   A18        2.09507  -0.00060   0.00000  -0.00549  -0.00552   2.08955
   A19        2.10725  -0.00011   0.00000  -0.00024  -0.00025   2.10700
   A20        2.05582   0.00521   0.00000   0.03059   0.03046   2.08628
   A21        2.11847  -0.00506   0.00000  -0.02895  -0.02911   2.08936
   A22        2.08924   0.00360   0.00000   0.01190   0.01183   2.10106
   A23        2.13607  -0.00471   0.00000  -0.01645  -0.01667   2.11939
   A24        2.05740   0.00114   0.00000   0.00555   0.00532   2.06273
   A25        2.19702   0.00366   0.00000   0.01528   0.01527   2.21229
   A26        2.23212  -0.00042   0.00000  -0.00015  -0.00014   2.23198
   A27        1.85208  -0.00325   0.00000  -0.01551  -0.01553   1.83655
   A28        1.97404   0.00805   0.00000   0.02647   0.02647   2.00051
   A29        2.13811  -0.00610   0.00000  -0.02512  -0.02513   2.11298
   A30        2.16928  -0.00194   0.00000  -0.00102  -0.00102   2.16826
   A31        1.82905  -0.00151   0.00000  -0.00727  -0.00734   1.82171
   A32        1.94520  -0.00428   0.00000  -0.01130  -0.01137   1.93383
   A33        2.24728   0.00266   0.00000   0.00445   0.00452   2.25180
   A34        2.09068   0.00161   0.00000   0.00688   0.00687   2.09754
   A35        1.82439   0.00099   0.00000   0.00772   0.00768   1.83207
   A36        2.33601  -0.00268   0.00000  -0.01481  -0.01472   2.32129
   A37        2.12151   0.00168   0.00000   0.00694   0.00690   2.12840
   A38        2.05549  -0.00384   0.00000  -0.01550  -0.01554   2.03995
   A39        2.13004   0.00091   0.00000   0.00190   0.00192   2.13196
   A40        2.09751   0.00293   0.00000   0.01359   0.01361   2.11112
   A41        2.11525   0.00283   0.00000   0.01040   0.01041   2.12565
   A42        2.08304  -0.00276   0.00000  -0.01298  -0.01299   2.07004
   A43        2.08486  -0.00006   0.00000   0.00263   0.00262   2.08748
   A44        2.10384   0.00257   0.00000   0.01002   0.01004   2.11389
   A45        2.09311  -0.00124   0.00000  -0.00475  -0.00477   2.08834
   A46        2.08615  -0.00132   0.00000  -0.00520  -0.00522   2.08093
   A47        2.07872  -0.00484   0.00000  -0.01826  -0.01827   2.06045
   A48        2.09160   0.00174   0.00000   0.00522   0.00522   2.09683
[...]
 (Enter /sw/target/amd/app/gaussian/Gaussian09RevA.02_gcc-4.9.2/g09/l607.exe)
 ******************************Gaussian NBO Version 3.1******************************
             N A T U R A L   A T O M I C   O R B I T A L   A N D
          N A T U R A L   B O N D   O R B I T A L   A N A L Y S I S
 ******************************Gaussian NBO Version 3.1******************************
       /RESON  / : Allow strongly delocalized NBO set

 Analyzing the CI density

 Job title: Cc1ccccc1n1cnc2c1cccc2_conf_0                                   

 Storage needed:    211732 in NPA (1073737624 available)


 NATURAL POPULATIONS:  Natural atomic orbital occupancies 
                                                          
   NAO  Atom  No  lang   Type(AO)    Occupancy
 --------------------------------------------
     1    C    1  S      Cor( 1S)     1.99940
     2    C    1  S      Val( 2S)     1.09010
     3    C    1  S      Ryd( 3S)     0.00018
     4    C    1  S      Ryd( 4S)     0.00001
     5    C    1  px     Val( 2p)     1.23349
     6    C    1  px     Ryd( 3p)     0.00219
     7    C    1  py     Val( 2p)     1.15460
     8    C    1  py     Ryd( 3p)     0.00054
     9    C    1  pz     Val( 2p)     1.19787
    10    C    1  pz     Ryd( 3p)     0.00090
    11    C    1  dxy    Ryd( 3d)     0.00024
    12    C    1  dxz    Ryd( 3d)     0.00095
    13    C    1  dyz    Ryd( 3d)     0.00088
    14    C    1  dx2y2  Ryd( 3d)     0.00106
    15    C    1  dz2    Ryd( 3d)     0.00034

    16    C    2  S      Cor( 1S)     1.99898
    17    C    2  S      Val( 2S)     0.86924
    18    C    2  S      Ryd( 3S)     0.00042
    19    C    2  S      Ryd( 4S)     0.00005
    20    C    2  px     Val( 2p)     1.08634
    21    C    2  px     Ryd( 3p)     0.00373
    22    C    2  py     Val( 2p)     1.04775
    23    C    2  py     Ryd( 3p)     0.00353
    24    C    2  pz     Val( 2p)     1.04840
    25    C    2  pz     Ryd( 3p)     0.00349
    26    C    2  dxy    Ryd( 3d)     0.00084
    27    C    2  dxz    Ryd( 3d)     0.00077
    28    C    2  dyz    Ryd( 3d)     0.00047
    29    C    2  dx2y2  Ryd( 3d)     0.00052
    30    C    2  dz2    Ryd( 3d)     0.00066

    31    C    3  S      Cor( 1S)     1.99905
    32    C    3  S      Val( 2S)     0.94164
    33    C    3  S      Ryd( 3S)     0.00054
    34    C    3  S      Ryd( 4S)     0.00004
    35    C    3  px     Val( 2p)     1.09918
    36    C    3  px     Ryd( 3p)     0.00417
    37    C    3  py     Val( 2p)     1.08757
    38    C    3  py     Ryd( 3p)     0.00341
    39    C    3  pz     Val( 2p)     1.10262
    40    C    3  pz     Ryd( 3p)     0.00312
    41    C    3  dxy    Ryd( 3d)     0.00059
    42    C    3  dxz    Ryd( 3d)     0.00084
    43    C    3  dyz    Ryd( 3d)     0.00057
    44    C    3  dx2y2  Ryd( 3d)     0.00073
    45    C    3  dz2    Ryd( 3d)     0.00043

    46    C    4  S      Cor( 1S)     1.99910
    47    C    4  S      Val( 2S)     0.93949
    48    C    4  S      Ryd( 3S)     0.00054
    49    C    4  S      Ryd( 4S)     0.00003
    50    C    4  px     Val( 2p)     1.17563
    51    C    4  px     Ryd( 3p)     0.00456
    52    C    4  py     Val( 2p)     1.10976
    53    C    4  py     Ryd( 3p)     0.00540
    54    C    4  pz     Val( 2p)     1.11967
    55    C    4  pz     Ryd( 3p)     0.00566
    56    C    4  dxy    Ryd( 3d)     0.00058
    57    C    4  dxz    Ryd( 3d)     0.00044
    58    C    4  dyz    Ryd( 3d)     0.00039
    59    C    4  dx2y2  Ryd( 3d)     0.00062
    60    C    4  dz2    Ryd( 3d)     0.00049

    61    C    5  S      Cor( 1S)     1.99910
    62    C    5  S      Val( 2S)     0.95000
    63    C    5  S      Ryd( 3S)     0.00055
    64    C    5  S      Ryd( 4S)     0.00003
    65    C    5  px     Val( 2p)     1.06607
    66    C    5  px     Ryd( 3p)     0.00450
    67    C    5  py     Val( 2p)     1.12973
    68    C    5  py     Ryd( 3p)     0.00375
    69    C    5  pz     Val( 2p)     1.08175
    70    C    5  pz     Ryd( 3p)     0.00313
    71    C    5  dxy    Ryd( 3d)     0.00075
    72    C    5  dxz    Ryd( 3d)     0.00066
    73    C    5  dyz    Ryd( 3d)     0.00065
    74    C    5  dx2y2  Ryd( 3d)     0.00057
    75    C    5  dz2    Ryd( 3d)     0.00054

    76    C    6  S      Cor( 1S)     1.99904
    77    C    6  S      Val( 2S)     0.94071
    78    C    6  S      Ryd( 3S)     0.00068
    79    C    6  S      Ryd( 4S)     0.00004
    80    C    6  px     Val( 2p)     1.13849
    81    C    6  px     Ryd( 3p)     0.00375
    82    C    6  py     Val( 2p)     1.08314
    83    C    6  py     Ryd( 3p)     0.00395
    84    C    6  pz     Val( 2p)     1.11726
    85    C    6  pz     Ryd( 3p)     0.00374
    86    C    6  dxy    Ryd( 3d)     0.00050
    87    C    6  dxz    Ryd( 3d)     0.00083
    88    C    6  dyz    Ryd( 3d)     0.00056
    89    C    6  dx2y2  Ryd( 3d)     0.00074
    90    C    6  dz2    Ryd( 3d)     0.00041

    91    C    7  S      Cor( 1S)     1.99884
    92    C    7  S      Val( 2S)     0.80412
    93    C    7  S      Ryd( 3S)     0.00106
    94    C    7  S      Ryd( 4S)     0.00009
    95    C    7  px     Val( 2p)     0.85233
    96    C    7  px     Ryd( 3p)     0.00537
    97    C    7  py     Val( 2p)     1.17194
    98    C    7  py     Ryd( 3p)     0.00668
    99    C    7  pz     Val( 2p)     1.22747
   100    C    7  pz     Ryd( 3p)     0.00541
   101    C    7  dxy    Ryd( 3d)     0.00069
   102    C    7  dxz    Ryd( 3d)     0.00058
   103    C    7  dyz    Ryd( 3d)     0.00046
   104    C    7  dx2y2  Ryd( 3d)     0.00085
   105    C    7  dz2    Ryd( 3d)     0.00070

   106    N    8  S      Cor( 1S)     1.99930
   107    N    8  S      Val( 2S)     1.19401
   108    N    8  S      Ryd( 3S)     0.00067
   109    N    8  S      Ryd( 4S)     0.00002
   110    N    8  px     Val( 2p)     1.34919
   111    N    8  px     Ryd( 3p)     0.00306
   112    N    8  py     Val( 2p)     1.32849
   113    N    8  py     Ryd( 3p)     0.00314
   114    N    8  pz     Val( 2p)     1.36974
   115    N    8  pz     Ryd( 3p)     0.00315
   116    N    8  dxy    Ryd( 3d)     0.00094
   117    N    8  dxz    Ryd( 3d)     0.00116
   118    N    8  dyz    Ryd( 3d)     0.00061
   119    N    8  dx2y2  Ryd( 3d)     0.00089
   120    N    8  dz2    Ryd( 3d)     0.00065

   121    C    9  S      Cor( 1S)     1.99936
   122    C    9  S      Val( 2S)     0.91550
   123    C    9  S      Ryd( 3S)     0.00298
   124    C    9  S      Ryd( 4S)     0.00017
   125    C    9  px     Val( 2p)     0.95348
   126    C    9  px     Ryd( 3p)     0.00911
   127    C    9  py     Val( 2p)     0.93667
   128    C    9  py     Ryd( 3p)     0.00641
   129    C    9  pz     Val( 2p)     0.93144
   130    C    9  pz     Ryd( 3p)     0.00355
   131    C    9  dxy    Ryd( 3d)     0.00183
   132    C    9  dxz    Ryd( 3d)     0.00126
   133    C    9  dyz    Ryd( 3d)     0.00082
   134    C    9  dx2y2  Ryd( 3d)     0.00111
   135    C    9  dz2    Ryd( 3d)     0.00063

   136    N   10  S      Cor( 1S)     1.99947
   137    N   10  S      Val( 2S)     1.41000
   138    N   10  S      Ryd( 3S)     0.00037
   139    N   10  S      Ryd( 4S)     0.00002
   140    N   10  px     Val( 2p)     1.33008
   141    N   10  px     Ryd( 3p)     0.00358
   142    N   10  py     Val( 2p)     1.44435
   143    N   10  py     Ryd( 3p)     0.00336
   144    N   10  pz     Val( 2p)     1.21348
   145    N   10  pz     Ryd( 3p)     0.00134
   146    N   10  dxy    Ryd( 3d)     0.00293
   147    N   10  dxz    Ryd( 3d)     0.00203
   148    N   10  dyz    Ryd( 3d)     0.00278
   149    N   10  dx2y2  Ryd( 3d)     0.00302
   150    N   10  dz2    Ryd( 3d)     0.00224

   151    C   11  S      Cor( 1S)     1.99898
   152    C   11  S      Val( 2S)     0.85018
   153    C   11  S      Ryd( 3S)     0.00231
   154    C   11  S      Ryd( 4S)     0.00011
   155    C   11  px     Val( 2p)     1.07208
   156    C   11  px     Ryd( 3p)     0.00610
   157    C   11  py     Val( 2p)     0.95370
   158    C   11  py     Ryd( 3p)     0.00711
   159    C   11  pz     Val( 2p)     1.02312
   160    C   11  pz     Ryd( 3p)     0.00217
   161    C   11  dxy    Ryd( 3d)     0.00104
   162    C   11  dxz    Ryd( 3d)     0.00065
   163    C   11  dyz    Ryd( 3d)     0.00067
   164    C   11  dx2y2  Ryd( 3d)     0.00104
   165    C   11  dz2    Ryd( 3d)     0.00071

   166    C   12  S      Cor( 1S)     1.99895
   167    C   12  S      Val( 2S)     0.84077
   168    C   12  S      Ryd( 3S)     0.00204
   169    C   12  S      Ryd( 4S)     0.00008
   170    C   12  px     Val( 2p)     0.92090
   171    C   12  px     Ryd( 3p)     0.00559
   172    C   12  py     Val( 2p)     1.07000
   173    C   12  py     Ryd( 3p)     0.00391
   174    C   12  pz     Val( 2p)     1.03449
   175    C   12  pz     Ryd( 3p)     0.00158
   176    C   12  dxy    Ryd( 3d)     0.00107
   177    C   12  dxz    Ryd( 3d)     0.00099
   178    C   12  dyz    Ryd( 3d)     0.00057
   179    C   12  dx2y2  Ryd( 3d)     0.00084
   180    C   12  dz2    Ryd( 3d)     0.00057

   181    C   13  S      Cor( 1S)     1.99901
   182    C   13  S      Val( 2S)     0.97954
   183    C   13  S      Ryd( 3S)     0.00080
   184    C   13  S      Ryd( 4S)     0.00005
   185    C   13  px     Val( 2p)     1.15248
   186    C   13  px     Ryd( 3p)     0.00396
   187    C   13  py     Val( 2p)     1.06202
   188    C   13  py     Ryd( 3p)     0.00374
   189    C   13  pz     Val( 2p)     0.88787
   190    C   13  pz     Ryd( 3p)     0.00121
   191    C   13  dxy    Ryd( 3d)     0.00079
   192    C   13  dxz    Ryd( 3d)     0.00059
   193    C   13  dyz    Ryd( 3d)     0.00051
   194    C   13  dx2y2  Ryd( 3d)     0.00070
   195    C   13  dz2    Ryd( 3d)     0.00051

   196    C   14  S      Cor( 1S)     1.99916
   197    C   14  S      Val( 2S)     0.97532
   198    C   14  S      Ryd( 3S)     0.00054
   199    C   14  S      Ryd( 4S)     0.00003
   200    C   14  px     Val( 2p)     1.05359
   201    C   14  px     Ryd( 3p)     0.00456
   202    C   14  py     Val( 2p)     1.16052
   203    C   14  py     Ryd( 3p)     0.00452
   204    C   14  pz     Val( 2p)     1.03930
   205    C   14  pz     Ryd( 3p)     0.00191
   206    C   14  dxy    Ryd( 3d)     0.00062
   207    C   14  dxz    Ryd( 3d)     0.00052
   208    C   14  dyz    Ryd( 3d)     0.00056
   209    C   14  dx2y2  Ryd( 3d)     0.00072
   210    C   14  dz2    Ryd( 3d)     0.00038

   211    C   15  S      Cor( 1S)     1.99915
   212    C   15  S      Val( 2S)     0.97841
   213    C   15  S      Ryd( 3S)     0.00051
   214    C   15  S      Ryd( 4S)     0.00003
   215    C   15  px     Val( 2p)     1.19033
   216    C   15  px     Ryd( 3p)     0.00520
   217    C   15  py     Val( 2p)     1.04283
   218    C   15  py     Ryd( 3p)     0.00367
   219    C   15  pz     Val( 2p)     0.97693
   220    C   15  pz     Ryd( 3p)     0.00161
   221    C   15  dxy    Ryd( 3d)     0.00062
   222    C   15  dxz    Ryd( 3d)     0.00044
   223    C   15  dyz    Ryd( 3d)     0.00048
   224    C   15  dx2y2  Ryd( 3d)     0.00083
   225    C   15  dz2    Ryd( 3d)     0.00052

   226    C   16  S      Cor( 1S)     1.99902
   227    C   16  S      Val( 2S)     0.97949
   228    C   16  S      Ryd( 3S)     0.00088
   229    C   16  S      Ryd( 4S)     0.00005
   230    C   16  px     Val( 2p)     1.14094
   231    C   16  px     Ryd( 3p)     0.00472
   232    C   16  py     Val( 2p)     1.07033
   233    C   16  py     Ryd( 3p)     0.00364
   234    C   16  pz     Val( 2p)     0.89487
   235    C   16  pz     Ryd( 3p)     0.00143
   236    C   16  dxy    Ryd( 3d)     0.00083
   237    C   16  dxz    Ryd( 3d)     0.00058
   238    C   16  dyz    Ryd( 3d)     0.00049
   239    C   16  dx2y2  Ryd( 3d)     0.00067
   240    C   16  dz2    Ryd( 3d)     0.00053

   241    H   17  S      Val( 1S)     0.75830
   242    H   17  S      Ryd( 2S)     0.00091

   243    H   18  S      Val( 1S)     0.78088
   244    H   18  S      Ryd( 2S)     0.00169

   245    H   19  S      Val( 1S)     0.77888
   246    H   19  S      Ryd( 2S)     0.00281

   247    H   20  S      Val( 1S)     0.78146
   248    H   20  S      Ryd( 2S)     0.00097

   249    H   21  S      Val( 1S)     0.78365
   250    H   21  S      Ryd( 2S)     0.00068

   251    H   22  S      Val( 1S)     0.77803
   252    H   22  S      Ryd( 2S)     0.00078

   253    H   23  S      Val( 1S)     0.78564
   254    H   23  S      Ryd( 2S)     0.00073

   255    H   24  S      Val( 1S)     0.74968
   256    H   24  S      Ryd( 2S)     0.00076

   257    H   25  S      Val( 1S)     0.72127
   258    H   25  S      Ryd( 2S)     0.00055

   259    H   26  S      Val( 1S)     0.74309
   260    H   26  S      Ryd( 2S)     0.00054

   261    H   27  S      Val( 1S)     0.74509
   262    H   27  S      Ryd( 2S)     0.00054

   263    H   28  S      Val( 1S)     0.73823
   264    H   28  S      Ryd( 2S)     0.00110

 WARNING:  1 low occupancy (<1.9990e) core orbital  found on  C    2
           1 low occupancy (<1.9990e) core orbital  found on  C    7
           1 low occupancy (<1.9990e) core orbital  found on  C   11
           1 low occupancy (<1.9990e) core orbital  found on  C   12


 Summary of Natural Population Analysis:                  
                                                          
                                       Natural Population 
                Natural  -----------------------------------------------
    Atom  No    Charge         Core      Valence    Rydberg      Total
 -----------------------------------------------------------------------
      C    1   -0.68273      1.99940     4.67606    0.00728     6.68273
      C    2   -0.06519      1.99898     4.05173    0.01448     6.06519
      C    3   -0.24449      1.99905     4.23100    0.01444     6.24449
      C    4   -0.36237      1.99910     4.34456    0.01871     6.36237
      C    5   -0.24178      1.99910     4.22755    0.01514     6.24178
      C    6   -0.29384      1.99904     4.27960    0.01520     6.29384
      C    7   -0.07659      1.99884     4.05585    0.02190     6.07659
      N    8   -0.25500      1.99930     5.24142    0.01428     7.25500
      C    9    0.23567      1.99936     3.73709    0.02788     5.76433
      N   10   -0.41905      1.99947     5.39791    0.02167     7.41905
      C   11    0.08003      1.99898     3.89908    0.02191     5.91997
      C   12    0.11765      1.99895     3.86616    0.01723     5.88235
      C   13   -0.09377      1.99901     4.08190    0.01285     6.09377
      C   14   -0.24226      1.99916     4.22873    0.01437     6.24226
      C   15   -0.20155      1.99915     4.18849    0.01391     6.20155
      C   16   -0.09847      1.99902     4.08563    0.01382     6.09847
      H   17    0.24079      0.00000     0.75830    0.00091     0.75921
      H   18    0.21743      0.00000     0.78088    0.00169     0.78257
      H   19    0.21830      0.00000     0.77888    0.00281     0.78170
      H   20    0.21756      0.00000     0.78146    0.00097     0.78244
      H   21    0.21568      0.00000     0.78365    0.00068     0.78432
      H   22    0.22118      0.00000     0.77803    0.00078     0.77882
      H   23    0.21362      0.00000     0.78564    0.00073     0.78638
      H   24    0.24956      0.00000     0.74968    0.00076     0.75044
      H   25    0.27819      0.00000     0.72127    0.00055     0.72181
      H   26    0.25637      0.00000     0.74309    0.00054     0.74363
      H   27    0.25437      0.00000     0.74509    0.00054     0.74563
      H   28    0.26067      0.00000     0.73823    0.00110     0.73933
 =======================================================================
   * Total *    0.00000     31.98590    77.73696    0.27714   110.00000

                                 Natural Population      
 --------------------------------------------------------
   Core                      31.98590 ( 99.9560% of  32)
   Valence                   77.73696 ( 99.6628% of  78)
   Natural Minimal Basis    109.72286 ( 99.7481% of 110)
   Natural Rydberg Basis      0.27714 (  0.2519% of 110)
 --------------------------------------------------------

    Atom  No          Natural Electron Configuration
 ----------------------------------------------------------------------------
      C    1      [core]2S( 1.09)2p( 3.59)
      C    2      [core]2S( 0.87)2p( 3.18)3p( 0.01)
      C    3      [core]2S( 0.94)2p( 3.29)3p( 0.01)
      C    4      [core]2S( 0.94)2p( 3.41)3p( 0.02)
      C    5      [core]2S( 0.95)2p( 3.28)3p( 0.01)
      C    6      [core]2S( 0.94)2p( 3.34)3p( 0.01)
      C    7      [core]2S( 0.80)2p( 3.25)3p( 0.02)
      N    8      [core]2S( 1.19)2p( 4.05)3p( 0.01)
      C    9      [core]2S( 0.92)2p( 2.82)3p( 0.02)3d( 0.01)
      N   10      [core]2S( 1.41)2p( 3.99)3p( 0.01)3d( 0.01)
      C   11      [core]2S( 0.85)2p( 3.05)3p( 0.02)
      C   12      [core]2S( 0.84)2p( 3.03)3p( 0.01)
      C   13      [core]2S( 0.98)2p( 3.10)3p( 0.01)
      C   14      [core]2S( 0.98)2p( 3.25)3p( 0.01)
      C   15      [core]2S( 0.98)2p( 3.21)3p( 0.01)
      C   16      [core]2S( 0.98)2p( 3.11)3p( 0.01)
      H   17            1S( 0.76)
      H   18            1S( 0.78)
      H   19            1S( 0.78)
      H   20            1S( 0.78)
      H   21            1S( 0.78)
      H   22            1S( 0.78)
      H   23            1S( 0.79)
      H   24            1S( 0.75)
      H   25            1S( 0.72)
      H   26            1S( 0.74)
      H   27            1S( 0.75)
      H   28            1S( 0.74)


 NBO analysis skipped by request.
 Leave Link  607 at Mon Oct  4 08:26:40 2021, MaxMem= 1073741824 cpu:      16.1
 (Enter /sw/target/amd/app/gaussian/Gaussian09RevA.02_gcc-4.9.2/g09/l9999.exe)
 1\1\GINC-HERMITE\SP\RTD-B3LYP-FC\6-31G(d)\C14H12N2\JSCHLEINITZ\04-Oct-
 2021\0\\#p TD(NStates=10, Root=1) b3lyp/6-31G* volume pop=NPA density=
 current Geom=AllCheck Guess=Read\\Cc1ccccc1n1cnc2c1cccc2_conf_0\\0,1\C
 ,0,2.3516869769,0.0289737694,-0.5058665171\C,0,0.8840527721,-0.0142268
 368,-0.150870722\C,0,0.1119734903,1.1549834277,-0.1620980525\C,0,-1.25
 07086704,1.1370030742,0.1335208413\C,0,-1.8789943122,-0.0674755965,0.4
 512299804\C,0,-1.1320498733,-1.2431027146,0.4821502111\C,0,0.235237085
 2,-1.2164145483,0.1883533433\N,0,0.9660965548,-2.4441538498,0.22735478
 45\C,0,1.9499061068,-2.7983894795,1.1339729711\N,0,2.4315408507,-4.000
 669467,0.9645837863\C,0,1.7335549328,-4.5053901737,-0.1263941268\C,0,0
 .8041267195,-3.5506648298,-0.603834637\C,0,-0.0260892354,-3.7922650233
 ,-1.7005919787\C,0,0.0951283506,-5.0366189629,-2.3136071151\C,0,1.0128
 034952,-6.0016886401,-1.8502001394\C,0,1.8385886315,-5.7504010724,-0.7
 596017974\H,0,2.5936826746,0.963017319,-1.0215262769\H,0,2.6318555299,
 -0.8056851636,-1.1565872568\H,0,2.992155603,-0.0295573398,0.3829570569
 \H,0,0.5924255162,2.0951395185,-0.4217077579\H,0,-1.8207998091,2.06161
 62366,0.109422674\H,0,-2.940347,-0.0930401346,0.6806535872\H,0,-1.5953
 615882,-2.1906379084,0.740476582\H,0,2.2510777881,-2.1075963055,1.9117
 117553\H,0,-0.7311672048,-3.0480447468,-2.0580717762\H,0,-0.532179038,
 -5.2684086648,-3.170016628\H,0,1.0734715659,-6.9597956345,-2.358995945
 7\H,0,2.5497192498,-6.4872922503,-0.3989739653\\Version=AM64L-G09RevA.
 02\State=1-A\HF=-650.2346957\RMSD=4.288e-09\Dipole=0.6212765,-3.093166
 7,-1.2887898\Quadrupole=-3.7803477,2.8575719,0.9227757,4.7382081,1.768
 2443,5.6751355\PG=C01 [X(C14H12N2)]\\@


 ... A MOLECULAR SYSTEM ... (PASSES) ... FROM ONE STATE OF EQUILIBRIUM 
 TO ANOTHER ... BY MEANS OF ALL POSSIBLE INTERMEDIATE PATHS, 
 BUT THE PATH MOST ECONOMICAL OF ENERGY WILL BE THE MORE OFTEN TRAVELED.

                      -- HENRY EYRING, 1945
 Job cpu time:  0 days  3 hours 32 minutes 55.0 seconds.
 File lengths (MBytes):  RWF=    223 Int=      0 D2E=      0 Chk=     31 Scr=      1
 Normal termination of Gaussian 09 at Mon Oct  4 08:26:55 2021.
