 Entering Gaussian System, Link 0=g09
 Input=C14H14O2_b4e7_conf_0.com
 Output=C14H14O2_b4e7_conf_0.log
 Initial command:
 /sw/target/amd/app/gaussian/Gaussian09RevA.02_gcc-4.9.2/g09/l1.exe /home/jschleinitz/gaussian/Gau-499043.inp -scrdir=/home/jschleinitz/gaussian/
 Entering Link 1 = /sw/target/amd/app/gaussian/Gaussian09RevA.02_gcc-4.9.2/g09/l1.exe PID=    499045.
  
 Copyright (c) 1988,1990,1992,1993,1995,1998,2003,2009, Gaussian, Inc.
                  All Rights Reserved.
  
 This is part of the Gaussian(R) 09 program.  It is based on
 the Gaussian(R) 03 system (copyright 2003, Gaussian, Inc.),
 the Gaussian(R) 98 system (copyright 1998, Gaussian, Inc.),
 the Gaussian(R) 94 system (copyright 1995, Gaussian, Inc.),
 the Gaussian 92(TM) system (copyright 1992, Gaussian, Inc.),
 the Gaussian 90(TM) system (copyright 1990, Gaussian, Inc.),
 the Gaussian 88(TM) system (copyright 1988, Gaussian, Inc.),
 the Gaussian 86(TM) system (copyright 1986, Carnegie Mellon
 University), and the Gaussian 82(TM) system (copyright 1983,
 Carnegie Mellon University). Gaussian is a federally registered
 trademark of Gaussian, Inc.
  
 This software contains proprietary and confidential information,
 including trade secrets, belonging to Gaussian, Inc.
  
 This software is provided under written license and may be
 used, copied, transmitted, or stored only in accord with that
 written license.
  
 The following legend is applicable only to US Government
 contracts under FAR:
  
                    RESTRICTED RIGHTS LEGEND
  
 Use, reproduction and disclosure by the US Government is
 subject to restrictions as set forth in subparagraphs (a)
 and (c) of the Commercial Computer Software - Restricted
 Rights clause in FAR 52.227-19.
  
 Gaussian, Inc.
 340 Quinnipiac St., Bldg. 40, Wallingford CT 06492
  
  
 ---------------------------------------------------------------
 Warning -- This program may not be used in any manner that
 competes with the business of Gaussian, Inc. or will provide
 assistance to any competitor of Gaussian, Inc.  The licensee
 of this program is prohibited from giving any competitor of
 Gaussian, Inc. access to this program.  By using this program,
 the user acknowledges that Gaussian, Inc. is engaged in the
 business of creating and licensing software in the field of
 computational chemistry and represents and warrants to the
 licensee that it is not a competitor of Gaussian, Inc. and that
 it will not use this program in any manner prohibited above.
 ---------------------------------------------------------------
  

 Cite this work as:
 Gaussian 09, Revision A.02,
 M. J. Frisch, G. W. Trucks, H. B. Schlegel, G. E. Scuseria, 
 M. A. Robb, J. R. Cheeseman, G. Scalmani, V. Barone, B. Mennucci, 
 G. A. Petersson, H. Nakatsuji, M. Caricato, X. Li, H. P. Hratchian, 
 A. F. Izmaylov, J. Bloino, G. Zheng, J. L. Sonnenberg, M. Hada, 
 M. Ehara, K. Toyota, R. Fukuda, J. Hasegawa, M. Ishida, T. Nakajima, 
 Y. Honda, O. Kitao, H. Nakai, T. Vreven, J. A. Montgomery, Jr., 
 J. E. Peralta, F. Ogliaro, M. Bearpark, J. J. Heyd, E. Brothers, 
 K. N. Kudin, V. N. Staroverov, R. Kobayashi, J. Normand, 
 K. Raghavachari, A. Rendell, J. C. Burant, S. S. Iyengar, J. Tomasi, 
 M. Cossi, N. Rega, J. M. Millam, M. Klene, J. E. Knox, J. B. Cross, 
 V. Bakken, C. Adamo, J. Jaramillo, R. Gomperts, R. E. Stratmann, 
 O. Yazyev, A. J. Austin, R. Cammi, C. Pomelli, J. W. Ochterski, 
 R. L. Martin, K. Morokuma, V. G. Zakrzewski, G. A. Voth, 
 P. Salvador, J. J. Dannenberg, S. Dapprich, A. D. Daniels, 
 O. Farkas, J. B. Foresman, J. V. Ortiz, J. Cioslowski, 
 and D. J. Fox, Gaussian, Inc., Wallingford CT, 2009.
 
 ******************************************
 Gaussian 09:  AM64L-G09RevA.02 11-Jun-2009
                29-Sep-2021 
 ******************************************
 %nproc=5
 Will use up to    5 processors via shared memory.
 %mem=10gb
 %chk=C14H14O2_b4e7_conf_0.chk
 -----------------------------------
 #p opt b3lyp/6-31G* scf=(xqc,tight)
 -----------------------------------
 1/14=-1,18=20,19=15,26=3,38=1/1,3;
 2/9=110,12=2,17=6,18=5,40=1/2;
 3/5=1,6=6,7=1,11=2,16=1,25=1,30=1,71=1,74=-5/1,2,3;
 4//1;
 5/5=2,8=3,13=1,32=2,38=5/2,8;
 6/7=2,8=2,9=2,10=2,28=1/1;
 7//1,2,3,16;
 1/14=-1,18=20,19=15/3(2);
 2/9=110/2;
 99//99;
 2/9=110/2;
 3/5=1,6=6,7=1,11=2,16=1,25=1,30=1,71=1,74=-5/1,2,3;
 4/5=5,16=3/1;
 5/5=2,8=3,13=1,32=2,38=5/2,8;
 7//1,2,3,16;
 1/14=-1,18=20,19=15/3(-5);
 2/9=110/2;
 6/7=2,8=2,9=2,10=2,19=2,28=1/1;
 99/9=1/99;
 Leave Link    1 at Wed Sep 29 00:46:08 2021, MaxMem= 1342177280 cpu:       0.1
 (Enter /sw/target/amd/app/gaussian/Gaussian09RevA.02_gcc-4.9.2/g09/l101.exe)
 ----------------------------------
 O=C(C(C)C)Oc1ccc2c(c1)cccc2_conf_0
 ----------------------------------
 Symbolic Z-matrix:
 Charge =  0 Multiplicity = 1
 O                     4.06871  -0.13308  -2.26022 
 C                     3.54692  -0.44631  -1.19897 
 C                     2.08452  -0.22321  -0.86046 
 C                     1.91565   1.18812  -0.31165 
 C                     1.21355  -0.44837  -2.09253 
 O                     4.18503  -1.002    -0.08566 
 C                     5.56908  -1.27506  -0.06814 
 C                     6.18369  -1.20088   1.18057 
 C                     7.54824  -1.47127   1.29615 
 C                     8.30713  -1.81883   0.16605 
 C                     7.67118  -1.90932  -1.09429 
 C                     6.29531  -1.6505   -1.19602 
 C                     8.42976  -2.25145  -2.22459 
 C                     9.79829  -2.50115  -2.11638 
 C                     10.42464  -2.41647  -0.87655 
 C                     9.68469  -2.07966   0.25844 
 H                     1.78428  -0.95402  -0.0996 
 H                     2.21852   1.93996  -1.04972 
 H                     2.53615   1.33694   0.57871 
 H                     0.87405   1.37945  -0.03639 
 H                     1.45094   0.26548  -2.88921 
 H                     0.15289  -0.33763  -1.84428 
 H                     1.36499  -1.45531  -2.49645 
 H                     5.6079   -0.93038   2.0612 
 H                     8.01818  -1.40451   2.27465 
 H                     5.80784  -1.74138  -2.16187 
 H                     7.95807  -2.31704  -3.20294 
 H                     10.37357  -2.75754  -3.00225 
 H                     11.49081  -2.60988  -0.7924 
 H                     10.19349  -2.01747   1.21765 
 
 NAtoms=     30 NQM=     30 NQMF=      0 NMic=      0 NMicF=      0 NTot=     30.
                    Isotopes and Nuclear Properties:
 (Nuclear quadrupole moments (NQMom) in fm**2, nuclear magnetic moments (NMagM)
  in nuclear magnetons)

  Atom         1           2           3           4           5           6           7           8           9          10
 IAtWgt=          16          12          12          12          12          16          12          12          12          12
 AtmWgt=  15.9949146  12.0000000  12.0000000  12.0000000  12.0000000  15.9949146  12.0000000  12.0000000  12.0000000  12.0000000
 NucSpn=           0           0           0           0           0           0           0           0           0           0
 AtZEff=   0.0000000   0.0000000   0.0000000   0.0000000   0.0000000   0.0000000   0.0000000   0.0000000   0.0000000   0.0000000
 NQMom=    0.0000000   0.0000000   0.0000000   0.0000000   0.0000000   0.0000000   0.0000000   0.0000000   0.0000000   0.0000000
 NMagM=    0.0000000   0.0000000   0.0000000   0.0000000   0.0000000   0.0000000   0.0000000   0.0000000   0.0000000   0.0000000

  Atom        11          12          13          14          15          16          17          18          19          20
 IAtWgt=          12          12          12          12          12          12           1           1           1           1
 AtmWgt=  12.0000000  12.0000000  12.0000000  12.0000000  12.0000000  12.0000000   1.0078250   1.0078250   1.0078250   1.0078250
 NucSpn=           0           0           0           0           0           0           1           1           1           1
 AtZEff=   0.0000000   0.0000000   0.0000000   0.0000000   0.0000000   0.0000000   0.0000000   0.0000000   0.0000000   0.0000000
 NQMom=    0.0000000   0.0000000   0.0000000   0.0000000   0.0000000   0.0000000   0.0000000   0.0000000   0.0000000   0.0000000
 NMagM=    0.0000000   0.0000000   0.0000000   0.0000000   0.0000000   0.0000000   2.7928460   2.7928460   2.7928460   2.7928460

  Atom        21          22          23          24          25          26          27          28          29          30
 IAtWgt=           1           1           1           1           1           1           1           1           1           1
 AtmWgt=   1.0078250   1.0078250   1.0078250   1.0078250   1.0078250   1.0078250   1.0078250   1.0078250   1.0078250   1.0078250
 NucSpn=           1           1           1           1           1           1           1           1           1           1
 AtZEff=   0.0000000   0.0000000   0.0000000   0.0000000   0.0000000   0.0000000   0.0000000   0.0000000   0.0000000   0.0000000
 NQMom=    0.0000000   0.0000000   0.0000000   0.0000000   0.0000000   0.0000000   0.0000000   0.0000000   0.0000000   0.0000000
 NMagM=    2.7928460   2.7928460   2.7928460   2.7928460   2.7928460   2.7928460   2.7928460   2.7928460   2.7928460   2.7928460
 Leave Link  101 at Wed Sep 29 00:46:08 2021, MaxMem= 1342177280 cpu:       0.2
 (Enter /sw/target/amd/app/gaussian/Gaussian09RevA.02_gcc-4.9.2/g09/l103.exe)

 GradGradGradGradGradGradGradGradGradGradGradGradGradGradGradGradGradGrad
 Berny optimization.
 Initialization pass.
                           ----------------------------
                           !    Initial Parameters    !
                           ! (Angstroms and Degrees)  !
 --------------------------                            --------------------------
 ! Name  Definition              Value          Derivative Info.                !
 --------------------------------------------------------------------------------
 ! R1    R(1,2)                  1.2234         estimate D2E/DX2                !
 ! R2    R(2,3)                  1.5176         estimate D2E/DX2                !
 ! R3    R(2,6)                  1.3984         estimate D2E/DX2                !
 ! R4    R(3,4)                  1.5237         estimate D2E/DX2                !
 ! R5    R(3,5)                  1.5255         estimate D2E/DX2                !
 ! R6    R(3,17)                 1.0969         estimate D2E/DX2                !
 ! R7    R(4,18)                 1.0962         estimate D2E/DX2                !
 ! R8    R(4,19)                 1.0954         estimate D2E/DX2                !
 ! R9    R(4,20)                 1.0942         estimate D2E/DX2                !
 ! R10   R(5,21)                 1.0957         estimate D2E/DX2                !
 ! R11   R(5,22)                 1.0949         estimate D2E/DX2                !
 ! R12   R(5,23)                 1.0955         estimate D2E/DX2                !
 ! R13   R(6,7)                  1.4108         estimate D2E/DX2                !
 ! R14   R(7,8)                  1.3937         estimate D2E/DX2                !
 ! R15   R(7,12)                 1.393          estimate D2E/DX2                !
 ! R16   R(8,9)                  1.3959         estimate D2E/DX2                !
 ! R17   R(8,24)                 1.0864         estimate D2E/DX2                !
 ! R18   R(9,10)                 1.4049         estimate D2E/DX2                !
 ! R19   R(9,25)                 1.0876         estimate D2E/DX2                !
 ! R20   R(10,11)                1.4146         estimate D2E/DX2                !
 ! R21   R(10,16)                1.4051         estimate D2E/DX2                !
 ! R22   R(11,12)                1.4037         estimate D2E/DX2                !
 ! R23   R(11,13)                1.4036         estimate D2E/DX2                !
 ! R24   R(12,26)                1.0857         estimate D2E/DX2                !
 ! R25   R(13,14)                1.3953         estimate D2E/DX2                !
 ! R26   R(13,27)                1.0881         estimate D2E/DX2                !
 ! R27   R(14,15)                1.3916         estimate D2E/DX2                !
 ! R28   R(14,28)                1.0869         estimate D2E/DX2                !
 ! R29   R(15,16)                1.3961         estimate D2E/DX2                !
 ! R30   R(15,29)                1.0868         estimate D2E/DX2                !
 ! R31   R(16,30)                1.0876         estimate D2E/DX2                !
 ! A1    A(1,2,3)              124.5329         estimate D2E/DX2                !
 ! A2    A(1,2,6)              126.7099         estimate D2E/DX2                !
 ! A3    A(3,2,6)              108.697          estimate D2E/DX2                !
 ! A4    A(2,3,4)              108.8634         estimate D2E/DX2                !
 ! A5    A(2,3,5)              110.3848         estimate D2E/DX2                !
 ! A6    A(2,3,17)             108.6964         estimate D2E/DX2                !
 ! A7    A(4,3,5)              111.3666         estimate D2E/DX2                !
 ! A8    A(4,3,17)             109.6917         estimate D2E/DX2                !
 ! A9    A(5,3,17)             107.7954         estimate D2E/DX2                !
 ! A10   A(3,4,18)             111.2324         estimate D2E/DX2                !
 ! A11   A(3,4,19)             110.8444         estimate D2E/DX2                !
 ! A12   A(3,4,20)             110.9819         estimate D2E/DX2                !
 ! A13   A(18,4,19)            107.3118         estimate D2E/DX2                !
 ! A14   A(18,4,20)            108.2061         estimate D2E/DX2                !
 ! A15   A(19,4,20)            108.1187         estimate D2E/DX2                !
 ! A16   A(3,5,21)             111.5529         estimate D2E/DX2                !
 ! A17   A(3,5,22)             110.794          estimate D2E/DX2                !
 ! A18   A(3,5,23)             110.7645         estimate D2E/DX2                !
 ! A19   A(21,5,22)            107.989          estimate D2E/DX2                !
 ! A20   A(21,5,23)            107.5055         estimate D2E/DX2                !
 ! A21   A(22,5,23)            108.0884         estimate D2E/DX2                !
 ! A22   A(2,6,7)              122.3073         estimate D2E/DX2                !
 ! A23   A(6,7,8)              115.6857         estimate D2E/DX2                !
 ! A24   A(6,7,12)             123.6105         estimate D2E/DX2                !
 ! A25   A(8,7,12)             120.6546         estimate D2E/DX2                !
 ! A26   A(7,8,9)              119.6669         estimate D2E/DX2                !
 ! A27   A(7,8,24)             120.3841         estimate D2E/DX2                !
 ! A28   A(9,8,24)             119.9485         estimate D2E/DX2                !
 ! A29   A(8,9,10)             120.6211         estimate D2E/DX2                !
 ! A30   A(8,9,25)             119.0137         estimate D2E/DX2                !
 ! A31   A(10,9,25)            120.3647         estimate D2E/DX2                !
 ! A32   A(9,10,11)            119.3177         estimate D2E/DX2                !
 ! A33   A(9,10,16)            121.508          estimate D2E/DX2                !
 ! A34   A(11,10,16)           119.1742         estimate D2E/DX2                !
 ! A35   A(10,11,12)           119.5661         estimate D2E/DX2                !
 ! A36   A(10,11,13)           119.3473         estimate D2E/DX2                !
 ! A37   A(12,11,13)           121.0861         estimate D2E/DX2                !
 ! A38   A(7,12,11)            120.1338         estimate D2E/DX2                !
 ! A39   A(7,12,26)            120.5819         estimate D2E/DX2                !
 ! A40   A(11,12,26)           119.2836         estimate D2E/DX2                !
 ! A41   A(11,13,14)           120.7468         estimate D2E/DX2                !
 ! A42   A(11,13,27)           120.296          estimate D2E/DX2                !
 ! A43   A(14,13,27)           118.9549         estimate D2E/DX2                !
 ! A44   A(13,14,15)           119.9759         estimate D2E/DX2                !
 ! A45   A(13,14,28)           119.8747         estimate D2E/DX2                !
 ! A46   A(15,14,28)           120.1489         estimate D2E/DX2                !
 ! A47   A(14,15,16)           120.0274         estimate D2E/DX2                !
 ! A48   A(14,15,29)           119.9782         estimate D2E/DX2                !
 ! A49   A(16,15,29)           119.9941         estimate D2E/DX2                !
 ! A50   A(10,16,15)           120.7272         estimate D2E/DX2                !
 ! A51   A(10,16,30)           120.4007         estimate D2E/DX2                !
 ! A52   A(15,16,30)           118.8715         estimate D2E/DX2                !
 ! D1    D(1,2,3,4)            -85.5332         estimate D2E/DX2                !
 ! D2    D(1,2,3,5)             36.9937         estimate D2E/DX2                !
 ! D3    D(1,2,3,17)           155.0248         estimate D2E/DX2                !
 ! D4    D(6,2,3,4)             91.8062         estimate D2E/DX2                !
 ! D5    D(6,2,3,5)           -145.667          estimate D2E/DX2                !
 ! D6    D(6,2,3,17)           -27.6359         estimate D2E/DX2                !
 ! D7    D(1,2,6,7)             -0.0487         estimate D2E/DX2                !
 ! D8    D(3,2,6,7)           -177.3145         estimate D2E/DX2                !
 ! D9    D(2,3,4,18)            60.624          estimate D2E/DX2                !
 ! D10   D(2,3,4,19)           -58.6858         estimate D2E/DX2                !
 ! D11   D(2,3,4,20)          -178.8458         estimate D2E/DX2                !
 ! D12   D(5,3,4,18)           -61.3089         estimate D2E/DX2                !
 ! D13   D(5,3,4,19)           179.3813         estimate D2E/DX2                !
 ! D14   D(5,3,4,20)            59.2212         estimate D2E/DX2                !
 ! D15   D(17,3,4,18)          179.4443         estimate D2E/DX2                !
 ! D16   D(17,3,4,19)           60.1345         estimate D2E/DX2                !
 ! D17   D(17,3,4,20)          -60.0255         estimate D2E/DX2                !
 ! D18   D(2,3,5,21)           -62.4568         estimate D2E/DX2                !
 ! D19   D(2,3,5,22)           177.2            estimate D2E/DX2                !
 ! D20   D(2,3,5,23)            57.2548         estimate D2E/DX2                !
 ! D21   D(4,3,5,21)            58.5905         estimate D2E/DX2                !
 ! D22   D(4,3,5,22)           -61.7527         estimate D2E/DX2                !
 ! D23   D(4,3,5,23)           178.3022         estimate D2E/DX2                !
 ! D24   D(17,3,5,21)          178.9605         estimate D2E/DX2                !
 ! D25   D(17,3,5,22)           58.6173         estimate D2E/DX2                !
 ! D26   D(17,3,5,23)          -61.3278         estimate D2E/DX2                !
 ! D27   D(2,6,7,8)            150.3172         estimate D2E/DX2                !
 ! D28   D(2,6,7,12)           -32.2249         estimate D2E/DX2                !
 ! D29   D(6,7,8,9)            179.2375         estimate D2E/DX2                !
 ! D30   D(6,7,8,24)            -1.0115         estimate D2E/DX2                !
 ! D31   D(12,7,8,9)             1.6985         estimate D2E/DX2                !
 ! D32   D(12,7,8,24)         -178.5505         estimate D2E/DX2                !
 ! D33   D(6,7,12,11)         -179.7919         estimate D2E/DX2                !
 ! D34   D(6,7,12,26)            0.524          estimate D2E/DX2                !
 ! D35   D(8,7,12,11)           -2.455          estimate D2E/DX2                !
 ! D36   D(8,7,12,26)          177.8609         estimate D2E/DX2                !
 ! D37   D(7,8,9,10)            -0.0735         estimate D2E/DX2                !
 ! D38   D(7,8,9,25)           179.6412         estimate D2E/DX2                !
 ! D39   D(24,8,9,10)         -179.8256         estimate D2E/DX2                !
 ! D40   D(24,8,9,25)           -0.1108         estimate D2E/DX2                !
 ! D41   D(8,9,10,11)           -0.7765         estimate D2E/DX2                !
 ! D42   D(8,9,10,16)          179.2543         estimate D2E/DX2                !
 ! D43   D(25,9,10,11)         179.5126         estimate D2E/DX2                !
 ! D44   D(25,9,10,16)          -0.4566         estimate D2E/DX2                !
 ! D45   D(9,10,11,12)           0.0277         estimate D2E/DX2                !
 ! D46   D(9,10,11,13)         179.7555         estimate D2E/DX2                !
 ! D47   D(16,10,11,12)        179.9977         estimate D2E/DX2                !
 ! D48   D(16,10,11,13)         -0.2745         estimate D2E/DX2                !
 ! D49   D(9,10,16,15)        -179.6401         estimate D2E/DX2                !
 ! D50   D(9,10,16,30)           0.0691         estimate D2E/DX2                !
 ! D51   D(11,10,16,15)          0.3906         estimate D2E/DX2                !
 ! D52   D(11,10,16,30)       -179.9002         estimate D2E/DX2                !
 ! D53   D(10,11,12,7)           1.5728         estimate D2E/DX2                !
 ! D54   D(10,11,12,26)       -178.739          estimate D2E/DX2                !
 ! D55   D(13,11,12,7)        -178.1502         estimate D2E/DX2                !
 ! D56   D(13,11,12,26)          1.5381         estimate D2E/DX2                !
 ! D57   D(10,11,13,14)         -0.0267         estimate D2E/DX2                !
 ! D58   D(10,11,13,27)       -179.4706         estimate D2E/DX2                !
 ! D59   D(12,11,13,14)        179.6969         estimate D2E/DX2                !
 ! D60   D(12,11,13,27)          0.2529         estimate D2E/DX2                !
 ! D61   D(11,13,14,15)          0.219          estimate D2E/DX2                !
 ! D62   D(11,13,14,28)       -179.5298         estimate D2E/DX2                !
 ! D63   D(27,13,14,15)        179.6703         estimate D2E/DX2                !
 ! D64   D(27,13,14,28)         -0.0785         estimate D2E/DX2                !
 ! D65   D(13,14,15,16)         -0.1051         estimate D2E/DX2                !
 ! D66   D(13,14,15,29)       -179.9324         estimate D2E/DX2                !
 ! D67   D(28,14,15,16)        179.643          estimate D2E/DX2                !
 ! D68   D(28,14,15,29)         -0.1843         estimate D2E/DX2                !
 ! D69   D(14,15,16,10)         -0.2019         estimate D2E/DX2                !
 ! D70   D(14,15,16,30)       -179.9154         estimate D2E/DX2                !
 ! D71   D(29,15,16,10)        179.6254         estimate D2E/DX2                !
 ! D72   D(29,15,16,30)         -0.0881         estimate D2E/DX2                !
 --------------------------------------------------------------------------------
 Trust Radius=3.00D-01 FncErr=1.00D-07 GrdErr=1.00D-06
 Number of steps in this run= 165 maximum allowed number of steps= 180.
 GradGradGradGradGradGradGradGradGradGradGradGradGradGradGradGradGradGrad

 Leave Link  103 at Wed Sep 29 00:46:08 2021, MaxMem= 1342177280 cpu:       0.0
 (Enter /sw/target/amd/app/gaussian/Gaussian09RevA.02_gcc-4.9.2/g09/l202.exe)
                          Input orientation:                          
 ---------------------------------------------------------------------
 Center     Atomic      Atomic             Coordinates (Angstroms)
 Number     Number       Type             X           Y           Z
 ---------------------------------------------------------------------
      1          8           0        4.068709   -0.133082   -2.260221
      2          6           0        3.546925   -0.446308   -1.198974
      3          6           0        2.084516   -0.223213   -0.860460
      4          6           0        1.915654    1.188119   -0.311652
      5          6           0        1.213548   -0.448367   -2.092531
      6          8           0        4.185030   -1.001996   -0.085664
      7          6           0        5.569085   -1.275057   -0.068136
      8          6           0        6.183688   -1.200885    1.180565
      9          6           0        7.548243   -1.471271    1.296146
     10          6           0        8.307133   -1.818834    0.166054
     11          6           0        7.671184   -1.909318   -1.094287
     12          6           0        6.295314   -1.650498   -1.196016
     13          6           0        8.429763   -2.251454   -2.224588
     14          6           0        9.798292   -2.501155   -2.116378
     15          6           0       10.424636   -2.416466   -0.876549
     16          6           0        9.684688   -2.079662    0.258442
     17          1           0        1.784283   -0.954023   -0.099595
     18          1           0        2.218519    1.939960   -1.049716
     19          1           0        2.536150    1.336939    0.578711
     20          1           0        0.874048    1.379454   -0.036390
     21          1           0        1.450942    0.265479   -2.889207
     22          1           0        0.152892   -0.337634   -1.844275
     23          1           0        1.364994   -1.455307   -2.496453
     24          1           0        5.607901   -0.930381    2.061204
     25          1           0        8.018182   -1.404507    2.274651
     26          1           0        5.807839   -1.741376   -2.161865
     27          1           0        7.958066   -2.317038   -3.202944
     28          1           0       10.373569   -2.757537   -3.002246
     29          1           0       11.490806   -2.609878   -0.792399
     30          1           0       10.193488   -2.017471    1.217649
 ---------------------------------------------------------------------
                    Distance matrix (angstroms):
                    1          2          3          4          5
     1  O    0.000000
     2  C    1.223362   0.000000
     3  C    2.429914   1.517565   0.000000
     4  C    3.190320   2.473810   1.523667   0.000000
     5  C    2.877407   2.498619   1.525542   2.518446   0.000000
     6  O    2.344620   1.398366   2.370437   3.161921   3.628185
     7  C    2.891448   2.460640   3.725101   4.412946   4.873632
     8  C    4.177601   3.630994   4.682397   5.113724   5.998478
     9  C    5.152247   4.825631   6.005074   6.432995   7.256571
    10  C    5.166508   5.138746   6.505436   7.079616   7.569566
    11  C    4.182373   4.377313   5.840248   6.582763   6.695665
    12  C    2.897043   3.000621   4.458763   5.293512   5.298416
    13  C    4.848460   5.305898   6.799763   7.610756   7.439242
    14  C    6.201337   6.644066   8.140559   8.888406   8.826796
    15  C    6.893925   7.161592   8.623702   9.258236   9.497167
    16  C    6.455390   6.516444   7.903225   8.447561   8.941387
    17  H    3.249747   2.138531   1.096876   2.156618   2.133827
    18  H    3.030847   2.735181   2.175567   1.096234   2.793123
    19  H    3.545313   2.713264   2.170083   1.095404   3.474497
    20  H    4.176009   3.439372   2.170913   1.094222   2.771986
    21  H    2.721613   2.785080   2.180837   2.776870   1.095730
    22  H    3.943156   3.456542   2.170750   2.790016   1.094936
    23  H    3.018967   2.731730   2.170770   3.473368   1.095452
    24  H    4.656126   3.887250   4.631463   4.873518   6.065986
    25  H    6.146537   5.742504   6.814159   7.116988   8.141838
    26  H    2.370835   2.777786   4.226301   5.210983   4.773279
    27  H    4.559110   5.193620   6.661076   7.560188   7.086146
    28  H    6.869471   7.429444   8.928519   9.713075   9.490302
    29  H    7.960938   8.243275   9.704592  10.312101  10.582273
    30  H    7.291051   7.244683   8.561153   9.007614   9.698387
                    6          7          8          9         10
     6  O    0.000000
     7  C    1.410842   0.000000
     8  C    2.374348   1.393734   0.000000
     9  C    3.666172   2.411811   1.395878   0.000000
    10  C    4.209788   2.801329   2.433127   1.404928   0.000000
    11  C    3.740832   2.423653   2.808821   2.433345   1.414594
    12  C    2.471181   1.393011   2.421312   2.795143   2.435361
    13  C    4.914662   3.713101   4.212318   3.712322   2.432565
    14  C    6.154672   4.856419   5.062203   4.215294   2.810448
    15  C    6.446620   5.052992   4.867751   3.726612   2.434750
    16  C    5.614802   4.206213   3.725528   2.451809   1.405071
    17  H    2.401267   3.798523   4.588520   5.953056   6.585289
    18  H    3.667652   4.746170   5.528257   6.748742   7.257950
    19  H    2.937826   4.054581   4.484118   5.789804   6.590405
    20  H    4.078766   5.393589   6.027554   7.378832   8.094490
    21  H    4.116016   5.224059   6.411876   7.596746   7.790143
    22  H    4.448846   5.776554   6.801865   8.114099   8.528014
    23  H    3.737646   4.858352   6.066713   7.253732   7.444083
    24  H    2.576573   2.157405   1.086383   2.154716   3.415669
    25  H    4.519530   3.391679   2.145659   1.087553   2.168257
    26  H    2.736934   2.158277   3.406646   3.880696   3.416384
    27  H    5.067797   4.076761   4.858947   4.596204   3.423479
    28  H    7.063030   5.821496   6.121616   5.302181   3.897365
    29  H    7.513928   6.113353   5.834668   4.604590   3.417625
    30  H    6.231483   4.856906   4.092271   2.702188   2.168789
                   11         12         13         14         15
    11  C    0.000000
    12  C    1.403693   0.000000
    13  C    1.403596   2.444378   0.000000
    14  C    2.433008   3.720421   1.395324   0.000000
    15  C    2.808221   4.211896   2.413288   1.391638   0.000000
    16  C    2.431684   3.713150   2.787434   2.414608   1.396125
    17  H    6.046289   4.694318   7.096572   8.407459   8.797619
    18  H    6.674615   5.434432   7.584711   8.849533   9.292406
    19  H    6.301245   5.119156   7.447801   8.644836   8.856300
    20  H    7.624712   6.317869   8.663749   9.951261  10.311577
    21  H    6.829560   5.477756   7.448531   8.827784   9.579708
    22  H    7.717344   6.314524   8.503761   9.888812  10.524580
    23  H    6.476127   5.102675   7.114683   8.506395   9.253379
    24  H    3.895199   3.405963   5.298694   6.122001   5.834362
    25  H    3.424176   3.882565   4.596724   4.863390   4.092083
    26  H    2.154062   1.085705   2.671816   4.062394   4.839690
    27  H    2.166789   2.690126   1.088109   2.144984   3.392046
    28  H    3.415065   4.595668   2.153893   1.086939   2.153491
    29  H    3.895052   5.298721   3.398472   2.151592   1.086833
    30  H    3.423268   4.599588   3.874851   3.392030   2.144363
                   16         17         18         19         20
    16  C    0.000000
    17  H    7.988220   0.000000
    18  H    8.579762   3.076756   0.000000
    19  H    7.929523   2.504778   1.765304   0.000000
    20  H    9.469941   2.505521   1.774429   1.772777   0.000000
    21  H    9.121510   3.062717   2.603226   3.788424   3.116458
    22  H    9.915201   2.466836   3.175779   3.788796   2.595555
    23  H    8.786158   2.484354   3.788059   4.315655   3.785341
    24  H    4.603367   4.392000   5.422600   4.095629   5.669621
    25  H    2.701514   6.685916   7.474822   6.359592   8.008121
    26  H    4.582824   4.589323   5.260450   5.262199   6.212851
    27  H    3.875405   7.043023   7.463298   7.553121   8.595023
    28  H    3.400905   9.244127   9.611644   9.540081  10.777379
    29  H    2.155796   9.871090  10.331628   9.881456  11.366700
    30  H    1.087577   8.577925   9.187075   8.384220   9.998184
                   21         22         23         24         25
    21  H    0.000000
    22  H    1.772163   0.000000
    23  H    1.767130   1.773054   0.000000
    24  H    6.573960   6.735075   6.249003   0.000000
    25  H    8.519561   8.942402   8.187241   2.465727   0.000000
    26  H    4.851706   5.835220   4.464600   4.304881   4.968075
    27  H    7.007887   8.166074   6.686576   5.929363   5.553411
    28  H    9.421501  10.566886   9.116252   7.189480   5.934996
    29  H   10.651908  11.611108  10.332903   6.750728   4.787362
    30  H    9.925233  10.630655   9.594420   4.787585   2.494982
                   26         27         28         29         30
    26  H    0.000000
    27  H    2.457378   0.000000
    28  H    4.752338   2.463530   0.000000
    29  H    5.909809   4.286810   2.480614   0.000000
    30  H    5.543579   4.962711   4.288081   2.464604   0.000000
 Stoichiometry    C14H14O2
 Framework group  C1[X(C14H14O2)]
 Deg. of freedom    84
 Full point group                 C1      NOp   1
 Largest Abelian subgroup         C1      NOp   1
 Largest concise Abelian subgroup C1      NOp   1
                         Standard orientation:                         
 ---------------------------------------------------------------------
 Center     Atomic      Atomic             Coordinates (Angstroms)
 Number     Number       Type             X           Y           Z
 ---------------------------------------------------------------------
      1          8           0        2.095933   -1.320591    0.636679
      2          6           0        2.439767   -0.314753    0.031136
      3          6           0        3.880594    0.069116   -0.251114
      4          6           0        4.431715    0.830009    0.948414
      5          6           0        4.712693   -1.173855   -0.550968
      6          8           0        1.603204    0.693283   -0.458206
      7          6           0        0.202047    0.654338   -0.297838
      8          6           0       -0.431791    1.893188   -0.220404
      9          6           0       -1.819099    1.951739   -0.077490
     10          6           0       -2.582153    0.773879   -0.012561
     11          6           0       -1.932190   -0.478757   -0.110171
     12          6           0       -0.538334   -0.525283   -0.269401
     13          6           0       -2.693317   -1.655987   -0.040196
     14          6           0       -4.077823   -1.601582    0.124467
     15          6           0       -4.719209   -0.370003    0.216642
     16          6           0       -3.977688    0.810848    0.146627
     17          1           0        3.905658    0.711694   -1.139711
     18          1           0        4.409133    0.213165    1.854352
     19          1           0        3.834742    1.726208    1.149316
     20          1           0        5.465703    1.142153    0.773037
     21          1           0        4.744455   -1.853775    0.307708
     22          1           0        5.742300   -0.900586   -0.804181
     23          1           0        4.290677   -1.729266   -1.395621
     24          1           0        0.147877    2.810837   -0.266589
     25          1           0       -2.302083    2.923972   -0.012216
     26          1           0       -0.046552   -1.488536   -0.364527
     27          1           0       -2.208314   -2.627874   -0.104914
     28          1           0       -4.652496   -2.522222    0.184548
     29          1           0       -5.797483   -0.327596    0.346002
     30          1           0       -4.497975    1.762909    0.222155
 ---------------------------------------------------------------------
 Rotational constants (GHZ):      1.5398527      0.2454920      0.2188049
 Leave Link  202 at Wed Sep 29 00:46:08 2021, MaxMem= 1342177280 cpu:       0.1
 (Enter /sw/target/amd/app/gaussian/Gaussian09RevA.02_gcc-4.9.2/g09/l301.exe)
 Standard basis: 6-31G(d) (6D, 7F)
 Ernie: Thresh=  0.10000D-02 Tol=  0.10000D-05 Strict=F.
 There are   268 symmetry adapted basis functions of A   symmetry.
 Integral buffers will be    131072 words long.
 Raffenetti 2 integral format.
 Two-electron integral symmetry is turned on.
   268 basis functions,   504 primitive gaussians,   268 cartesian basis functions
    57 alpha electrons       57 beta electrons
       nuclear repulsion energy      1010.8507478109 Hartrees.
 IExCor=  402 DFT=T Ex+Corr=B3LYP ExCW=0 ScaHFX=  0.200000
 ScaDFX=  0.800000  0.720000  1.000000  0.810000 ScalE2=  1.000000  1.000000
 IRadAn=      0 IRanWt=     -1 IRanGd=            0 ICorTp=0
 NAtoms=   30 NActive=   30 NUniq=   30 SFac= 7.50D-01 NAtFMM=   80 NAOKFM=F Big=F
 Leave Link  301 at Wed Sep 29 00:46:09 2021, MaxMem= 1342177280 cpu:       0.1
 (Enter /sw/target/amd/app/gaussian/Gaussian09RevA.02_gcc-4.9.2/g09/l302.exe)
 NPDir=0 NMtPBC=     1 NCelOv=     1 NCel=       1 NClECP=     1 NCelD=      1
         NCelK=      1 NCelE2=     1 NClLst=     1 CellRange=     0.0.
 One-electron integrals computed using PRISM.
 NBasis=   268 RedAO= T  NBF=   268
 NBsUse=   268 1.00D-06 NBFU=   268
 Precomputing XC quadrature grid using
 IXCGrd= 2 IRadAn=           0 IRanWt=          -1 IRanGd=           0 AccXCQ= 1.00D-10.
 NRdTot=    1906 NPtTot=      242942 NUsed=      256687 NTot=      256719
 NSgBfM=   267   267   267   267   267 NAtAll=    30    30.
 Leave Link  302 at Wed Sep 29 00:46:12 2021, MaxMem= 1342177280 cpu:       2.7
 (Enter /sw/target/amd/app/gaussian/Gaussian09RevA.02_gcc-4.9.2/g09/l303.exe)
 DipDrv:  MaxL=1.
 Leave Link  303 at Wed Sep 29 00:46:12 2021, MaxMem= 1342177280 cpu:       0.2
 (Enter /sw/target/amd/app/gaussian/Gaussian09RevA.02_gcc-4.9.2/g09/l401.exe)
 Harris functional with IExCor=  402 diagonalized for initial guess.
 ExpMin= 1.61D-01 ExpMax= 5.48D+03 ExpMxC= 8.25D+02 IAcc=1 IRadAn=         1 AccDes= 0.00D+00
 HarFok:  IExCor=  402 AccDes= 0.00D+00 IRadAn=         1 IDoV= 1
 ScaDFX=  1.000000  1.000000  1.000000  1.000000
 FoFCou: FMM=F IPFlag=           0 FMFlag=      100000 FMFlg1=           0
         NFxFlg=           0 DoJE=T BraDBF=F KetDBF=T FulRan=T
         Omega=  0.000000  0.000000  1.000000  0.000000  0.000000 ICntrl=     500 IOpCl=  0
         NMat0=    1 NMatS0=    1 NMatT0=    0 NMatD0=    1 NMtDS0=    0 NMtDT0=    0
         I1Cent=           4 NGrid=           0.
 Petite list used in FoFCou.
 Harris En= -692.502114686458    
 Initial guess orbital symmetries:
       Occupied  (A) (A) (A) (A) (A) (A) (A) (A) (A) (A) (A) (A)
                 (A) (A) (A) (A) (A) (A) (A) (A) (A) (A) (A) (A)
                 (A) (A) (A) (A) (A) (A) (A) (A) (A) (A) (A) (A)
                 (A) (A) (A) (A) (A) (A) (A) (A) (A) (A) (A) (A)
                 (A) (A) (A) (A) (A) (A) (A) (A) (A)
       Virtual   (A) (A) (A) (A) (A) (A) (A) (A) (A) (A) (A) (A)
                 (A) (A) (A) (A) (A) (A) (A) (A) (A) (A) (A) (A)
                 (A) (A) (A) (A) (A) (A) (A) (A) (A) (A) (A) (A)
                 (A) (A) (A) (A) (A) (A) (A) (A) (A) (A) (A) (A)
                 (A) (A) (A) (A) (A) (A) (A) (A) (A) (A) (A) (A)
                 (A) (A) (A) (A) (A) (A) (A) (A) (A) (A) (A) (A)
                 (A) (A) (A) (A) (A) (A) (A) (A) (A) (A) (A) (A)
                 (A) (A) (A) (A) (A) (A) (A) (A) (A) (A) (A) (A)
                 (A) (A) (A) (A) (A) (A) (A) (A) (A) (A) (A) (A)
                 (A) (A) (A) (A) (A) (A) (A) (A) (A) (A) (A) (A)
                 (A) (A) (A) (A) (A) (A) (A) (A) (A) (A) (A) (A)
                 (A) (A) (A) (A) (A) (A) (A) (A) (A) (A) (A) (A)
                 (A) (A) (A) (A) (A) (A) (A) (A) (A) (A) (A) (A)
                 (A) (A) (A) (A) (A) (A) (A) (A) (A) (A) (A) (A)
                 (A) (A) (A) (A) (A) (A) (A) (A) (A) (A) (A) (A)
                 (A) (A) (A) (A) (A) (A) (A) (A) (A) (A) (A) (A)
                 (A) (A) (A) (A) (A) (A) (A) (A) (A) (A) (A) (A)
                 (A) (A) (A) (A) (A) (A) (A)
 The electronic state of the initial guess is 1-A.
 Leave Link  401 at Wed Sep 29 00:46:20 2021, MaxMem= 1342177280 cpu:      10.1
 (Enter /sw/target/amd/app/gaussian/Gaussian09RevA.02_gcc-4.9.2/g09/l502.exe)
 Closed shell SCF:
 Requested convergence on RMS density matrix=1.00D-08 within  64 cycles.
 Requested convergence on MAX density matrix=1.00D-06.
 Requested convergence on             energy=1.00D-06.
 No special actions if energy rises.
 Using DIIS extrapolation, IDIIS=  1040.
 Integral symmetry usage will be decided dynamically.
       256404 words used for storage of precomputed grid.
 Keep R1 ints in memory in canonical form, NReq=659888565.
 IEnd=      481050 IEndB=      481050 NGot=  1342177280 MDV=   692097438
 LenX=   692097438 LenY=   692025173
 Symmetry not used in FoFDir.
 MinBra= 0 MaxBra= 2 Meth= 1.
 IRaf=       0 NMat=   1 IRICut=       1 DoRegI=T DoRafI=F ISym2E= 0 JSym2E=0.
 Integral accuracy reduced to 1.0D-05 until final iterations.

 Cycle   1  Pass 0  IDiag  1:
 E= -691.946307117470    
 DIIS: error= 3.20D-02 at cycle   1 NSaved=   1.
 NSaved= 1 IEnMin= 1 EnMin= -691.946307117470     IErMin= 1 ErrMin= 3.20D-02
 ErrMax= 3.20D-02 EMaxC= 1.00D-01 BMatC= 4.39D-01 BMatP= 4.39D-01
 IDIUse=3 WtCom= 6.80D-01 WtEn= 3.20D-01
 Coeff-Com:  0.100D+01
 Coeff-En:   0.100D+01
 Coeff:      0.100D+01
 Gap=     0.181 Goal=   None    Shift=    0.000
 GapD=    0.181 DampG=1.000 DampE=0.500 DampFc=0.5000 IDamp=-1.
 Damping current iteration by 5.00D-01
 RMSDP=5.80D-03 MaxDP=1.97D-01              OVMax= 1.87D-01

 Cycle   2  Pass 0  IDiag  1:
 E= -692.094310894882     Delta-E=       -0.148003777413 Rises=F Damp=T
 DIIS: error= 1.41D-02 at cycle   2 NSaved=   2.
 NSaved= 2 IEnMin= 2 EnMin= -692.094310894882     IErMin= 2 ErrMin= 1.41D-02
 ErrMax= 1.41D-02 EMaxC= 1.00D-01 BMatC= 6.35D-02 BMatP= 4.39D-01
 IDIUse=3 WtCom= 8.59D-01 WtEn= 1.41D-01
 Coeff-Com:  0.187D+00 0.813D+00
 Coeff-En:   0.278D+00 0.722D+00
 Coeff:      0.200D+00 0.800D+00
 Gap=     0.167 Goal=   None    Shift=    0.000
 RMSDP=2.12D-03 MaxDP=7.46D-02 DE=-1.48D-01 OVMax= 1.86D-01

 Cycle   3  Pass 0  IDiag  1:
 E= -692.313654655021     Delta-E=       -0.219343760138 Rises=F Damp=F
 DIIS: error= 1.90D-02 at cycle   3 NSaved=   3.
 NSaved= 3 IEnMin= 3 EnMin= -692.313654655021     IErMin= 2 ErrMin= 1.41D-02
 ErrMax= 1.90D-02 EMaxC= 1.00D-01 BMatC= 9.05D-02 BMatP= 6.35D-02
 IDIUse=2 WtCom= 0.00D+00 WtEn= 1.00D+00
 Coeff-En:   0.000D+00 0.000D+00 0.100D+01
 Coeff:      0.000D+00 0.000D+00 0.100D+01
 Gap=     0.173 Goal=   None    Shift=    0.000
 RMSDP=3.36D-03 MaxDP=1.71D-01 DE=-2.19D-01 OVMax= 3.06D-01

 Cycle   4  Pass 0  IDiag  1:
 E= -691.891718799538     Delta-E=        0.421935855482 Rises=F Damp=F
 DIIS: error= 4.90D-02 at cycle   4 NSaved=   4.
 NSaved= 4 IEnMin= 3 EnMin= -692.313654655021     IErMin= 2 ErrMin= 1.41D-02
 ErrMax= 4.90D-02 EMaxC= 1.00D-01 BMatC= 6.14D-01 BMatP= 6.35D-02
 IDIUse=2 WtCom= 0.00D+00 WtEn= 1.00D+00
 Coeff-En:   0.000D+00 0.000D+00 0.808D+00 0.192D+00
 Coeff:      0.000D+00 0.000D+00 0.808D+00 0.192D+00
 Gap=     0.203 Goal=   None    Shift=    0.000
 RMSDP=1.79D-03 MaxDP=8.87D-02 DE= 4.22D-01 OVMax= 1.48D-01

 Cycle   5  Pass 0  IDiag  1:
 E= -692.352869451061     Delta-E=       -0.461150651523 Rises=F Damp=F
 DIIS: error= 1.29D-02 at cycle   5 NSaved=   5.
 NSaved= 5 IEnMin= 5 EnMin= -692.352869451061     IErMin= 5 ErrMin= 1.29D-02
 ErrMax= 1.29D-02 EMaxC= 1.00D-01 BMatC= 4.69D-02 BMatP= 6.35D-02
 IDIUse=3 WtCom= 8.71D-01 WtEn= 1.29D-01
 Coeff-Com: -0.370D-02 0.614D-01 0.335D+00-0.793D-01 0.686D+00
 Coeff-En:   0.000D+00 0.000D+00 0.374D+00 0.000D+00 0.626D+00
 Coeff:     -0.322D-02 0.535D-01 0.340D+00-0.690D-01 0.678D+00
 Gap=     0.166 Goal=   None    Shift=    0.000
 RMSDP=7.29D-04 MaxDP=3.17D-02 DE=-4.61D-01 OVMax= 4.65D-02

 Cycle   6  Pass 0  IDiag  1:
 E= -692.391617609594     Delta-E=       -0.038748158532 Rises=F Damp=F
 DIIS: error= 9.84D-04 at cycle   6 NSaved=   6.
 NSaved= 6 IEnMin= 6 EnMin= -692.391617609594     IErMin= 6 ErrMin= 9.84D-04
 ErrMax= 9.84D-04 EMaxC= 1.00D-01 BMatC= 5.71D-04 BMatP= 4.69D-02
 IDIUse=3 WtCom= 9.90D-01 WtEn= 9.84D-03
 Coeff-Com: -0.650D-02 0.277D-01 0.170D+00-0.649D-01 0.444D+00 0.429D+00
 Coeff-En:   0.000D+00 0.000D+00 0.000D+00 0.000D+00 0.000D+00 0.100D+01
 Coeff:     -0.643D-02 0.274D-01 0.168D+00-0.642D-01 0.440D+00 0.435D+00
 Gap=     0.165 Goal=   None    Shift=    0.000
 RMSDP=9.68D-05 MaxDP=3.94D-03 DE=-3.87D-02 OVMax= 8.92D-03

 Cycle   7  Pass 0  IDiag  1:
 E= -692.392132536105     Delta-E=       -0.000514926512 Rises=F Damp=F
 DIIS: error= 2.71D-04 at cycle   7 NSaved=   7.
 NSaved= 7 IEnMin= 7 EnMin= -692.392132536105     IErMin= 7 ErrMin= 2.71D-04
 ErrMax= 2.71D-04 EMaxC= 1.00D-01 BMatC= 2.42D-05 BMatP= 5.71D-04
 IDIUse=3 WtCom= 9.97D-01 WtEn= 2.71D-03
 Coeff-Com: -0.913D-03 0.190D-02 0.367D-01-0.146D-01 0.914D-01 0.165D+00
 Coeff-Com:  0.721D+00
 Coeff-En:   0.000D+00 0.000D+00 0.000D+00 0.000D+00 0.000D+00 0.000D+00
 Coeff-En:   0.100D+01
 Coeff:     -0.910D-03 0.190D-02 0.366D-01-0.146D-01 0.911D-01 0.164D+00
 Coeff:      0.721D+00
 Gap=     0.165 Goal=   None    Shift=    0.000
 RMSDP=2.18D-05 MaxDP=8.76D-04 DE=-5.15D-04 OVMax= 1.79D-03

 Cycle   8  Pass 0  IDiag  1:
 E= -692.392155390793     Delta-E=       -0.000022854687 Rises=F Damp=F
 DIIS: error= 6.92D-05 at cycle   8 NSaved=   8.
 NSaved= 8 IEnMin= 8 EnMin= -692.392155390793     IErMin= 8 ErrMin= 6.92D-05
 ErrMax= 6.92D-05 EMaxC= 1.00D-01 BMatC= 2.32D-06 BMatP= 2.42D-05
 IDIUse=1 WtCom= 1.00D+00 WtEn= 0.00D+00
 Coeff-Com:  0.540D-04-0.872D-03 0.101D-01-0.380D-02 0.213D-01 0.650D-01
 Coeff-Com:  0.415D+00 0.493D+00
 Coeff:      0.540D-04-0.872D-03 0.101D-01-0.380D-02 0.213D-01 0.650D-01
 Coeff:      0.415D+00 0.493D+00
 Gap=     0.165 Goal=   None    Shift=    0.000
 RMSDP=5.82D-06 MaxDP=2.90D-04 DE=-2.29D-05 OVMax= 3.85D-04

 Initial convergence to 1.0D-05 achieved.  Increase integral accuracy.
 Cycle   9  Pass 1  IDiag  1:
 E= -692.392140957535     Delta-E=        0.000014433258 Rises=F Damp=F
 DIIS: error= 3.13D-05 at cycle   1 NSaved=   1.
 NSaved= 1 IEnMin= 1 EnMin= -692.392140957535     IErMin= 1 ErrMin= 3.13D-05
 ErrMax= 3.13D-05 EMaxC= 1.00D-01 BMatC= 2.18D-07 BMatP= 2.18D-07
 IDIUse=1 WtCom= 1.00D+00 WtEn= 0.00D+00
 Coeff-Com:  0.100D+01
 Coeff:      0.100D+01
 Gap=     0.165 Goal=   None    Shift=    0.000
 RMSDP=5.82D-06 MaxDP=2.90D-04 DE= 1.44D-05 OVMax= 2.64D-04

 Cycle  10  Pass 1  IDiag  1:
 E= -692.392140867750     Delta-E=        0.000000089785 Rises=F Damp=F
 DIIS: error= 3.36D-05 at cycle   2 NSaved=   2.
 NSaved= 2 IEnMin= 1 EnMin= -692.392140957535     IErMin= 1 ErrMin= 3.13D-05
 ErrMax= 3.36D-05 EMaxC= 1.00D-01 BMatC= 3.50D-07 BMatP= 2.18D-07
 IDIUse=1 WtCom= 1.00D+00 WtEn= 0.00D+00
 Coeff-Com:  0.571D+00 0.429D+00
 Coeff:      0.571D+00 0.429D+00
 Gap=     0.165 Goal=   None    Shift=    0.000
 RMSDP=2.79D-06 MaxDP=1.23D-04 DE= 8.98D-08 OVMax= 2.28D-04

 Cycle  11  Pass 1  IDiag  1:
 E= -692.392141176688     Delta-E=       -0.000000308937 Rises=F Damp=F
 DIIS: error= 9.76D-06 at cycle   3 NSaved=   3.
 NSaved= 3 IEnMin= 3 EnMin= -692.392141176688     IErMin= 3 ErrMin= 9.76D-06
 ErrMax= 9.76D-06 EMaxC= 1.00D-01 BMatC= 4.12D-08 BMatP= 2.18D-07
 IDIUse=1 WtCom= 1.00D+00 WtEn= 0.00D+00
 Coeff-Com:  0.691D-01 0.253D+00 0.678D+00
 Coeff:      0.691D-01 0.253D+00 0.678D+00
 Gap=     0.165 Goal=   None    Shift=    0.000
 RMSDP=1.03D-06 MaxDP=3.91D-05 DE=-3.09D-07 OVMax= 6.61D-05

 Cycle  12  Pass 1  IDiag  1:
 E= -692.392141207060     Delta-E=       -0.000000030373 Rises=F Damp=F
 DIIS: error= 5.62D-06 at cycle   4 NSaved=   4.
 NSaved= 4 IEnMin= 4 EnMin= -692.392141207060     IErMin= 4 ErrMin= 5.62D-06
 ErrMax= 5.62D-06 EMaxC= 1.00D-01 BMatC= 1.32D-08 BMatP= 4.12D-08
 IDIUse=1 WtCom= 1.00D+00 WtEn= 0.00D+00
 Coeff-Com: -0.632D-02 0.134D+00 0.475D+00 0.397D+00
 Coeff:     -0.632D-02 0.134D+00 0.475D+00 0.397D+00
 Gap=     0.165 Goal=   None    Shift=    0.000
 RMSDP=3.81D-07 MaxDP=2.12D-05 DE=-3.04D-08 OVMax= 2.47D-05

 Cycle  13  Pass 1  IDiag  1:
 E= -692.392141217266     Delta-E=       -0.000000010206 Rises=F Damp=F
 DIIS: error= 7.37D-07 at cycle   5 NSaved=   5.
 NSaved= 5 IEnMin= 5 EnMin= -692.392141217266     IErMin= 5 ErrMin= 7.37D-07
 ErrMax= 7.37D-07 EMaxC= 1.00D-01 BMatC= 3.26D-10 BMatP= 1.32D-08
 IDIUse=1 WtCom= 1.00D+00 WtEn= 0.00D+00
 Coeff-Com: -0.847D-02 0.504D-01 0.202D+00 0.205D+00 0.550D+00
 Coeff:     -0.847D-02 0.504D-01 0.202D+00 0.205D+00 0.550D+00
 Gap=     0.165 Goal=   None    Shift=    0.000
 RMSDP=9.11D-08 MaxDP=2.97D-06 DE=-1.02D-08 OVMax= 5.96D-06

 Cycle  14  Pass 1  IDiag  1:
 E= -692.392141217499     Delta-E=       -0.000000000233 Rises=F Damp=F
 DIIS: error= 3.30D-07 at cycle   6 NSaved=   6.
 NSaved= 6 IEnMin= 6 EnMin= -692.392141217499     IErMin= 6 ErrMin= 3.30D-07
 ErrMax= 3.30D-07 EMaxC= 1.00D-01 BMatC= 4.56D-11 BMatP= 3.26D-10
 IDIUse=1 WtCom= 1.00D+00 WtEn= 0.00D+00
 Coeff-Com: -0.459D-02 0.208D-01 0.890D-01 0.967D-01 0.338D+00 0.460D+00
 Coeff:     -0.459D-02 0.208D-01 0.890D-01 0.967D-01 0.338D+00 0.460D+00
 Gap=     0.165 Goal=   None    Shift=    0.000
 RMSDP=2.95D-08 MaxDP=9.79D-07 DE=-2.33D-10 OVMax= 2.33D-06

 Cycle  15  Pass 1  IDiag  1:
 E= -692.392141217548     Delta-E=       -0.000000000049 Rises=F Damp=F
 DIIS: error= 7.52D-08 at cycle   7 NSaved=   7.
 NSaved= 7 IEnMin= 7 EnMin= -692.392141217548     IErMin= 7 ErrMin= 7.52D-08
 ErrMax= 7.52D-08 EMaxC= 1.00D-01 BMatC= 2.11D-12 BMatP= 4.56D-11
 IDIUse=1 WtCom= 1.00D+00 WtEn= 0.00D+00
 Coeff-Com: -0.125D-02 0.443D-02 0.204D-01 0.241D-01 0.963D-01 0.218D+00
 Coeff-Com:  0.638D+00
 Coeff:     -0.125D-02 0.443D-02 0.204D-01 0.241D-01 0.963D-01 0.218D+00
 Coeff:      0.638D+00
 Gap=     0.165 Goal=   None    Shift=    0.000
 RMSDP=7.72D-09 MaxDP=2.81D-07 DE=-4.91D-11 OVMax= 6.99D-07

 SCF Done:  E(RB3LYP) =  -692.392141218     A.U. after   15 cycles
             Convg  =    0.7721D-08             -V/T =  2.0095
 KE= 6.858522288926D+02 PE=-3.630492306009D+03 EE= 1.241397188088D+03
 Leave Link  502 at Wed Sep 29 00:51:49 2021, MaxMem= 1342177280 cpu:     273.2
 (Enter /sw/target/amd/app/gaussian/Gaussian09RevA.02_gcc-4.9.2/g09/l508.exe)
 QCSCF skips out because SCF is already converged.
 Leave Link  508 at Wed Sep 29 00:51:52 2021, MaxMem= 1342177280 cpu:       0.0
 (Enter /sw/target/amd/app/gaussian/Gaussian09RevA.02_gcc-4.9.2/g09/l601.exe)
 Copying SCF densities to generalized density rwf, IOpCl= 0 IROHF=0.

 **********************************************************************

            Population analysis using the SCF density.

 **********************************************************************

 Orbital symmetries:
       Occupied  (A) (A) (A) (A) (A) (A) (A) (A) (A) (A) (A) (A)
                 (A) (A) (A) (A) (A) (A) (A) (A) (A) (A) (A) (A)
                 (A) (A) (A) (A) (A) (A) (A) (A) (A) (A) (A) (A)
                 (A) (A) (A) (A) (A) (A) (A) (A) (A) (A) (A) (A)
                 (A) (A) (A) (A) (A) (A) (A) (A) (A)
       Virtual   (A) (A) (A) (A) (A) (A) (A) (A) (A) (A) (A) (A)
                 (A) (A) (A) (A) (A) (A) (A) (A) (A) (A) (A) (A)
                 (A) (A) (A) (A) (A) (A) (A) (A) (A) (A) (A) (A)
                 (A) (A) (A) (A) (A) (A) (A) (A) (A) (A) (A) (A)
                 (A) (A) (A) (A) (A) (A) (A) (A) (A) (A) (A) (A)
                 (A) (A) (A) (A) (A) (A) (A) (A) (A) (A) (A) (A)
                 (A) (A) (A) (A) (A) (A) (A) (A) (A) (A) (A) (A)
                 (A) (A) (A) (A) (A) (A) (A) (A) (A) (A) (A) (A)
                 (A) (A) (A) (A) (A) (A) (A) (A) (A) (A) (A) (A)
                 (A) (A) (A) (A) (A) (A) (A) (A) (A) (A) (A) (A)
                 (A) (A) (A) (A) (A) (A) (A) (A) (A) (A) (A) (A)
                 (A) (A) (A) (A) (A) (A) (A) (A) (A) (A) (A) (A)
                 (A) (A) (A) (A) (A) (A) (A) (A) (A) (A) (A) (A)
                 (A) (A) (A) (A) (A) (A) (A) (A) (A) (A) (A) (A)
                 (A) (A) (A) (A) (A) (A) (A) (A) (A) (A) (A) (A)
                 (A) (A) (A) (A) (A) (A) (A) (A) (A) (A) (A) (A)
                 (A) (A) (A) (A) (A) (A) (A) (A) (A) (A) (A) (A)
                 (A) (A) (A) (A) (A) (A) (A)
 The electronic state is 1-A.
 Alpha  occ. eigenvalues --  -19.20526 -19.14773 -10.32464 -10.25390 -10.20715
 Alpha  occ. eigenvalues --  -10.19633 -10.19605 -10.19572 -10.19436 -10.19058
 Alpha  occ. eigenvalues --  -10.18998 -10.18966 -10.18925 -10.18903 -10.18674
 Alpha  occ. eigenvalues --  -10.17982  -1.09574  -1.02277  -0.87790  -0.82611
 Alpha  occ. eigenvalues --   -0.80923  -0.77447  -0.74967  -0.71632  -0.69295
 Alpha  occ. eigenvalues --   -0.67063  -0.62888  -0.60316  -0.60034  -0.56179
 Alpha  occ. eigenvalues --   -0.51839  -0.51063  -0.50772  -0.47270  -0.46439
 Alpha  occ. eigenvalues --   -0.46230  -0.45062  -0.44078  -0.43641  -0.41876
 Alpha  occ. eigenvalues --   -0.41173  -0.40908  -0.39367  -0.39061  -0.38617
 Alpha  occ. eigenvalues --   -0.38163  -0.36321  -0.35408  -0.34685  -0.34176
 Alpha  occ. eigenvalues --   -0.34019  -0.33314  -0.30907  -0.28395  -0.27395
 Alpha  occ. eigenvalues --   -0.24130  -0.20840
 Alpha virt. eigenvalues --   -0.04338  -0.01329   0.00870   0.03353   0.09078
 Alpha virt. eigenvalues --    0.09219   0.10302   0.11202   0.12377   0.13564
 Alpha virt. eigenvalues --    0.14149   0.15363   0.16493   0.17032   0.17099
 Alpha virt. eigenvalues --    0.17228   0.18154   0.19006   0.19299   0.19997
 Alpha virt. eigenvalues --    0.20618   0.22306   0.23383   0.24677   0.26393
 Alpha virt. eigenvalues --    0.28116   0.29535   0.31271   0.31972   0.32981
 Alpha virt. eigenvalues --    0.34447   0.37025   0.39760   0.47605   0.48920
 Alpha virt. eigenvalues --    0.49915   0.50527   0.51326   0.51750   0.52084
 Alpha virt. eigenvalues --    0.53389   0.53965   0.54474   0.55138   0.56302
 Alpha virt. eigenvalues --    0.56511   0.57708   0.58672   0.59906   0.60469
 Alpha virt. eigenvalues --    0.60693   0.60881   0.61761   0.61907   0.62269
 Alpha virt. eigenvalues --    0.62887   0.63647   0.65531   0.66678   0.67992
 Alpha virt. eigenvalues --    0.68337   0.69666   0.69950   0.73900   0.75941
 Alpha virt. eigenvalues --    0.76943   0.79203   0.80754   0.82335   0.82418
 Alpha virt. eigenvalues --    0.83336   0.83779   0.84347   0.84798   0.86597
 Alpha virt. eigenvalues --    0.87318   0.87770   0.88424   0.89857   0.90397
 Alpha virt. eigenvalues --    0.90545   0.91845   0.92740   0.94368   0.95575
 Alpha virt. eigenvalues --    0.95784   0.97318   0.97916   0.98836   1.01635
 Alpha virt. eigenvalues --    1.02825   1.04247   1.05169   1.08388   1.09358
 Alpha virt. eigenvalues --    1.11083   1.12354   1.15777   1.18004   1.19990
 Alpha virt. eigenvalues --    1.21897   1.23841   1.24594   1.26167   1.27274
 Alpha virt. eigenvalues --    1.31579   1.31817   1.37788   1.39182   1.39647
 Alpha virt. eigenvalues --    1.41362   1.43365   1.46216   1.46730   1.47578
 Alpha virt. eigenvalues --    1.48751   1.49390   1.50279   1.51336   1.52020
 Alpha virt. eigenvalues --    1.54355   1.58338   1.63118   1.68042   1.71238
 Alpha virt. eigenvalues --    1.73599   1.76212   1.77811   1.78591   1.80518
 Alpha virt. eigenvalues --    1.81272   1.82773   1.85477   1.87219   1.87817
 Alpha virt. eigenvalues --    1.90960   1.91100   1.91895   1.93101   1.94120
 Alpha virt. eigenvalues --    1.94914   1.95814   1.96850   1.97431   1.99260
 Alpha virt. eigenvalues --    2.02270   2.02848   2.05203   2.05655   2.07821
 Alpha virt. eigenvalues --    2.08510   2.13404   2.14009   2.15453   2.18766
 Alpha virt. eigenvalues --    2.20044   2.21031   2.24162   2.25037   2.27032
 Alpha virt. eigenvalues --    2.27811   2.30199   2.31275   2.33167   2.33230
 Alpha virt. eigenvalues --    2.34277   2.36247   2.38030   2.40973   2.42359
 Alpha virt. eigenvalues --    2.49283   2.49830   2.58410   2.60863   2.61177
 Alpha virt. eigenvalues --    2.61995   2.63284   2.64367   2.67858   2.68298
 Alpha virt. eigenvalues --    2.72490   2.76135   2.77439   2.79262   2.81074
 Alpha virt. eigenvalues --    2.85188   2.86925   2.89766   2.94533   2.96708
 Alpha virt. eigenvalues --    3.06960   3.08929   3.24242   3.39722   3.49831
 Alpha virt. eigenvalues --    4.04948   4.08988   4.09923   4.11939   4.13620
 Alpha virt. eigenvalues --    4.15797   4.16307   4.26647   4.29458   4.30284
 Alpha virt. eigenvalues --    4.37609   4.41279   4.44886   4.56844   4.64520
 Alpha virt. eigenvalues --    4.84627
          Condensed to atoms (all electrons):
              1          2          3          4          5          6
     1  O    8.054019   0.527518  -0.076555  -0.002367   0.000936  -0.062770
     2  C    0.527518   4.395890   0.350518  -0.031568  -0.038634   0.224858
     3  C   -0.076555   0.350518   5.073037   0.363906   0.355289  -0.086727
     4  C   -0.002367  -0.031568   0.363906   5.091196  -0.049133  -0.001507
     5  C    0.000936  -0.038634   0.355289  -0.049133   5.105935   0.002716
     6  O   -0.062770   0.224858  -0.086727  -0.001507   0.002716   8.351585
     7  C   -0.002269  -0.010186   0.004144  -0.000216  -0.000080   0.195813
     8  C    0.000242   0.001477  -0.000481   0.000032   0.000002  -0.046626
     9  C   -0.000002  -0.000048   0.000003  -0.000000  -0.000000   0.002941
    10  C    0.000011   0.000022   0.000001   0.000000   0.000000   0.000353
    11  C    0.000155   0.000423  -0.000001   0.000000  -0.000000   0.002571
    12  C   -0.002711  -0.001727   0.000545  -0.000007  -0.000006  -0.041685
    13  C   -0.000038  -0.000020  -0.000000  -0.000000   0.000000  -0.000060
    14  C   -0.000000   0.000000   0.000000   0.000000  -0.000000   0.000000
    15  C   -0.000000   0.000000  -0.000000   0.000000  -0.000000  -0.000000
    16  C    0.000000   0.000000   0.000000   0.000000  -0.000000   0.000001
    17  H    0.002978  -0.038537   0.364809  -0.035211  -0.045263   0.005601
    18  H    0.003047  -0.005534  -0.035461   0.375838  -0.005582   0.000126
    19  H   -0.000068  -0.003677  -0.033424   0.369758   0.005572   0.003871
    20  H   -0.000028   0.004341  -0.030497   0.375020  -0.004059  -0.000077
    21  H    0.006044  -0.006540  -0.030440  -0.004829   0.373425   0.000106
    22  H    0.000288   0.004947  -0.029326  -0.004292   0.367516  -0.000052
    23  H    0.000524  -0.002552  -0.032684   0.004988   0.374147   0.000117
    24  H    0.000010  -0.000026   0.000000  -0.000005   0.000001  -0.000434
    25  H   -0.000000   0.000000  -0.000000   0.000000   0.000000  -0.000057
    26  H    0.012955   0.001525   0.000061   0.000005   0.000010  -0.006742
    27  H   -0.000019  -0.000001  -0.000000   0.000000   0.000000  -0.000000
    28  H    0.000000  -0.000000  -0.000000  -0.000000   0.000000  -0.000000
    29  H    0.000000  -0.000000   0.000000   0.000000  -0.000000   0.000000
    30  H   -0.000000   0.000000  -0.000000   0.000000   0.000000  -0.000000
              7          8          9         10         11         12
     1  O   -0.002269   0.000242  -0.000002   0.000011   0.000155  -0.002711
     2  C   -0.010186   0.001477  -0.000048   0.000022   0.000423  -0.001727
     3  C    0.004144  -0.000481   0.000003   0.000001  -0.000001   0.000545
     4  C   -0.000216   0.000032  -0.000000   0.000000   0.000000  -0.000007
     5  C   -0.000080   0.000002  -0.000000   0.000000  -0.000000  -0.000006
     6  O    0.195813  -0.046626   0.002941   0.000353   0.002571  -0.041685
     7  C    4.595078   0.496077  -0.002721  -0.035429   0.015508   0.463160
     8  C    0.496077   5.028329   0.482811  -0.008479  -0.037646  -0.058406
     9  C   -0.002721   0.482811   5.149428   0.442720  -0.023456  -0.076998
    10  C   -0.035429  -0.008479   0.442720   4.676372   0.487435  -0.035902
    11  C    0.015508  -0.037646  -0.023456   0.487435   4.713669   0.387070
    12  C    0.463160  -0.058406  -0.076998  -0.035902   0.387070   5.314195
    13  C    0.007599  -0.000336   0.016748  -0.030141   0.444345  -0.087193
    14  C   -0.000304   0.000055  -0.000695  -0.039139  -0.003785   0.008057
    15  C    0.000059  -0.000362   0.008573  -0.002748  -0.039765  -0.000588
    16  C   -0.000834   0.009043  -0.101888   0.446270  -0.027589   0.017350
    17  H    0.000021  -0.000003   0.000000  -0.000000  -0.000000  -0.000029
    18  H    0.000005  -0.000001  -0.000000  -0.000000  -0.000000  -0.000002
    19  H   -0.000036   0.000004   0.000000   0.000000  -0.000000   0.000005
    20  H    0.000004  -0.000000   0.000000   0.000000  -0.000000   0.000000
    21  H    0.000000  -0.000000  -0.000000  -0.000000  -0.000000  -0.000000
    22  H    0.000001  -0.000000   0.000000   0.000000   0.000000   0.000000
    23  H   -0.000010   0.000000  -0.000000   0.000000   0.000000  -0.000003
    24  H   -0.036751   0.346047  -0.035558   0.003037   0.000496   0.006413
    25  H    0.003659  -0.042288   0.355164  -0.038219   0.004727   0.000380
    26  H   -0.036292   0.005061   0.000185   0.004618  -0.039180   0.348226
    27  H    0.000274   0.000011  -0.000187   0.004627  -0.040574  -0.007933
    28  H    0.000003  -0.000001   0.000010   0.001038   0.002837  -0.000205
    29  H   -0.000000   0.000003  -0.000196   0.002743   0.001026   0.000011
    30  H    0.000014   0.000195  -0.008416  -0.041726   0.004593  -0.000194
             13         14         15         16         17         18
     1  O   -0.000038  -0.000000  -0.000000   0.000000   0.002978   0.003047
     2  C   -0.000020   0.000000   0.000000   0.000000  -0.038537  -0.005534
     3  C   -0.000000   0.000000  -0.000000   0.000000   0.364809  -0.035461
     4  C   -0.000000   0.000000   0.000000   0.000000  -0.035211   0.375838
     5  C    0.000000  -0.000000  -0.000000  -0.000000  -0.045263  -0.005582
     6  O   -0.000060   0.000000  -0.000000   0.000001   0.005601   0.000126
     7  C    0.007599  -0.000304   0.000059  -0.000834   0.000021   0.000005
     8  C   -0.000336   0.000055  -0.000362   0.009043  -0.000003  -0.000001
     9  C    0.016748  -0.000695   0.008573  -0.101888   0.000000  -0.000000
    10  C   -0.030141  -0.039139  -0.002748   0.446270  -0.000000  -0.000000
    11  C    0.444345  -0.003785  -0.039765  -0.027589  -0.000000  -0.000000
    12  C   -0.087193   0.008057  -0.000588   0.017350  -0.000029  -0.000002
    13  C    5.119799   0.512482  -0.020436  -0.076213   0.000000   0.000000
    14  C    0.512482   4.893101   0.507132  -0.019027   0.000000   0.000000
    15  C   -0.020436   0.507132   4.897483   0.508270  -0.000000  -0.000000
    16  C   -0.076213  -0.019027   0.508270   5.135930  -0.000000  -0.000000
    17  H    0.000000   0.000000  -0.000000  -0.000000   0.591695   0.005464
    18  H    0.000000   0.000000  -0.000000  -0.000000   0.005464   0.551144
    19  H    0.000000  -0.000000  -0.000000  -0.000000  -0.002995  -0.029701
    20  H    0.000000   0.000000  -0.000000  -0.000000  -0.004555  -0.028877
    21  H    0.000000   0.000000  -0.000000  -0.000000   0.005290   0.005139
    22  H   -0.000000  -0.000000   0.000000  -0.000000  -0.003840  -0.000219
    23  H   -0.000000  -0.000000  -0.000000  -0.000000  -0.002289  -0.000009
    24  H    0.000010  -0.000000   0.000003  -0.000169   0.000009  -0.000000
    25  H   -0.000196   0.000012   0.000186  -0.008537   0.000000   0.000000
    26  H   -0.008633   0.000216   0.000008  -0.000148  -0.000026  -0.000001
    27  H    0.355236  -0.044820   0.004582   0.000560   0.000000   0.000000
    28  H   -0.036270   0.356900  -0.042180   0.004388  -0.000000  -0.000000
    29  H    0.004370  -0.042101   0.357153  -0.036658  -0.000000  -0.000000
    30  H    0.000575   0.004621  -0.045132   0.354958   0.000000   0.000000
             19         20         21         22         23         24
     1  O   -0.000068  -0.000028   0.006044   0.000288   0.000524   0.000010
     2  C   -0.003677   0.004341  -0.006540   0.004947  -0.002552  -0.000026
     3  C   -0.033424  -0.030497  -0.030440  -0.029326  -0.032684   0.000000
     4  C    0.369758   0.375020  -0.004829  -0.004292   0.004988  -0.000005
     5  C    0.005572  -0.004059   0.373425   0.367516   0.374147   0.000001
     6  O    0.003871  -0.000077   0.000106  -0.000052   0.000117  -0.000434
     7  C   -0.000036   0.000004   0.000000   0.000001  -0.000010  -0.036751
     8  C    0.000004  -0.000000  -0.000000  -0.000000   0.000000   0.346047
     9  C    0.000000   0.000000  -0.000000   0.000000  -0.000000  -0.035558
    10  C    0.000000   0.000000  -0.000000   0.000000   0.000000   0.003037
    11  C   -0.000000  -0.000000  -0.000000   0.000000   0.000000   0.000496
    12  C    0.000005   0.000000  -0.000000   0.000000  -0.000003   0.006413
    13  C    0.000000   0.000000   0.000000  -0.000000  -0.000000   0.000010
    14  C   -0.000000   0.000000   0.000000  -0.000000  -0.000000  -0.000000
    15  C   -0.000000  -0.000000  -0.000000   0.000000  -0.000000   0.000003
    16  C   -0.000000  -0.000000  -0.000000  -0.000000  -0.000000  -0.000169
    17  H   -0.002995  -0.004555   0.005290  -0.003840  -0.002289   0.000009
    18  H   -0.029701  -0.028877   0.005139  -0.000219  -0.000009  -0.000000
    19  H    0.561409  -0.028274  -0.000023  -0.000040  -0.000196   0.000082
    20  H   -0.028274   0.558749  -0.000334   0.003463  -0.000011  -0.000000
    21  H   -0.000023  -0.000334   0.543005  -0.029736  -0.027790  -0.000000
    22  H   -0.000040   0.003463  -0.029736   0.576464  -0.029477  -0.000000
    23  H   -0.000196  -0.000011  -0.027790  -0.029477   0.564661  -0.000000
    24  H    0.000082  -0.000000  -0.000000  -0.000000  -0.000000   0.581704
    25  H   -0.000000  -0.000000   0.000000  -0.000000   0.000000  -0.005596
    26  H    0.000000  -0.000000  -0.000004   0.000000   0.000008  -0.000148
    27  H   -0.000000  -0.000000   0.000000   0.000000   0.000000  -0.000000
    28  H    0.000000  -0.000000  -0.000000  -0.000000   0.000000   0.000000
    29  H   -0.000000  -0.000000  -0.000000   0.000000  -0.000000  -0.000000
    30  H    0.000000  -0.000000   0.000000  -0.000000   0.000000  -0.000011
             25         26         27         28         29         30
     1  O   -0.000000   0.012955  -0.000019   0.000000   0.000000  -0.000000
     2  C    0.000000   0.001525  -0.000001  -0.000000  -0.000000   0.000000
     3  C   -0.000000   0.000061  -0.000000  -0.000000   0.000000  -0.000000
     4  C    0.000000   0.000005   0.000000  -0.000000   0.000000   0.000000
     5  C    0.000000   0.000010   0.000000   0.000000  -0.000000   0.000000
     6  O   -0.000057  -0.006742  -0.000000  -0.000000   0.000000  -0.000000
     7  C    0.003659  -0.036292   0.000274   0.000003  -0.000000   0.000014
     8  C   -0.042288   0.005061   0.000011  -0.000001   0.000003   0.000195
     9  C    0.355164   0.000185  -0.000187   0.000010  -0.000196  -0.008416
    10  C   -0.038219   0.004618   0.004627   0.001038   0.002743  -0.041726
    11  C    0.004727  -0.039180  -0.040574   0.002837   0.001026   0.004593
    12  C    0.000380   0.348226  -0.007933  -0.000205   0.000011  -0.000194
    13  C   -0.000196  -0.008633   0.355236  -0.036270   0.004370   0.000575
    14  C    0.000012   0.000216  -0.044820   0.356900  -0.042101   0.004621
    15  C    0.000186   0.000008   0.004582  -0.042180   0.357153  -0.045132
    16  C   -0.008537  -0.000148   0.000560   0.004388  -0.036658   0.354958
    17  H    0.000000  -0.000026   0.000000  -0.000000  -0.000000   0.000000
    18  H    0.000000  -0.000001   0.000000  -0.000000  -0.000000   0.000000
    19  H   -0.000000   0.000000  -0.000000   0.000000  -0.000000   0.000000
    20  H   -0.000000  -0.000000  -0.000000  -0.000000  -0.000000  -0.000000
    21  H    0.000000  -0.000004   0.000000  -0.000000  -0.000000   0.000000
    22  H   -0.000000   0.000000   0.000000  -0.000000   0.000000  -0.000000
    23  H    0.000000   0.000008   0.000000   0.000000  -0.000000   0.000000
    24  H   -0.005596  -0.000148  -0.000000   0.000000  -0.000000  -0.000011
    25  H    0.588706   0.000015   0.000003  -0.000000  -0.000011   0.006133
    26  H    0.000015   0.547589   0.005800  -0.000012   0.000000   0.000002
    27  H    0.000003   0.005800   0.592465  -0.005236  -0.000195   0.000019
    28  H   -0.000000  -0.000012  -0.005236   0.593029  -0.005211  -0.000197
    29  H   -0.000011   0.000000  -0.000195  -0.005211   0.594785  -0.005272
    30  H    0.006133   0.000002   0.000019  -0.000197  -0.005272   0.600244
 Mulliken atomic charges:
              1
     1  O   -0.461898
     2  C    0.627531
     3  C   -0.156718
     4  C   -0.451609
     5  C   -0.442792
     6  O   -0.543920
     7  C    0.343709
     8  C   -0.174759
     9  C   -0.208419
    10  C    0.162538
    11  C    0.147142
    12  C   -0.231824
    13  C   -0.201625
    14  C   -0.132705
    15  C   -0.132239
    16  C   -0.205708
    17  H    0.156883
    18  H    0.164625
    19  H    0.157732
    20  H    0.155137
    21  H    0.166685
    22  H    0.144304
    23  H    0.150575
    24  H    0.140888
    25  H    0.135917
    26  H    0.164905
    27  H    0.135388
    28  H    0.131107
    29  H    0.129555
    30  H    0.129594
 Sum of Mulliken atomic charges =  -0.00000
 Mulliken charges with hydrogens summed into heavy atoms:
              1
     1  O   -0.461898
     2  C    0.627531
     3  C    0.000165
     4  C    0.025885
     5  C    0.018772
     6  O   -0.543920
     7  C    0.343709
     8  C   -0.033871
     9  C   -0.072501
    10  C    0.162538
    11  C    0.147142
    12  C   -0.066919
    13  C   -0.066237
    14  C   -0.001598
    15  C   -0.002684
    16  C   -0.076114
 Sum of Mulliken charges with hydrogens summed into heavy atoms =  -0.00000
 Electronic spatial extent (au):  <R**2>=           4913.6325
 Charge=             -0.0000 electrons
 Dipole moment (field-independent basis, Debye):
    X=              0.3406    Y=              1.3100    Z=             -0.6373  Tot=              1.4961
 Quadrupole moment (field-independent basis, Debye-Ang):
   XX=            -77.6091   YY=            -88.0559   ZZ=            -96.7583
   XY=              2.6841   XZ=             -2.4049   YZ=              2.3825
 Traceless Quadrupole moment (field-independent basis, Debye-Ang):
   XX=              9.8654   YY=             -0.5815   ZZ=             -9.2839
   XY=              2.6841   XZ=             -2.4049   YZ=              2.3825
 Octapole moment (field-independent basis, Debye-Ang**2):
  XXX=             23.9563  YYY=              5.1925  ZZZ=              1.0338  XYY=            -13.6941
  XXY=              4.7838  XXZ=              3.7370  XZZ=             19.9009  YZZ=             -1.2834
  YYZ=             -2.1954  XYZ=              3.8570
 Hexadecapole moment (field-independent basis, Debye-Ang**3):
 XXXX=          -5106.7902 YYYY=           -831.4352 ZZZZ=           -207.3325 XXXY=             33.2762
 XXXZ=            -42.1824 YYYX=              8.6802 YYYZ=             -1.0452 ZZZX=              4.6607
 ZZZY=             -3.1652 XXYY=          -1036.2275 XXZZ=          -1007.2359 YYZZ=           -194.1303
 XXYZ=              2.6007 YYXZ=             -6.6243 ZZXY=             -5.3254
 N-N= 1.010850747811D+03 E-N=-3.630492320553D+03  KE= 6.858522288926D+02
 No NMR shielding tensors so no spin-rotation constants.
 Leave Link  601 at Wed Sep 29 00:51:53 2021, MaxMem= 1342177280 cpu:       1.8
 (Enter /sw/target/amd/app/gaussian/Gaussian09RevA.02_gcc-4.9.2/g09/l701.exe)
 Compute integral first derivatives.
 ... and contract with generalized density number  0.
 Leave Link  701 at Wed Sep 29 00:51:55 2021, MaxMem= 1342177280 cpu:       1.6
 (Enter /sw/target/amd/app/gaussian/Gaussian09RevA.02_gcc-4.9.2/g09/l702.exe)
 L702 exits ... SP integral derivatives will be done elsewhere.
 Leave Link  702 at Wed Sep 29 00:51:55 2021, MaxMem= 1342177280 cpu:       0.1
 (Enter /sw/target/amd/app/gaussian/Gaussian09RevA.02_gcc-4.9.2/g09/l703.exe)
 Compute integral first derivatives, UseDBF=F ICtDFT=           0.
 Integral derivatives from FoFDir, PRISM(SPDF).
 Calling FoFJK, ICntrl=      2127 FMM=F ISym2X=0 I1Cent= 0 IOpClX= 0 NMat=1 NMatS=1 NMatT=0.
 FoFCou: FMM=F IPFlag=           0 FMFlag=      100000 FMFlg1=         800
         NFxFlg=           0 DoJE=F BraDBF=F KetDBF=F FulRan=T
         Omega=  0.000000  0.000000  1.000000  0.000000  0.000000 ICntrl=    2127 IOpCl=  0
         NMat0=    1 NMatS0=    1 NMatT0=    0 NMatD0=    1 NMtDS0=    0 NMtDT0=    0
         I1Cent=           0 NGrid=           0.
 Symmetry not used in FoFCou.
 Leave Link  703 at Wed Sep 29 00:53:12 2021, MaxMem= 1342177280 cpu:      99.2
 (Enter /sw/target/amd/app/gaussian/Gaussian09RevA.02_gcc-4.9.2/g09/l716.exe)
 Dipole        = 1.34009290D-01 5.15386604D-01-2.50734764D-01
 ***** Axes restored to original set *****
 -------------------------------------------------------------------
 Center     Atomic                   Forces (Hartrees/Bohr)
 Number     Number              X              Y              Z
 -------------------------------------------------------------------
      1        8          -0.007165909   -0.010418914    0.027737161
      2        6           0.012528190    0.002438589   -0.007384289
      3        6          -0.003850234   -0.006925824   -0.003810964
      4        6           0.002941679    0.008800274    0.006890244
      5        6          -0.001605070   -0.001442243   -0.007779949
      6        8           0.005596181    0.003727984   -0.016007701
      7        6          -0.006136996   -0.002097822   -0.025515444
      8        6           0.020369784   -0.000557106    0.016792728
      9        6          -0.025258214    0.006091343    0.006582213
     10        6           0.008758799   -0.000057172    0.010728140
     11        6          -0.005866678   -0.000096745   -0.005735572
     12        6          -0.021623353    0.004498237    0.004390615
     13        6           0.022887807   -0.006789874   -0.011868712
     14        6          -0.020413310    0.001691442   -0.014462225
     15        6           0.000253759    0.004078213    0.024922221
     16        6           0.022151510   -0.006167421   -0.012117642
     17        1           0.003490744    0.001836830    0.002015239
     18        1          -0.000668972   -0.001115073   -0.001052838
     19        1          -0.000862876    0.000595725    0.001142014
     20        1          -0.000846506   -0.000563799   -0.000138316
     21        1           0.000942887   -0.000383655    0.001037128
     22        1          -0.000029858    0.000049714    0.001288709
     23        1          -0.001145715   -0.000130297   -0.000620924
     24        1          -0.001381125    0.000347709   -0.001836649
     25        1           0.000955585   -0.000609033   -0.001305899
     26        1           0.001008932    0.001979273    0.002625262
     27        1          -0.002007726    0.000535851    0.001824553
     28        1          -0.000550107   -0.000044087   -0.000084079
     29        1          -0.000135573    0.000045507    0.000787720
     30        1          -0.002337634    0.000682373    0.000957256
 -------------------------------------------------------------------
 Cartesian Forces:  Max     0.027737161 RMS     0.009017963
 Leave Link  716 at Wed Sep 29 00:53:12 2021, MaxMem= 1342177280 cpu:       0.1
 (Enter /sw/target/amd/app/gaussian/Gaussian09RevA.02_gcc-4.9.2/g09/l103.exe)

 GradGradGradGradGradGradGradGradGradGradGradGradGradGradGradGradGradGrad
 Berny optimization.
 Internal  Forces:  Max     0.029785239 RMS     0.005129058
 Search for a local minimum.
 Step number   1 out of a maximum of  165
 All quantities printed in internal units (Hartrees-Bohrs-Radians)
 RMS Force = .51291D-02 SwitMx=.10000D-02 MixMth= 1
 Mixed Optimization -- RFO/linear search
 Second derivative matrix not updated -- first step.
     Eigenvalues ---    0.00428   0.00453   0.00534   0.00849   0.01548
     Eigenvalues ---    0.01713   0.01982   0.01996   0.02005   0.02054
     Eigenvalues ---    0.02079   0.02082   0.02086   0.02094   0.02100
     Eigenvalues ---    0.02111   0.02157   0.02161   0.02164   0.02168
     Eigenvalues ---    0.02179   0.04167   0.04760   0.05520   0.05550
     Eigenvalues ---    0.05595   0.05606   0.05799   0.15999   0.16000
     Eigenvalues ---    0.16000   0.16000   0.16000   0.16000   0.16000
     Eigenvalues ---    0.16000   0.16000   0.16000   0.16000   0.16000
     Eigenvalues ---    0.16000   0.16613   0.17658   0.22000   0.22296
     Eigenvalues ---    0.22709   0.23515   0.24366   0.24749   0.24975
     Eigenvalues ---    0.24980   0.25000   0.25000   0.29839   0.30016
     Eigenvalues ---    0.30602   0.34030   0.34102   0.34159   0.34190
     Eigenvalues ---    0.34196   0.34248   0.34329   0.35032   0.35094
     Eigenvalues ---    0.35097   0.35169   0.35181   0.35234   0.35314
     Eigenvalues ---    0.38504   0.41124   0.41771   0.43622   0.43870
     Eigenvalues ---    0.44552   0.45619   0.45728   0.45776   0.45883
     Eigenvalues ---    0.45892   0.46632   0.46664   0.939091000.00000
     Eigenvalues --- 1000.000001000.000001000.000001000.000001000.00000
     Eigenvalues --- 1000.000001000.000001000.000001000.000001000.00000
     Eigenvalues --- 1000.000001000.000001000.000001000.000001000.00000
     Eigenvalues --- 1000.000001000.000001000.000001000.000001000.00000
     Eigenvalues --- 1000.000001000.000001000.000001000.000001000.00000
     Eigenvalues --- 1000.000001000.000001000.000001000.000001000.00000
     Eigenvalues --- 1000.000001000.000001000.000001000.000001000.00000
     Eigenvalues --- 1000.000001000.000001000.000001000.000001000.00000
     Eigenvalues --- 1000.000001000.000001000.000001000.000001000.00000
     Eigenvalues --- 1000.000001000.000001000.000001000.000001000.00000
     Eigenvalues --- 1000.000001000.000001000.000001000.000001000.00000
     Eigenvalues --- 1000.000001000.000001000.000001000.000001000.00000
     Eigenvalues --- 1000.000001000.000001000.000001000.000001000.00000
     Eigenvalues --- 1000.000001000.000001000.000001000.000001000.00000
 RFO step:  Lambda=-9.34298251D-03 EMin= 4.28070120D-03
 Linear search not attempted -- first point.
 Iteration  1 RMS(Cart)=  0.03547088 RMS(Int)=  0.00029651
 Iteration  2 RMS(Cart)=  0.00081357 RMS(Int)=  0.00006623
 Iteration  3 RMS(Cart)=  0.00000017 RMS(Int)=  0.00006623
 Variable       Old X    -DE/DX   Delta X   Delta X   Delta X     New X
                                 (Linear)    (Quad)   (Total)
    R1        2.31182  -0.02979   0.00000  -0.03140  -0.03140   2.28041
    R2        2.86778   0.00145   0.00000   0.00459   0.00459   2.87238
    R3        2.64253  -0.01996   0.00000  -0.04263  -0.04263   2.59990
    R4        2.87931   0.00955   0.00000   0.03085   0.03085   2.91016
    R5        2.88286   0.00624   0.00000   0.02027   0.02027   2.90313
    R6        2.07280  -0.00078   0.00000  -0.00224  -0.00224   2.07056
    R7        2.07158  -0.00024   0.00000  -0.00068  -0.00068   2.07090
    R8        2.07001   0.00052   0.00000   0.00148   0.00148   2.07149
    R9        2.06778   0.00067   0.00000   0.00191   0.00191   2.06969
   R10        2.07063  -0.00080   0.00000  -0.00228  -0.00228   2.06835
   R11        2.06913   0.00033   0.00000   0.00093   0.00093   2.07006
   R12        2.07011   0.00019   0.00000   0.00054   0.00054   2.07065
   R13        2.66611  -0.00987   0.00000  -0.02203  -0.02203   2.64407
   R14        2.63378   0.01478   0.00000   0.02910   0.02911   2.66289
   R15        2.63241  -0.01165   0.00000  -0.02497  -0.02498   2.60743
   R16        2.63783  -0.01450   0.00000  -0.03210  -0.03208   2.60575
   R17        2.05297  -0.00067   0.00000  -0.00185  -0.00185   2.05111
   R18        2.65493   0.01115   0.00000   0.02493   0.02494   2.67986
   R19        2.05518  -0.00080   0.00000  -0.00222  -0.00222   2.05296
   R20        2.67320   0.01725   0.00000   0.04298   0.04296   2.71616
   R21        2.65520   0.01078   0.00000   0.02434   0.02433   2.67953
   R22        2.65260   0.01311   0.00000   0.02996   0.02995   2.68254
   R23        2.65241   0.01200   0.00000   0.02710   0.02710   2.67952
   R24        2.05169  -0.00295   0.00000  -0.00815  -0.00815   2.04354
   R25        2.63678  -0.01180   0.00000  -0.02569  -0.02568   2.61110
   R26        2.05623  -0.00080   0.00000  -0.00223  -0.00223   2.05399
   R27        2.62982   0.01928   0.00000   0.03847   0.03848   2.66830
   R28        2.05402  -0.00021   0.00000  -0.00059  -0.00059   2.05343
   R29        2.63829  -0.01274   0.00000  -0.02796  -0.02796   2.61033
   R30        2.05382  -0.00008   0.00000  -0.00022  -0.00022   2.05360
[...]
          N A T U R A L   B O N D   O R B I T A L   A N A L Y S I S
 ******************************Gaussian NBO Version 3.1******************************
       /RESON  / : Allow strongly delocalized NBO set

 Analyzing the CI density

 Job title: O=C(C(C)C)Oc1ccc2c(c1)cccc2_conf_0                              

 Storage needed:    218470 in NPA (1342172480 available)


 NATURAL POPULATIONS:  Natural atomic orbital occupancies 
                                                          
   NAO  Atom  No  lang   Type(AO)    Occupancy
 --------------------------------------------
     1    O    1  S      Cor( 1S)     1.99977
     2    O    1  S      Val( 2S)     1.69831
     3    O    1  S      Ryd( 3S)     0.00057
     4    O    1  S      Ryd( 4S)     0.00013
     5    O    1  px     Val( 2p)     1.82023
     6    O    1  px     Ryd( 3p)     0.00183
     7    O    1  py     Val( 2p)     1.59004
     8    O    1  py     Ryd( 3p)     0.00054
     9    O    1  pz     Val( 2p)     1.45020
    10    O    1  pz     Ryd( 3p)     0.00072
    11    O    1  dxy    Ryd( 3d)     0.00418
    12    O    1  dxz    Ryd( 3d)     0.00108
    13    O    1  dyz    Ryd( 3d)     0.00445
    14    O    1  dx2y2  Ryd( 3d)     0.00427
    15    O    1  dz2    Ryd( 3d)     0.00224

    16    C    2  S      Cor( 1S)     1.99935
    17    C    2  S      Val( 2S)     0.78263
    18    C    2  S      Ryd( 3S)     0.00552
    19    C    2  S      Ryd( 4S)     0.00047
    20    C    2  px     Val( 2p)     0.87111
    21    C    2  px     Ryd( 3p)     0.00656
    22    C    2  py     Val( 2p)     0.70532
    23    C    2  py     Ryd( 3p)     0.01940
    24    C    2  pz     Val( 2p)     0.76117
    25    C    2  pz     Ryd( 3p)     0.00538
    26    C    2  dxy    Ryd( 3d)     0.00339
    27    C    2  dxz    Ryd( 3d)     0.00133
    28    C    2  dyz    Ryd( 3d)     0.00172
    29    C    2  dx2y2  Ryd( 3d)     0.00215
    30    C    2  dz2    Ryd( 3d)     0.00108

    31    C    3  S      Cor( 1S)     1.99915
    32    C    3  S      Val( 2S)     1.00340
    33    C    3  S      Ryd( 3S)     0.00081
    34    C    3  S      Ryd( 4S)     0.00003
    35    C    3  px     Val( 2p)     1.05548
    36    C    3  px     Ryd( 3p)     0.00192
    37    C    3  py     Val( 2p)     1.09729
    38    C    3  py     Ryd( 3p)     0.00311
    39    C    3  pz     Val( 2p)     1.18172
    40    C    3  pz     Ryd( 3p)     0.00202
    41    C    3  dxy    Ryd( 3d)     0.00066
    42    C    3  dxz    Ryd( 3d)     0.00032
    43    C    3  dyz    Ryd( 3d)     0.00099
    44    C    3  dx2y2  Ryd( 3d)     0.00089
    45    C    3  dz2    Ryd( 3d)     0.00093

    46    C    4  S      Cor( 1S)     1.99942
    47    C    4  S      Val( 2S)     1.10411
    48    C    4  S      Ryd( 3S)     0.00041
    49    C    4  S      Ryd( 4S)     0.00001
    50    C    4  px     Val( 2p)     1.23750
    51    C    4  px     Ryd( 3p)     0.00166
    52    C    4  py     Val( 2p)     1.16558
    53    C    4  py     Ryd( 3p)     0.00184
    54    C    4  pz     Val( 2p)     1.15591
    55    C    4  pz     Ryd( 3p)     0.00111
    56    C    4  dxy    Ryd( 3d)     0.00093
    57    C    4  dxz    Ryd( 3d)     0.00017
    58    C    4  dyz    Ryd( 3d)     0.00065
    59    C    4  dx2y2  Ryd( 3d)     0.00053
    60    C    4  dz2    Ryd( 3d)     0.00104

    61    C    5  S      Cor( 1S)     1.99944
    62    C    5  S      Val( 2S)     1.09805
    63    C    5  S      Ryd( 3S)     0.00043
    64    C    5  S      Ryd( 4S)     0.00002
    65    C    5  px     Val( 2p)     1.17259
    66    C    5  px     Ryd( 3p)     0.00244
    67    C    5  py     Val( 2p)     1.13884
    68    C    5  py     Ryd( 3p)     0.00167
    69    C    5  pz     Val( 2p)     1.25678
    70    C    5  pz     Ryd( 3p)     0.00206
    71    C    5  dxy    Ryd( 3d)     0.00064
    72    C    5  dxz    Ryd( 3d)     0.00019
    73    C    5  dyz    Ryd( 3d)     0.00106
    74    C    5  dx2y2  Ryd( 3d)     0.00065
    75    C    5  dz2    Ryd( 3d)     0.00072

    76    O    6  S      Cor( 1S)     1.99969
    77    O    6  S      Val( 2S)     1.59527
    78    O    6  S      Ryd( 3S)     0.00132
    79    O    6  S      Ryd( 4S)     0.00007
    80    O    6  px     Val( 2p)     1.45512
    81    O    6  px     Ryd( 3p)     0.00103
    82    O    6  py     Val( 2p)     1.73568
    83    O    6  py     Ryd( 3p)     0.00238
    84    O    6  pz     Val( 2p)     1.71823
    85    O    6  pz     Ryd( 3p)     0.00126
    86    O    6  dxy    Ryd( 3d)     0.00114
    87    O    6  dxz    Ryd( 3d)     0.00063
    88    O    6  dyz    Ryd( 3d)     0.00129
    89    O    6  dx2y2  Ryd( 3d)     0.00122
    90    O    6  dz2    Ryd( 3d)     0.00090

    91    C    7  S      Cor( 1S)     1.99873
    92    C    7  S      Val( 2S)     0.84775
    93    C    7  S      Ryd( 3S)     0.00109
    94    C    7  S      Ryd( 4S)     0.00012
    95    C    7  px     Val( 2p)     0.73046
    96    C    7  px     Ryd( 3p)     0.00680
    97    C    7  py     Val( 2p)     1.09285
    98    C    7  py     Ryd( 3p)     0.00633
    99    C    7  pz     Val( 2p)     0.94551
   100    C    7  pz     Ryd( 3p)     0.00145
   101    C    7  dxy    Ryd( 3d)     0.00124
   102    C    7  dxz    Ryd( 3d)     0.00141
   103    C    7  dyz    Ryd( 3d)     0.00123
   104    C    7  dx2y2  Ryd( 3d)     0.00180
   105    C    7  dz2    Ryd( 3d)     0.00049

   106    C    8  S      Cor( 1S)     1.99905
   107    C    8  S      Val( 2S)     0.95746
   108    C    8  S      Ryd( 3S)     0.00082
   109    C    8  S      Ryd( 4S)     0.00004
   110    C    8  px     Val( 2p)     1.11803
   111    C    8  px     Ryd( 3p)     0.00523
   112    C    8  py     Val( 2p)     1.13174
   113    C    8  py     Ryd( 3p)     0.00459
   114    C    8  pz     Val( 2p)     1.09975
   115    C    8  pz     Ryd( 3p)     0.00344
   116    C    8  dxy    Ryd( 3d)     0.00077
   117    C    8  dxz    Ryd( 3d)     0.00065
   118    C    8  dyz    Ryd( 3d)     0.00036
   119    C    8  dx2y2  Ryd( 3d)     0.00058
   120    C    8  dz2    Ryd( 3d)     0.00046

   121    C    9  S      Cor( 1S)     1.99907
   122    C    9  S      Val( 2S)     0.94646
   123    C    9  S      Ryd( 3S)     0.00062
   124    C    9  S      Ryd( 4S)     0.00005
   125    C    9  px     Val( 2p)     1.08077
   126    C    9  px     Ryd( 3p)     0.00424
   127    C    9  py     Val( 2p)     1.15698
   128    C    9  py     Ryd( 3p)     0.00466
   129    C    9  pz     Val( 2p)     1.01870
   130    C    9  pz     Ryd( 3p)     0.00327
   131    C    9  dxy    Ryd( 3d)     0.00077
   132    C    9  dxz    Ryd( 3d)     0.00071
   133    C    9  dyz    Ryd( 3d)     0.00033
   134    C    9  dx2y2  Ryd( 3d)     0.00069
   135    C    9  dz2    Ryd( 3d)     0.00044

   136    C   10  S      Cor( 1S)     1.99903
   137    C   10  S      Val( 2S)     0.87366
   138    C   10  S      Ryd( 3S)     0.00047
   139    C   10  S      Ryd( 4S)     0.00006
   140    C   10  px     Val( 2p)     1.09298
   141    C   10  px     Ryd( 3p)     0.00481
   142    C   10  py     Val( 2p)     1.08237
   143    C   10  py     Ryd( 3p)     0.00546
   144    C   10  pz     Val( 2p)     0.98779
   145    C   10  pz     Ryd( 3p)     0.00095
   146    C   10  dxy    Ryd( 3d)     0.00073
   147    C   10  dxz    Ryd( 3d)     0.00081
   148    C   10  dyz    Ryd( 3d)     0.00067
   149    C   10  dx2y2  Ryd( 3d)     0.00070
   150    C   10  dz2    Ryd( 3d)     0.00035

   151    C   11  S      Cor( 1S)     1.99903
   152    C   11  S      Val( 2S)     0.87335
   153    C   11  S      Ryd( 3S)     0.00054
   154    C   11  S      Ryd( 4S)     0.00007
   155    C   11  px     Val( 2p)     1.08095
   156    C   11  px     Ryd( 3p)     0.00505
   157    C   11  py     Val( 2p)     1.08695
   158    C   11  py     Ryd( 3p)     0.00546
   159    C   11  pz     Val( 2p)     0.99215
   160    C   11  pz     Ryd( 3p)     0.00096
   161    C   11  dxy    Ryd( 3d)     0.00071
   162    C   11  dxz    Ryd( 3d)     0.00082
   163    C   11  dyz    Ryd( 3d)     0.00065
   164    C   11  dx2y2  Ryd( 3d)     0.00073
   165    C   11  dz2    Ryd( 3d)     0.00035

   166    C   12  S      Cor( 1S)     1.99897
   167    C   12  S      Val( 2S)     0.95808
   168    C   12  S      Ryd( 3S)     0.00077
   169    C   12  S      Ryd( 4S)     0.00005
   170    C   12  px     Val( 2p)     1.07676
   171    C   12  px     Ryd( 3p)     0.00438
   172    C   12  py     Val( 2p)     1.19121
   173    C   12  py     Ryd( 3p)     0.00396
   174    C   12  pz     Val( 2p)     1.01923
   175    C   12  pz     Ryd( 3p)     0.00329
   176    C   12  dxy    Ryd( 3d)     0.00083
   177    C   12  dxz    Ryd( 3d)     0.00046
   178    C   12  dyz    Ryd( 3d)     0.00053
   179    C   12  dx2y2  Ryd( 3d)     0.00060
   180    C   12  dz2    Ryd( 3d)     0.00044

   181    C   13  S      Cor( 1S)     1.99906
   182    C   13  S      Val( 2S)     0.95132
   183    C   13  S      Ryd( 3S)     0.00064
   184    C   13  S      Ryd( 4S)     0.00004
   185    C   13  px     Val( 2p)     1.08659
   186    C   13  px     Ryd( 3p)     0.00423
   187    C   13  py     Val( 2p)     1.15257
   188    C   13  py     Ryd( 3p)     0.00463
   189    C   13  pz     Val( 2p)     0.99659
   190    C   13  pz     Ryd( 3p)     0.00298
   191    C   13  dxy    Ryd( 3d)     0.00082
   192    C   13  dxz    Ryd( 3d)     0.00068
   193    C   13  dyz    Ryd( 3d)     0.00032
   194    C   13  dx2y2  Ryd( 3d)     0.00068
   195    C   13  dz2    Ryd( 3d)     0.00043

   196    C   14  S      Cor( 1S)     1.99912
   197    C   14  S      Val( 2S)     0.95985
   198    C   14  S      Ryd( 3S)     0.00062
   199    C   14  S      Ryd( 4S)     0.00003
   200    C   14  px     Val( 2p)     1.10586
   201    C   14  px     Ryd( 3p)     0.00500
   202    C   14  py     Val( 2p)     1.14415
   203    C   14  py     Ryd( 3p)     0.00495
   204    C   14  pz     Val( 2p)     1.06525
   205    C   14  pz     Ryd( 3p)     0.00278
   206    C   14  dxy    Ryd( 3d)     0.00079
   207    C   14  dxz    Ryd( 3d)     0.00061
   208    C   14  dyz    Ryd( 3d)     0.00034
   209    C   14  dx2y2  Ryd( 3d)     0.00067
   210    C   14  dz2    Ryd( 3d)     0.00044

   211    C   15  S      Cor( 1S)     1.99911
   212    C   15  S      Val( 2S)     0.97083
   213    C   15  S      Ryd( 3S)     0.00057
   214    C   15  S      Ryd( 4S)     0.00004
   215    C   15  px     Val( 2p)     1.19119
   216    C   15  px     Ryd( 3p)     0.00498
   217    C   15  py     Val( 2p)     1.06163
   218    C   15  py     Ryd( 3p)     0.00454
   219    C   15  pz     Val( 2p)     0.92586
   220    C   15  pz     Ryd( 3p)     0.00143
   221    C   15  dxy    Ryd( 3d)     0.00066
   222    C   15  dxz    Ryd( 3d)     0.00034
   223    C   15  dyz    Ryd( 3d)     0.00089
   224    C   15  dx2y2  Ryd( 3d)     0.00090
   225    C   15  dz2    Ryd( 3d)     0.00043

   226    C   16  S      Cor( 1S)     1.99907
   227    C   16  S      Val( 2S)     0.95353
   228    C   16  S      Ryd( 3S)     0.00067
   229    C   16  S      Ryd( 4S)     0.00005
   230    C   16  px     Val( 2p)     1.06972
   231    C   16  px     Ryd( 3p)     0.00434
   232    C   16  py     Val( 2p)     1.17315
   233    C   16  py     Ryd( 3p)     0.00459
   234    C   16  pz     Val( 2p)     1.01278
   235    C   16  pz     Ryd( 3p)     0.00290
   236    C   16  dxy    Ryd( 3d)     0.00077
   237    C   16  dxz    Ryd( 3d)     0.00045
   238    C   16  dyz    Ryd( 3d)     0.00044
   239    C   16  dx2y2  Ryd( 3d)     0.00074
   240    C   16  dz2    Ryd( 3d)     0.00042

   241    H   17  S      Val( 1S)     0.73523
   242    H   17  S      Ryd( 2S)     0.00198

   243    H   18  S      Val( 1S)     0.76472
   244    H   18  S      Ryd( 2S)     0.00118

   245    H   19  S      Val( 1S)     0.75640
   246    H   19  S      Ryd( 2S)     0.00115

   247    H   20  S      Val( 1S)     0.76107
   248    H   20  S      Ryd( 2S)     0.00093

   249    H   21  S      Val( 1S)     0.75700
   250    H   21  S      Ryd( 2S)     0.00133

   251    H   22  S      Val( 1S)     0.76589
   252    H   22  S      Ryd( 2S)     0.00083

   253    H   23  S      Val( 1S)     0.75823
   254    H   23  S      Ryd( 2S)     0.00085

   255    H   24  S      Val( 1S)     0.75503
   256    H   24  S      Ryd( 2S)     0.00106

   257    H   25  S      Val( 1S)     0.76545
   258    H   25  S      Ryd( 2S)     0.00109

   259    H   26  S      Val( 1S)     0.73372
   260    H   26  S      Ryd( 2S)     0.00169

   261    H   27  S      Val( 1S)     0.76595
   262    H   27  S      Ryd( 2S)     0.00113

   263    H   28  S      Val( 1S)     0.76417
   264    H   28  S      Ryd( 2S)     0.00079

   265    H   29  S      Val( 1S)     0.76384
   266    H   29  S      Ryd( 2S)     0.00086

   267    H   30  S      Val( 1S)     0.76654
   268    H   30  S      Ryd( 2S)     0.00114

 WARNING:  1 low occupancy (<1.9990e) core orbital  found on  C    7
           1 low occupancy (<1.9990e) core orbital  found on  C   12


 Summary of Natural Population Analysis:                  
                                                          
                                       Natural Population 
                Natural  -----------------------------------------------
    Atom  No    Charge         Core      Valence    Rydberg      Total
 -----------------------------------------------------------------------
      O    1   -0.57856      1.99977     6.55879    0.02000     8.57856
      C    2    0.83344      1.99935     3.12022    0.04699     5.16656
      C    3   -0.34871      1.99915     4.33789    0.01167     6.34871
      C    4   -0.67088      1.99942     4.66311    0.00834     6.67088
      C    5   -0.67558      1.99944     4.66627    0.00988     6.67558
      O    6   -0.51523      1.99969     6.50429    0.01124     8.51523
      C    7    0.36273      1.99873     3.61658    0.02196     5.63727
      C    8   -0.32296      1.99905     4.30698    0.01694     6.32296
      C    9   -0.21775      1.99907     4.20291    0.01578     6.21775
      C   10   -0.05084      1.99903     4.03680    0.01501     6.05084
      C   11   -0.04778      1.99903     4.03341    0.01533     6.04778
      C   12   -0.25957      1.99897     4.24528    0.01532     6.25957
      C   13   -0.20159      1.99906     4.18707    0.01546     6.20159
      C   14   -0.29046      1.99912     4.27511    0.01622     6.29046
      C   15   -0.16339      1.99911     4.14950    0.01477     6.16339
      C   16   -0.22362      1.99907     4.20917    0.01538     6.22362
      H   17    0.26278      0.00000     0.73523    0.00198     0.73722
      H   18    0.23410      0.00000     0.76472    0.00118     0.76590
      H   19    0.24244      0.00000     0.75640    0.00115     0.75756
      H   20    0.23800      0.00000     0.76107    0.00093     0.76200
      H   21    0.24167      0.00000     0.75700    0.00133     0.75833
      H   22    0.23328      0.00000     0.76589    0.00083     0.76672
      H   23    0.24093      0.00000     0.75823    0.00085     0.75907
      H   24    0.24390      0.00000     0.75503    0.00106     0.75610
      H   25    0.23346      0.00000     0.76545    0.00109     0.76654
      H   26    0.26459      0.00000     0.73372    0.00169     0.73541
      H   27    0.23293      0.00000     0.76595    0.00113     0.76707
      H   28    0.23504      0.00000     0.76417    0.00079     0.76496
      H   29    0.23529      0.00000     0.76384    0.00086     0.76471
      H   30    0.23232      0.00000     0.76654    0.00114     0.76768
 =======================================================================
   * Total *   -0.00000     31.98705    81.72663    0.28632   114.00000

                                 Natural Population      
 --------------------------------------------------------
   Core                      31.98705 ( 99.9595% of  32)
   Valence                   81.72663 ( 99.6666% of  82)
   Natural Minimal Basis    113.71368 ( 99.7488% of 114)
   Natural Rydberg Basis      0.28632 (  0.2512% of 114)
 --------------------------------------------------------

    Atom  No          Natural Electron Configuration
 ----------------------------------------------------------------------------
      O    1      [core]2S( 1.70)2p( 4.86)3d( 0.02)
      C    2      [core]2S( 0.78)2p( 2.34)3S( 0.01)3p( 0.03)3d( 0.01)
      C    3      [core]2S( 1.00)2p( 3.33)3p( 0.01)
      C    4      [core]2S( 1.10)2p( 3.56)
      C    5      [core]2S( 1.10)2p( 3.57)3p( 0.01)
      O    6      [core]2S( 1.60)2p( 4.91)3d( 0.01)
      C    7      [core]2S( 0.85)2p( 2.77)3p( 0.01)3d( 0.01)
      C    8      [core]2S( 0.96)2p( 3.35)3p( 0.01)
      C    9      [core]2S( 0.95)2p( 3.26)3p( 0.01)
      C   10      [core]2S( 0.87)2p( 3.16)3p( 0.01)
      C   11      [core]2S( 0.87)2p( 3.16)3p( 0.01)
      C   12      [core]2S( 0.96)2p( 3.29)3p( 0.01)
      C   13      [core]2S( 0.95)2p( 3.24)3p( 0.01)
      C   14      [core]2S( 0.96)2p( 3.32)3p( 0.01)
      C   15      [core]2S( 0.97)2p( 3.18)3p( 0.01)
      C   16      [core]2S( 0.95)2p( 3.26)3p( 0.01)
      H   17            1S( 0.74)
      H   18            1S( 0.76)
      H   19            1S( 0.76)
      H   20            1S( 0.76)
      H   21            1S( 0.76)
      H   22            1S( 0.77)
      H   23            1S( 0.76)
      H   24            1S( 0.76)
      H   25            1S( 0.77)
      H   26            1S( 0.73)
      H   27            1S( 0.77)
      H   28            1S( 0.76)
      H   29            1S( 0.76)
      H   30            1S( 0.77)


 NBO analysis skipped by request.
 Leave Link  607 at Wed Sep 29 08:22:32 2021, MaxMem= 1342177280 cpu:      21.7
 (Enter /sw/target/amd/app/gaussian/Gaussian09RevA.02_gcc-4.9.2/g09/l9999.exe)
 1\1\GINC-HERMITE\SP\RTD-B3LYP-FC\6-31G(d)\C14H14O2\JSCHLEINITZ\29-Sep-
 2021\0\\#p TD(NStates=10, Root=1) b3lyp/6-31G* volume pop=NPA density=
 current Geom=AllCheck Guess=Read\\O=C(C(C)C)Oc1ccc2c(c1)cccc2_conf_0\\
 0,1\O,0,3.9295970337,-0.5164127208,-2.4213674752\C,0,3.4850135615,-0.5
 942151656,-1.3006540783\C,0,2.0478146348,-0.2967035588,-0.894253882\C,
 0,1.9908818785,1.04413,-0.1319231267\C,0,1.129348878,-0.2999750572,-2.
 1194920591\O,0,4.2100431219,-0.9425687965,-0.1938804555\C,0,5.58025341
 85,-1.2047321807,-0.1985800882\C,0,6.1768161962,-1.0583772832,1.078855
 7323\C,0,7.513301035,-1.3234846905,1.2475152595\C,0,8.3177397569,-1.74
 70645315,0.1552046471\C,0,7.7011817947,-1.8944401465,-1.1292622558\C,0
 ,6.3147915044,-1.6185142111,-1.2869708616\C,0,8.5005021236,-2.32003800
 13,-2.2247673555\C,0,9.8412993048,-2.5860115075,-2.0590658961\C,0,10.4
 496706754,-2.4387852282,-0.788531888\C,0,9.7026391478,-2.028162656,0.2
 928483717\H,0,1.7449142427,-1.0909788547,-0.1999003029\H,0,2.312487787
 3,1.8706552134,-0.7761491494\H,0,2.6323362391,1.0270475935,0.753963282
 4\H,0,0.9639649369,1.247444847,0.1901716335\H,0,1.4339300114,0.4700715
 834,-2.8348136181\H,0,0.0956956236,-0.1031072057,-1.8153857386\H,0,1.1
 581979975,-1.2633682011,-2.6381852627\H,0,5.5529864543,-0.7365596113,1
 .9066696169\H,0,7.9707372387,-1.2108907432,2.2273523128\H,0,5.85608749
 17,-1.7222174543,-2.2598750746\H,0,8.0327736209,-2.4308805971,-3.19996
 60337\H,0,10.4394797415,-2.9103643554,-2.9063401814\H,0,11.5088031035,
 -2.6511924408,-0.6710233991\H,0,10.164798114,-1.9130720865,1.270684533
 2\\Version=AM64L-G09RevA.02\State=1-A\HF=-692.3978625\RMSD=9.363e-09\D
 ipole=-0.3582172,0.028984,0.5197422\Quadrupole=7.8448051,-4.872049,-2.
 9727561,-3.0310853,-0.7649731,2.3879063\PG=C01 [X(C14H14O2)]\\@


 EXPERIENCE IS A WONDERFUL THING.  IT ENABLES
 YOU TO RECOGNIZE A MISTAKE WHEN YOU MAKE IT AGAIN.
           - BACK OF A SUGAR PACKET
 Job cpu time:  0 days  4 hours  9 minutes 43.4 seconds.
 File lengths (MBytes):  RWF=    237 Int=      0 D2E=      0 Chk=     33 Scr=      1
 Normal termination of Gaussian 09 at Wed Sep 29 08:22:38 2021.
