 Entering Gaussian System, Link 0=g09
 Input=C14H12N2O2_6dd7_conf_0.com
 Output=C14H12N2O2_6dd7_conf_0.log
 Initial command:
 /sw/target/amd/app/gaussian/Gaussian09RevA.02_gcc-4.9.2/g09/l1.exe /home/jschleinitz/gaussian/Gau-1636862.inp -scrdir=/home/jschleinitz/gaussian/
 Entering Link 1 = /sw/target/amd/app/gaussian/Gaussian09RevA.02_gcc-4.9.2/g09/l1.exe PID=   1636867.
  
 Copyright (c) 1988,1990,1992,1993,1995,1998,2003,2009, Gaussian, Inc.
                  All Rights Reserved.
  
 This is part of the Gaussian(R) 09 program.  It is based on
 the Gaussian(R) 03 system (copyright 2003, Gaussian, Inc.),
 the Gaussian(R) 98 system (copyright 1998, Gaussian, Inc.),
 the Gaussian(R) 94 system (copyright 1995, Gaussian, Inc.),
 the Gaussian 92(TM) system (copyright 1992, Gaussian, Inc.),
 the Gaussian 90(TM) system (copyright 1990, Gaussian, Inc.),
 the Gaussian 88(TM) system (copyright 1988, Gaussian, Inc.),
 the Gaussian 86(TM) system (copyright 1986, Carnegie Mellon
 University), and the Gaussian 82(TM) system (copyright 1983,
 Carnegie Mellon University). Gaussian is a federally registered
 trademark of Gaussian, Inc.
  
 This software contains proprietary and confidential information,
 including trade secrets, belonging to Gaussian, Inc.
  
 This software is provided under written license and may be
 used, copied, transmitted, or stored only in accord with that
 written license.
  
 The following legend is applicable only to US Government
 contracts under FAR:
  
                    RESTRICTED RIGHTS LEGEND
  
 Use, reproduction and disclosure by the US Government is
 subject to restrictions as set forth in subparagraphs (a)
 and (c) of the Commercial Computer Software - Restricted
 Rights clause in FAR 52.227-19.
  
 Gaussian, Inc.
 340 Quinnipiac St., Bldg. 40, Wallingford CT 06492
  
  
 ---------------------------------------------------------------
 Warning -- This program may not be used in any manner that
 competes with the business of Gaussian, Inc. or will provide
 assistance to any competitor of Gaussian, Inc.  The licensee
 of this program is prohibited from giving any competitor of
 Gaussian, Inc. access to this program.  By using this program,
 the user acknowledges that Gaussian, Inc. is engaged in the
 business of creating and licensing software in the field of
 computational chemistry and represents and warrants to the
 licensee that it is not a competitor of Gaussian, Inc. and that
 it will not use this program in any manner prohibited above.
 ---------------------------------------------------------------
  

 Cite this work as:
 Gaussian 09, Revision A.02,
 M. J. Frisch, G. W. Trucks, H. B. Schlegel, G. E. Scuseria, 
 M. A. Robb, J. R. Cheeseman, G. Scalmani, V. Barone, B. Mennucci, 
 G. A. Petersson, H. Nakatsuji, M. Caricato, X. Li, H. P. Hratchian, 
 A. F. Izmaylov, J. Bloino, G. Zheng, J. L. Sonnenberg, M. Hada, 
 M. Ehara, K. Toyota, R. Fukuda, J. Hasegawa, M. Ishida, T. Nakajima, 
 Y. Honda, O. Kitao, H. Nakai, T. Vreven, J. A. Montgomery, Jr., 
 J. E. Peralta, F. Ogliaro, M. Bearpark, J. J. Heyd, E. Brothers, 
 K. N. Kudin, V. N. Staroverov, R. Kobayashi, J. Normand, 
 K. Raghavachari, A. Rendell, J. C. Burant, S. S. Iyengar, J. Tomasi, 
 M. Cossi, N. Rega, J. M. Millam, M. Klene, J. E. Knox, J. B. Cross, 
 V. Bakken, C. Adamo, J. Jaramillo, R. Gomperts, R. E. Stratmann, 
 O. Yazyev, A. J. Austin, R. Cammi, C. Pomelli, J. W. Ochterski, 
 R. L. Martin, K. Morokuma, V. G. Zakrzewski, G. A. Voth, 
 P. Salvador, J. J. Dannenberg, S. Dapprich, A. D. Daniels, 
 O. Farkas, J. B. Foresman, J. V. Ortiz, J. Cioslowski, 
 and D. J. Fox, Gaussian, Inc., Wallingford CT, 2009.
 
 ******************************************
 Gaussian 09:  AM64L-G09RevA.02 11-Jun-2009
                30-Sep-2021 
 ******************************************
 %nproc=5
 Will use up to    5 processors via shared memory.
 %mem=10gb
 %chk=C14H12N2O2_6dd7_conf_0.chk
 -----------------------------------
 #p opt b3lyp/6-31G* scf=(xqc,tight)
 -----------------------------------
 1/14=-1,18=20,19=15,26=3,38=1/1,3;
 2/9=110,12=2,17=6,18=5,40=1/2;
 3/5=1,6=6,7=1,11=2,16=1,25=1,30=1,71=1,74=-5/1,2,3;
 4//1;
 5/5=2,8=3,13=1,32=2,38=5/2,8;
 6/7=2,8=2,9=2,10=2,28=1/1;
 7//1,2,3,16;
 1/14=-1,18=20,19=15/3(2);
 2/9=110/2;
 99//99;
 2/9=110/2;
 3/5=1,6=6,7=1,11=2,16=1,25=1,30=1,71=1,74=-5/1,2,3;
 4/5=5,16=3/1;
 5/5=2,8=3,13=1,32=2,38=5/2,8;
 7//1,2,3,16;
 1/14=-1,18=20,19=15/3(-5);
 2/9=110/2;
 6/7=2,8=2,9=2,10=2,19=2,28=1/1;
 99/9=1/99;
 Leave Link    1 at Thu Sep 30 03:53:46 2021, MaxMem= 1342177280 cpu:       0.1
 (Enter /sw/target/amd/app/gaussian/Gaussian09RevA.02_gcc-4.9.2/g09/l101.exe)
 ---------------------------------------
 N#Cc1ccc2c(c1)ccc(c2)OC(=O)N(C)C_conf_0
 ---------------------------------------
 Symbolic Z-matrix:
 Charge =  0 Multiplicity = 1
 N                    -4.88798   0.06768   0.38446 
 C                    -3.73232  -0.05035   0.4086 
 C                    -2.30611  -0.18738   0.43355 
 C                    -1.72058  -1.44782   0.57658 
 C                    -0.3277   -1.57644   0.59673 
 C                     0.50038  -0.44778   0.46863 
 C                    -0.09684   0.82749   0.31806 
 C                    -1.49502   0.94395   0.30815 
 C                     0.71545   1.96046   0.16802 
 C                     2.10313   1.846     0.16153 
 C                     2.69007   0.59705   0.34144 
 C                     1.90373  -0.54857   0.47829 
 O                     4.08699   0.41678   0.28852 
 C                     4.93909   1.35498   0.88116 
 O                     4.56001   2.27786   1.59558 
 N                     6.27679   1.12227   0.58357 
 C                     7.29133   1.88078   1.28975 
 C                     6.71158  -0.05018  -0.15171 
 H                    -2.34223  -2.3365    0.67116 
 H                     0.10655  -2.56839   0.70826 
 H                    -1.95459   1.92525   0.19635 
 H                     0.27511   2.94802   0.04752 
 H                     2.70771   2.73665   0.02031 
 H                     2.38658  -1.5167    0.58775 
 H                     6.88641   2.80526   1.71142 
 H                     8.09753   2.13756   0.59651 
 H                     7.68588   1.26473   2.10268 
 H                     5.98946  -0.31531  -0.92858 
 H                     6.80964  -0.88451   0.54827 
 H                     7.67547   0.1501   -0.6284 
 
 NAtoms=     30 NQM=     30 NQMF=      0 NMic=      0 NMicF=      0 NTot=     30.
                    Isotopes and Nuclear Properties:
 (Nuclear quadrupole moments (NQMom) in fm**2, nuclear magnetic moments (NMagM)
  in nuclear magnetons)

  Atom         1           2           3           4           5           6           7           8           9          10
 IAtWgt=          14          12          12          12          12          12          12          12          12          12
 AtmWgt=  14.0030740  12.0000000  12.0000000  12.0000000  12.0000000  12.0000000  12.0000000  12.0000000  12.0000000  12.0000000
 NucSpn=           2           0           0           0           0           0           0           0           0           0
 AtZEff=   0.0000000   0.0000000   0.0000000   0.0000000   0.0000000   0.0000000   0.0000000   0.0000000   0.0000000   0.0000000
 NQMom=    2.0440000   0.0000000   0.0000000   0.0000000   0.0000000   0.0000000   0.0000000   0.0000000   0.0000000   0.0000000
 NMagM=    0.4037610   0.0000000   0.0000000   0.0000000   0.0000000   0.0000000   0.0000000   0.0000000   0.0000000   0.0000000

  Atom        11          12          13          14          15          16          17          18          19          20
 IAtWgt=          12          12          16          12          16          14          12          12           1           1
 AtmWgt=  12.0000000  12.0000000  15.9949146  12.0000000  15.9949146  14.0030740  12.0000000  12.0000000   1.0078250   1.0078250
 NucSpn=           0           0           0           0           0           2           0           0           1           1
 AtZEff=   0.0000000   0.0000000   0.0000000   0.0000000   0.0000000   0.0000000   0.0000000   0.0000000   0.0000000   0.0000000
 NQMom=    0.0000000   0.0000000   0.0000000   0.0000000   0.0000000   2.0440000   0.0000000   0.0000000   0.0000000   0.0000000
 NMagM=    0.0000000   0.0000000   0.0000000   0.0000000   0.0000000   0.4037610   0.0000000   0.0000000   2.7928460   2.7928460

  Atom        21          22          23          24          25          26          27          28          29          30
 IAtWgt=           1           1           1           1           1           1           1           1           1           1
 AtmWgt=   1.0078250   1.0078250   1.0078250   1.0078250   1.0078250   1.0078250   1.0078250   1.0078250   1.0078250   1.0078250
 NucSpn=           1           1           1           1           1           1           1           1           1           1
 AtZEff=   0.0000000   0.0000000   0.0000000   0.0000000   0.0000000   0.0000000   0.0000000   0.0000000   0.0000000   0.0000000
 NQMom=    0.0000000   0.0000000   0.0000000   0.0000000   0.0000000   0.0000000   0.0000000   0.0000000   0.0000000   0.0000000
 NMagM=    2.7928460   2.7928460   2.7928460   2.7928460   2.7928460   2.7928460   2.7928460   2.7928460   2.7928460   2.7928460
 Leave Link  101 at Thu Sep 30 03:53:47 2021, MaxMem= 1342177280 cpu:       0.2
 (Enter /sw/target/amd/app/gaussian/Gaussian09RevA.02_gcc-4.9.2/g09/l103.exe)

 GradGradGradGradGradGradGradGradGradGradGradGradGradGradGradGradGradGrad
 Berny optimization.
 Initialization pass.
                           ----------------------------
                           !    Initial Parameters    !
                           ! (Angstroms and Degrees)  !
 --------------------------                            --------------------------
 ! Name  Definition              Value          Derivative Info.                !
 --------------------------------------------------------------------------------
 ! R1    R(1,2)                  1.1619         estimate D2E/DX2                !
 ! R2    R(2,3)                  1.433          estimate D2E/DX2                !
 ! R3    R(3,4)                  1.3971         estimate D2E/DX2                !
 ! R4    R(3,8)                  1.3977         estimate D2E/DX2                !
 ! R5    R(4,5)                  1.399          estimate D2E/DX2                !
 ! R6    R(4,19)                 1.0886         estimate D2E/DX2                !
 ! R7    R(5,6)                  1.4057         estimate D2E/DX2                !
 ! R8    R(5,20)                 1.0886         estimate D2E/DX2                !
 ! R9    R(6,7)                  1.4162         estimate D2E/DX2                !
 ! R10   R(6,12)                 1.407          estimate D2E/DX2                !
 ! R11   R(7,8)                  1.4031         estimate D2E/DX2                !
 ! R12   R(7,9)                  1.4021         estimate D2E/DX2                !
 ! R13   R(8,21)                 1.0893         estimate D2E/DX2                !
 ! R14   R(9,10)                 1.3924         estimate D2E/DX2                !
 ! R15   R(9,22)                 1.088          estimate D2E/DX2                !
 ! R16   R(10,11)                1.3917         estimate D2E/DX2                !
 ! R17   R(10,23)                1.0857         estimate D2E/DX2                !
 ! R18   R(11,12)                1.3962         estimate D2E/DX2                !
 ! R19   R(11,13)                1.4095         estimate D2E/DX2                !
 ! R20   R(12,24)                1.0874         estimate D2E/DX2                !
 ! R21   R(13,14)                1.3991         estimate D2E/DX2                !
 ! R22   R(14,15)                1.2271         estimate D2E/DX2                !
 ! R23   R(14,16)                1.39           estimate D2E/DX2                !
 ! R24   R(16,17)                1.4503         estimate D2E/DX2                !
 ! R25   R(16,18)                1.4506         estimate D2E/DX2                !
 ! R26   R(17,25)                1.0938         estimate D2E/DX2                !
 ! R27   R(17,26)                1.0938         estimate D2E/DX2                !
 ! R28   R(17,27)                1.0936         estimate D2E/DX2                !
 ! R29   R(18,28)                1.0933         estimate D2E/DX2                !
 ! R30   R(18,29)                1.0935         estimate D2E/DX2                !
 ! R31   R(18,30)                1.0938         estimate D2E/DX2                !
 ! A1    A(2,3,4)              120.3419         estimate D2E/DX2                !
 ! A2    A(2,3,8)              119.9073         estimate D2E/DX2                !
 ! A3    A(4,3,8)              119.7502         estimate D2E/DX2                !
 ! A4    A(3,4,5)              120.1121         estimate D2E/DX2                !
 ! A5    A(3,4,19)             120.3998         estimate D2E/DX2                !
 ! A6    A(5,4,19)             119.488          estimate D2E/DX2                !
 ! A7    A(4,5,6)              120.7566         estimate D2E/DX2                !
 ! A8    A(4,5,20)             118.8452         estimate D2E/DX2                !
 ! A9    A(6,5,20)             120.3974         estimate D2E/DX2                !
 ! A10   A(5,6,7)              118.9652         estimate D2E/DX2                !
 ! A11   A(5,6,12)             121.9657         estimate D2E/DX2                !
 ! A12   A(7,6,12)             119.0681         estimate D2E/DX2                !
 ! A13   A(6,7,8)              119.7179         estimate D2E/DX2                !
 ! A14   A(6,7,9)              119.6495         estimate D2E/DX2                !
 ! A15   A(8,7,9)              120.63           estimate D2E/DX2                !
 ! A16   A(3,8,7)              120.6957         estimate D2E/DX2                !
 ! A17   A(3,8,21)             119.5739         estimate D2E/DX2                !
 ! A18   A(7,8,21)             119.7296         estimate D2E/DX2                !
 ! A19   A(7,9,10)             120.7597         estimate D2E/DX2                !
 ! A20   A(7,9,22)             120.7199         estimate D2E/DX2                !
 ! A21   A(10,9,22)            118.5192         estimate D2E/DX2                !
 ! A22   A(9,10,11)            119.5701         estimate D2E/DX2                !
 ! A23   A(9,10,23)            119.2186         estimate D2E/DX2                !
 ! A24   A(11,10,23)           121.2107         estimate D2E/DX2                !
 ! A25   A(10,11,12)           120.7641         estimate D2E/DX2                !
 ! A26   A(10,11,13)           121.8648         estimate D2E/DX2                !
 ! A27   A(12,11,13)           117.1869         estimate D2E/DX2                !
 ! A28   A(6,12,11)            120.1502         estimate D2E/DX2                !
 ! A29   A(6,12,24)            120.4889         estimate D2E/DX2                !
 ! A30   A(11,12,24)           119.3604         estimate D2E/DX2                !
 ! A31   A(11,13,14)           120.1276         estimate D2E/DX2                !
 ! A32   A(13,14,15)           124.2484         estimate D2E/DX2                !
 ! A33   A(13,14,16)           112.5294         estimate D2E/DX2                !
 ! A34   A(15,14,16)           123.2193         estimate D2E/DX2                !
 ! A35   A(14,16,17)           118.7773         estimate D2E/DX2                !
 ! A36   A(14,16,18)           122.159          estimate D2E/DX2                !
 ! A37   A(17,16,18)           117.3778         estimate D2E/DX2                !
 ! A38   A(16,17,25)           111.7643         estimate D2E/DX2                !
 ! A39   A(16,17,26)           109.2545         estimate D2E/DX2                !
 ! A40   A(16,17,27)           108.6452         estimate D2E/DX2                !
 ! A41   A(25,17,26)           108.5883         estimate D2E/DX2                !
 ! A42   A(25,17,27)           108.8503         estimate D2E/DX2                !
 ! A43   A(26,17,27)           109.7203         estimate D2E/DX2                !
 ! A44   A(16,18,28)           110.9902         estimate D2E/DX2                !
 ! A45   A(16,18,29)           108.6084         estimate D2E/DX2                !
 ! A46   A(16,18,30)           109.6961         estimate D2E/DX2                !
 ! A47   A(28,18,29)           109.2117         estimate D2E/DX2                !
 ! A48   A(28,18,30)           108.4686         estimate D2E/DX2                !
 ! A49   A(29,18,30)           109.8562         estimate D2E/DX2                !
 ! A50   L(1,2,3,8,-1)         179.637          estimate D2E/DX2                !
 ! A51   L(1,2,3,8,-2)         180.3059         estimate D2E/DX2                !
 ! D1    D(2,3,4,5)            179.8289         estimate D2E/DX2                !
 ! D2    D(2,3,4,19)            -0.0517         estimate D2E/DX2                !
 ! D3    D(8,3,4,5)              0.1211         estimate D2E/DX2                !
 ! D4    D(8,3,4,19)          -179.7595         estimate D2E/DX2                !
 ! D5    D(2,3,8,7)           -179.4114         estimate D2E/DX2                !
 ! D6    D(2,3,8,21)             0.2647         estimate D2E/DX2                !
 ! D7    D(4,3,8,7)              0.2977         estimate D2E/DX2                !
 ! D8    D(4,3,8,21)           179.9738         estimate D2E/DX2                !
 ! D9    D(3,4,5,6)             -0.2664         estimate D2E/DX2                !
 ! D10   D(3,4,5,20)          -179.9445         estimate D2E/DX2                !
 ! D11   D(19,4,5,6)           179.6153         estimate D2E/DX2                !
 ! D12   D(19,4,5,20)           -0.0628         estimate D2E/DX2                !
 ! D13   D(4,5,6,7)             -0.005          estimate D2E/DX2                !
 ! D14   D(4,5,6,12)          -179.6522         estimate D2E/DX2                !
 ! D15   D(20,5,6,7)           179.6681         estimate D2E/DX2                !
 ! D16   D(20,5,6,12)            0.0209         estimate D2E/DX2                !
 ! D17   D(5,6,7,8)              0.418          estimate D2E/DX2                !
 ! D18   D(5,6,7,9)           -179.0014         estimate D2E/DX2                !
 ! D19   D(12,6,7,8)          -179.9244         estimate D2E/DX2                !
 ! D20   D(12,6,7,9)             0.6561         estimate D2E/DX2                !
 ! D21   D(5,6,12,11)          179.6748         estimate D2E/DX2                !
 ! D22   D(5,6,12,24)           -0.0617         estimate D2E/DX2                !
 ! D23   D(7,6,12,11)            0.0279         estimate D2E/DX2                !
 ! D24   D(7,6,12,24)         -179.7086         estimate D2E/DX2                !
 ! D25   D(6,7,8,3)             -0.5685         estimate D2E/DX2                !
 ! D26   D(6,7,8,21)           179.7559         estimate D2E/DX2                !
 ! D27   D(9,7,8,3)            178.8451         estimate D2E/DX2                !
 ! D28   D(9,7,8,21)            -0.8304         estimate D2E/DX2                !
 ! D29   D(6,7,9,10)             0.1824         estimate D2E/DX2                !
 ! D30   D(6,7,9,22)           179.7794         estimate D2E/DX2                !
 ! D31   D(8,7,9,10)          -179.2316         estimate D2E/DX2                !
 ! D32   D(8,7,9,22)             0.3653         estimate D2E/DX2                !
 ! D33   D(7,9,10,11)           -1.7074         estimate D2E/DX2                !
 ! D34   D(7,9,10,23)          178.5729         estimate D2E/DX2                !
 ! D35   D(22,9,10,11)         178.6869         estimate D2E/DX2                !
 ! D36   D(22,9,10,23)          -1.0328         estimate D2E/DX2                !
 ! D37   D(9,10,11,12)           2.4072         estimate D2E/DX2                !
 ! D38   D(9,10,11,13)         177.3364         estimate D2E/DX2                !
 ! D39   D(23,10,11,12)       -177.8788         estimate D2E/DX2                !
 ! D40   D(23,10,11,13)         -2.9497         estimate D2E/DX2                !
 ! D41   D(10,11,12,6)          -1.5721         estimate D2E/DX2                !
 ! D42   D(10,11,12,24)        178.1673         estimate D2E/DX2                !
 ! D43   D(13,11,12,6)        -176.7311         estimate D2E/DX2                !
 ! D44   D(13,11,12,24)          3.0083         estimate D2E/DX2                !
 ! D45   D(10,11,13,14)         40.9073         estimate D2E/DX2                !
 ! D46   D(12,11,13,14)       -143.9908         estimate D2E/DX2                !
 ! D47   D(11,13,14,15)          8.7136         estimate D2E/DX2                !
 ! D48   D(11,13,14,16)       -171.8861         estimate D2E/DX2                !
 ! D49   D(13,14,16,17)       -170.5228         estimate D2E/DX2                !
 ! D50   D(13,14,16,18)         -5.7133         estimate D2E/DX2                !
 ! D51   D(15,14,16,17)          8.8846         estimate D2E/DX2                !
 ! D52   D(15,14,16,18)        173.6941         estimate D2E/DX2                !
 ! D53   D(14,16,17,25)        -21.2269         estimate D2E/DX2                !
 ! D54   D(14,16,17,26)       -141.4275         estimate D2E/DX2                !
 ! D55   D(14,16,17,27)         98.8975         estimate D2E/DX2                !
 ! D56   D(18,16,17,25)        173.2392         estimate D2E/DX2                !
 ! D57   D(18,16,17,26)         53.0385         estimate D2E/DX2                !
 ! D58   D(18,16,17,27)        -66.6365         estimate D2E/DX2                !
 ! D59   D(14,16,18,28)         36.717          estimate D2E/DX2                !
 ! D60   D(14,16,18,29)        -83.3538         estimate D2E/DX2                !
 ! D61   D(14,16,18,30)        156.5668         estimate D2E/DX2                !
 ! D62   D(17,16,18,28)       -158.2721         estimate D2E/DX2                !
 ! D63   D(17,16,18,29)         81.6571         estimate D2E/DX2                !
 ! D64   D(17,16,18,30)        -38.4223         estimate D2E/DX2                !
 --------------------------------------------------------------------------------
 Trust Radius=3.00D-01 FncErr=1.00D-07 GrdErr=1.00D-06
 Number of steps in this run= 156 maximum allowed number of steps= 180.
 GradGradGradGradGradGradGradGradGradGradGradGradGradGradGradGradGradGrad

 Leave Link  103 at Thu Sep 30 03:53:47 2021, MaxMem= 1342177280 cpu:       0.0
 (Enter /sw/target/amd/app/gaussian/Gaussian09RevA.02_gcc-4.9.2/g09/l202.exe)
                          Input orientation:                          
 ---------------------------------------------------------------------
 Center     Atomic      Atomic             Coordinates (Angstroms)
 Number     Number       Type             X           Y           Z
 ---------------------------------------------------------------------
      1          7           0       -4.887978    0.067675    0.384465
      2          6           0       -3.732315   -0.050350    0.408605
      3          6           0       -2.306109   -0.187382    0.433548
      4          6           0       -1.720583   -1.447815    0.576584
      5          6           0       -0.327695   -1.576440    0.596734
      6          6           0        0.500384   -0.447775    0.468633
      7          6           0       -0.096839    0.827492    0.318062
      8          6           0       -1.495022    0.943946    0.308151
      9          6           0        0.715447    1.960457    0.168021
     10          6           0        2.103131    1.846000    0.161532
     11          6           0        2.690067    0.597052    0.341436
     12          6           0        1.903728   -0.548569    0.478293
     13          8           0        4.086990    0.416780    0.288521
     14          6           0        4.939089    1.354981    0.881157
     15          8           0        4.560005    2.277862    1.595578
     16          7           0        6.276794    1.122270    0.583567
     17          6           0        7.291328    1.880782    1.289751
     18          6           0        6.711581   -0.050178   -0.151714
     19          1           0       -2.342227   -2.336499    0.671155
     20          1           0        0.106552   -2.568386    0.708262
     21          1           0       -1.954595    1.925251    0.196346
     22          1           0        0.275109    2.948024    0.047522
     23          1           0        2.707707    2.736651    0.020306
     24          1           0        2.386583   -1.516704    0.587753
     25          1           0        6.886406    2.805257    1.711423
     26          1           0        8.097532    2.137557    0.596507
     27          1           0        7.685881    1.264729    2.102680
     28          1           0        5.989460   -0.315312   -0.928578
     29          1           0        6.809635   -0.884513    0.548267
     30          1           0        7.675467    0.150099   -0.628397
 ---------------------------------------------------------------------
                    Distance matrix (angstroms):
                    1          2          3          4          5
     1  N    0.000000
     2  C    1.161924   0.000000
     3  C    2.594901   1.432991   0.000000
     4  C    3.516534   2.455238   1.397137   0.000000
     5  C    4.852252   3.735743   2.422856   1.398959   0.000000
     6  C    5.413613   4.251739   2.818765   2.438119   1.405706
     7  C    4.851468   3.741055   2.433964   2.807205   2.431016
     8  C    3.505113   2.450345   1.397673   2.417324   2.792539
     9  C    5.918433   4.887107   3.716655   4.209214   3.712355
    10  C    7.217183   6.140815   4.863130   5.063820   4.220357
    11  C    7.596635   6.455280   5.058221   4.867300   3.727752
    12  C    6.820251   5.658450   4.225539   3.735496   2.459633
    13  O    8.982267   7.834166   6.423220   6.106357   4.853593
    14  C    9.923462   8.797244   7.421060   7.231850   6.034330
    15  O    9.778348   8.694369   7.387237   7.373249   6.304201
    16  N   11.216235  10.079083   8.683543   8.400203   7.134598
    17  C   12.346756  11.226148   9.855008   9.633416   8.395366
    18  C   11.612542  10.458916   9.037704   8.578181   7.241620
    19  H    3.513274   2.688449   2.162514   1.088644   2.154429
    20  H    5.656765   4.600783   3.400820   2.147426   1.088562
    21  H    3.477170   2.666147   2.154772   3.402486   3.881874
    22  H    5.921774   5.017975   4.079519   4.856551   4.597366
    23  H    8.059186   7.027947   5.818857   6.117921   5.305534
    24  H    7.447873   6.294696   4.879778   4.107759   2.714951
    25  H   12.161056  11.072898   9.751471   9.667303   8.513816
    26  H   13.151154  12.031938  10.661503  10.452305   9.207510
    27  H   12.747044  11.617854  10.233987   9.907998   8.634670
    28  H   10.963093   9.816882   8.407629   7.936803   6.619930
    29  H   11.737446  10.575824   9.143082   8.548844   7.170956
    30  H   12.604476  11.456572  10.043579   9.606823   8.278435
                    6          7          8          9         10
     6  C    0.000000
     7  C    1.416211   0.000000
     8  C    2.438091   1.403060   0.000000
     9  C    2.436432   1.402117   2.437029   0.000000
    10  C    2.815051   2.429347   3.712399   1.392410   0.000000
    11  C    2.429518   2.796515   4.199574   2.405841   1.391665
    12  C    1.406992   2.433410   3.715918   2.793473   2.423646
    13  O    3.693730   4.204044   5.606884   3.710089   2.448366
    14  C    4.808556   5.094692   6.472640   4.326004   2.966752
    15  O    5.017931   5.042005   6.332469   4.113306   2.877364
    16  N    5.987083   6.385968   7.778739   5.639487   4.256919
    17  C    7.225880   7.525863   8.890510   6.671344   5.309565
    18  C    6.254750   6.880813   8.279378   6.332338   4.993139
    19  H    3.418878   3.895803   3.407469   5.297769   6.124885
    20  H    2.170142   3.424268   3.880928   4.601417   4.875659
    21  H    3.425246   2.161283   1.089342   2.670425   4.058649
    22  H    3.429218   2.169837   2.686563   1.087983   2.137549
    23  H    3.900493   3.405735   4.578164   2.143221   1.085687
    24  H    2.171301   3.425693   4.604328   3.880659   3.401439
    25  H    7.273791   7.390448   8.699540   6.416892   5.118795
    26  H    8.026018   8.303103   9.670831   7.396631   6.017230
    27  H    7.565326   7.996672   9.360140   7.267316   5.939110
    28  H    5.665661   6.316894   7.689780   5.847809   4.578556
    29  H    6.324851   7.119224   8.506954   6.736288   5.454948
    30  H    7.283045   7.858968   9.252307   7.235575   5.878010
                   11         12         13         14         15
    11  C    0.000000
    12  C    1.396248   0.000000
    13  O    1.409500   2.394691   0.000000
    14  C    2.433896   3.605443   1.399111   0.000000
    15  O    2.809744   4.036440   2.322879   1.227115   0.000000
    16  N    3.633055   4.682573   2.319484   1.390025   2.303676
    17  C    4.870202   5.965438   3.662451   2.444677   2.776928
    18  C    4.103008   4.874501   2.701913   2.486569   3.619679
    19  H    5.834246   4.611076   7.004412   8.166314   8.353903
    20  H    4.102331   2.713373   4.993124   6.227047   6.641287
    21  H    4.833017   4.591942   6.227739   6.951046   6.672496
    22  H    3.383117   3.881253   4.582108   4.998544   4.604990
    23  H    2.163636   3.413035   2.712225   2.762090   2.474465
    24  H    2.149590   1.087390   2.592158   3.853303   4.487561
    25  H    4.935817   6.131545   3.945403   2.566064   2.388244
    26  H    5.628401   6.752219   4.374972   3.266377   3.678577
    27  H    5.339094   6.273753   4.118520   3.007512   3.324859
    28  H    3.651210   4.327460   2.374170   2.677368   3.890920
    29  H    4.382768   4.917895   3.028800   2.936851   4.019740
    30  H    5.098485   5.918266   3.713357   3.349367   4.379445
                   16         17         18         19         20
    16  N    0.000000
    17  C    1.450282   0.000000
    18  C    1.450625   2.478413   0.000000
    19  H    9.287533  10.534396   9.374211   0.000000
    20  H    7.190854   8.470788   7.120909   2.460013   0.000000
    21  H    8.279521   9.310457   8.895284   4.305603   4.970227
    22  H    6.296105   7.204823   7.103315   5.930055   5.558397
    23  H    3.957508   4.832555   4.881292   7.187649   5.948338
    24  H    4.700844   6.007681   4.626351   4.800069   2.513782
    25  H    2.115687   1.093811   3.413993  10.615436   8.709122
    26  H    2.084722   1.093840   2.695715  11.358315   9.274382
    27  H    2.076902   1.093639   2.785773  10.750863   8.607172
    28  H    2.106131   3.382111   1.093285   8.721316   6.508779
    29  H    2.076618   2.903219   1.093482   9.267144   6.913202
    30  H    2.090516   2.611918   1.093807  10.403182   8.152625
                   21         22         23         24         25
    21  H    0.000000
    22  H    2.457599   0.000000
    23  H    4.735654   2.441916   0.000000
    24  H    5.553924   4.968296   4.303039   0.000000
    25  H    9.012944   6.818959   4.508448   6.339589   0.000000
    26  H   10.062329   7.883435   5.453544   6.780018   1.776425
    27  H    9.849323   7.872528   5.593304   6.173648   1.779176
    28  H    8.330281   6.652514   4.580913   4.089416   4.184742
    29  H    9.210339   7.592043   5.497034   4.468178   3.869525
    30  H    9.826976   7.940438   5.638236   5.677107   3.625911
                   26         27         28         29         30
    26  H    0.000000
    27  H    1.788810   0.000000
    28  H    3.575810   3.816137   0.000000
    29  H    3.285409   2.793429   1.782624   0.000000
    30  H    2.372449   2.949794   1.774637   1.790147   0.000000
 Stoichiometry    C14H12N2O2
 Framework group  C1[X(C14H12N2O2)]
 Deg. of freedom    84
 Full point group                 C1      NOp   1
 Largest Abelian subgroup         C1      NOp   1
 Largest concise Abelian subgroup C1      NOp   1
                         Standard orientation:                         
 ---------------------------------------------------------------------
 Center     Atomic      Atomic             Coordinates (Angstroms)
 Number     Number       Type             X           Y           Z
 ---------------------------------------------------------------------
      1          7           0        6.675179   -0.588036    0.041228
      2          6           0        5.551721   -0.291894    0.055681
      3          6           0        4.164087    0.065583    0.067808
      4          6           0        3.776741    1.382341    0.328773
      5          6           0        2.420863    1.726767    0.335894
      6          6           0        1.432546    0.761311    0.076797
      7          6           0        1.829397   -0.571126   -0.192969
      8          6           0        3.192038   -0.905441   -0.188555
      9          6           0        0.856765   -1.541137   -0.474031
     10          6           0       -0.495251   -1.208825   -0.494764
     11          6           0       -0.887052    0.093234   -0.198341
     12          6           0        0.062387    1.081079    0.070425
     13          8           0       -2.236359    0.496251   -0.258645
     14          6           0       -3.243834   -0.349404    0.218190
     15          8           0       -3.037655   -1.386521    0.840837
     16          7           0       -4.518045    0.119924   -0.078938
     17          6           0       -5.661931   -0.534732    0.526263
     18          6           0       -4.739749    1.413098   -0.697695
     19          1           0        4.525159    2.147937    0.525953
     20          1           0        2.142280    2.758948    0.540737
     21          1           0        3.497286   -1.931140   -0.392101
     22          1           0        1.142353   -2.569092   -0.687231
     23          1           0       -1.225504   -1.974445   -0.738223
     24          1           0       -0.267811    2.097749    0.269847
     25          1           0       -5.420329   -1.548607    0.858088
     26          1           0       -6.473674   -0.591242   -0.204741
     27          1           0       -5.984028    0.052647    1.390719
     28          1           0       -3.958700    1.636179   -1.429453
     29          1           0       -4.731314    2.179246    0.082465
     30          1           0       -5.705910    1.415636   -1.210472
 ---------------------------------------------------------------------
 Rotational constants (GHZ):      1.7264352      0.1577669      0.1479556
 Leave Link  202 at Thu Sep 30 03:53:47 2021, MaxMem= 1342177280 cpu:       0.1
 (Enter /sw/target/amd/app/gaussian/Gaussian09RevA.02_gcc-4.9.2/g09/l301.exe)
 Standard basis: 6-31G(d) (6D, 7F)
 Ernie: Thresh=  0.10000D-02 Tol=  0.10000D-05 Strict=F.
 There are   294 symmetry adapted basis functions of A   symmetry.
 Integral buffers will be    131072 words long.
 Raffenetti 2 integral format.
 Two-electron integral symmetry is turned on.
   294 basis functions,   552 primitive gaussians,   294 cartesian basis functions
    63 alpha electrons       63 beta electrons
       nuclear repulsion energy      1166.2880518495 Hartrees.
 IExCor=  402 DFT=T Ex+Corr=B3LYP ExCW=0 ScaHFX=  0.200000
 ScaDFX=  0.800000  0.720000  1.000000  0.810000 ScalE2=  1.000000  1.000000
 IRadAn=      0 IRanWt=     -1 IRanGd=            0 ICorTp=0
 NAtoms=   30 NActive=   30 NUniq=   30 SFac= 7.50D-01 NAtFMM=   80 NAOKFM=F Big=F
 Leave Link  301 at Thu Sep 30 03:53:48 2021, MaxMem= 1342177280 cpu:       0.1
 (Enter /sw/target/amd/app/gaussian/Gaussian09RevA.02_gcc-4.9.2/g09/l302.exe)
 NPDir=0 NMtPBC=     1 NCelOv=     1 NCel=       1 NClECP=     1 NCelD=      1
         NCelK=      1 NCelE2=     1 NClLst=     1 CellRange=     0.0.
 One-electron integrals computed using PRISM.
 NBasis=   294 RedAO= T  NBF=   294
 NBsUse=   294 1.00D-06 NBFU=   294
 Precomputing XC quadrature grid using
 IXCGrd= 2 IRadAn=           0 IRanWt=          -1 IRanGd=           0 AccXCQ= 1.00D-10.
 NRdTot=    1912 NPtTot=      244012 NUsed=      257799 NTot=      257831
 NSgBfM=   288   288   288   288   288 NAtAll=    30    30.
 Leave Link  302 at Thu Sep 30 03:53:52 2021, MaxMem= 1342177280 cpu:       2.7
 (Enter /sw/target/amd/app/gaussian/Gaussian09RevA.02_gcc-4.9.2/g09/l303.exe)
 DipDrv:  MaxL=1.
 Leave Link  303 at Thu Sep 30 03:53:52 2021, MaxMem= 1342177280 cpu:       0.2
 (Enter /sw/target/amd/app/gaussian/Gaussian09RevA.02_gcc-4.9.2/g09/l401.exe)
 Harris functional with IExCor=  402 diagonalized for initial guess.
 ExpMin= 1.61D-01 ExpMax= 5.48D+03 ExpMxC= 8.25D+02 IAcc=1 IRadAn=         1 AccDes= 0.00D+00
 HarFok:  IExCor=  402 AccDes= 0.00D+00 IRadAn=         1 IDoV= 1
 ScaDFX=  1.000000  1.000000  1.000000  1.000000
 FoFCou: FMM=F IPFlag=           0 FMFlag=      100000 FMFlg1=           0
         NFxFlg=           0 DoJE=T BraDBF=F KetDBF=T FulRan=T
         Omega=  0.000000  0.000000  1.000000  0.000000  0.000000 ICntrl=     500 IOpCl=  0
         NMat0=    1 NMatS0=    1 NMatT0=    0 NMatD0=    1 NMtDS0=    0 NMtDT0=    0
         I1Cent=           4 NGrid=           0.
 Petite list used in FoFCou.
 Harris En= -800.765376665509    
 Initial guess orbital symmetries:
       Occupied  (A) (A) (A) (A) (A) (A) (A) (A) (A) (A) (A) (A)
                 (A) (A) (A) (A) (A) (A) (A) (A) (A) (A) (A) (A)
                 (A) (A) (A) (A) (A) (A) (A) (A) (A) (A) (A) (A)
                 (A) (A) (A) (A) (A) (A) (A) (A) (A) (A) (A) (A)
                 (A) (A) (A) (A) (A) (A) (A) (A) (A) (A) (A) (A)
                 (A) (A) (A)
       Virtual   (A) (A) (A) (A) (A) (A) (A) (A) (A) (A) (A) (A)
                 (A) (A) (A) (A) (A) (A) (A) (A) (A) (A) (A) (A)
                 (A) (A) (A) (A) (A) (A) (A) (A) (A) (A) (A) (A)
                 (A) (A) (A) (A) (A) (A) (A) (A) (A) (A) (A) (A)
                 (A) (A) (A) (A) (A) (A) (A) (A) (A) (A) (A) (A)
                 (A) (A) (A) (A) (A) (A) (A) (A) (A) (A) (A) (A)
                 (A) (A) (A) (A) (A) (A) (A) (A) (A) (A) (A) (A)
                 (A) (A) (A) (A) (A) (A) (A) (A) (A) (A) (A) (A)
                 (A) (A) (A) (A) (A) (A) (A) (A) (A) (A) (A) (A)
                 (A) (A) (A) (A) (A) (A) (A) (A) (A) (A) (A) (A)
                 (A) (A) (A) (A) (A) (A) (A) (A) (A) (A) (A) (A)
                 (A) (A) (A) (A) (A) (A) (A) (A) (A) (A) (A) (A)
                 (A) (A) (A) (A) (A) (A) (A) (A) (A) (A) (A) (A)
                 (A) (A) (A) (A) (A) (A) (A) (A) (A) (A) (A) (A)
                 (A) (A) (A) (A) (A) (A) (A) (A) (A) (A) (A) (A)
                 (A) (A) (A) (A) (A) (A) (A) (A) (A) (A) (A) (A)
                 (A) (A) (A) (A) (A) (A) (A) (A) (A) (A) (A) (A)
                 (A) (A) (A) (A) (A) (A) (A) (A) (A) (A) (A) (A)
                 (A) (A) (A) (A) (A) (A) (A) (A) (A) (A) (A) (A)
                 (A) (A) (A)
 The electronic state of the initial guess is 1-A.
 Leave Link  401 at Thu Sep 30 03:54:05 2021, MaxMem= 1342177280 cpu:      11.2
 (Enter /sw/target/amd/app/gaussian/Gaussian09RevA.02_gcc-4.9.2/g09/l502.exe)
 Closed shell SCF:
 Requested convergence on RMS density matrix=1.00D-08 within  64 cycles.
 Requested convergence on MAX density matrix=1.00D-06.
 Requested convergence on             energy=1.00D-06.
 No special actions if energy rises.
 Using DIIS extrapolation, IDIIS=  1040.
 Integral symmetry usage will be decided dynamically.
       257516 words used for storage of precomputed grid.
 Keep R1 ints in memory in canonical form, NReq=953645689.
 IEnd=      526340 IEndB=      526340 NGot=  1342177280 MDV=   401458572
 LenX=   401458572 LenY=   401371695
 Symmetry not used in FoFDir.
 MinBra= 0 MaxBra= 2 Meth= 1.
 IRaf=       0 NMat=   1 IRICut=       1 DoRegI=T DoRafI=F ISym2E= 0 JSym2E=0.
 Integral accuracy reduced to 1.0D-05 until final iterations.

 Cycle   1  Pass 0  IDiag  1:
 E= -800.260554926949    
 DIIS: error= 2.69D-02 at cycle   1 NSaved=   1.
 NSaved= 1 IEnMin= 1 EnMin= -800.260554926949     IErMin= 1 ErrMin= 2.69D-02
 ErrMax= 2.69D-02 EMaxC= 1.00D-01 BMatC= 4.34D-01 BMatP= 4.34D-01
 IDIUse=3 WtCom= 7.31D-01 WtEn= 2.69D-01
 Coeff-Com:  0.100D+01
 Coeff-En:   0.100D+01
 Coeff:      0.100D+01
 Gap=     0.179 Goal=   None    Shift=    0.000
 GapD=    0.179 DampG=1.000 DampE=0.500 DampFc=0.5000 IDamp=-1.
 Damping current iteration by 5.00D-01
 RMSDP=5.51D-03 MaxDP=2.52D-01              OVMax= 2.41D-01

 Cycle   2  Pass 0  IDiag  1:
 E= -800.381698294355     Delta-E=       -0.121143367406 Rises=F Damp=T
 DIIS: error= 1.03D-02 at cycle   2 NSaved=   2.
 NSaved= 2 IEnMin= 2 EnMin= -800.381698294355     IErMin= 2 ErrMin= 1.03D-02
 ErrMax= 1.03D-02 EMaxC= 1.00D-01 BMatC= 7.79D-02 BMatP= 4.34D-01
 IDIUse=3 WtCom= 8.97D-01 WtEn= 1.03D-01
 Coeff-Com:  0.217D+00 0.783D+00
 Coeff-En:   0.318D+00 0.682D+00
 Coeff:      0.227D+00 0.773D+00
 Gap=     0.185 Goal=   None    Shift=    0.000
 RMSDP=2.04D-03 MaxDP=6.48D-02 DE=-1.21D-01 OVMax= 1.78D-01

 Cycle   3  Pass 0  IDiag  1:
 E= -800.599232068419     Delta-E=       -0.217533774063 Rises=F Damp=F
 DIIS: error= 1.33D-02 at cycle   3 NSaved=   3.
 NSaved= 3 IEnMin= 3 EnMin= -800.599232068419     IErMin= 2 ErrMin= 1.03D-02
 ErrMax= 1.33D-02 EMaxC= 1.00D-01 BMatC= 8.60D-02 BMatP= 7.79D-02
 IDIUse=2 WtCom= 0.00D+00 WtEn= 1.00D+00
 Coeff-En:   0.000D+00 0.000D+00 0.100D+01
 Coeff:      0.000D+00 0.000D+00 0.100D+01
 Gap=     0.163 Goal=   None    Shift=    0.000
 RMSDP=2.99D-03 MaxDP=1.36D-01 DE=-2.18D-01 OVMax= 2.39D-01

 Cycle   4  Pass 0  IDiag  1:
 E= -800.235912752592     Delta-E=        0.363319315826 Rises=F Damp=F
 DIIS: error= 3.05D-02 at cycle   4 NSaved=   4.
 NSaved= 4 IEnMin= 3 EnMin= -800.599232068419     IErMin= 2 ErrMin= 1.03D-02
 ErrMax= 3.05D-02 EMaxC= 1.00D-01 BMatC= 5.26D-01 BMatP= 7.79D-02
 IDIUse=2 WtCom= 0.00D+00 WtEn= 1.00D+00
 Coeff-En:   0.000D+00 0.000D+00 0.799D+00 0.201D+00
 Coeff:      0.000D+00 0.000D+00 0.799D+00 0.201D+00
 Gap=     0.185 Goal=   None    Shift=    0.000
 RMSDP=1.63D-03 MaxDP=7.27D-02 DE= 3.63D-01 OVMax= 1.23D-01

 Cycle   5  Pass 0  IDiag  1:
 E= -800.643465777228     Delta-E=       -0.407553024636 Rises=F Damp=F
 DIIS: error= 8.50D-03 at cycle   5 NSaved=   5.
 NSaved= 5 IEnMin= 5 EnMin= -800.643465777228     IErMin= 5 ErrMin= 8.50D-03
 ErrMax= 8.50D-03 EMaxC= 1.00D-01 BMatC= 3.71D-02 BMatP= 7.79D-02
 IDIUse=3 WtCom= 9.15D-01 WtEn= 8.50D-02
 Coeff-Com: -0.406D-02 0.450D-01 0.318D+00-0.797D-01 0.721D+00
 Coeff-En:   0.000D+00 0.000D+00 0.339D+00 0.000D+00 0.661D+00
 Coeff:     -0.371D-02 0.412D-01 0.320D+00-0.729D-01 0.716D+00
 Gap=     0.159 Goal=   None    Shift=    0.000
 RMSDP=5.92D-04 MaxDP=2.38D-02 DE=-4.08D-01 OVMax= 3.54D-02

 Cycle   6  Pass 0  IDiag  1:
 E= -800.674631810101     Delta-E=       -0.031166032873 Rises=F Damp=F
 DIIS: error= 7.73D-04 at cycle   6 NSaved=   6.
 NSaved= 6 IEnMin= 6 EnMin= -800.674631810101     IErMin= 6 ErrMin= 7.73D-04
 ErrMax= 7.73D-04 EMaxC= 1.00D-01 BMatC= 3.33D-04 BMatP= 3.71D-02
 IDIUse=3 WtCom= 9.92D-01 WtEn= 7.73D-03
 Coeff-Com: -0.700D-02 0.251D-01 0.161D+00-0.678D-01 0.468D+00 0.421D+00
 Coeff-En:   0.000D+00 0.000D+00 0.000D+00 0.000D+00 0.000D+00 0.100D+01
 Coeff:     -0.694D-02 0.249D-01 0.159D+00-0.673D-01 0.464D+00 0.426D+00
 Gap=     0.159 Goal=   None    Shift=    0.000
 RMSDP=7.07D-05 MaxDP=2.96D-03 DE=-3.12D-02 OVMax= 6.51D-03

 Cycle   7  Pass 0  IDiag  1:
 E= -800.674950209486     Delta-E=       -0.000318399385 Rises=F Damp=F
 DIIS: error= 1.33D-04 at cycle   7 NSaved=   7.
 NSaved= 7 IEnMin= 7 EnMin= -800.674950209486     IErMin= 7 ErrMin= 1.33D-04
 ErrMax= 1.33D-04 EMaxC= 1.00D-01 BMatC= 1.02D-05 BMatP= 3.33D-04
 IDIUse=3 WtCom= 9.99D-01 WtEn= 1.33D-03
 Coeff-Com: -0.136D-02 0.310D-02 0.342D-01-0.163D-01 0.104D+00 0.168D+00
 Coeff-Com:  0.708D+00
 Coeff-En:   0.000D+00 0.000D+00 0.000D+00 0.000D+00 0.000D+00 0.000D+00
 Coeff-En:   0.100D+01
 Coeff:     -0.135D-02 0.310D-02 0.341D-01-0.163D-01 0.104D+00 0.168D+00
 Coeff:      0.709D+00
 Gap=     0.159 Goal=   None    Shift=    0.000
 RMSDP=1.27D-05 MaxDP=4.37D-04 DE=-3.18D-04 OVMax= 7.39D-04

 Cycle   8  Pass 0  IDiag  1:
 E= -800.674958305555     Delta-E=       -0.000008096069 Rises=F Damp=F
 DIIS: error= 6.65D-05 at cycle   8 NSaved=   8.
 NSaved= 8 IEnMin= 8 EnMin= -800.674958305555     IErMin= 8 ErrMin= 6.65D-05
 ErrMax= 6.65D-05 EMaxC= 1.00D-01 BMatC= 1.92D-06 BMatP= 1.02D-05
 IDIUse=1 WtCom= 1.00D+00 WtEn= 0.00D+00
 Coeff-Com: -0.305D-03 0.184D-03 0.144D-01-0.603D-02 0.403D-01 0.868D-01
 Coeff-Com:  0.459D+00 0.406D+00
 Coeff:     -0.305D-03 0.184D-03 0.144D-01-0.603D-02 0.403D-01 0.868D-01
 Coeff:      0.459D+00 0.406D+00
 Gap=     0.159 Goal=   None    Shift=    0.000
 RMSDP=4.97D-06 MaxDP=1.88D-04 DE=-8.10D-06 OVMax= 3.49D-04

 Initial convergence to 1.0D-05 achieved.  Increase integral accuracy.
 Cycle   9  Pass 1  IDiag  1:
 E= -800.674937510404     Delta-E=        0.000020795152 Rises=F Damp=F
 DIIS: error= 2.68D-05 at cycle   1 NSaved=   1.
 NSaved= 1 IEnMin= 1 EnMin= -800.674937510404     IErMin= 1 ErrMin= 2.68D-05
 ErrMax= 2.68D-05 EMaxC= 1.00D-01 BMatC= 2.75D-07 BMatP= 2.75D-07
 IDIUse=1 WtCom= 1.00D+00 WtEn= 0.00D+00
 Coeff-Com:  0.100D+01
 Coeff:      0.100D+01
 Gap=     0.159 Goal=   None    Shift=    0.000
 RMSDP=4.97D-06 MaxDP=1.88D-04 DE= 2.08D-05 OVMax= 4.29D-04

 Cycle  10  Pass 1  IDiag  1:
 E= -800.674936820493     Delta-E=        0.000000689910 Rises=F Damp=F
 DIIS: error= 7.36D-05 at cycle   2 NSaved=   2.
 NSaved= 2 IEnMin= 1 EnMin= -800.674937510404     IErMin= 1 ErrMin= 2.68D-05
 ErrMax= 7.36D-05 EMaxC= 1.00D-01 BMatC= 1.12D-06 BMatP= 2.75D-07
 IDIUse=1 WtCom= 1.00D+00 WtEn= 0.00D+00
 Coeff-Com:  0.688D+00 0.312D+00
 Coeff:      0.688D+00 0.312D+00
 Gap=     0.159 Goal=   None    Shift=    0.000
 RMSDP=3.69D-06 MaxDP=2.37D-04 DE= 6.90D-07 OVMax= 3.72D-04

 Cycle  11  Pass 1  IDiag  1:
 E= -800.674937783894     Delta-E=       -0.000000963400 Rises=F Damp=F
 DIIS: error= 1.28D-05 at cycle   3 NSaved=   3.
 NSaved= 3 IEnMin= 3 EnMin= -800.674937783894     IErMin= 3 ErrMin= 1.28D-05
 ErrMax= 1.28D-05 EMaxC= 1.00D-01 BMatC= 3.02D-08 BMatP= 2.75D-07
 IDIUse=1 WtCom= 1.00D+00 WtEn= 0.00D+00
 Coeff-Com:  0.855D-01 0.145D+00 0.769D+00
 Coeff:      0.855D-01 0.145D+00 0.769D+00
 Gap=     0.159 Goal=   None    Shift=    0.000
 RMSDP=7.61D-07 MaxDP=3.52D-05 DE=-9.63D-07 OVMax= 6.20D-05

 Cycle  12  Pass 1  IDiag  1:
 E= -800.674937801875     Delta-E=       -0.000000017981 Rises=F Damp=F
 DIIS: error= 4.32D-06 at cycle   4 NSaved=   4.
 NSaved= 4 IEnMin= 4 EnMin= -800.674937801875     IErMin= 4 ErrMin= 4.32D-06
 ErrMax= 4.32D-06 EMaxC= 1.00D-01 BMatC= 1.03D-08 BMatP= 3.02D-08
 IDIUse=1 WtCom= 1.00D+00 WtEn= 0.00D+00
 Coeff-Com: -0.106D-01 0.644D-01 0.500D+00 0.446D+00
 Coeff:     -0.106D-01 0.644D-01 0.500D+00 0.446D+00
 Gap=     0.159 Goal=   None    Shift=    0.000
 RMSDP=3.62D-07 MaxDP=1.53D-05 DE=-1.80D-08 OVMax= 2.94D-05

 Cycle  13  Pass 1  IDiag  1:
 E= -800.674937810733     Delta-E=       -0.000000008858 Rises=F Damp=F
 DIIS: error= 1.05D-06 at cycle   5 NSaved=   5.
 NSaved= 5 IEnMin= 5 EnMin= -800.674937810733     IErMin= 5 ErrMin= 1.05D-06
 ErrMax= 1.05D-06 EMaxC= 1.00D-01 BMatC= 5.86D-10 BMatP= 1.03D-08
 IDIUse=1 WtCom= 1.00D+00 WtEn= 0.00D+00
 Coeff-Com: -0.120D-01 0.307D-01 0.261D+00 0.274D+00 0.446D+00
 Coeff:     -0.120D-01 0.307D-01 0.261D+00 0.274D+00 0.446D+00
 Gap=     0.159 Goal=   None    Shift=    0.000
 RMSDP=9.44D-08 MaxDP=4.01D-06 DE=-8.86D-09 OVMax= 7.89D-06

 Cycle  14  Pass 1  IDiag  1:
 E= -800.674937811280     Delta-E=       -0.000000000546 Rises=F Damp=F
 DIIS: error= 2.33D-07 at cycle   6 NSaved=   6.
 NSaved= 6 IEnMin= 6 EnMin= -800.674937811280     IErMin= 6 ErrMin= 2.33D-07
 ErrMax= 2.33D-07 EMaxC= 1.00D-01 BMatC= 3.60D-11 BMatP= 5.86D-10
 IDIUse=1 WtCom= 1.00D+00 WtEn= 0.00D+00
 Coeff-Com: -0.533D-02 0.106D-01 0.943D-01 0.107D+00 0.252D+00 0.542D+00
 Coeff:     -0.533D-02 0.106D-01 0.943D-01 0.107D+00 0.252D+00 0.542D+00
 Gap=     0.159 Goal=   None    Shift=    0.000
 RMSDP=2.23D-08 MaxDP=1.19D-06 DE=-5.46D-10 OVMax= 1.38D-06

 Cycle  15  Pass 1  IDiag  1:
 E= -800.674937811314     Delta-E=       -0.000000000034 Rises=F Damp=F
 DIIS: error= 5.98D-08 at cycle   7 NSaved=   7.
 NSaved= 7 IEnMin= 7 EnMin= -800.674937811314     IErMin= 7 ErrMin= 5.98D-08
 ErrMax= 5.98D-08 EMaxC= 1.00D-01 BMatC= 2.66D-12 BMatP= 3.60D-11
 IDIUse=1 WtCom= 1.00D+00 WtEn= 0.00D+00
 Coeff-Com: -0.176D-02 0.287D-02 0.266D-01 0.324D-01 0.919D-01 0.276D+00
 Coeff-Com:  0.572D+00
 Coeff:     -0.176D-02 0.287D-02 0.266D-01 0.324D-01 0.919D-01 0.276D+00
 Coeff:      0.572D+00
 Gap=     0.159 Goal=   None    Shift=    0.000
 RMSDP=7.13D-09 MaxDP=3.29D-07 DE=-3.39D-11 OVMax= 4.03D-07

 SCF Done:  E(RB3LYP) =  -800.674937811     A.U. after   15 cycles
             Convg  =    0.7128D-08             -V/T =  2.0095
 KE= 7.931060185366D+02 PE=-4.193575306938D+03 EE= 1.433506298740D+03
 Leave Link  502 at Thu Sep 30 04:05:45 2021, MaxMem= 1342177280 cpu:     334.0
 (Enter /sw/target/amd/app/gaussian/Gaussian09RevA.02_gcc-4.9.2/g09/l508.exe)
 QCSCF skips out because SCF is already converged.
 Leave Link  508 at Thu Sep 30 04:05:48 2021, MaxMem= 1342177280 cpu:       0.0
 (Enter /sw/target/amd/app/gaussian/Gaussian09RevA.02_gcc-4.9.2/g09/l601.exe)
 Copying SCF densities to generalized density rwf, IOpCl= 0 IROHF=0.

 **********************************************************************

            Population analysis using the SCF density.

 **********************************************************************

 Orbital symmetries:
       Occupied  (A) (A) (A) (A) (A) (A) (A) (A) (A) (A) (A) (A)
                 (A) (A) (A) (A) (A) (A) (A) (A) (A) (A) (A) (A)
                 (A) (A) (A) (A) (A) (A) (A) (A) (A) (A) (A) (A)
                 (A) (A) (A) (A) (A) (A) (A) (A) (A) (A) (A) (A)
                 (A) (A) (A) (A) (A) (A) (A) (A) (A) (A) (A) (A)
                 (A) (A) (A)
       Virtual   (A) (A) (A) (A) (A) (A) (A) (A) (A) (A) (A) (A)
                 (A) (A) (A) (A) (A) (A) (A) (A) (A) (A) (A) (A)
                 (A) (A) (A) (A) (A) (A) (A) (A) (A) (A) (A) (A)
                 (A) (A) (A) (A) (A) (A) (A) (A) (A) (A) (A) (A)
                 (A) (A) (A) (A) (A) (A) (A) (A) (A) (A) (A) (A)
                 (A) (A) (A) (A) (A) (A) (A) (A) (A) (A) (A) (A)
                 (A) (A) (A) (A) (A) (A) (A) (A) (A) (A) (A) (A)
                 (A) (A) (A) (A) (A) (A) (A) (A) (A) (A) (A) (A)
                 (A) (A) (A) (A) (A) (A) (A) (A) (A) (A) (A) (A)
                 (A) (A) (A) (A) (A) (A) (A) (A) (A) (A) (A) (A)
                 (A) (A) (A) (A) (A) (A) (A) (A) (A) (A) (A) (A)
                 (A) (A) (A) (A) (A) (A) (A) (A) (A) (A) (A) (A)
                 (A) (A) (A) (A) (A) (A) (A) (A) (A) (A) (A) (A)
                 (A) (A) (A) (A) (A) (A) (A) (A) (A) (A) (A) (A)
                 (A) (A) (A) (A) (A) (A) (A) (A) (A) (A) (A) (A)
                 (A) (A) (A) (A) (A) (A) (A) (A) (A) (A) (A) (A)
                 (A) (A) (A) (A) (A) (A) (A) (A) (A) (A) (A) (A)
                 (A) (A) (A) (A) (A) (A) (A) (A) (A) (A) (A) (A)
                 (A) (A) (A) (A) (A) (A) (A) (A) (A) (A) (A) (A)
                 (A) (A) (A)
 The electronic state is 1-A.
 Alpha  occ. eigenvalues --  -19.21223 -19.12901 -14.38025 -14.33124 -10.34800
 Alpha  occ. eigenvalues --  -10.27245 -10.23636 -10.23076 -10.22651 -10.22453
 Alpha  occ. eigenvalues --  -10.21879 -10.21824 -10.21546 -10.21381 -10.21144
 Alpha  occ. eigenvalues --  -10.21027 -10.20874 -10.20692  -1.10841  -1.02142
 Alpha  occ. eigenvalues --   -0.94853  -0.90675  -0.89286  -0.84510  -0.79633
 Alpha  occ. eigenvalues --   -0.77692  -0.74355  -0.73532  -0.71229  -0.66173
 Alpha  occ. eigenvalues --   -0.64753  -0.62106  -0.59994  -0.55840  -0.54313
 Alpha  occ. eigenvalues --   -0.52364  -0.50146  -0.49465  -0.49013  -0.47828
 Alpha  occ. eigenvalues --   -0.46523  -0.45386  -0.44110  -0.43717  -0.43385
 Alpha  occ. eigenvalues --   -0.42041  -0.41413  -0.41369  -0.41064  -0.40118
 Alpha  occ. eigenvalues --   -0.39162  -0.37903  -0.36989  -0.36135  -0.35294
 Alpha  occ. eigenvalues --   -0.33836  -0.32705  -0.31474  -0.29734  -0.28143
 Alpha  occ. eigenvalues --   -0.25640  -0.25062  -0.22631
 Alpha virt. eigenvalues --   -0.06727  -0.03609   0.00973   0.02863   0.04104
 Alpha virt. eigenvalues --    0.05694   0.07765   0.08439   0.10129   0.10708
 Alpha virt. eigenvalues --    0.11544   0.13115   0.13365   0.14078   0.15330
 Alpha virt. eigenvalues --    0.16211   0.16690   0.17004   0.17376   0.17489
 Alpha virt. eigenvalues --    0.18575   0.19429   0.20119   0.22028   0.23342
 Alpha virt. eigenvalues --    0.26271   0.27117   0.28350   0.30517   0.32478
 Alpha virt. eigenvalues --    0.33895   0.34465   0.36134   0.38650   0.39339
 Alpha virt. eigenvalues --    0.45516   0.46890   0.47522   0.48817   0.49242
 Alpha virt. eigenvalues --    0.49540   0.50704   0.51588   0.51910   0.52844
 Alpha virt. eigenvalues --    0.53030   0.54550   0.55613   0.55839   0.56607
 Alpha virt. eigenvalues --    0.56917   0.57507   0.59050   0.59477   0.59634
 Alpha virt. eigenvalues --    0.59804   0.60815   0.61868   0.62965   0.64571
 Alpha virt. eigenvalues --    0.65037   0.66433   0.67360   0.67462   0.68858
 Alpha virt. eigenvalues --    0.71025   0.71740   0.72368   0.73157   0.77023
 Alpha virt. eigenvalues --    0.77721   0.79153   0.79475   0.80588   0.82020
 Alpha virt. eigenvalues --    0.82283   0.83167   0.83611   0.84190   0.85118
 Alpha virt. eigenvalues --    0.85433   0.86140   0.87180   0.87748   0.87899
 Alpha virt. eigenvalues --    0.88200   0.89609   0.90756   0.92792   0.93718
 Alpha virt. eigenvalues --    0.94847   0.95614   0.97805   0.97960   0.99756
 Alpha virt. eigenvalues --    1.01865   1.02742   1.05366   1.06347   1.07234
 Alpha virt. eigenvalues --    1.11510   1.12558   1.13048   1.15057   1.16132
 Alpha virt. eigenvalues --    1.18488   1.20794   1.21718   1.23683   1.24186
 Alpha virt. eigenvalues --    1.26393   1.31329   1.32652   1.33049   1.35279
 Alpha virt. eigenvalues --    1.36340   1.37173   1.38628   1.39990   1.41556
 Alpha virt. eigenvalues --    1.42033   1.44216   1.45801   1.46539   1.47098
 Alpha virt. eigenvalues --    1.47623   1.48538   1.50167   1.51780   1.54006
 Alpha virt. eigenvalues --    1.56251   1.58765   1.61105   1.66584   1.72033
 Alpha virt. eigenvalues --    1.75526   1.76351   1.76827   1.77394   1.79609
 Alpha virt. eigenvalues --    1.79910   1.81403   1.82062   1.84350   1.85627
 Alpha virt. eigenvalues --    1.88339   1.89030   1.89797   1.90772   1.92645
 Alpha virt. eigenvalues --    1.93023   1.94100   1.95380   1.95777   1.95906
 Alpha virt. eigenvalues --    1.97586   1.97923   1.99363   2.01277   2.01910
 Alpha virt. eigenvalues --    2.03902   2.04930   2.06690   2.07811   2.09330
 Alpha virt. eigenvalues --    2.10413   2.13888   2.14961   2.16779   2.17268
 Alpha virt. eigenvalues --    2.18348   2.19603   2.23923   2.25917   2.27215
 Alpha virt. eigenvalues --    2.29088   2.30932   2.31387   2.32249   2.33757
 Alpha virt. eigenvalues --    2.35028   2.39757   2.40901   2.43411   2.49141
 Alpha virt. eigenvalues --    2.52220   2.53231   2.57468   2.58674   2.59559
 Alpha virt. eigenvalues --    2.62087   2.65084   2.66143   2.67698   2.69048
 Alpha virt. eigenvalues --    2.73011   2.74508   2.78200   2.79606   2.80716
 Alpha virt. eigenvalues --    2.82670   2.83361   2.87681   2.88503   2.93934
 Alpha virt. eigenvalues --    2.98454   3.04530   3.13582   3.18338   3.21444
 Alpha virt. eigenvalues --    3.27745   3.41447   3.49342   3.97695   4.04087
 Alpha virt. eigenvalues --    4.06179   4.07751   4.09183   4.11548   4.13946
 Alpha virt. eigenvalues --    4.16906   4.21587   4.25387   4.27821   4.32238
 Alpha virt. eigenvalues --    4.35590   4.40065   4.47859   4.51968   4.69529
 Alpha virt. eigenvalues --    4.85927
          Condensed to atoms (all electrons):
              1          2          3          4          5          6
     1  N    6.694417   0.882072  -0.097926   0.000326  -0.000083   0.000016
     2  C    0.882072   4.760418   0.201884  -0.042723   0.004644   0.001867
     3  C   -0.097926   0.201884   4.877524   0.499085  -0.010582  -0.027144
     4  C    0.000326  -0.042723   0.499085   4.960556   0.486995  -0.011958
     5  C   -0.000083   0.004644  -0.010582   0.486995   5.141467   0.446327
     6  C    0.000016   0.001867  -0.027144  -0.011958   0.446327   4.674991
     7  C   -0.000124   0.002728   0.001671  -0.045272  -0.019186   0.489204
     8  C   -0.000388  -0.032086   0.489602  -0.029760  -0.082927  -0.036276
     9  C   -0.000001  -0.000397   0.007817  -0.000234   0.016377  -0.025868
    10  C    0.000000   0.000004  -0.000315   0.000053  -0.000701  -0.037999
    11  C   -0.000000  -0.000001   0.000021  -0.000283   0.007249   0.008775
    12  C    0.000000   0.000005  -0.000647   0.008254  -0.092848   0.413664
    13  O   -0.000000  -0.000000  -0.000000   0.000000  -0.000074   0.002222
    14  C   -0.000000  -0.000000  -0.000000   0.000000   0.000001   0.000004
    15  O   -0.000000   0.000000  -0.000000  -0.000000  -0.000000   0.000002
    16  N    0.000000  -0.000000  -0.000000   0.000000  -0.000000   0.000001
    17  C    0.000000  -0.000000   0.000000  -0.000000   0.000000  -0.000000
    18  C   -0.000000  -0.000000  -0.000000   0.000000  -0.000000  -0.000000
    19  H    0.000518  -0.005906  -0.039183   0.359206  -0.034700   0.002557
    20  H   -0.000000  -0.000204   0.003385  -0.039237   0.354483  -0.037984
    21  H    0.000741  -0.005240  -0.042822   0.004932   0.000236   0.004203
    22  H    0.000000  -0.000002   0.000252   0.000009  -0.000192   0.004084
    23  H    0.000000  -0.000000   0.000003  -0.000000   0.000007   0.000631
    24  H    0.000000   0.000000   0.000018   0.000165  -0.008204  -0.039906
    25  H    0.000000  -0.000000   0.000000   0.000000   0.000000  -0.000000
    26  H    0.000000  -0.000000   0.000000   0.000000  -0.000000  -0.000000
    27  H    0.000000   0.000000  -0.000000  -0.000000  -0.000000   0.000000
    28  H    0.000000  -0.000000  -0.000000  -0.000000   0.000000  -0.000001
    29  H    0.000000   0.000000  -0.000000  -0.000000  -0.000000   0.000000
    30  H    0.000000   0.000000   0.000000  -0.000000   0.000000   0.000000
              7          8          9         10         11         12
     1  N   -0.000124  -0.000388  -0.000001   0.000000  -0.000000   0.000000
     2  C    0.002728  -0.032086  -0.000397   0.000004  -0.000001   0.000005
     3  C    0.001671   0.489602   0.007817  -0.000315   0.000021  -0.000647
     4  C   -0.045272  -0.029760  -0.000234   0.000053  -0.000283   0.008254
     5  C   -0.019186  -0.082927   0.016377  -0.000701   0.007249  -0.092848
     6  C    0.489204  -0.036276  -0.025868  -0.037999   0.008775   0.413664
     7  C    4.709416   0.411900   0.436657  -0.006564  -0.034640  -0.036650
     8  C    0.411900   5.210060  -0.091740   0.008795  -0.000783   0.017087
     9  C    0.436657  -0.091740   5.156483   0.462680   0.004969  -0.074914
    10  C   -0.006564   0.008795   0.462680   5.032416   0.464902  -0.054800
    11  C   -0.034640  -0.000783   0.004969   0.464902   4.552049   0.497771
    12  C   -0.036650   0.017087  -0.074914  -0.054800   0.497771   5.279985
    13  O    0.000325   0.000001   0.003705  -0.045240   0.200387  -0.041418
    14  C    0.000015  -0.000000   0.000247  -0.001752  -0.009808  -0.000030
    15  O    0.000007   0.000000  -0.000171   0.000769  -0.000405   0.000078
    16  N    0.000000   0.000000  -0.000002   0.000064   0.002015  -0.000202
    17  C   -0.000000  -0.000000  -0.000000  -0.000002  -0.000018   0.000003
    18  C    0.000000   0.000000  -0.000000   0.000021   0.000250  -0.000016
    19  H    0.000775   0.004668   0.000011  -0.000001   0.000003  -0.000173
    20  H    0.004196   0.000868  -0.000195   0.000012   0.000138  -0.007492
    21  H   -0.040415   0.357708  -0.007373   0.000236   0.000010  -0.000161
    22  H   -0.038962  -0.007789   0.356845  -0.038119   0.003102   0.000652
    23  H    0.002760  -0.000167  -0.032846   0.348989  -0.031604   0.005233
    24  H    0.004712  -0.000156   0.000009   0.006466  -0.038092   0.346313
    25  H   -0.000000  -0.000000   0.000000  -0.000001  -0.000007   0.000000
    26  H   -0.000000  -0.000000   0.000000   0.000000   0.000000  -0.000000
    27  H    0.000000   0.000000  -0.000000  -0.000001   0.000001  -0.000000
    28  H    0.000000  -0.000000   0.000001   0.000002   0.000172  -0.000020
    29  H    0.000000   0.000000  -0.000000  -0.000003   0.000025  -0.000003
    30  H   -0.000000  -0.000000   0.000000   0.000001  -0.000002  -0.000000
             13         14         15         16         17         18
     1  N   -0.000000  -0.000000  -0.000000   0.000000   0.000000  -0.000000
     2  C   -0.000000  -0.000000   0.000000  -0.000000  -0.000000  -0.000000
     3  C   -0.000000  -0.000000  -0.000000  -0.000000   0.000000  -0.000000
     4  C    0.000000   0.000000  -0.000000   0.000000  -0.000000   0.000000
     5  C   -0.000074   0.000001  -0.000000  -0.000000   0.000000  -0.000000
     6  C    0.002222   0.000004   0.000002   0.000001  -0.000000  -0.000000
     7  C    0.000325   0.000015   0.000007   0.000000  -0.000000   0.000000
     8  C    0.000001  -0.000000   0.000000   0.000000  -0.000000   0.000000
     9  C    0.003705   0.000247  -0.000171  -0.000002  -0.000000  -0.000000
    10  C   -0.045240  -0.001752   0.000769   0.000064  -0.000002   0.000021
    11  C    0.200387  -0.009808  -0.000405   0.002015  -0.000018   0.000250
    12  C   -0.041418  -0.000030   0.000078  -0.000202   0.000003  -0.000016
    13  O    8.351876   0.249291  -0.070287  -0.087256   0.002317  -0.001161
    14  C    0.249291   4.166072   0.548823   0.330508  -0.031366  -0.028795
    15  O   -0.070287   0.548823   8.095602  -0.088608  -0.005825   0.002597
    16  N   -0.087256   0.330508  -0.088608   6.942051   0.300403   0.284354
    17  C    0.002317  -0.031366  -0.005825   0.300403   4.967721  -0.052143
    18  C   -0.001161  -0.028795   0.002597   0.284354  -0.052143   4.971969
    19  H   -0.000000   0.000000  -0.000000  -0.000000   0.000000  -0.000000
    20  H   -0.000001   0.000000  -0.000000  -0.000000   0.000000  -0.000000
    21  H    0.000000   0.000000   0.000000   0.000000   0.000000   0.000000
    22  H   -0.000050  -0.000014  -0.000006  -0.000000   0.000000   0.000000
    23  H   -0.006474   0.001944   0.008585  -0.000323   0.000010   0.000000
    24  H   -0.000190   0.000045   0.000013  -0.000024   0.000000   0.000030
    25  H    0.000263  -0.002292   0.015012  -0.028597   0.372941   0.004190
    26  H   -0.000030   0.003711   0.000486  -0.042884   0.376260  -0.004000
    27  H   -0.000006  -0.001816   0.000781  -0.055151   0.382844   0.000996
    28  H    0.008265  -0.004774   0.000094  -0.029384   0.003809   0.377237
    29  H    0.000824  -0.002833   0.000023  -0.054113   0.001277   0.379517
    30  H    0.000317   0.002813  -0.000059  -0.036165  -0.004244   0.373301
             19         20         21         22         23         24
     1  N    0.000518  -0.000000   0.000741   0.000000   0.000000   0.000000
     2  C   -0.005906  -0.000204  -0.005240  -0.000002  -0.000000   0.000000
     3  C   -0.039183   0.003385  -0.042822   0.000252   0.000003   0.000018
     4  C    0.359206  -0.039237   0.004932   0.000009  -0.000000   0.000165
     5  C   -0.034700   0.354483   0.000236  -0.000192   0.000007  -0.008204
     6  C    0.002557  -0.037984   0.004203   0.004084   0.000631  -0.039906
     7  C    0.000775   0.004196  -0.040415  -0.038962   0.002760   0.004712
     8  C    0.004668   0.000868   0.357708  -0.007789  -0.000167  -0.000156
     9  C    0.000011  -0.000195  -0.007373   0.356845  -0.032846   0.000009
    10  C   -0.000001   0.000012   0.000236  -0.038119   0.348989   0.006466
    11  C    0.000003   0.000138   0.000010   0.003102  -0.031604  -0.038092
    12  C   -0.000173  -0.007492  -0.000161   0.000652   0.005233   0.346313
    13  O   -0.000000  -0.000001   0.000000  -0.000050  -0.006474  -0.000190
    14  C    0.000000   0.000000   0.000000  -0.000014   0.001944   0.000045
    15  O   -0.000000  -0.000000   0.000000  -0.000006   0.008585   0.000013
    16  N   -0.000000  -0.000000   0.000000  -0.000000  -0.000323  -0.000024
    17  C    0.000000   0.000000   0.000000   0.000000   0.000010   0.000000
    18  C   -0.000000  -0.000000   0.000000   0.000000   0.000000   0.000030
    19  H    0.560563  -0.004708  -0.000163  -0.000000  -0.000000  -0.000011
    20  H   -0.004708   0.576922   0.000019   0.000002  -0.000000   0.005475
    21  H   -0.000163   0.000019   0.562845   0.005704  -0.000012   0.000002
    22  H   -0.000000   0.000002   0.005704   0.570533  -0.004973   0.000018
    23  H   -0.000000  -0.000000  -0.000012  -0.004973   0.540759  -0.000145
    24  H   -0.000011   0.005475   0.000002   0.000018  -0.000145   0.577908
    25  H    0.000000   0.000000   0.000000   0.000000   0.000011  -0.000000
    26  H   -0.000000  -0.000000  -0.000000  -0.000000   0.000000  -0.000000
    27  H   -0.000000   0.000000  -0.000000   0.000000  -0.000001   0.000000
    28  H    0.000000   0.000000   0.000000   0.000000   0.000007   0.000026
    29  H    0.000000   0.000000  -0.000000   0.000000  -0.000001   0.000012
    30  H   -0.000000   0.000000   0.000000   0.000000   0.000001   0.000000
             25         26         27         28         29         30
     1  N    0.000000   0.000000   0.000000   0.000000   0.000000   0.000000
     2  C   -0.000000  -0.000000   0.000000  -0.000000   0.000000   0.000000
     3  C    0.000000   0.000000  -0.000000  -0.000000  -0.000000   0.000000
     4  C    0.000000   0.000000  -0.000000  -0.000000  -0.000000  -0.000000
     5  C    0.000000  -0.000000  -0.000000   0.000000  -0.000000   0.000000
     6  C   -0.000000  -0.000000   0.000000  -0.000001   0.000000   0.000000
     7  C   -0.000000  -0.000000   0.000000   0.000000   0.000000  -0.000000
     8  C   -0.000000  -0.000000   0.000000  -0.000000   0.000000  -0.000000
     9  C    0.000000   0.000000  -0.000000   0.000001  -0.000000   0.000000
    10  C   -0.000001   0.000000  -0.000001   0.000002  -0.000003   0.000001
    11  C   -0.000007   0.000000   0.000001   0.000172   0.000025  -0.000002
    12  C    0.000000  -0.000000  -0.000000  -0.000020  -0.000003  -0.000000
    13  O    0.000263  -0.000030  -0.000006   0.008265   0.000824   0.000317
    14  C   -0.002292   0.003711  -0.001816  -0.004774  -0.002833   0.002813
    15  O    0.015012   0.000486   0.000781   0.000094   0.000023  -0.000059
    16  N   -0.028597  -0.042884  -0.055151  -0.029384  -0.054113  -0.036165
    17  C    0.372941   0.376260   0.382844   0.003809   0.001277  -0.004244
    18  C    0.004190  -0.004000   0.000996   0.377237   0.379517   0.373301
    19  H    0.000000  -0.000000  -0.000000   0.000000   0.000000  -0.000000
    20  H    0.000000  -0.000000   0.000000   0.000000   0.000000   0.000000
    21  H    0.000000  -0.000000  -0.000000   0.000000  -0.000000   0.000000
    22  H    0.000000  -0.000000   0.000000   0.000000   0.000000   0.000000
    23  H    0.000011   0.000000  -0.000001   0.000007  -0.000001   0.000001
    24  H   -0.000000  -0.000000   0.000000   0.000026   0.000012   0.000000
    25  H    0.484738  -0.022431  -0.027824  -0.000175  -0.000242   0.000129
    26  H   -0.022431   0.567121  -0.041241   0.000237  -0.001140   0.006269
    27  H   -0.027824  -0.041241   0.579380  -0.000234   0.005122  -0.001827
    28  H   -0.000175   0.000237  -0.000234   0.511211  -0.031933  -0.023044
    29  H   -0.000242  -0.001140   0.005122  -0.031933   0.581555  -0.038569
    30  H    0.000129   0.006269  -0.001827  -0.023044  -0.038569   0.561200
 Mulliken atomic charges:
              1
     1  N   -0.479567
     2  C    0.232937
     3  C    0.137357
     4  C   -0.150114
     5  C   -0.208289
     6  C    0.168589
     7  C    0.157447
     8  C   -0.218615
     9  C   -0.212056
    10  C   -0.139916
    11  C    0.373804
    12  C   -0.259671
    13  O   -0.567605
    14  C    0.780007
    15  O   -0.507509
    16  N   -0.436685
    17  C   -0.313986
    18  C   -0.308347
    19  H    0.156545
    20  H    0.144323
    21  H    0.159551
    22  H    0.148906
    23  H    0.167607
    24  H    0.145516
    25  H    0.204283
    26  H    0.157641
    27  H    0.158977
    28  H    0.188504
    29  H    0.160485
    30  H    0.159881
 Sum of Mulliken atomic charges =  -0.00000
 Mulliken charges with hydrogens summed into heavy atoms:
              1
     1  N   -0.479567
     2  C    0.232937
     3  C    0.137357
     4  C    0.006431
     5  C   -0.063966
     6  C    0.168589
     7  C    0.157447
     8  C   -0.059064
     9  C   -0.063151
    10  C    0.027691
    11  C    0.373804
    12  C   -0.114154
    13  O   -0.567605
    14  C    0.780007
    15  O   -0.507509
    16  N   -0.436685
    17  C    0.206915
    18  C    0.200523
 Sum of Mulliken charges with hydrogens summed into heavy atoms =  -0.00000
 Electronic spatial extent (au):  <R**2>=           6891.0138
 Charge=              0.0000 electrons
 Dipole moment (field-independent basis, Debye):
    X=             -6.7649    Y=              2.5777    Z=             -1.1927  Tot=              7.3370
 Quadrupole moment (field-independent basis, Debye-Ang):
   XX=           -122.9344   YY=            -95.2578   ZZ=           -105.0184
   XY=              0.4230   XZ=              3.5231   YZ=              4.3909
 Traceless Quadrupole moment (field-independent basis, Debye-Ang):
   XX=            -15.1975   YY=             12.4790   ZZ=              2.7185
   XY=              0.4230   XZ=              3.5231   YZ=              4.3909
 Octapole moment (field-independent basis, Debye-Ang**2):
  XXX=           -516.5402  YYY=              4.4006  ZZZ=              0.9272  XYY=              1.1531
  XXY=             65.6709  XXZ=             -6.4347  XZZ=            -19.4228  YZZ=              1.4722
  YYZ=             -3.5615  XYZ=              2.7775
 Hexadecapole moment (field-independent basis, Debye-Ang**3):
 XXXX=         -10052.4623 YYYY=           -736.8951 ZZZZ=           -214.0189 XXXY=            291.2062
 XXXZ=             20.4382 YYYX=              5.8034 YYYZ=             18.7927 ZZZX=             -4.0677
 ZZZY=             -7.5975 XXYY=          -1461.4659 XXZZ=          -1412.8914 YYZZ=           -170.8589
 XXYZ=             14.9676 YYXZ=             13.9312 ZZXY=            -10.8745
 N-N= 1.166288051849D+03 E-N=-4.193575325595D+03  KE= 7.931060185366D+02
 No NMR shielding tensors so no spin-rotation constants.
 Leave Link  601 at Thu Sep 30 04:05:51 2021, MaxMem= 1342177280 cpu:       1.8
 (Enter /sw/target/amd/app/gaussian/Gaussian09RevA.02_gcc-4.9.2/g09/l701.exe)
 Compute integral first derivatives.
 ... and contract with generalized density number  0.
 Leave Link  701 at Thu Sep 30 04:05:54 2021, MaxMem= 1342177280 cpu:       1.6
 (Enter /sw/target/amd/app/gaussian/Gaussian09RevA.02_gcc-4.9.2/g09/l702.exe)
 L702 exits ... SP integral derivatives will be done elsewhere.
 Leave Link  702 at Thu Sep 30 04:05:54 2021, MaxMem= 1342177280 cpu:       0.1
 (Enter /sw/target/amd/app/gaussian/Gaussian09RevA.02_gcc-4.9.2/g09/l703.exe)
 Compute integral first derivatives, UseDBF=F ICtDFT=           0.
 Integral derivatives from FoFDir, PRISM(SPDF).
 Calling FoFJK, ICntrl=      2127 FMM=F ISym2X=0 I1Cent= 0 IOpClX= 0 NMat=1 NMatS=1 NMatT=0.
 FoFCou: FMM=F IPFlag=           0 FMFlag=      100000 FMFlg1=         800
         NFxFlg=           0 DoJE=F BraDBF=F KetDBF=F FulRan=T
         Omega=  0.000000  0.000000  1.000000  0.000000  0.000000 ICntrl=    2127 IOpCl=  0
         NMat0=    1 NMatS0=    1 NMatT0=    0 NMatD0=    1 NMtDS0=    0 NMtDT0=    0
         I1Cent=           0 NGrid=           0.
 Symmetry not used in FoFCou.
 Leave Link  703 at Thu Sep 30 04:08:17 2021, MaxMem= 1342177280 cpu:     129.9
 (Enter /sw/target/amd/app/gaussian/Gaussian09RevA.02_gcc-4.9.2/g09/l716.exe)
 Dipole        =-2.66153427D+00 1.01413369D+00-4.69261071D-01
 ***** Axes restored to original set *****
 -------------------------------------------------------------------
 Center     Atomic                   Forces (Hartrees/Bohr)
 Number     Number              X              Y              Z
 -------------------------------------------------------------------
      1        7          -0.003931287    0.000010885    0.000025493
      2        6           0.003071607    0.000549620   -0.000018683
      3        6          -0.002272637    0.021835430   -0.002469777
      4        6           0.026658072   -0.022426557    0.002738547
      5        6          -0.027887841   -0.008688841    0.000591856
      6        6           0.008534068   -0.007063463   -0.000176509
      7        6          -0.010623085    0.008905259   -0.000145971
      8        6          -0.016201832   -0.004127888    0.000453881
      9        6           0.025720550    0.008237105   -0.001740579
     10        6          -0.018778528    0.021779841   -0.002870286
     11        6           0.010278047   -0.023287377    0.002697533
     12        6           0.021211597    0.009292041   -0.000169452
     13        8           0.000365234    0.005722921    0.002564811
     14        6           0.009564821    0.012672340    0.010107295
     15        8           0.000790239   -0.015344389   -0.011794934
     16        7          -0.033270608    0.005071854   -0.007639090
     17        6          -0.000503763    0.001337746    0.002838047
     18        6          -0.003019488   -0.002727621    0.000766077
     19        1           0.000438038    0.002679649   -0.000139276
     20        1           0.000940661    0.002178373   -0.000122007
     21        1           0.001238982   -0.002142747    0.000170594
     22        1          -0.001587902   -0.002259673   -0.000303554
     23        1           0.000332806   -0.003315529    0.001908495
     24        1          -0.000454675    0.001239079    0.000444657
     25        1          -0.003179999   -0.004391695   -0.002338748
     26        1           0.001671589   -0.000916025    0.000078118
     27        1           0.005755157    0.001314989    0.003591939
     28        1           0.000685151    0.000739235    0.002437229
     29        1           0.003992508   -0.007103346   -0.002711844
     30        1           0.000462517    0.000228785    0.001226136
 -------------------------------------------------------------------
 Cartesian Forces:  Max     0.033270608 RMS     0.009510964
 Leave Link  716 at Thu Sep 30 04:08:18 2021, MaxMem= 1342177280 cpu:       0.1
 (Enter /sw/target/amd/app/gaussian/Gaussian09RevA.02_gcc-4.9.2/g09/l103.exe)

 GradGradGradGradGradGradGradGradGradGradGradGradGradGradGradGradGradGrad
 Berny optimization.
 Internal  Forces:  Max     0.024924914 RMS     0.005858849
 Search for a local minimum.
 Step number   1 out of a maximum of  156
 All quantities printed in internal units (Hartrees-Bohrs-Radians)
 RMS Force = .58588D-02 SwitMx=.10000D-02 MixMth= 1
 Mixed Optimization -- RFO/linear search
 Second derivative matrix not updated -- first step.
     Eigenvalues ---    0.01022   0.01027   0.01337   0.01566   0.01652
     Eigenvalues ---    0.01652   0.01704   0.01784   0.01824   0.01970
     Eigenvalues ---    0.01982   0.02003   0.02056   0.02057   0.02068
     Eigenvalues ---    0.02070   0.02082   0.02109   0.02113   0.02114
     Eigenvalues ---    0.02123   0.02123   0.02174   0.02194   0.07455
     Eigenvalues ---    0.07530   0.07712   0.07740   0.16000   0.16000
     Eigenvalues ---    0.16000   0.16000   0.16000   0.16000   0.16000
     Eigenvalues ---    0.16000   0.16000   0.16000   0.16000   0.16000
     Eigenvalues ---    0.22265   0.22584   0.23496   0.23528   0.24163
     Eigenvalues ---    0.24460   0.24464   0.24773   0.24908   0.24999
     Eigenvalues ---    0.25000   0.25000   0.25000   0.34373   0.34376
     Eigenvalues ---    0.34376   0.34396   0.34413   0.34436   0.34889
     Eigenvalues ---    0.34970   0.34979   0.35047   0.35116   0.35316
     Eigenvalues ---    0.38163   0.38208   0.38433   0.40563   0.41062
     Eigenvalues ---    0.41705   0.43533   0.44082   0.44440   0.45316
     Eigenvalues ---    0.45472   0.45768   0.45798   0.45903   0.45986
     Eigenvalues ---    0.46807   0.47314   0.92299   1.265431000.00000
     Eigenvalues --- 1000.000001000.000001000.000001000.000001000.00000
     Eigenvalues --- 1000.000001000.000001000.000001000.000001000.00000
     Eigenvalues --- 1000.000001000.000001000.000001000.000001000.00000
     Eigenvalues --- 1000.000001000.000001000.000001000.000001000.00000
     Eigenvalues --- 1000.000001000.000001000.000001000.000001000.00000
     Eigenvalues --- 1000.000001000.000001000.000001000.000001000.00000
     Eigenvalues --- 1000.000001000.000001000.000001000.000001000.00000
     Eigenvalues --- 1000.000001000.000001000.000001000.000001000.00000
     Eigenvalues --- 1000.000001000.000001000.000001000.000001000.00000
     Eigenvalues --- 1000.000001000.000001000.000001000.000001000.00000
     Eigenvalues --- 1000.000001000.000001000.000001000.000001000.00000
     Eigenvalues --- 1000.000001000.000001000.000001000.000001000.00000
     Eigenvalues --- 1000.00000
 RFO step:  Lambda=-1.31820720D-02 EMin= 1.02211343D-02
 Linear search not attempted -- first point.
 Iteration  1 RMS(Cart)=  0.06653556 RMS(Int)=  0.00081081
 Iteration  2 RMS(Cart)=  0.00146227 RMS(Int)=  0.00012487
 Iteration  3 RMS(Cart)=  0.00000126 RMS(Int)=  0.00012487
 Iteration  4 RMS(Cart)=  0.00000000 RMS(Int)=  0.00012487
 Variable       Old X    -DE/DX   Delta X   Delta X   Delta X     New X
                                 (Linear)    (Quad)   (Total)
    R1        2.19572   0.00391   0.00000   0.00306   0.00306   2.19878
    R2        2.70796   0.00091   0.00000   0.00217   0.00217   2.71013
    R3        2.64021   0.02058   0.00000   0.04208   0.04207   2.68228
    R4        2.64122  -0.00639   0.00000  -0.01360  -0.01359   2.62763
    R5        2.64365  -0.01844   0.00000  -0.04036  -0.04037   2.60328
    R6        2.05724  -0.00245   0.00000  -0.00675  -0.00675   2.05049
    R7        2.65640   0.01133   0.00000   0.02471   0.02470   2.68110
    R8        2.05708  -0.00162   0.00000  -0.00447  -0.00447   2.05262
    R9        2.67625   0.01621   0.00000   0.03952   0.03954   2.71579
   R10        2.65883   0.00721   0.00000   0.01596   0.01594   2.67477
   R11        2.65140   0.00916   0.00000   0.02096   0.02098   2.67238
   R12        2.64962   0.01400   0.00000   0.03128   0.03131   2.68093
   R13        2.05856  -0.00247   0.00000  -0.00682  -0.00682   2.05173
   R14        2.63127  -0.01147   0.00000  -0.02402  -0.02400   2.60728
   R15        2.05599  -0.00138   0.00000  -0.00378  -0.00378   2.05221
   R16        2.62987   0.01799   0.00000   0.03577   0.03576   2.66563
   R17        2.05165  -0.00278   0.00000  -0.00760  -0.00760   2.04406
   R18        2.63853  -0.01600   0.00000  -0.03487  -0.03490   2.60362
   R19        2.66357  -0.01607   0.00000  -0.03540  -0.03540   2.62817
   R20        2.05487  -0.00126   0.00000  -0.00346  -0.00346   2.05141
   R21        2.64394  -0.01795   0.00000  -0.03812  -0.03812   2.60582
   R22        2.31891  -0.01865   0.00000  -0.01992  -0.01992   2.29899
   R23        2.62677  -0.02492   0.00000  -0.05125  -0.05125   2.57551
   R24        2.74064   0.00326   0.00000   0.00825   0.00825   2.74889
   R25        2.74128   0.00692   0.00000   0.01754   0.01754   2.75882
   R26        2.06700  -0.00343   0.00000  -0.00962  -0.00962   2.05738
   R27        2.06706   0.00097   0.00000   0.00271   0.00271   2.06977
   R28        2.06668   0.00400   0.00000   0.01121   0.01121   2.07789
   R29        2.06601  -0.00237   0.00000  -0.00661  -0.00661   2.05940
   R30        2.06638   0.00404   0.00000   0.01131   0.01131   2.07770
[...]
    17    C    2  S      Val( 2S)     0.82944
    18    C    2  S      Ryd( 3S)     0.00807
    19    C    2  S      Ryd( 4S)     0.00025
    20    C    2  px     Val( 2p)     0.99397
    21    C    2  px     Ryd( 3p)     0.01798
    22    C    2  py     Val( 2p)     0.93509
    23    C    2  py     Ryd( 3p)     0.00488
    24    C    2  pz     Val( 2p)     0.95940
    25    C    2  pz     Ryd( 3p)     0.00100
    26    C    2  dxy    Ryd( 3d)     0.00070
    27    C    2  dxz    Ryd( 3d)     0.00125
    28    C    2  dyz    Ryd( 3d)     0.00010
    29    C    2  dx2y2  Ryd( 3d)     0.00052
    30    C    2  dz2    Ryd( 3d)     0.00017

    31    C    3  S      Cor( 1S)     1.99886
    32    C    3  S      Val( 2S)     0.88544
    33    C    3  S      Ryd( 3S)     0.00087
    34    C    3  S      Ryd( 4S)     0.00006
    35    C    3  px     Val( 2p)     1.08541
    36    C    3  px     Ryd( 3p)     0.00578
    37    C    3  py     Val( 2p)     1.10390
    38    C    3  py     Ryd( 3p)     0.00300
    39    C    3  pz     Val( 2p)     1.12283
    40    C    3  pz     Ryd( 3p)     0.00241
    41    C    3  dxy    Ryd( 3d)     0.00077
    42    C    3  dxz    Ryd( 3d)     0.00080
    43    C    3  dyz    Ryd( 3d)     0.00051
    44    C    3  dx2y2  Ryd( 3d)     0.00085
    45    C    3  dz2    Ryd( 3d)     0.00041

    46    C    4  S      Cor( 1S)     1.99907
    47    C    4  S      Val( 2S)     0.96390
    48    C    4  S      Ryd( 3S)     0.00069
    49    C    4  S      Ryd( 4S)     0.00004
    50    C    4  px     Val( 2p)     1.12582
    51    C    4  px     Ryd( 3p)     0.00396
    52    C    4  py     Val( 2p)     1.10489
    53    C    4  py     Ryd( 3p)     0.00469
    54    C    4  pz     Val( 2p)     0.91867
    55    C    4  pz     Ryd( 3p)     0.00119
    56    C    4  dxy    Ryd( 3d)     0.00083
    57    C    4  dxz    Ryd( 3d)     0.00075
    58    C    4  dyz    Ryd( 3d)     0.00051
    59    C    4  dx2y2  Ryd( 3d)     0.00064
    60    C    4  dz2    Ryd( 3d)     0.00041

    61    C    5  S      Cor( 1S)     1.99907
    62    C    5  S      Val( 2S)     0.95242
    63    C    5  S      Ryd( 3S)     0.00069
    64    C    5  S      Ryd( 4S)     0.00005
    65    C    5  px     Val( 2p)     1.07004
    66    C    5  px     Ryd( 3p)     0.00418
    67    C    5  py     Val( 2p)     1.16725
    68    C    5  py     Ryd( 3p)     0.00470
    69    C    5  pz     Val( 2p)     1.00621
    70    C    5  pz     Ryd( 3p)     0.00289
    71    C    5  dxy    Ryd( 3d)     0.00073
    72    C    5  dxz    Ryd( 3d)     0.00063
    73    C    5  dyz    Ryd( 3d)     0.00035
    74    C    5  dx2y2  Ryd( 3d)     0.00074
    75    C    5  dz2    Ryd( 3d)     0.00040

    76    C    6  S      Cor( 1S)     1.99903
    77    C    6  S      Val( 2S)     0.86989
    78    C    6  S      Ryd( 3S)     0.00049
    79    C    6  S      Ryd( 4S)     0.00007
    80    C    6  px     Val( 2p)     1.08167
    81    C    6  px     Ryd( 3p)     0.00476
    82    C    6  py     Val( 2p)     1.08320
    83    C    6  py     Ryd( 3p)     0.00529
    84    C    6  pz     Val( 2p)     1.02839
    85    C    6  pz     Ryd( 3p)     0.00139
    86    C    6  dxy    Ryd( 3d)     0.00068
    87    C    6  dxz    Ryd( 3d)     0.00078
    88    C    6  dyz    Ryd( 3d)     0.00049
    89    C    6  dx2y2  Ryd( 3d)     0.00072
    90    C    6  dz2    Ryd( 3d)     0.00038

    91    C    7  S      Cor( 1S)     1.99903
    92    C    7  S      Val( 2S)     0.87075
    93    C    7  S      Ryd( 3S)     0.00046
    94    C    7  S      Ryd( 4S)     0.00006
    95    C    7  px     Val( 2p)     1.09988
    96    C    7  px     Ryd( 3p)     0.00501
    97    C    7  py     Val( 2p)     1.07276
    98    C    7  py     Ryd( 3p)     0.00524
    99    C    7  pz     Val( 2p)     1.00849
   100    C    7  pz     Ryd( 3p)     0.00101
   101    C    7  dxy    Ryd( 3d)     0.00074
   102    C    7  dxz    Ryd( 3d)     0.00109
   103    C    7  dyz    Ryd( 3d)     0.00043
   104    C    7  dx2y2  Ryd( 3d)     0.00067
   105    C    7  dz2    Ryd( 3d)     0.00035

   106    C    8  S      Cor( 1S)     1.99902
   107    C    8  S      Val( 2S)     0.93699
   108    C    8  S      Ryd( 3S)     0.00077
   109    C    8  S      Ryd( 4S)     0.00005
   110    C    8  px     Val( 2p)     1.04081
   111    C    8  px     Ryd( 3p)     0.00340
   112    C    8  py     Val( 2p)     1.17644
   113    C    8  py     Ryd( 3p)     0.00462
   114    C    8  pz     Val( 2p)     1.03612
   115    C    8  pz     Ryd( 3p)     0.00393
   116    C    8  dxy    Ryd( 3d)     0.00069
   117    C    8  dxz    Ryd( 3d)     0.00062
   118    C    8  dyz    Ryd( 3d)     0.00040
   119    C    8  dx2y2  Ryd( 3d)     0.00067
   120    C    8  dz2    Ryd( 3d)     0.00042

   121    C    9  S      Cor( 1S)     1.99906
   122    C    9  S      Val( 2S)     0.95877
   123    C    9  S      Ryd( 3S)     0.00067
   124    C    9  S      Ryd( 4S)     0.00006
   125    C    9  px     Val( 2p)     1.06185
   126    C    9  px     Ryd( 3p)     0.00399
   127    C    9  py     Val( 2p)     1.16953
   128    C    9  py     Ryd( 3p)     0.00471
   129    C    9  pz     Val( 2p)     0.94180
   130    C    9  pz     Ryd( 3p)     0.00224
   131    C    9  dxy    Ryd( 3d)     0.00074
   132    C    9  dxz    Ryd( 3d)     0.00072
   133    C    9  dyz    Ryd( 3d)     0.00038
   134    C    9  dx2y2  Ryd( 3d)     0.00079
   135    C    9  dz2    Ryd( 3d)     0.00040

   136    C   10  S      Cor( 1S)     1.99903
   137    C   10  S      Val( 2S)     0.97328
   138    C   10  S      Ryd( 3S)     0.00079
   139    C   10  S      Ryd( 4S)     0.00006
   140    C   10  px     Val( 2p)     1.13881
   141    C   10  px     Ryd( 3p)     0.00422
   142    C   10  py     Val( 2p)     1.12526
   143    C   10  py     Ryd( 3p)     0.00447
   144    C   10  pz     Val( 2p)     0.96943
   145    C   10  pz     Ryd( 3p)     0.00150
   146    C   10  dxy    Ryd( 3d)     0.00074
   147    C   10  dxz    Ryd( 3d)     0.00072
   148    C   10  dyz    Ryd( 3d)     0.00055
   149    C   10  dx2y2  Ryd( 3d)     0.00067
   150    C   10  dz2    Ryd( 3d)     0.00044

   151    C   11  S      Cor( 1S)     1.99876
   152    C   11  S      Val( 2S)     0.83493
   153    C   11  S      Ryd( 3S)     0.00138
   154    C   11  S      Ryd( 4S)     0.00012
   155    C   11  px     Val( 2p)     0.75845
   156    C   11  px     Ryd( 3p)     0.00640
   157    C   11  py     Val( 2p)     1.06171
   158    C   11  py     Ryd( 3p)     0.00627
   159    C   11  pz     Val( 2p)     1.04624
   160    C   11  pz     Ryd( 3p)     0.00258
   161    C   11  dxy    Ryd( 3d)     0.00150
   162    C   11  dxz    Ryd( 3d)     0.00148
   163    C   11  dyz    Ryd( 3d)     0.00071
   164    C   11  dx2y2  Ryd( 3d)     0.00151
   165    C   11  dz2    Ryd( 3d)     0.00056

   166    C   12  S      Cor( 1S)     1.99897
   167    C   12  S      Val( 2S)     0.96240
   168    C   12  S      Ryd( 3S)     0.00078
   169    C   12  S      Ryd( 4S)     0.00006
   170    C   12  px     Val( 2p)     1.06570
   171    C   12  px     Ryd( 3p)     0.00426
   172    C   12  py     Val( 2p)     1.17727
   173    C   12  py     Ryd( 3p)     0.00410
   174    C   12  pz     Val( 2p)     0.93907
   175    C   12  pz     Ryd( 3p)     0.00219
   176    C   12  dxy    Ryd( 3d)     0.00081
   177    C   12  dxz    Ryd( 3d)     0.00073
   178    C   12  dyz    Ryd( 3d)     0.00045
   179    C   12  dx2y2  Ryd( 3d)     0.00062
   180    C   12  dz2    Ryd( 3d)     0.00045

   181    O   13  S      Cor( 1S)     1.99969
   182    O   13  S      Val( 2S)     1.59474
   183    O   13  S      Ryd( 3S)     0.00092
   184    O   13  S      Ryd( 4S)     0.00011
   185    O   13  px     Val( 2p)     1.41727
   186    O   13  px     Ryd( 3p)     0.00076
   187    O   13  py     Val( 2p)     1.77560
   188    O   13  py     Ryd( 3p)     0.00202
   189    O   13  pz     Val( 2p)     1.75268
   190    O   13  pz     Ryd( 3p)     0.00138
   191    O   13  dxy    Ryd( 3d)     0.00103
   192    O   13  dxz    Ryd( 3d)     0.00072
   193    O   13  dyz    Ryd( 3d)     0.00118
   194    O   13  dx2y2  Ryd( 3d)     0.00109
   195    O   13  dz2    Ryd( 3d)     0.00112

   196    C   14  S      Cor( 1S)     1.99936
   197    C   14  S      Val( 2S)     0.69437
   198    C   14  S      Ryd( 3S)     0.00257
   199    C   14  S      Ryd( 4S)     0.00046
   200    C   14  px     Val( 2p)     0.77003
   201    C   14  px     Ryd( 3p)     0.00583
   202    C   14  py     Val( 2p)     0.76079
   203    C   14  py     Ryd( 3p)     0.01607
   204    C   14  pz     Val( 2p)     0.79151
   205    C   14  pz     Ryd( 3p)     0.00813
   206    C   14  dxy    Ryd( 3d)     0.00345
   207    C   14  dxz    Ryd( 3d)     0.00295
   208    C   14  dyz    Ryd( 3d)     0.00122
   209    C   14  dx2y2  Ryd( 3d)     0.00203
   210    C   14  dz2    Ryd( 3d)     0.00197

   211    O   15  S      Cor( 1S)     1.99978
   212    O   15  S      Val( 2S)     1.70423
   213    O   15  S      Ryd( 3S)     0.00043
   214    O   15  S      Ryd( 4S)     0.00012
   215    O   15  px     Val( 2p)     1.79180
   216    O   15  px     Ryd( 3p)     0.00092
   217    O   15  py     Val( 2p)     1.56587
   218    O   15  py     Ryd( 3p)     0.00057
   219    O   15  pz     Val( 2p)     1.55437
   220    O   15  pz     Ryd( 3p)     0.00080
   221    O   15  dxy    Ryd( 3d)     0.00347
   222    O   15  dxz    Ryd( 3d)     0.00173
   223    O   15  dyz    Ryd( 3d)     0.00438
   224    O   15  dx2y2  Ryd( 3d)     0.00346
   225    O   15  dz2    Ryd( 3d)     0.00331

   226    N   16  S      Cor( 1S)     1.99932
   227    N   16  S      Val( 2S)     1.20574
   228    N   16  S      Ryd( 3S)     0.00116
   229    N   16  S      Ryd( 4S)     0.00004
   230    N   16  px     Val( 2p)     1.29878
   231    N   16  px     Ryd( 3p)     0.00102
   232    N   16  py     Val( 2p)     1.41021
   233    N   16  py     Ryd( 3p)     0.00229
   234    N   16  pz     Val( 2p)     1.55334
   235    N   16  pz     Ryd( 3p)     0.00344
   236    N   16  dxy    Ryd( 3d)     0.00068
   237    N   16  dxz    Ryd( 3d)     0.00069
   238    N   16  dyz    Ryd( 3d)     0.00055
   239    N   16  dx2y2  Ryd( 3d)     0.00062
   240    N   16  dz2    Ryd( 3d)     0.00043

   241    C   17  S      Cor( 1S)     1.99947
   242    C   17  S      Val( 2S)     1.08827
   243    C   17  S      Ryd( 3S)     0.00092
   244    C   17  S      Ryd( 4S)     0.00002
   245    C   17  px     Val( 2p)     1.00044
   246    C   17  px     Ryd( 3p)     0.00228
   247    C   17  py     Val( 2p)     1.18322
   248    C   17  py     Ryd( 3p)     0.00243
   249    C   17  pz     Val( 2p)     1.18706
   250    C   17  pz     Ryd( 3p)     0.00162
   251    C   17  dxy    Ryd( 3d)     0.00115
   252    C   17  dxz    Ryd( 3d)     0.00151
   253    C   17  dyz    Ryd( 3d)     0.00094
   254    C   17  dx2y2  Ryd( 3d)     0.00060
   255    C   17  dz2    Ryd( 3d)     0.00042

   256    C   18  S      Cor( 1S)     1.99946
   257    C   18  S      Val( 2S)     1.08655
   258    C   18  S      Ryd( 3S)     0.00099
   259    C   18  S      Ryd( 4S)     0.00002
   260    C   18  px     Val( 2p)     1.25496
   261    C   18  px     Ryd( 3p)     0.00312
   262    C   18  py     Val( 2p)     0.98520
   263    C   18  py     Ryd( 3p)     0.00155
   264    C   18  pz     Val( 2p)     1.13418
   265    C   18  pz     Ryd( 3p)     0.00123
   266    C   18  dxy    Ryd( 3d)     0.00075
   267    C   18  dxz    Ryd( 3d)     0.00108
   268    C   18  dyz    Ryd( 3d)     0.00124
   269    C   18  dx2y2  Ryd( 3d)     0.00091
   270    C   18  dz2    Ryd( 3d)     0.00065

   271    H   19  S      Val( 1S)     0.74679
   272    H   19  S      Ryd( 2S)     0.00072

   273    H   20  S      Val( 1S)     0.76099
   274    H   20  S      Ryd( 2S)     0.00110

   275    H   21  S      Val( 1S)     0.75448
   276    H   21  S      Ryd( 2S)     0.00101

   277    H   22  S      Val( 1S)     0.75360
   278    H   22  S      Ryd( 2S)     0.00109

   279    H   23  S      Val( 1S)     0.73501
   280    H   23  S      Ryd( 2S)     0.00112

   281    H   24  S      Val( 1S)     0.75065
   282    H   24  S      Ryd( 2S)     0.00144

   283    H   25  S      Val( 1S)     0.73408
   284    H   25  S      Ryd( 2S)     0.00142

   285    H   26  S      Val( 1S)     0.77499
   286    H   26  S      Ryd( 2S)     0.00129

   287    H   27  S      Val( 1S)     0.77482
   288    H   27  S      Ryd( 2S)     0.00130

   289    H   28  S      Val( 1S)     0.74220
   290    H   28  S      Ryd( 2S)     0.00086

   291    H   29  S      Val( 1S)     0.77386
   292    H   29  S      Ryd( 2S)     0.00149

   293    H   30  S      Val( 1S)     0.77222
   294    H   30  S      Ryd( 2S)     0.00144

 WARNING:  1 low occupancy (<1.9990e) core orbital  found on  C    3
           1 low occupancy (<1.9990e) core orbital  found on  C   11
           1 low occupancy (<1.9990e) core orbital  found on  C   12


 Summary of Natural Population Analysis:                  
                                                          
                                       Natural Population 
                Natural  -----------------------------------------------
    Atom  No    Charge         Core      Valence    Rydberg      Total
 -----------------------------------------------------------------------
      N    1   -0.35040      1.99965     5.32858    0.02217     7.35040
      C    2    0.24780      1.99939     3.71790    0.03492     5.75220
      C    3   -0.21191      1.99886     4.19759    0.01546     6.21191
      C    4   -0.12606      1.99907     4.11328    0.01371     6.12606
      C    5   -0.21036      1.99907     4.19592    0.01537     6.21036
      C    6   -0.07723      1.99903     4.06315    0.01505     6.07723
      C    7   -0.06598      1.99903     4.05188    0.01507     6.06598
      C    8   -0.20495      1.99902     4.19036    0.01557     6.20495
      C    9   -0.14571      1.99906     4.13195    0.01470     6.14571
      C   10   -0.21995      1.99903     4.20678    0.01414     6.21995
      C   11    0.27742      1.99876     3.70132    0.02250     5.72258
      C   12   -0.15786      1.99897     4.14444    0.01445     6.15786
      O   13   -0.55031      1.99969     6.54030    0.01033     8.55031
      C   14    0.93925      1.99936     3.01671    0.04467     5.06075
      O   15   -0.63522      1.99978     6.61626    0.01918     8.63522
      N   16   -0.47833      1.99932     5.46807    0.01094     7.47833
      C   17   -0.47035      1.99947     4.45899    0.01190     6.47035
      C   18   -0.47188      1.99946     4.46089    0.01153     6.47188
      H   19    0.25249      0.00000     0.74679    0.00072     0.74751
      H   20    0.23792      0.00000     0.76099    0.00110     0.76208
      H   21    0.24450      0.00000     0.75448    0.00101     0.75550
      H   22    0.24532      0.00000     0.75360    0.00109     0.75468
      H   23    0.26387      0.00000     0.73501    0.00112     0.73613
      H   24    0.24791      0.00000     0.75065    0.00144     0.75209
      H   25    0.26450      0.00000     0.73408    0.00142     0.73550
      H   26    0.22372      0.00000     0.77499    0.00129     0.77628
      H   27    0.22388      0.00000     0.77482    0.00130     0.77612
      H   28    0.25694      0.00000     0.74220    0.00086     0.74306
      H   29    0.22464      0.00000     0.77386    0.00149     0.77536
      H   30    0.22634      0.00000     0.77222    0.00144     0.77366
 =======================================================================
   * Total *   -0.00000     35.98603    89.67805    0.33592   126.00000

                                 Natural Population      
 --------------------------------------------------------
   Core                      35.98603 ( 99.9612% of  36)
   Valence                   89.67805 ( 99.6423% of  90)
   Natural Minimal Basis    125.66408 ( 99.7334% of 126)
   Natural Rydberg Basis      0.33592 (  0.2666% of 126)
 --------------------------------------------------------

    Atom  No          Natural Electron Configuration
 ----------------------------------------------------------------------------
      N    1      [core]2S( 1.59)2p( 3.74)3d( 0.01)
      C    2      [core]2S( 0.83)2p( 2.89)3S( 0.01)3p( 0.02)
      C    3      [core]2S( 0.89)2p( 3.31)3p( 0.01)
      C    4      [core]2S( 0.96)2p( 3.15)3p( 0.01)
      C    5      [core]2S( 0.95)2p( 3.24)3p( 0.01)
      C    6      [core]2S( 0.87)2p( 3.19)3p( 0.01)
      C    7      [core]2S( 0.87)2p( 3.18)3p( 0.01)
      C    8      [core]2S( 0.94)2p( 3.25)3p( 0.01)
      C    9      [core]2S( 0.96)2p( 3.17)3p( 0.01)
      C   10      [core]2S( 0.97)2p( 3.23)3p( 0.01)
      C   11      [core]2S( 0.83)2p( 2.87)3p( 0.02)3d( 0.01)
      C   12      [core]2S( 0.96)2p( 3.18)3p( 0.01)
      O   13      [core]2S( 1.59)2p( 4.95)3d( 0.01)
      C   14      [core]2S( 0.69)2p( 2.32)3p( 0.03)3d( 0.01)
      O   15      [core]2S( 1.70)2p( 4.91)3d( 0.02)
      N   16      [core]2S( 1.21)2p( 4.26)3p( 0.01)
      C   17      [core]2S( 1.09)2p( 3.37)3p( 0.01)
      C   18      [core]2S( 1.09)2p( 3.37)3p( 0.01)
      H   19            1S( 0.75)
      H   20            1S( 0.76)
      H   21            1S( 0.75)
      H   22            1S( 0.75)
      H   23            1S( 0.74)
      H   24            1S( 0.75)
      H   25            1S( 0.73)
      H   26            1S( 0.77)
      H   27            1S( 0.77)
      H   28            1S( 0.74)
      H   29            1S( 0.77)
      H   30            1S( 0.77)


 NBO analysis skipped by request.
 Leave Link  607 at Thu Sep 30 14:22:38 2021, MaxMem= 1342177280 cpu:      21.0
 (Enter /sw/target/amd/app/gaussian/Gaussian09RevA.02_gcc-4.9.2/g09/l9999.exe)
 1\1\GINC-HERMITE\SP\RTD-B3LYP-FC\6-31G(d)\C14H12N2O2\JSCHLEINITZ\30-Se
 p-2021\0\\#p TD(NStates=10, Root=1) b3lyp/6-31G* volume pop=NPA densit
 y=current Geom=AllCheck Guess=Read\\N#Cc1ccc2c(c1)ccc(c2)OC(=O)N(C)C_c
 onf_0\\0,1\N,0,-4.8761491249,-0.0018009861,0.3874108752\C,0,-3.7148160
 289,-0.0747716822,0.4032282539\C,0,-2.2851848536,-0.1748805883,0.42292
 94051\C,0,-1.6692523421,-1.4460970086,0.6155409903\C,0,-0.3006912625,-
 1.5507435249,0.6330943484\C,0,0.5263874242,-0.4062507084,0.4627556981\
 C,0,-0.0930297452,0.8719145428,0.2699499471\C,0,-1.5052179239,0.958514
 2748,0.2543547174\C,0,0.7351005744,2.0144332277,0.0958194512\C,0,2.105
 3138979,1.9133201506,0.109729905\C,0,2.7034926719,0.6439995283,0.31033
 46627\C,0,1.9408068837,-0.4881647288,0.481007356\O,0,4.0765571715,0.46
 16134411,0.2416132669\C,0,4.9159123522,1.3191430822,0.9320167751\O,0,4
 .5166428306,2.2130542939,1.6530931207\N,0,6.2210295843,1.0126759349,0.
 690936988\C,0,7.2522288775,1.7943445319,1.3573296189\C,0,6.6822788641,
 -0.0696775629,-0.1662232532\H,0,-2.295609512,-2.3223300497,0.746714447
 5\H,0,0.1685839228,-2.5199056767,0.78025541\H,0,-1.9790110182,1.924819
 0825,0.1084262125\H,0,0.2666279356,2.9835735712,-0.0539192038\H,0,2.73
 09495351,2.7871641072,-0.0155057906\H,0,2.4311869194,-1.4459174059,0.6
 261444234\H,0,6.7765636728,2.5659090655,1.960457618\H,0,7.9117425395,2
 .2636902737,0.6160065585\H,0,7.8622379428,1.1501945755,2.0040238226\H,
 0,5.836526653,-0.5799767396,-0.6197807102\H,0,7.267268614,-0.793312583
 5,0.4170910715\H,0,7.3270374704,0.3284075167,-0.9606657255\\Version=AM
 64L-G09RevA.02\State=1-A\HF=-800.6821435\RMSD=8.847e-09\Dipole=4.07770
 01,-0.453471,-0.4684067\Quadrupole=-17.6836364,13.6687505,4.0148859,-3
 .285367,-2.7795162,-3.3184119\PG=C01 [X(C14H12N2O2)]\\@



 WE LOSE BECAUSE WE WIN

 GAMBLERS,

 RECOLLECTING WHICH,

 TOSS THEIR DICE AGAIN....


                          EMILY DICKINSON  BOLTS OF MELODY NO. 533
 Job cpu time:  0 days  4 hours 34 minutes 35.6 seconds.
 File lengths (MBytes):  RWF=    283 Int=      0 D2E=      0 Chk=     39 Scr=      1
 Normal termination of Gaussian 09 at Thu Sep 30 14:22:40 2021.
