 Entering Gaussian System, Link 0=g09
 Input=C14H13ClO_79f2_conf_0.com
 Output=C14H13ClO_79f2_conf_0.log
 Initial command:
 /sw/target/amd/app/gaussian/Gaussian09RevA.02_gcc-4.9.2/g09/l1.exe /home/jschleinitz/gaussian/Gau-472243.inp -scrdir=/home/jschleinitz/gaussian/
 Entering Link 1 = /sw/target/amd/app/gaussian/Gaussian09RevA.02_gcc-4.9.2/g09/l1.exe PID=    472249.
  
 Copyright (c) 1988,1990,1992,1993,1995,1998,2003,2009, Gaussian, Inc.
                  All Rights Reserved.
  
 This is part of the Gaussian(R) 09 program.  It is based on
 the Gaussian(R) 03 system (copyright 2003, Gaussian, Inc.),
 the Gaussian(R) 98 system (copyright 1998, Gaussian, Inc.),
 the Gaussian(R) 94 system (copyright 1995, Gaussian, Inc.),
 the Gaussian 92(TM) system (copyright 1992, Gaussian, Inc.),
 the Gaussian 90(TM) system (copyright 1990, Gaussian, Inc.),
 the Gaussian 88(TM) system (copyright 1988, Gaussian, Inc.),
 the Gaussian 86(TM) system (copyright 1986, Carnegie Mellon
 University), and the Gaussian 82(TM) system (copyright 1983,
 Carnegie Mellon University). Gaussian is a federally registered
 trademark of Gaussian, Inc.
  
 This software contains proprietary and confidential information,
 including trade secrets, belonging to Gaussian, Inc.
  
 This software is provided under written license and may be
 used, copied, transmitted, or stored only in accord with that
 written license.
  
 The following legend is applicable only to US Government
 contracts under FAR:
  
                    RESTRICTED RIGHTS LEGEND
  
 Use, reproduction and disclosure by the US Government is
 subject to restrictions as set forth in subparagraphs (a)
 and (c) of the Commercial Computer Software - Restricted
 Rights clause in FAR 52.227-19.
  
 Gaussian, Inc.
 340 Quinnipiac St., Bldg. 40, Wallingford CT 06492
  
  
 ---------------------------------------------------------------
 Warning -- This program may not be used in any manner that
 competes with the business of Gaussian, Inc. or will provide
 assistance to any competitor of Gaussian, Inc.  The licensee
 of this program is prohibited from giving any competitor of
 Gaussian, Inc. access to this program.  By using this program,
 the user acknowledges that Gaussian, Inc. is engaged in the
 business of creating and licensing software in the field of
 computational chemistry and represents and warrants to the
 licensee that it is not a competitor of Gaussian, Inc. and that
 it will not use this program in any manner prohibited above.
 ---------------------------------------------------------------
  

 Cite this work as:
 Gaussian 09, Revision A.02,
 M. J. Frisch, G. W. Trucks, H. B. Schlegel, G. E. Scuseria, 
 M. A. Robb, J. R. Cheeseman, G. Scalmani, V. Barone, B. Mennucci, 
 G. A. Petersson, H. Nakatsuji, M. Caricato, X. Li, H. P. Hratchian, 
 A. F. Izmaylov, J. Bloino, G. Zheng, J. L. Sonnenberg, M. Hada, 
 M. Ehara, K. Toyota, R. Fukuda, J. Hasegawa, M. Ishida, T. Nakajima, 
 Y. Honda, O. Kitao, H. Nakai, T. Vreven, J. A. Montgomery, Jr., 
 J. E. Peralta, F. Ogliaro, M. Bearpark, J. J. Heyd, E. Brothers, 
 K. N. Kudin, V. N. Staroverov, R. Kobayashi, J. Normand, 
 K. Raghavachari, A. Rendell, J. C. Burant, S. S. Iyengar, J. Tomasi, 
 M. Cossi, N. Rega, J. M. Millam, M. Klene, J. E. Knox, J. B. Cross, 
 V. Bakken, C. Adamo, J. Jaramillo, R. Gomperts, R. E. Stratmann, 
 O. Yazyev, A. J. Austin, R. Cammi, C. Pomelli, J. W. Ochterski, 
 R. L. Martin, K. Morokuma, V. G. Zakrzewski, G. A. Voth, 
 P. Salvador, J. J. Dannenberg, S. Dapprich, A. D. Daniels, 
 O. Farkas, J. B. Foresman, J. V. Ortiz, J. Cioslowski, 
 and D. J. Fox, Gaussian, Inc., Wallingford CT, 2009.
 
 ******************************************
 Gaussian 09:  AM64L-G09RevA.02 11-Jun-2009
                29-Sep-2021 
 ******************************************
 %nproc=4
 Will use up to    4 processors via shared memory.
 %mem=8gb
 %chk=C14H13ClO_79f2_conf_0.chk
 -----------------------------------
 #p opt b3lyp/6-31G* scf=(xqc,tight)
 -----------------------------------
 1/14=-1,18=20,19=15,26=3,38=1/1,3;
 2/9=110,12=2,17=6,18=5,40=1/2;
 3/5=1,6=6,7=1,11=2,16=1,25=1,30=1,71=1,74=-5/1,2,3;
 4//1;
 5/5=2,8=3,13=1,32=2,38=5/2,8;
 6/7=2,8=2,9=2,10=2,28=1/1;
 7//1,2,3,16;
 1/14=-1,18=20,19=15/3(2);
 2/9=110/2;
 99//99;
 2/9=110/2;
 3/5=1,6=6,7=1,11=2,16=1,25=1,30=1,71=1,74=-5/1,2,3;
 4/5=5,16=3/1;
 5/5=2,8=3,13=1,32=2,38=5/2,8;
 7//1,2,3,16;
 1/14=-1,18=20,19=15/3(-5);
 2/9=110/2;
 6/7=2,8=2,9=2,10=2,19=2,28=1/1;
 99/9=1/99;
 Leave Link    1 at Wed Sep 29 00:13:14 2021, MaxMem= 1073741824 cpu:       0.1
 (Enter /sw/target/amd/app/gaussian/Gaussian09RevA.02_gcc-4.9.2/g09/l101.exe)
 --------------------------------
 COc1ccc(cc1)C(c1ccccc1)Cl_conf_0
 --------------------------------
 Symbolic Z-matrix:
 Charge =  0 Multiplicity = 1
 C                     1.34791   1.17864  -0.3798 
 O                     2.35608   0.18311  -0.2584 
 C                     3.1233   -0.05666  -1.36443 
 C                     2.98897   0.55973  -2.60653 
 C                     3.83527   0.20642  -3.66453 
 C                     4.83032  -0.77542  -3.5079 
 C                     4.96774  -1.37105  -2.24528 
 C                     4.11898  -1.01787  -1.19081 
 C                     5.71523  -1.12712  -4.69538 
 C                     6.97376  -0.28804  -4.83005 
 C                     7.95377  -0.24634  -3.82418 
 C                     9.11734   0.51     -3.98975 
 C                     9.31999   1.23385  -5.16162 
 C                     8.3601    1.2049   -6.16951 
 C                     7.19611   0.45047  -6.00602 
 Cl                    6.13592  -2.86984  -4.75293 
 H                     0.80382   1.2222    0.56862 
 H                     0.62633   0.92271  -1.16271 
 H                     1.79165   2.16384  -0.55713 
 H                     2.23348   1.31662  -2.78978 
 H                     3.70447   0.7057   -4.62307 
 H                     5.72927  -2.12503  -2.06256 
 H                     4.23472  -1.50269  -0.22365 
 H                     5.10541  -0.99001  -5.59677 
 H                     7.82577  -0.8118   -2.90393 
 H                     9.86892   0.52696  -3.20433 
 H                     10.22921   1.8151   -5.29224 
 H                     8.52038   1.76425  -7.08782 
 H                     6.46733   0.43576  -6.81351 
 
 NAtoms=     29 NQM=     29 NQMF=      0 NMic=      0 NMicF=      0 NTot=     29.
                    Isotopes and Nuclear Properties:
 (Nuclear quadrupole moments (NQMom) in fm**2, nuclear magnetic moments (NMagM)
  in nuclear magnetons)

  Atom         1           2           3           4           5           6           7           8           9          10
 IAtWgt=          12          16          12          12          12          12          12          12          12          12
 AtmWgt=  12.0000000  15.9949146  12.0000000  12.0000000  12.0000000  12.0000000  12.0000000  12.0000000  12.0000000  12.0000000
 NucSpn=           0           0           0           0           0           0           0           0           0           0
 AtZEff=   0.0000000   0.0000000   0.0000000   0.0000000   0.0000000   0.0000000   0.0000000   0.0000000   0.0000000   0.0000000
 NQMom=    0.0000000   0.0000000   0.0000000   0.0000000   0.0000000   0.0000000   0.0000000   0.0000000   0.0000000   0.0000000
 NMagM=    0.0000000   0.0000000   0.0000000   0.0000000   0.0000000   0.0000000   0.0000000   0.0000000   0.0000000   0.0000000

  Atom        11          12          13          14          15          16          17          18          19          20
 IAtWgt=          12          12          12          12          12          35           1           1           1           1
 AtmWgt=  12.0000000  12.0000000  12.0000000  12.0000000  12.0000000  34.9688527   1.0078250   1.0078250   1.0078250   1.0078250
 NucSpn=           0           0           0           0           0           3           1           1           1           1
 AtZEff=   0.0000000   0.0000000   0.0000000   0.0000000   0.0000000   0.0000000   0.0000000   0.0000000   0.0000000   0.0000000
 NQMom=    0.0000000   0.0000000   0.0000000   0.0000000   0.0000000  -8.1650000   0.0000000   0.0000000   0.0000000   0.0000000
 NMagM=    0.0000000   0.0000000   0.0000000   0.0000000   0.0000000   0.8218740   2.7928460   2.7928460   2.7928460   2.7928460

  Atom        21          22          23          24          25          26          27          28          29
 IAtWgt=           1           1           1           1           1           1           1           1           1
 AtmWgt=   1.0078250   1.0078250   1.0078250   1.0078250   1.0078250   1.0078250   1.0078250   1.0078250   1.0078250
 NucSpn=           1           1           1           1           1           1           1           1           1
 AtZEff=   0.0000000   0.0000000   0.0000000   0.0000000   0.0000000   0.0000000   0.0000000   0.0000000   0.0000000
 NQMom=    0.0000000   0.0000000   0.0000000   0.0000000   0.0000000   0.0000000   0.0000000   0.0000000   0.0000000
 NMagM=    2.7928460   2.7928460   2.7928460   2.7928460   2.7928460   2.7928460   2.7928460   2.7928460   2.7928460
 Leave Link  101 at Wed Sep 29 00:13:15 2021, MaxMem= 1073741824 cpu:       0.2
 (Enter /sw/target/amd/app/gaussian/Gaussian09RevA.02_gcc-4.9.2/g09/l103.exe)

 GradGradGradGradGradGradGradGradGradGradGradGradGradGradGradGradGradGrad
 Berny optimization.
 Initialization pass.
                           ----------------------------
                           !    Initial Parameters    !
                           ! (Angstroms and Degrees)  !
 --------------------------                            --------------------------
 ! Name  Definition              Value          Derivative Info.                !
 --------------------------------------------------------------------------------
 ! R1    R(1,2)                  1.422          estimate D2E/DX2                !
 ! R2    R(1,17)                 1.0943         estimate D2E/DX2                !
 ! R3    R(1,18)                 1.095          estimate D2E/DX2                !
 ! R4    R(1,19)                 1.095          estimate D2E/DX2                !
 ! R5    R(2,3)                  1.3673         estimate D2E/DX2                !
 ! R6    R(3,4)                  1.3931         estimate D2E/DX2                !
 ! R7    R(3,8)                  1.3948         estimate D2E/DX2                !
 ! R8    R(4,5)                  1.4002         estimate D2E/DX2                !
 ! R9    R(4,20)                 1.085          estimate D2E/DX2                !
 ! R10   R(5,6)                  1.4066         estimate D2E/DX2                !
 ! R11   R(5,21)                 1.0887         estimate D2E/DX2                !
 ! R12   R(6,7)                  1.4028         estimate D2E/DX2                !
 ! R13   R(6,9)                  1.5221         estimate D2E/DX2                !
 ! R14   R(7,8)                  1.3989         estimate D2E/DX2                !
 ! R15   R(7,22)                 1.0871         estimate D2E/DX2                !
 ! R16   R(8,23)                 1.088          estimate D2E/DX2                !
 ! R17   R(9,10)                 1.5186         estimate D2E/DX2                !
 ! R18   R(9,16)                 1.7937         estimate D2E/DX2                !
 ! R19   R(9,24)                 1.0969         estimate D2E/DX2                !
 ! R20   R(10,11)                1.405          estimate D2E/DX2                !
 ! R21   R(10,15)                1.4063         estimate D2E/DX2                !
 ! R22   R(11,12)                1.3976         estimate D2E/DX2                !
 ! R23   R(11,25)                1.0877         estimate D2E/DX2                !
 ! R24   R(12,13)                1.3922         estimate D2E/DX2                !
 ! R25   R(12,26)                1.0872         estimate D2E/DX2                !
 ! R26   R(13,14)                1.3921         estimate D2E/DX2                !
 ! R27   R(13,27)                1.087          estimate D2E/DX2                !
 ! R28   R(14,15)                1.3967         estimate D2E/DX2                !
 ! R29   R(14,28)                1.0871         estimate D2E/DX2                !
 ! R30   R(15,29)                1.0878         estimate D2E/DX2                !
 ! A1    A(2,1,17)             107.8414         estimate D2E/DX2                !
 ! A2    A(2,1,18)             111.3822         estimate D2E/DX2                !
 ! A3    A(2,1,19)             110.8797         estimate D2E/DX2                !
 ! A4    A(17,1,18)            107.5368         estimate D2E/DX2                !
 ! A5    A(17,1,19)            107.8208         estimate D2E/DX2                !
 ! A6    A(18,1,19)            111.1949         estimate D2E/DX2                !
 ! A7    A(1,2,3)              116.8416         estimate D2E/DX2                !
 ! A8    A(2,3,4)              126.1248         estimate D2E/DX2                !
 ! A9    A(2,3,8)              114.8801         estimate D2E/DX2                !
 ! A10   A(4,3,8)              118.9948         estimate D2E/DX2                !
 ! A11   A(3,4,5)              120.2512         estimate D2E/DX2                !
 ! A12   A(3,4,20)             121.761          estimate D2E/DX2                !
 ! A13   A(5,4,20)             117.9872         estimate D2E/DX2                !
 ! A14   A(4,5,6)              121.3029         estimate D2E/DX2                !
 ! A15   A(4,5,21)             118.4876         estimate D2E/DX2                !
 ! A16   A(6,5,21)             120.2084         estimate D2E/DX2                !
 ! A17   A(5,6,7)              117.7674         estimate D2E/DX2                !
 ! A18   A(5,6,9)              119.0556         estimate D2E/DX2                !
 ! A19   A(7,6,9)              123.1704         estimate D2E/DX2                !
 ! A20   A(6,7,8)              120.7846         estimate D2E/DX2                !
 ! A21   A(6,7,22)             120.9565         estimate D2E/DX2                !
 ! A22   A(8,7,22)             118.2565         estimate D2E/DX2                !
 ! A23   A(3,8,7)              120.8812         estimate D2E/DX2                !
 ! A24   A(3,8,23)             119.5815         estimate D2E/DX2                !
 ! A25   A(7,8,23)             119.5368         estimate D2E/DX2                !
 ! A26   A(6,9,10)             115.0445         estimate D2E/DX2                !
 ! A27   A(6,9,16)             112.6978         estimate D2E/DX2                !
 ! A28   A(6,9,24)             106.7985         estimate D2E/DX2                !
 ! A29   A(10,9,16)            109.8537         estimate D2E/DX2                !
 ! A30   A(10,9,24)            108.5907         estimate D2E/DX2                !
 ! A31   A(16,9,24)            103.0305         estimate D2E/DX2                !
 ! A32   A(9,10,11)            122.0723         estimate D2E/DX2                !
 ! A33   A(9,10,15)            119.6928         estimate D2E/DX2                !
 ! A34   A(11,10,15)           118.2161         estimate D2E/DX2                !
 ! A35   A(10,11,12)           120.7948         estimate D2E/DX2                !
 ! A36   A(10,11,25)           120.5463         estimate D2E/DX2                !
 ! A37   A(12,11,25)           118.6558         estimate D2E/DX2                !
 ! A38   A(11,12,13)           120.1497         estimate D2E/DX2                !
 ! A39   A(11,12,26)           119.8931         estimate D2E/DX2                !
 ! A40   A(13,12,26)           119.9557         estimate D2E/DX2                !
 ! A41   A(12,13,14)           119.8817         estimate D2E/DX2                !
 ! A42   A(12,13,27)           120.0607         estimate D2E/DX2                !
 ! A43   A(14,13,27)           120.0563         estimate D2E/DX2                !
 ! A44   A(13,14,15)           120.0737         estimate D2E/DX2                !
 ! A45   A(13,14,28)           119.9469         estimate D2E/DX2                !
 ! A46   A(15,14,28)           119.9778         estimate D2E/DX2                !
 ! A47   A(10,15,14)           120.884          estimate D2E/DX2                !
 ! A48   A(10,15,29)           120.5098         estimate D2E/DX2                !
 ! A49   A(14,15,29)           118.6025         estimate D2E/DX2                !
 ! D1    D(17,1,2,3)           177.8699         estimate D2E/DX2                !
 ! D2    D(18,1,2,3)            60.0975         estimate D2E/DX2                !
 ! D3    D(19,1,2,3)           -64.2984         estimate D2E/DX2                !
 ! D4    D(1,2,3,4)             -1.6306         estimate D2E/DX2                !
 ! D5    D(1,2,3,8)            178.5748         estimate D2E/DX2                !
 ! D6    D(2,3,4,5)           -179.1857         estimate D2E/DX2                !
 ! D7    D(2,3,4,20)             0.522          estimate D2E/DX2                !
 ! D8    D(8,3,4,5)              0.6014         estimate D2E/DX2                !
 ! D9    D(8,3,4,20)          -179.691          estimate D2E/DX2                !
 ! D10   D(2,3,8,7)            179.3323         estimate D2E/DX2                !
 ! D11   D(2,3,8,23)            -0.411          estimate D2E/DX2                !
 ! D12   D(4,3,8,7)             -0.4781         estimate D2E/DX2                !
 ! D13   D(4,3,8,23)           179.7787         estimate D2E/DX2                !
 ! D14   D(3,4,5,6)              0.3331         estimate D2E/DX2                !
 ! D15   D(3,4,5,21)           179.9488         estimate D2E/DX2                !
 ! D16   D(20,4,5,6)          -179.3854         estimate D2E/DX2                !
 ! D17   D(20,4,5,21)            0.2303         estimate D2E/DX2                !
 ! D18   D(4,5,6,7)             -1.3603         estimate D2E/DX2                !
 ! D19   D(4,5,6,9)            179.5416         estimate D2E/DX2                !
 ! D20   D(21,5,6,7)           179.0305         estimate D2E/DX2                !
 ! D21   D(21,5,6,9)            -0.0676         estimate D2E/DX2                !
 ! D22   D(5,6,7,8)              1.4799         estimate D2E/DX2                !
 ! D23   D(5,6,7,22)          -179.0982         estimate D2E/DX2                !
 ! D24   D(9,6,7,8)           -179.4621         estimate D2E/DX2                !
 ! D25   D(9,6,7,22)            -0.0401         estimate D2E/DX2                !
 ! D26   D(5,6,9,10)            88.9231         estimate D2E/DX2                !
 ! D27   D(5,6,9,16)          -144.0802         estimate D2E/DX2                !
 ! D28   D(5,6,9,24)           -31.6498         estimate D2E/DX2                !
 ! D29   D(7,6,9,10)           -90.1234         estimate D2E/DX2                !
 ! D30   D(7,6,9,16)            36.8732         estimate D2E/DX2                !
 ! D31   D(7,6,9,24)           149.3037         estimate D2E/DX2                !
 ! D32   D(6,7,8,3)             -0.5868         estimate D2E/DX2                !
 ! D33   D(6,7,8,23)           179.1566         estimate D2E/DX2                !
 ! D34   D(22,7,8,3)           179.976          estimate D2E/DX2                !
 ! D35   D(22,7,8,23)           -0.2806         estimate D2E/DX2                !
 ! D36   D(6,9,10,11)           59.9307         estimate D2E/DX2                !
 ! D37   D(6,9,10,15)         -121.6741         estimate D2E/DX2                !
 ! D38   D(16,9,10,11)         -68.4985         estimate D2E/DX2                !
 ! D39   D(16,9,10,15)         109.8968         estimate D2E/DX2                !
 ! D40   D(24,9,10,11)         179.5163         estimate D2E/DX2                !
 ! D41   D(24,9,10,15)          -2.0885         estimate D2E/DX2                !
 ! D42   D(9,10,11,12)         178.4486         estimate D2E/DX2                !
 ! D43   D(9,10,11,25)          -0.9041         estimate D2E/DX2                !
 ! D44   D(15,10,11,12)          0.0307         estimate D2E/DX2                !
 ! D45   D(15,10,11,25)       -179.322          estimate D2E/DX2                !
 ! D46   D(9,10,15,14)        -178.4469         estimate D2E/DX2                !
 ! D47   D(9,10,15,29)           0.8384         estimate D2E/DX2                !
 ! D48   D(11,10,15,14)          0.0099         estimate D2E/DX2                !
 ! D49   D(11,10,15,29)        179.2952         estimate D2E/DX2                !
 ! D50   D(10,11,12,13)         -0.0759         estimate D2E/DX2                !
 ! D51   D(10,11,12,26)       -179.6279         estimate D2E/DX2                !
 ! D52   D(25,11,12,13)        179.2889         estimate D2E/DX2                !
 ! D53   D(25,11,12,26)         -0.2632         estimate D2E/DX2                !
 ! D54   D(11,12,13,14)          0.0797         estimate D2E/DX2                !
 ! D55   D(11,12,13,27)       -179.4987         estimate D2E/DX2                !
 ! D56   D(26,12,13,14)        179.6315         estimate D2E/DX2                !
 ! D57   D(26,12,13,27)          0.053          estimate D2E/DX2                !
 ! D58   D(12,13,14,15)         -0.0394         estimate D2E/DX2                !
 ! D59   D(12,13,14,28)       -179.58           estimate D2E/DX2                !
 ! D60   D(27,13,14,15)        179.5391         estimate D2E/DX2                !
 ! D61   D(27,13,14,28)         -0.0016         estimate D2E/DX2                !
 ! D62   D(13,14,15,10)         -0.0056         estimate D2E/DX2                !
 ! D63   D(13,14,15,29)       -179.3042         estimate D2E/DX2                !
 ! D64   D(28,14,15,10)        179.535          estimate D2E/DX2                !
 ! D65   D(28,14,15,29)          0.2363         estimate D2E/DX2                !
 --------------------------------------------------------------------------------
 Trust Radius=3.00D-01 FncErr=1.00D-07 GrdErr=1.00D-06
 Number of steps in this run= 154 maximum allowed number of steps= 174.
 GradGradGradGradGradGradGradGradGradGradGradGradGradGradGradGradGradGrad

 Leave Link  103 at Wed Sep 29 00:13:15 2021, MaxMem= 1073741824 cpu:       0.0
 (Enter /sw/target/amd/app/gaussian/Gaussian09RevA.02_gcc-4.9.2/g09/l202.exe)
                          Input orientation:                          
 ---------------------------------------------------------------------
 Center     Atomic      Atomic             Coordinates (Angstroms)
 Number     Number       Type             X           Y           Z
 ---------------------------------------------------------------------
      1          6           0        1.347912    1.178638   -0.379802
      2          8           0        2.356081    0.183111   -0.258401
      3          6           0        3.123303   -0.056656   -1.364432
      4          6           0        2.988974    0.559729   -2.606525
      5          6           0        3.835272    0.206418   -3.664530
      6          6           0        4.830323   -0.775418   -3.507901
      7          6           0        4.967736   -1.371048   -2.245277
      8          6           0        4.118979   -1.017872   -1.190810
      9          6           0        5.715227   -1.127116   -4.695381
     10          6           0        6.973755   -0.288038   -4.830051
     11          6           0        7.953765   -0.246341   -3.824177
     12          6           0        9.117335    0.510002   -3.989746
     13          6           0        9.319993    1.233853   -5.161617
     14          6           0        8.360103    1.204898   -6.169506
     15          6           0        7.196110    0.450467   -6.006017
     16         17           0        6.135917   -2.869841   -4.752930
     17          1           0        0.803818    1.222198    0.568616
     18          1           0        0.626332    0.922709   -1.162708
     19          1           0        1.791648    2.163839   -0.557128
     20          1           0        2.233481    1.316616   -2.789779
     21          1           0        3.704468    0.705696   -4.623069
     22          1           0        5.729275   -2.125026   -2.062556
     23          1           0        4.234723   -1.502688   -0.223654
     24          1           0        5.105410   -0.990007   -5.596766
     25          1           0        7.825772   -0.811803   -2.903927
     26          1           0        9.868918    0.526958   -3.204334
     27          1           0       10.229211    1.815097   -5.292244
     28          1           0        8.520384    1.764246   -7.087819
     29          1           0        6.467333    0.435758   -6.813513
 ---------------------------------------------------------------------
                    Distance matrix (angstroms):
                    1          2          3          4          5
     1  C    0.000000
     2  O    1.422047   0.000000
     3  C    2.376438   1.367268   0.000000
     4  C    2.834506   2.460911   1.393115   0.000000
     5  C    4.233391   3.713524   2.422098   1.400151   0.000000
     6  C    5.072525   4.195222   2.832842   2.446561   1.406649
     7  C    4.804583   3.630954   2.430113   2.788172   2.405235
     8  C    3.627836   2.327993   1.394794   2.402079   2.774647
     9  C    6.558518   5.717285   4.354214   3.826385   2.524916
    10  C    7.321609   6.514973   5.185560   4.641256   3.384229
    11  C    7.584957   6.650808   5.423992   5.175092   4.146380
    12  C    8.593178   7.729447   6.568242   6.282721   5.300766
    13  C    9.296391   8.581472   7.381260   6.860375   5.777461
    14  C    9.093524   8.487254   7.218333   6.477662   5.267443
    15  C    8.147757   7.518806   6.195905   5.410035   4.103335
    16  Cl   7.644567   6.618795   5.335894   5.125646   3.992612
    17  H    1.094273   2.042837   3.279047   3.910920   5.304813
    18  H    1.095043   2.087297   2.689742   2.792569   4.131523
    19  H    1.094974   2.081132   2.712129   2.864749   4.202837
    20  H    2.571237   2.776282   2.170086   1.085002   2.136226
    21  H    4.876714   4.597996   3.396711   2.144688   1.088662
    22  H    5.739529   4.467763   3.399503   3.874670   3.404291
    23  H    3.943040   2.524365   2.151195   3.388736   3.862671
    24  H    6.785169   6.118264   4.765768   3.977754   2.603502
    25  H    7.231579   6.156799   5.005348   5.036285   4.188005
    26  H    9.000567   8.077095   7.016350   6.905945   6.059654
    27  H   10.169298   9.486259   8.332172   7.823686   6.791153
    28  H    9.837926   9.334858   8.074734   7.220066   6.007996
    29  H    8.255482   7.741816   6.412292   5.460137   4.110528
                    6          7          8          9         10
     6  C    0.000000
     7  C    1.402810   0.000000
     8  C    2.435919   1.398937   0.000000
     9  C    1.522123   2.573180   3.852527   0.000000
    10  C    2.565137   3.446459   4.682572   1.518579   0.000000
    11  C    3.183684   3.560093   4.715450   2.558479   1.404970
    12  C    4.501440   4.878596   5.928913   3.840887   2.436784
    13  C    5.189325   5.850872   6.920125   4.334269   2.816189
    14  C    4.844083   5.791651   6.907623   3.821871   2.438228
    15  C    3.652442   4.735687   5.900083   2.529733   1.406317
    16  Cl   2.764286   3.146322   4.492942   1.793706   2.715442
    17  H    6.068047   5.655186   4.370787   7.573037   8.336339
    18  H    5.104616   5.028028   3.995651   6.525214   7.430014
    19  H    5.155564   5.043096   3.992657   6.584072   7.150092
    20  H    3.411142   3.872489   3.400240   4.661084   5.404426
    21  H    2.169066   3.400383   3.863018   2.721687   3.423242
    22  H    2.172229   1.087112   2.139810   2.815633   3.547152
    23  H    3.416128   2.154436   1.088041   4.725388   5.495140
    24  H    2.117801   3.375889   4.515116   1.096891   2.138067
    25  H    3.055950   2.985791   4.088711   2.786240   2.170304
    26  H    5.213039   5.342640   6.285108   4.712996   3.418938
    27  H    6.248411   6.864302   7.885582   5.421154   3.903177
    28  H    5.734306   6.775072   7.866846   4.685364   3.420738
    29  H    3.882502   5.136353   6.264391   2.737648   2.171282
                   11         12         13         14         15
    11  C    0.000000
    12  C    1.397628   0.000000
    13  C    2.417913   1.392233   0.000000
    14  C    2.787790   2.409903   1.392145   0.000000
    15  C    2.412469   2.785677   2.416109   1.396701   0.000000
    16  Cl   3.324140   4.571066   5.210151   4.853575   3.703874
    17  H    8.519095   9.507916  10.264548  10.124230   9.202324
    18  H    7.882980   8.958773   9.574332   9.217314   8.175735
    19  H    7.379314   8.257345   8.873679   8.692695   7.863476
    20  H    6.019507   7.034059   7.473360   6.997894   5.976796
    21  H    4.427316   5.453304   5.665960   4.931085   3.764207
    22  H    3.403105   4.704932   5.812014   5.905648   4.933118
    23  H    5.326673   6.486468   7.598165   7.726767   6.783829
    24  H    3.436312   4.574723   4.785146   3.967199   2.571669
    25  H    1.087653   2.143433   3.393313   3.875126   3.407750
    26  H    2.156387   1.087215   2.152203   3.395345   3.872877
    27  H    3.403292   2.153146   1.087007   2.153020   3.401674
    28  H    3.874903   3.395222   2.151963   1.087134   2.156389
    29  H    3.407472   3.873201   3.391664   2.142171   1.087834
                   16         17         18         19         20
    16  Cl   0.000000
    17  H    8.572917   0.000000
    18  H    7.591353   1.765978   0.000000
    19  H    7.862274   1.769123   1.806957   0.000000
    20  H    6.050569   3.651256   2.320658   2.428525   0.000000
    21  H    4.325884   5.969433   4.636390   4.724080   2.428575
    22  H    2.821031   6.510538   6.011526   6.013783   4.959267
    23  H    5.098821   4.452393   4.448018   4.418512   4.305629
    24  H    2.303862   7.836420   6.586463   6.806300   4.631162
    25  H    3.241904   8.093427   7.607386   7.125488   5.984724
    26  H    5.279364   9.843503   9.473661   8.656175   7.687347
    27  H    6.244562  11.114821  10.491173   9.681705   8.393003
    28  H    5.710705  10.883943   9.906119   9.385387   7.628805
    29  H    3.909325   9.337544   8.141623   7.999416   5.906932
                   21         22         23         24         25
    21  H    0.000000
    22  H    4.320770   0.000000
    23  H    4.951058   2.450010   0.000000
    24  H    2.405438   3.764056   5.467291   0.000000
    25  H    4.716291   2.612999   4.533963   3.831908   0.000000
    26  H    6.328127   5.047110   6.689399   5.542195   2.461091
    27  H    6.652130   6.797417   8.522451   5.849332   4.287327
    28  H    5.512583   6.940461   8.726769   4.633702   4.962204
    29  H    3.536147   5.447379   7.222767   2.316919   4.322803
                   26         27         28         29
    26  H    0.000000
    27  H    2.479613   0.000000
    28  H    4.293120   2.479267   0.000000
    29  H    4.960370   4.285856   2.460720   0.000000
 Stoichiometry    C14H13ClO
 Framework group  C1[X(C14H13ClO)]
 Deg. of freedom    81
 Full point group                 C1      NOp   1
 Largest Abelian subgroup         C1      NOp   1
 Largest concise Abelian subgroup C1      NOp   1
                         Standard orientation:                         
 ---------------------------------------------------------------------
 Center     Atomic      Atomic             Coordinates (Angstroms)
 Number     Number       Type             X           Y           Z
 ---------------------------------------------------------------------
      1          6           0        5.209180   -1.295448   -0.260372
      2          8           0        4.437861   -0.490106    0.622073
      3          6           0        3.155383   -0.209619    0.239979
      4          6           0        2.545115   -0.611966   -0.945965
      5          6           0        1.223838   -0.239224   -1.221122
      6          6           0        0.484488    0.549571   -0.321219
      7          6           0        1.105210    0.928176    0.878464
      8          6           0        2.426352    0.556446    1.149434
      9          6           0       -0.944791    0.933773   -0.676760
     10          6           0       -2.006590   -0.055424   -0.229377
     11          6           0       -2.193309   -0.388796    1.122636
     12          6           0       -3.200098   -1.278394    1.507804
     13          6           0       -4.035441   -1.846415    0.549750
     14          6           0       -3.865637   -1.528219   -0.794864
     15          6           0       -2.859681   -0.640127   -1.182313
     16         17           0       -1.376577    2.583705   -0.121185
     17          1           0        6.211981   -1.394493    0.166259
     18          1           0        5.313771   -0.823563   -1.242973
     19          1           0        4.781175   -2.299579   -0.346975
     20          1           0        3.068570   -1.212690   -1.682412
     21          1           0        0.775487   -0.568750   -2.156845
     22          1           0        0.576684    1.525228    1.617381
     23          1           0        2.892418    0.872828    2.080304
     24          1           0       -0.986965    1.021757   -1.769304
     25          1           0       -1.562237    0.049704    1.892348
     26          1           0       -3.335482   -1.521402    2.558829
     27          1           0       -4.823228   -2.531817    0.851741
     28          1           0       -4.521689   -1.965847   -1.543153
     29          1           0       -2.755674   -0.399516   -2.238093
 ---------------------------------------------------------------------
 Rotational constants (GHZ):      0.8562514      0.2434997      0.2186766
 Leave Link  202 at Wed Sep 29 00:13:15 2021, MaxMem= 1073741824 cpu:       0.0
 (Enter /sw/target/amd/app/gaussian/Gaussian09RevA.02_gcc-4.9.2/g09/l301.exe)
 Standard basis: 6-31G(d) (6D, 7F)
 Ernie: Thresh=  0.10000D-02 Tol=  0.10000D-05 Strict=F.
 There are   270 symmetry adapted basis functions of A   symmetry.
 Integral buffers will be    131072 words long.
 Raffenetti 2 integral format.
 Two-electron integral symmetry is turned on.
   270 basis functions,   524 primitive gaussians,   270 cartesian basis functions
    61 alpha electrons       61 beta electrons
       nuclear repulsion energy      1105.0747874853 Hartrees.
 IExCor=  402 DFT=T Ex+Corr=B3LYP ExCW=0 ScaHFX=  0.200000
 ScaDFX=  0.800000  0.720000  1.000000  0.810000 ScalE2=  1.000000  1.000000
 IRadAn=      0 IRanWt=     -1 IRanGd=            0 ICorTp=0
 NAtoms=   29 NActive=   29 NUniq=   29 SFac= 7.50D-01 NAtFMM=   80 NAOKFM=F Big=F
 Leave Link  301 at Wed Sep 29 00:13:15 2021, MaxMem= 1073741824 cpu:       0.1
 (Enter /sw/target/amd/app/gaussian/Gaussian09RevA.02_gcc-4.9.2/g09/l302.exe)
 NPDir=0 NMtPBC=     1 NCelOv=     1 NCel=       1 NClECP=     1 NCelD=      1
         NCelK=      1 NCelE2=     1 NClLst=     1 CellRange=     0.0.
 One-electron integrals computed using PRISM.
 NBasis=   270 RedAO= T  NBF=   270
 NBsUse=   270 1.00D-06 NBFU=   270
 Precomputing XC quadrature grid using
 IXCGrd= 2 IRadAn=           0 IRanWt=          -1 IRanGd=           0 AccXCQ= 1.00D-10.
 NRdTot=    1839 NPtTot=      234384 NUsed=      247647 NTot=      247679
 NSgBfM=   267   267   267   267   267 NAtAll=    29    29.
 Leave Link  302 at Wed Sep 29 00:13:19 2021, MaxMem= 1073741824 cpu:       2.4
 (Enter /sw/target/amd/app/gaussian/Gaussian09RevA.02_gcc-4.9.2/g09/l303.exe)
 DipDrv:  MaxL=1.
 Leave Link  303 at Wed Sep 29 00:13:19 2021, MaxMem= 1073741824 cpu:       0.2
 (Enter /sw/target/amd/app/gaussian/Gaussian09RevA.02_gcc-4.9.2/g09/l401.exe)
 Harris functional with IExCor=  402 diagonalized for initial guess.
 ExpMin= 1.43D-01 ExpMax= 2.52D+04 ExpMxC= 3.78D+03 IAcc=1 IRadAn=         1 AccDes= 0.00D+00
 HarFok:  IExCor=  402 AccDes= 0.00D+00 IRadAn=         1 IDoV= 1
 ScaDFX=  1.000000  1.000000  1.000000  1.000000
 FoFCou: FMM=F IPFlag=           0 FMFlag=      100000 FMFlg1=           0
         NFxFlg=           0 DoJE=T BraDBF=F KetDBF=T FulRan=T
         Omega=  0.000000  0.000000  1.000000  0.000000  0.000000 ICntrl=     500 IOpCl=  0
         NMat0=    1 NMatS0=    1 NMatT0=    0 NMatD0=    1 NMtDS0=    0 NMtDT0=    0
         I1Cent=           4 NGrid=           0.
 Petite list used in FoFCou.
 Harris En= -1076.75073768077    
 Initial guess orbital symmetries:
       Occupied  (A) (A) (A) (A) (A) (A) (A) (A) (A) (A) (A) (A)
                 (A) (A) (A) (A) (A) (A) (A) (A) (A) (A) (A) (A)
                 (A) (A) (A) (A) (A) (A) (A) (A) (A) (A) (A) (A)
                 (A) (A) (A) (A) (A) (A) (A) (A) (A) (A) (A) (A)
                 (A) (A) (A) (A) (A) (A) (A) (A) (A) (A) (A) (A)
                 (A)
       Virtual   (A) (A) (A) (A) (A) (A) (A) (A) (A) (A) (A) (A)
                 (A) (A) (A) (A) (A) (A) (A) (A) (A) (A) (A) (A)
                 (A) (A) (A) (A) (A) (A) (A) (A) (A) (A) (A) (A)
                 (A) (A) (A) (A) (A) (A) (A) (A) (A) (A) (A) (A)
                 (A) (A) (A) (A) (A) (A) (A) (A) (A) (A) (A) (A)
                 (A) (A) (A) (A) (A) (A) (A) (A) (A) (A) (A) (A)
                 (A) (A) (A) (A) (A) (A) (A) (A) (A) (A) (A) (A)
                 (A) (A) (A) (A) (A) (A) (A) (A) (A) (A) (A) (A)
                 (A) (A) (A) (A) (A) (A) (A) (A) (A) (A) (A) (A)
                 (A) (A) (A) (A) (A) (A) (A) (A) (A) (A) (A) (A)
                 (A) (A) (A) (A) (A) (A) (A) (A) (A) (A) (A) (A)
                 (A) (A) (A) (A) (A) (A) (A) (A) (A) (A) (A) (A)
                 (A) (A) (A) (A) (A) (A) (A) (A) (A) (A) (A) (A)
                 (A) (A) (A) (A) (A) (A) (A) (A) (A) (A) (A) (A)
                 (A) (A) (A) (A) (A) (A) (A) (A) (A) (A) (A) (A)
                 (A) (A) (A) (A) (A) (A) (A) (A) (A) (A) (A) (A)
                 (A) (A) (A) (A) (A) (A) (A) (A) (A) (A) (A) (A)
                 (A) (A) (A) (A) (A)
 The electronic state of the initial guess is 1-A.
 Leave Link  401 at Wed Sep 29 00:13:31 2021, MaxMem= 1073741824 cpu:      10.1
 (Enter /sw/target/amd/app/gaussian/Gaussian09RevA.02_gcc-4.9.2/g09/l502.exe)
 Closed shell SCF:
 Requested convergence on RMS density matrix=1.00D-08 within  64 cycles.
 Requested convergence on MAX density matrix=1.00D-06.
 Requested convergence on             energy=1.00D-06.
 No special actions if energy rises.
 Using DIIS extrapolation, IDIIS=  1040.
 Integral symmetry usage will be decided dynamically.
       247373 words used for storage of precomputed grid.
 Keep R1 ints in memory in canonical form, NReq=679675809.
 IEnd=      475270 IEndB=      475270 NGot=  1073741824 MDV=   404094516
 LenX=   404094516 LenY=   404021175
 Symmetry not used in FoFDir.
 MinBra= 0 MaxBra= 2 Meth= 1.
 IRaf=       0 NMat=   1 IRICut=       1 DoRegI=T DoRafI=F ISym2E= 0 JSym2E=0.
 Integral accuracy reduced to 1.0D-05 until final iterations.

 Cycle   1  Pass 0  IDiag  1:
 E= -1076.38931556446    
 DIIS: error= 3.57D-02 at cycle   1 NSaved=   1.
 NSaved= 1 IEnMin= 1 EnMin= -1076.38931556446     IErMin= 1 ErrMin= 3.57D-02
 ErrMax= 3.57D-02 EMaxC= 1.00D-01 BMatC= 3.14D-01 BMatP= 3.14D-01
 IDIUse=3 WtCom= 6.43D-01 WtEn= 3.57D-01
 Coeff-Com:  0.100D+01
 Coeff-En:   0.100D+01
 Coeff:      0.100D+01
 Gap=     0.219 Goal=   None    Shift=    0.000
 GapD=    0.219 DampG=1.000 DampE=0.500 DampFc=0.5000 IDamp=-1.
 Damping current iteration by 5.00D-01
 RMSDP=4.84D-03 MaxDP=1.27D-01              OVMax= 1.58D-01

 Cycle   2  Pass 0  IDiag  1:
 E= -1076.54751848021     Delta-E=       -0.158202915754 Rises=F Damp=T
 DIIS: error= 1.18D-02 at cycle   2 NSaved=   2.
 NSaved= 2 IEnMin= 2 EnMin= -1076.54751848021     IErMin= 2 ErrMin= 1.18D-02
 ErrMax= 1.18D-02 EMaxC= 1.00D-01 BMatC= 1.70D-02 BMatP= 3.14D-01
 IDIUse=3 WtCom= 8.82D-01 WtEn= 1.18D-01
 Coeff-Com:  0.896D-02 0.991D+00
 Coeff-En:   0.306D-01 0.969D+00
 Coeff:      0.115D-01 0.988D+00
 Gap=     0.230 Goal=   None    Shift=    0.000
 RMSDP=1.31D-03 MaxDP=4.16D-02 DE=-1.58D-01 OVMax= 1.06D-01

 Cycle   3  Pass 0  IDiag  1:
 E= -1076.72052953104     Delta-E=       -0.173011050824 Rises=F Damp=F
 DIIS: error= 3.15D-03 at cycle   3 NSaved=   3.
 NSaved= 3 IEnMin= 3 EnMin= -1076.72052953104     IErMin= 3 ErrMin= 3.15D-03
 ErrMax= 3.15D-03 EMaxC= 1.00D-01 BMatC= 6.30D-03 BMatP= 1.70D-02
 IDIUse=3 WtCom= 9.69D-01 WtEn= 3.15D-02
 Coeff-Com: -0.424D-01 0.354D+00 0.689D+00
 Coeff-En:   0.000D+00 0.000D+00 0.100D+01
 Coeff:     -0.411D-01 0.342D+00 0.699D+00
 Gap=     0.203 Goal=   None    Shift=    0.000
 RMSDP=5.73D-04 MaxDP=2.03D-02 DE=-1.73D-01 OVMax= 4.96D-02

 Cycle   4  Pass 0  IDiag  1:
 E= -1076.72357705578     Delta-E=       -0.003047524747 Rises=F Damp=F
 DIIS: error= 2.98D-03 at cycle   4 NSaved=   4.
 NSaved= 4 IEnMin= 4 EnMin= -1076.72357705578     IErMin= 4 ErrMin= 2.98D-03
 ErrMax= 2.98D-03 EMaxC= 1.00D-01 BMatC= 3.36D-03 BMatP= 6.30D-03
 IDIUse=3 WtCom= 9.70D-01 WtEn= 2.98D-02
 Coeff-Com: -0.268D-01 0.120D+00 0.446D+00 0.461D+00
 Coeff-En:   0.000D+00 0.000D+00 0.364D+00 0.636D+00
 Coeff:     -0.260D-01 0.116D+00 0.443D+00 0.467D+00
 Gap=     0.197 Goal=   None    Shift=    0.000
 RMSDP=2.85D-04 MaxDP=9.29D-03 DE=-3.05D-03 OVMax= 2.90D-02

 Cycle   5  Pass 0  IDiag  1:
 E= -1076.72702219552     Delta-E=       -0.003445139738 Rises=F Damp=F
 DIIS: error= 7.05D-04 at cycle   5 NSaved=   5.
 NSaved= 5 IEnMin= 5 EnMin= -1076.72702219552     IErMin= 5 ErrMin= 7.05D-04
 ErrMax= 7.05D-04 EMaxC= 1.00D-01 BMatC= 1.99D-04 BMatP= 3.36D-03
 IDIUse=3 WtCom= 9.93D-01 WtEn= 7.05D-03
 Coeff-Com: -0.872D-02 0.267D-01 0.157D+00 0.252D+00 0.573D+00
 Coeff-En:   0.000D+00 0.000D+00 0.000D+00 0.000D+00 0.100D+01
 Coeff:     -0.866D-02 0.265D-01 0.156D+00 0.250D+00 0.576D+00
 Gap=     0.197 Goal=   None    Shift=    0.000
 RMSDP=7.54D-05 MaxDP=2.70D-03 DE=-3.45D-03 OVMax= 5.98D-03

 Cycle   6  Pass 0  IDiag  1:
 E= -1076.72721246547     Delta-E=       -0.000190269946 Rises=F Damp=F
 DIIS: error= 2.94D-04 at cycle   6 NSaved=   6.
 NSaved= 6 IEnMin= 6 EnMin= -1076.72721246547     IErMin= 6 ErrMin= 2.94D-04
 ErrMax= 2.94D-04 EMaxC= 1.00D-01 BMatC= 2.44D-05 BMatP= 1.99D-04
 IDIUse=3 WtCom= 9.97D-01 WtEn= 2.94D-03
 Coeff-Com: -0.359D-02 0.842D-02 0.667D-01 0.122D+00 0.351D+00 0.455D+00
 Coeff-En:   0.000D+00 0.000D+00 0.000D+00 0.000D+00 0.518D-01 0.948D+00
 Coeff:     -0.358D-02 0.839D-02 0.665D-01 0.122D+00 0.351D+00 0.456D+00
 Gap=     0.197 Goal=   None    Shift=    0.000
 RMSDP=2.72D-05 MaxDP=6.50D-04 DE=-1.90D-04 OVMax= 2.17D-03

 Cycle   7  Pass 0  IDiag  1:
 E= -1076.72723719218     Delta-E=       -0.000024726712 Rises=F Damp=F
 DIIS: error= 1.24D-04 at cycle   7 NSaved=   7.
 NSaved= 7 IEnMin= 7 EnMin= -1076.72723719218     IErMin= 7 ErrMin= 1.24D-04
 ErrMax= 1.24D-04 EMaxC= 1.00D-01 BMatC= 2.28D-06 BMatP= 2.44D-05
 IDIUse=3 WtCom= 9.99D-01 WtEn= 1.24D-03
 Coeff-Com: -0.124D-02 0.195D-02 0.241D-01 0.479D-01 0.154D+00 0.280D+00
 Coeff-Com:  0.493D+00
 Coeff-En:   0.000D+00 0.000D+00 0.000D+00 0.000D+00 0.000D+00 0.431D-01
 Coeff-En:   0.957D+00
 Coeff:     -0.124D-02 0.195D-02 0.241D-01 0.478D-01 0.154D+00 0.279D+00
 Coeff:      0.494D+00
 Gap=     0.197 Goal=   None    Shift=    0.000
 RMSDP=7.54D-06 MaxDP=2.96D-04 DE=-2.47D-05 OVMax= 5.58D-04

 Initial convergence to 1.0D-05 achieved.  Increase integral accuracy.
 Cycle   8  Pass 1  IDiag  1:
 E= -1076.72734646317     Delta-E=       -0.000109270987 Rises=F Damp=F
 DIIS: error= 2.72D-05 at cycle   1 NSaved=   1.
 NSaved= 1 IEnMin= 1 EnMin= -1076.72734646317     IErMin= 1 ErrMin= 2.72D-05
 ErrMax= 2.72D-05 EMaxC= 1.00D-01 BMatC= 1.94D-07 BMatP= 1.94D-07
 IDIUse=1 WtCom= 1.00D+00 WtEn= 0.00D+00
 Coeff-Com:  0.100D+01
 Coeff:      0.100D+01
 Gap=     0.197 Goal=   None    Shift=    0.000
 RMSDP=7.54D-06 MaxDP=2.96D-04 DE=-1.09D-04 OVMax= 2.66D-04

 Cycle   9  Pass 1  IDiag  1:
 E= -1076.72734636366     Delta-E=        0.000000099505 Rises=F Damp=F
 DIIS: error= 4.55D-05 at cycle   2 NSaved=   2.
 NSaved= 2 IEnMin= 1 EnMin= -1076.72734646317     IErMin= 1 ErrMin= 2.72D-05
 ErrMax= 4.55D-05 EMaxC= 1.00D-01 BMatC= 3.04D-07 BMatP= 1.94D-07
 IDIUse=1 WtCom= 1.00D+00 WtEn= 0.00D+00
 Coeff-Com:  0.566D+00 0.434D+00
 Coeff:      0.566D+00 0.434D+00
 Gap=     0.197 Goal=   None    Shift=    0.000
 RMSDP=2.83D-06 MaxDP=7.98D-05 DE= 9.95D-08 OVMax= 2.32D-04

 Cycle  10  Pass 1  IDiag  1:
 E= -1076.72734666272     Delta-E=       -0.000000299056 Rises=F Damp=F
 DIIS: error= 1.51D-05 at cycle   3 NSaved=   3.
 NSaved= 3 IEnMin= 3 EnMin= -1076.72734666272     IErMin= 3 ErrMin= 1.51D-05
 ErrMax= 1.51D-05 EMaxC= 1.00D-01 BMatC= 2.97D-08 BMatP= 1.94D-07
 IDIUse=1 WtCom= 1.00D+00 WtEn= 0.00D+00
 Coeff-Com:  0.123D+00 0.243D+00 0.634D+00
 Coeff:      0.123D+00 0.243D+00 0.634D+00
 Gap=     0.197 Goal=   None    Shift=    0.000
 RMSDP=1.09D-06 MaxDP=2.47D-05 DE=-2.99D-07 OVMax= 8.63D-05

 Cycle  11  Pass 1  IDiag  1:
 E= -1076.72734668848     Delta-E=       -0.000000025761 Rises=F Damp=F
 DIIS: error= 3.44D-06 at cycle   4 NSaved=   4.
 NSaved= 4 IEnMin= 4 EnMin= -1076.72734668848     IErMin= 4 ErrMin= 3.44D-06
 ErrMax= 3.44D-06 EMaxC= 1.00D-01 BMatC= 8.23D-09 BMatP= 2.97D-08
 IDIUse=1 WtCom= 1.00D+00 WtEn= 0.00D+00
 Coeff-Com: -0.730D-02 0.940D-01 0.421D+00 0.493D+00
 Coeff:     -0.730D-02 0.940D-01 0.421D+00 0.493D+00
 Gap=     0.197 Goal=   None    Shift=    0.000
 RMSDP=4.01D-07 MaxDP=1.22D-05 DE=-2.58D-08 OVMax= 2.57D-05

 Cycle  12  Pass 1  IDiag  1:
 E= -1076.72734669677     Delta-E=       -0.000000008291 Rises=F Damp=F
 DIIS: error= 5.98D-07 at cycle   5 NSaved=   5.
 NSaved= 5 IEnMin= 5 EnMin= -1076.72734669677     IErMin= 5 ErrMin= 5.98D-07
 ErrMax= 5.98D-07 EMaxC= 1.00D-01 BMatC= 2.41D-10 BMatP= 8.23D-09
 IDIUse=1 WtCom= 1.00D+00 WtEn= 0.00D+00
 Coeff-Com: -0.877D-02 0.406D-01 0.200D+00 0.264D+00 0.504D+00
 Coeff:     -0.877D-02 0.406D-01 0.200D+00 0.264D+00 0.504D+00
 Gap=     0.197 Goal=   None    Shift=    0.000
 RMSDP=7.92D-08 MaxDP=2.12D-06 DE=-8.29D-09 OVMax= 6.97D-06

 Cycle  13  Pass 1  IDiag  1:
 E= -1076.72734669698     Delta-E=       -0.000000000213 Rises=F Damp=F
 DIIS: error= 2.28D-07 at cycle   6 NSaved=   6.
 NSaved= 6 IEnMin= 6 EnMin= -1076.72734669698     IErMin= 6 ErrMin= 2.28D-07
 ErrMax= 2.28D-07 EMaxC= 1.00D-01 BMatC= 2.51D-11 BMatP= 2.41D-10
 IDIUse=1 WtCom= 1.00D+00 WtEn= 0.00D+00
 Coeff-Com: -0.426D-02 0.150D-01 0.769D-01 0.107D+00 0.292D+00 0.514D+00
 Coeff:     -0.426D-02 0.150D-01 0.769D-01 0.107D+00 0.292D+00 0.514D+00
 Gap=     0.197 Goal=   None    Shift=    0.000
 RMSDP=2.47D-08 MaxDP=8.66D-07 DE=-2.13D-10 OVMax= 2.37D-06

 Cycle  14  Pass 1  IDiag  1:
 E= -1076.72734669703     Delta-E=       -0.000000000045 Rises=F Damp=F
 DIIS: error= 5.24D-08 at cycle   7 NSaved=   7.
 NSaved= 7 IEnMin= 7 EnMin= -1076.72734669703     IErMin= 7 ErrMin= 5.24D-08
 ErrMax= 5.24D-08 EMaxC= 1.00D-01 BMatC= 1.75D-12 BMatP= 2.51D-11
 IDIUse=1 WtCom= 1.00D+00 WtEn= 0.00D+00
 Coeff-Com: -0.124D-02 0.333D-02 0.178D-01 0.263D-01 0.950D-01 0.265D+00
 Coeff-Com:  0.594D+00
 Coeff:     -0.124D-02 0.333D-02 0.178D-01 0.263D-01 0.950D-01 0.265D+00
 Coeff:      0.594D+00
 Gap=     0.197 Goal=   None    Shift=    0.000
 RMSDP=6.15D-09 MaxDP=2.18D-07 DE=-4.46D-11 OVMax= 4.37D-07

 SCF Done:  E(RB3LYP) =  -1076.72734670     A.U. after   14 cycles
             Convg  =    0.6154D-08             -V/T =  2.0069
 KE= 1.069374567922D+03 PE=-4.734082103220D+03 EE= 1.482905401116D+03
 Leave Link  502 at Wed Sep 29 00:21:12 2021, MaxMem= 1073741824 cpu:     288.4
 (Enter /sw/target/amd/app/gaussian/Gaussian09RevA.02_gcc-4.9.2/g09/l508.exe)
 QCSCF skips out because SCF is already converged.
 Leave Link  508 at Wed Sep 29 00:21:13 2021, MaxMem= 1073741824 cpu:       0.0
 (Enter /sw/target/amd/app/gaussian/Gaussian09RevA.02_gcc-4.9.2/g09/l601.exe)
 Copying SCF densities to generalized density rwf, IOpCl= 0 IROHF=0.

 **********************************************************************

            Population analysis using the SCF density.

 **********************************************************************

 Orbital symmetries:
       Occupied  (A) (A) (A) (A) (A) (A) (A) (A) (A) (A) (A) (A)
                 (A) (A) (A) (A) (A) (A) (A) (A) (A) (A) (A) (A)
                 (A) (A) (A) (A) (A) (A) (A) (A) (A) (A) (A) (A)
                 (A) (A) (A) (A) (A) (A) (A) (A) (A) (A) (A) (A)
                 (A) (A) (A) (A) (A) (A) (A) (A) (A) (A) (A) (A)
                 (A)
       Virtual   (A) (A) (A) (A) (A) (A) (A) (A) (A) (A) (A) (A)
                 (A) (A) (A) (A) (A) (A) (A) (A) (A) (A) (A) (A)
                 (A) (A) (A) (A) (A) (A) (A) (A) (A) (A) (A) (A)
                 (A) (A) (A) (A) (A) (A) (A) (A) (A) (A) (A) (A)
                 (A) (A) (A) (A) (A) (A) (A) (A) (A) (A) (A) (A)
                 (A) (A) (A) (A) (A) (A) (A) (A) (A) (A) (A) (A)
                 (A) (A) (A) (A) (A) (A) (A) (A) (A) (A) (A) (A)
                 (A) (A) (A) (A) (A) (A) (A) (A) (A) (A) (A) (A)
                 (A) (A) (A) (A) (A) (A) (A) (A) (A) (A) (A) (A)
                 (A) (A) (A) (A) (A) (A) (A) (A) (A) (A) (A) (A)
                 (A) (A) (A) (A) (A) (A) (A) (A) (A) (A) (A) (A)
                 (A) (A) (A) (A) (A) (A) (A) (A) (A) (A) (A) (A)
                 (A) (A) (A) (A) (A) (A) (A) (A) (A) (A) (A) (A)
                 (A) (A) (A) (A) (A) (A) (A) (A) (A) (A) (A) (A)
                 (A) (A) (A) (A) (A) (A) (A) (A) (A) (A) (A) (A)
                 (A) (A) (A) (A) (A) (A) (A) (A) (A) (A) (A) (A)
                 (A) (A) (A) (A) (A) (A) (A) (A) (A) (A) (A) (A)
                 (A) (A) (A) (A) (A)
 The electronic state is 1-A.
 Alpha  occ. eigenvalues -- -101.52699 -19.18104 -10.25431 -10.24916 -10.24314
 Alpha  occ. eigenvalues --  -10.20494 -10.20036 -10.19808 -10.19458 -10.19274
 Alpha  occ. eigenvalues --  -10.19248 -10.19239 -10.19205 -10.19166 -10.19085
 Alpha  occ. eigenvalues --  -10.18655  -9.44394  -7.20781  -7.19808  -7.19795
 Alpha  occ. eigenvalues --   -1.06568  -0.88125  -0.85141  -0.83729  -0.76736
 Alpha  occ. eigenvalues --   -0.75199  -0.74760  -0.74449  -0.70702  -0.65824
 Alpha  occ. eigenvalues --   -0.61678  -0.60494  -0.59723  -0.57098  -0.53516
 Alpha  occ. eigenvalues --   -0.51623  -0.49009  -0.47775  -0.47309  -0.46674
 Alpha  occ. eigenvalues --   -0.45194  -0.44653  -0.42722  -0.42572  -0.42249
 Alpha  occ. eigenvalues --   -0.41754  -0.39984  -0.38053  -0.37873  -0.36320
 Alpha  occ. eigenvalues --   -0.35537  -0.35323  -0.34361  -0.33058  -0.31925
 Alpha  occ. eigenvalues --   -0.29275  -0.29031  -0.25270  -0.25101  -0.24737
 Alpha  occ. eigenvalues --   -0.21849
 Alpha virt. eigenvalues --   -0.02129  -0.00807  -0.00100   0.01373   0.05513
 Alpha virt. eigenvalues --    0.08102   0.09560   0.10575   0.10771   0.13113
 Alpha virt. eigenvalues --    0.14367   0.14781   0.15164   0.15772   0.16065
 Alpha virt. eigenvalues --    0.16269   0.16730   0.17720   0.19017   0.19261
 Alpha virt. eigenvalues --    0.21486   0.23909   0.24662   0.25094   0.29662
 Alpha virt. eigenvalues --    0.30310   0.31761   0.32520   0.32633   0.34208
 Alpha virt. eigenvalues --    0.34328   0.35958   0.40201   0.43907   0.45102
 Alpha virt. eigenvalues --    0.46527   0.48396   0.50099   0.50161   0.50656
 Alpha virt. eigenvalues --    0.51976   0.52985   0.53227   0.54038   0.54657
 Alpha virt. eigenvalues --    0.54929   0.55634   0.56319   0.58006   0.59101
 Alpha virt. eigenvalues --    0.59484   0.59708   0.60022   0.60266   0.60879
 Alpha virt. eigenvalues --    0.61429   0.61680   0.62796   0.64041   0.64336
 Alpha virt. eigenvalues --    0.64881   0.64928   0.66452   0.68967   0.70953
 Alpha virt. eigenvalues --    0.74356   0.75285   0.75482   0.78825   0.79783
 Alpha virt. eigenvalues --    0.81315   0.82604   0.82962   0.83438   0.83760
 Alpha virt. eigenvalues --    0.84210   0.84591   0.85089   0.86175   0.86999
 Alpha virt. eigenvalues --    0.88456   0.89221   0.90422   0.91544   0.92492
 Alpha virt. eigenvalues --    0.93210   0.93528   0.94564   0.95710   0.96663
 Alpha virt. eigenvalues --    0.97891   0.99961   1.00451   1.02831   1.04781
 Alpha virt. eigenvalues --    1.05697   1.07225   1.07560   1.11084   1.12270
 Alpha virt. eigenvalues --    1.13051   1.16201   1.17808   1.18529   1.20389
 Alpha virt. eigenvalues --    1.21546   1.26010   1.26284   1.27974   1.28281
 Alpha virt. eigenvalues --    1.35993   1.37036   1.37458   1.41878   1.43041
 Alpha virt. eigenvalues --    1.44089   1.45421   1.45731   1.46831   1.48077
 Alpha virt. eigenvalues --    1.49224   1.49417   1.51030   1.51207   1.52264
 Alpha virt. eigenvalues --    1.57215   1.61158   1.64772   1.68502   1.77666
 Alpha virt. eigenvalues --    1.78639   1.79678   1.82066   1.82976   1.83926
 Alpha virt. eigenvalues --    1.87602   1.89360   1.89911   1.90604   1.91638
 Alpha virt. eigenvalues --    1.93437   1.94815   1.97328   1.98415   1.98697
 Alpha virt. eigenvalues --    2.01996   2.04574   2.05376   2.07444   2.10093
 Alpha virt. eigenvalues --    2.10211   2.13062   2.13697   2.14451   2.14958
 Alpha virt. eigenvalues --    2.15223   2.17580   2.22650   2.23130   2.25041
 Alpha virt. eigenvalues --    2.26639   2.28650   2.30371   2.30640   2.31278
 Alpha virt. eigenvalues --    2.33979   2.35511   2.37144   2.38898   2.47516
 Alpha virt. eigenvalues --    2.52292   2.54680   2.57706   2.57921   2.62622
 Alpha virt. eigenvalues --    2.63882   2.65526   2.66601   2.69958   2.72132
 Alpha virt. eigenvalues --    2.73840   2.74334   2.76477   2.77567   2.81269
 Alpha virt. eigenvalues --    2.85052   2.91824   2.93644   2.99149   3.05532
 Alpha virt. eigenvalues --    3.17750   3.40223   3.41860   4.05118   4.07950
 Alpha virt. eigenvalues --    4.10407   4.11223   4.11542   4.14686   4.22369
 Alpha virt. eigenvalues --    4.25424   4.30358   4.32746   4.34739   4.36833
 Alpha virt. eigenvalues --    4.42811   4.51087   4.69999   4.76634
          Condensed to atoms (all electrons):
              1          2          3          4          5          6
     1  C    4.897057   0.247932  -0.043427  -0.006292   0.000325  -0.000004
     2  O    0.247932   8.198165   0.281663  -0.062671   0.003690   0.000186
     3  C   -0.043427   0.281663   4.500199   0.468988  -0.002648  -0.032138
     4  C   -0.006292  -0.062671   0.468988   5.100827   0.488964  -0.026475
     5  C    0.000325   0.003690  -0.002648   0.488964   4.958092   0.543070
     6  C   -0.000004   0.000186  -0.032138  -0.026475   0.543070   4.756580
     7  C   -0.000138   0.003146  -0.017495  -0.043930  -0.038916   0.538043
     8  C    0.004327  -0.055170   0.542406  -0.065948  -0.041471  -0.025136
     9  C   -0.000000   0.000001   0.000305   0.005991  -0.045828   0.289424
    10  C   -0.000000  -0.000000   0.000026  -0.000002  -0.000593  -0.041362
    11  C   -0.000000  -0.000000  -0.000002  -0.000006  -0.000596  -0.005662
    12  C   -0.000000   0.000000   0.000000  -0.000001  -0.000015   0.000188
    13  C    0.000000   0.000000   0.000000  -0.000000  -0.000003   0.000013
    14  C    0.000000  -0.000000  -0.000000   0.000000  -0.000016  -0.000126
    15  C    0.000000  -0.000000   0.000000   0.000011   0.000952  -0.000383
    16  Cl   0.000000  -0.000000  -0.000032  -0.000134   0.004302  -0.065255
    17  H    0.384079  -0.030943   0.003220   0.000158   0.000000   0.000000
    18  H    0.363393  -0.035183  -0.005613   0.005256  -0.000155  -0.000007
    19  H    0.365441  -0.036493  -0.004336   0.004772  -0.000118  -0.000002
    20  H    0.005883  -0.007268  -0.046008   0.352499  -0.037756   0.003815
    21  H   -0.000007  -0.000047   0.003105  -0.037934   0.350310  -0.043101
    22  H    0.000003  -0.000059   0.004131   0.000321   0.005378  -0.041239
    23  H   -0.000180  -0.000283  -0.036183   0.007411   0.000295   0.003918
    24  H    0.000000  -0.000000  -0.000002   0.000203  -0.006928  -0.041711
    25  H    0.000000   0.000000  -0.000002  -0.000009   0.000074   0.001416
    26  H    0.000000   0.000000  -0.000000   0.000000   0.000000   0.000001
    27  H    0.000000  -0.000000  -0.000000  -0.000000  -0.000000   0.000000
    28  H    0.000000   0.000000  -0.000000   0.000000   0.000001   0.000001
    29  H    0.000000   0.000000   0.000000   0.000001   0.000003   0.000142
              7          8          9         10         11         12
     1  C   -0.000138   0.004327  -0.000000  -0.000000  -0.000000  -0.000000
     2  O    0.003146  -0.055170   0.000001  -0.000000  -0.000000   0.000000
     3  C   -0.017495   0.542406   0.000305   0.000026  -0.000002   0.000000
     4  C   -0.043930  -0.065948   0.005991  -0.000002  -0.000006  -0.000001
     5  C   -0.038916  -0.041471  -0.045828  -0.000593  -0.000596  -0.000015
     6  C    0.538043  -0.025136   0.289424  -0.041362  -0.005662   0.000188
     7  C    4.961714   0.508115  -0.058090  -0.007889   0.001655   0.000039
     8  C    0.508115   4.997502   0.006262   0.000007  -0.000109  -0.000001
     9  C   -0.058090   0.006262   5.464526   0.302720  -0.063288   0.005651
    10  C   -0.007889   0.000007   0.302720   4.728946   0.535389  -0.017103
    11  C    0.001655  -0.000109  -0.063288   0.535389   4.956602   0.530035
    12  C    0.000039  -0.000001   0.005651  -0.017103   0.530035   4.857055
    13  C    0.000002   0.000000   0.000325  -0.034515  -0.035453   0.548314
    14  C    0.000004  -0.000000   0.006191  -0.022241  -0.044223  -0.027461
    15  C   -0.000155   0.000003  -0.043829   0.545300  -0.043695  -0.045449
    16  Cl  -0.007076   0.000350   0.238520  -0.070204  -0.003302  -0.000188
    17  H    0.000003  -0.000109  -0.000000   0.000000  -0.000000  -0.000000
    18  H    0.000002   0.000050  -0.000000  -0.000000   0.000000   0.000000
    19  H   -0.000000   0.000070   0.000000   0.000000   0.000000   0.000000
    20  H    0.000775   0.004495  -0.000169  -0.000000   0.000000   0.000000
    21  H    0.005796   0.000525  -0.007906   0.000268   0.000073   0.000000
    22  H    0.359452  -0.040659  -0.010027  -0.000106  -0.000228   0.000016
    23  H   -0.039718   0.345118  -0.000141  -0.000002   0.000004   0.000000
    24  H    0.005183  -0.000139   0.358053  -0.045203   0.005853  -0.000107
    25  H    0.003393   0.000186  -0.008836  -0.042252   0.354118  -0.043219
    26  H    0.000001  -0.000000  -0.000172   0.003471  -0.039427   0.358202
    27  H    0.000000   0.000000   0.000009   0.000746   0.004760  -0.043125
    28  H   -0.000000   0.000000  -0.000172   0.003870   0.000786   0.004664
    29  H   -0.000003  -0.000000  -0.010324  -0.043587   0.005897   0.000405
             13         14         15         16         17         18
     1  C    0.000000   0.000000   0.000000   0.000000   0.384079   0.363393
     2  O    0.000000  -0.000000  -0.000000  -0.000000  -0.030943  -0.035183
     3  C    0.000000  -0.000000   0.000000  -0.000032   0.003220  -0.005613
     4  C   -0.000000   0.000000   0.000011  -0.000134   0.000158   0.005256
     5  C   -0.000003  -0.000016   0.000952   0.004302   0.000000  -0.000155
     6  C    0.000013  -0.000126  -0.000383  -0.065255   0.000000  -0.000007
     7  C    0.000002   0.000004  -0.000155  -0.007076   0.000003   0.000002
     8  C    0.000000  -0.000000   0.000003   0.000350  -0.000109   0.000050
     9  C    0.000325   0.006191  -0.043829   0.238520  -0.000000  -0.000000
    10  C   -0.034515  -0.022241   0.545300  -0.070204   0.000000  -0.000000
    11  C   -0.035453  -0.044223  -0.043695  -0.003302  -0.000000   0.000000
    12  C    0.548314  -0.027461  -0.045449  -0.000188  -0.000000   0.000000
    13  C    4.845728   0.555067  -0.035502   0.000035  -0.000000   0.000000
    14  C    0.555067   4.856870   0.525184  -0.000324  -0.000000   0.000000
    15  C   -0.035502   0.525184   4.962814   0.001439   0.000000  -0.000000
    16  Cl   0.000035  -0.000324   0.001439  17.008019   0.000000   0.000000
    17  H   -0.000000  -0.000000   0.000000   0.000000   0.541344  -0.033552
    18  H    0.000000   0.000000  -0.000000   0.000000  -0.033552   0.596249
    19  H   -0.000000  -0.000000   0.000000  -0.000000  -0.033951  -0.046188
    20  H   -0.000000   0.000000  -0.000000   0.000003  -0.000123   0.001947
    21  H   -0.000001   0.000012   0.000344   0.000056  -0.000000   0.000004
    22  H    0.000000   0.000000  -0.000015   0.006701  -0.000000  -0.000000
    23  H   -0.000000   0.000000  -0.000000   0.000014  -0.000027   0.000031
    24  H   -0.000011   0.000366  -0.006215  -0.055947  -0.000000   0.000000
    25  H    0.004750   0.000412   0.005621   0.001916  -0.000000   0.000000
    26  H   -0.042998   0.004629   0.000859   0.000008   0.000000   0.000000
    27  H    0.358353  -0.043283   0.004829  -0.000000  -0.000000  -0.000000
    28  H   -0.042835   0.357348  -0.039991   0.000005  -0.000000   0.000000
    29  H    0.004827  -0.044246   0.352469   0.000311  -0.000000   0.000000
             19         20         21         22         23         24
     1  C    0.365441   0.005883  -0.000007   0.000003  -0.000180   0.000000
     2  O   -0.036493  -0.007268  -0.000047  -0.000059  -0.000283  -0.000000
     3  C   -0.004336  -0.046008   0.003105   0.004131  -0.036183  -0.000002
     4  C    0.004772   0.352499  -0.037934   0.000321   0.007411   0.000203
     5  C   -0.000118  -0.037756   0.350310   0.005378   0.000295  -0.006928
     6  C   -0.000002   0.003815  -0.043101  -0.041239   0.003918  -0.041711
     7  C   -0.000000   0.000775   0.005796   0.359452  -0.039718   0.005183
     8  C    0.000070   0.004495   0.000525  -0.040659   0.345118  -0.000139
     9  C    0.000000  -0.000169  -0.007906  -0.010027  -0.000141   0.358053
    10  C    0.000000  -0.000000   0.000268  -0.000106  -0.000002  -0.045203
    11  C    0.000000   0.000000   0.000073  -0.000228   0.000004   0.005853
    12  C    0.000000   0.000000   0.000000   0.000016   0.000000  -0.000107
    13  C   -0.000000  -0.000000  -0.000001   0.000000  -0.000000  -0.000011
    14  C   -0.000000   0.000000   0.000012   0.000000   0.000000   0.000366
    15  C    0.000000  -0.000000   0.000344  -0.000015  -0.000000  -0.006215
    16  Cl  -0.000000   0.000003   0.000056   0.006701   0.000014  -0.055947
    17  H   -0.033951  -0.000123  -0.000000  -0.000000  -0.000027  -0.000000
    18  H   -0.046188   0.001947   0.000004  -0.000000   0.000031   0.000000
    19  H    0.595094   0.001614   0.000001  -0.000000   0.000027  -0.000000
    20  H    0.001614   0.592462  -0.005824   0.000015  -0.000168  -0.000009
    21  H    0.000001  -0.005824   0.598347  -0.000175   0.000015   0.006019
    22  H   -0.000000   0.000015  -0.000175   0.571085  -0.006011   0.000143
    23  H    0.000027  -0.000168   0.000015  -0.006011   0.584474   0.000003
    24  H   -0.000000  -0.000009   0.006019   0.000143   0.000003   0.579914
    25  H   -0.000000  -0.000000  -0.000008   0.001493  -0.000007   0.000048
    26  H   -0.000000  -0.000000   0.000000  -0.000001  -0.000000   0.000003
    27  H    0.000000   0.000000  -0.000000   0.000000   0.000000  -0.000000
    28  H   -0.000000  -0.000000  -0.000000  -0.000000  -0.000000  -0.000012
    29  H   -0.000000  -0.000000   0.000132  -0.000000  -0.000000   0.007722
             25         26         27         28         29
     1  C    0.000000   0.000000   0.000000   0.000000   0.000000
     2  O    0.000000   0.000000  -0.000000   0.000000   0.000000
     3  C   -0.000002  -0.000000  -0.000000  -0.000000   0.000000
     4  C   -0.000009   0.000000  -0.000000   0.000000   0.000001
     5  C    0.000074   0.000000  -0.000000   0.000001   0.000003
     6  C    0.001416   0.000001   0.000000   0.000001   0.000142
     7  C    0.003393   0.000001   0.000000  -0.000000  -0.000003
     8  C    0.000186  -0.000000   0.000000   0.000000  -0.000000
     9  C   -0.008836  -0.000172   0.000009  -0.000172  -0.010324
    10  C   -0.042252   0.003471   0.000746   0.003870  -0.043587
    11  C    0.354118  -0.039427   0.004760   0.000786   0.005897
    12  C   -0.043219   0.358202  -0.043125   0.004664   0.000405
    13  C    0.004750  -0.042998   0.358353  -0.042835   0.004827
    14  C    0.000412   0.004629  -0.043283   0.357348  -0.044246
    15  C    0.005621   0.000859   0.004829  -0.039991   0.352469
    16  Cl   0.001916   0.000008  -0.000000   0.000005   0.000311
    17  H   -0.000000   0.000000  -0.000000  -0.000000  -0.000000
    18  H    0.000000   0.000000  -0.000000   0.000000   0.000000
    19  H   -0.000000  -0.000000   0.000000  -0.000000  -0.000000
    20  H   -0.000000  -0.000000   0.000000  -0.000000  -0.000000
    21  H   -0.000008   0.000000  -0.000000  -0.000000   0.000132
    22  H    0.001493  -0.000001   0.000000  -0.000000  -0.000000
    23  H   -0.000007  -0.000000   0.000000  -0.000000  -0.000000
    24  H    0.000048   0.000003  -0.000000  -0.000012   0.007722
    25  H    0.588155  -0.005383  -0.000183   0.000016  -0.000158
    26  H   -0.005383   0.592892  -0.005599  -0.000192   0.000017
    27  H   -0.000183  -0.005599   0.598290  -0.005713  -0.000189
    28  H    0.000016  -0.000192  -0.005713   0.596048  -0.005691
    29  H   -0.000158   0.000017  -0.000189  -0.005691   0.604482
 Mulliken atomic charges:
              1
     1  C   -0.218392
     2  O   -0.506663
     3  C    0.383842
     4  C   -0.191999
     5  C   -0.180413
     6  C    0.185805
     7  C   -0.173912
     8  C   -0.180673
     9  C   -0.429196
    10  C    0.204316
    11  C   -0.159178
    12  C   -0.127899
    13  C   -0.126097
    14  C   -0.124164
    15  C   -0.184591
    16  Cl  -0.059217
    17  H    0.169899
    18  H    0.153767
    19  H    0.154069
    20  H    0.133818
    21  H    0.129997
    22  H    0.149779
    23  H    0.141409
    24  H    0.192775
    25  H    0.138461
    26  H    0.133690
    27  H    0.131107
    28  H    0.131868
    29  H    0.127791
 Sum of Mulliken atomic charges =  -0.00000
 Mulliken charges with hydrogens summed into heavy atoms:
              1
     1  C    0.259343
     2  O   -0.506663
     3  C    0.383842
     4  C   -0.058180
     5  C   -0.050416
     6  C    0.185805
     7  C   -0.024134
     8  C   -0.039264
     9  C   -0.236422
    10  C    0.204316
    11  C   -0.020717
    12  C    0.005791
    13  C    0.005010
    14  C    0.007705
    15  C   -0.056800
    16  Cl  -0.059217
 Sum of Mulliken charges with hydrogens summed into heavy atoms =  -0.00000
 Electronic spatial extent (au):  <R**2>=           5062.8602
 Charge=             -0.0000 electrons
 Dipole moment (field-independent basis, Debye):
    X=              1.2027    Y=             -2.8056    Z=             -1.2013  Tot=              3.2804
 Quadrupole moment (field-independent basis, Debye-Ang):
   XX=            -88.0820   YY=           -103.5891   ZZ=            -91.8223
   XY=              0.4842   XZ=             -3.7076   YZ=              2.6491
 Traceless Quadrupole moment (field-independent basis, Debye-Ang):
   XX=              6.4158   YY=             -9.0913   ZZ=              2.6755
   XY=              0.4842   XZ=             -3.7076   YZ=              2.6491
 Octapole moment (field-independent basis, Debye-Ang**2):
  XXX=             67.6612  YYY=             -5.7409  ZZZ=              1.8129  XYY=             12.2691
  XXY=            -56.8985  XXZ=            -22.6777  XZZ=             -5.3912  YZZ=              0.5008
  YYZ=              4.3660  XYZ=              9.6573
 Hexadecapole moment (field-independent basis, Debye-Ang**3):
 XXXX=          -4543.8338 YYYY=          -1133.5615 ZZZZ=           -571.2271 XXXY=            -76.1258
 XXXZ=            -81.1995 YYYX=            -26.0938 YYYZ=              7.3639 ZZZX=             10.1836
 ZZZY=              3.8694 XXYY=           -942.5200 XXZZ=           -900.7594 YYZZ=           -280.2018
 XXYZ=             18.4696 YYXZ=             -6.7484 ZZXY=             10.8793
 N-N= 1.105074787485D+03 E-N=-4.734082110326D+03  KE= 1.069374567922D+03
 No NMR shielding tensors so no spin-rotation constants.
 Leave Link  601 at Wed Sep 29 00:21:16 2021, MaxMem= 1073741824 cpu:       1.4
 (Enter /sw/target/amd/app/gaussian/Gaussian09RevA.02_gcc-4.9.2/g09/l701.exe)
 Compute integral first derivatives.
 ... and contract with generalized density number  0.
 Leave Link  701 at Wed Sep 29 00:21:17 2021, MaxMem= 1073741824 cpu:       1.3
 (Enter /sw/target/amd/app/gaussian/Gaussian09RevA.02_gcc-4.9.2/g09/l702.exe)
 L702 exits ... SP integral derivatives will be done elsewhere.
 Leave Link  702 at Wed Sep 29 00:21:18 2021, MaxMem= 1073741824 cpu:       0.0
 (Enter /sw/target/amd/app/gaussian/Gaussian09RevA.02_gcc-4.9.2/g09/l703.exe)
 Compute integral first derivatives, UseDBF=F ICtDFT=           0.
 Integral derivatives from FoFDir, PRISM(SPDF).
 Calling FoFJK, ICntrl=      2127 FMM=F ISym2X=0 I1Cent= 0 IOpClX= 0 NMat=1 NMatS=1 NMatT=0.
 FoFCou: FMM=F IPFlag=           0 FMFlag=      100000 FMFlg1=         800
         NFxFlg=           0 DoJE=F BraDBF=F KetDBF=F FulRan=T
         Omega=  0.000000  0.000000  1.000000  0.000000  0.000000 ICntrl=    2127 IOpCl=  0
         NMat0=    1 NMatS0=    1 NMatT0=    0 NMatD0=    1 NMtDS0=    0 NMtDT0=    0
         I1Cent=           0 NGrid=           0.
 Symmetry not used in FoFCou.
 Leave Link  703 at Wed Sep 29 00:23:03 2021, MaxMem= 1073741824 cpu:     107.3
 (Enter /sw/target/amd/app/gaussian/Gaussian09RevA.02_gcc-4.9.2/g09/l716.exe)
 Dipole        = 4.73170686D-01-1.10382765D+00-4.72646553D-01
 ***** Axes restored to original set *****
 -------------------------------------------------------------------
 Center     Atomic                   Forces (Hartrees/Bohr)
 Number     Number              X              Y              Z
 -------------------------------------------------------------------
      1        6          -0.001646894   -0.000820482    0.005225111
      2        8          -0.004518887    0.004441060   -0.002464725
      3        6           0.000911686   -0.003496779    0.006532164
      4        6          -0.001166007    0.005715040   -0.008315058
      5        6           0.003378606   -0.006590011    0.003821898
      6        6          -0.001607674    0.002013591    0.001819363
      7        6          -0.005622210    0.003551106    0.006230375
      8        6           0.012232996   -0.008274156   -0.004384672
      9        6          -0.008814835    0.018293820   -0.004550765
     10        6           0.005239219    0.003239495   -0.002914206
     11        6           0.001138474    0.001084745    0.000658415
     12        6          -0.003860745   -0.003441246    0.002010369
     13        6           0.003033662    0.002567831   -0.001841970
     14        6          -0.001444882   -0.000202175   -0.000202133
     15        6           0.000160712   -0.001281485    0.002202215
     16       17           0.003938816   -0.017570761    0.001721674
     17        1           0.003517422   -0.003275647    0.000905514
     18        1           0.000463713    0.001715559   -0.003040999
     19        1          -0.000589622    0.001484618   -0.003796814
     20        1          -0.000170393   -0.000368794    0.001693383
     21        1           0.000413491   -0.001209971    0.000367482
     22        1          -0.001418596   -0.000127228   -0.002554042
     23        1          -0.001837053    0.002067390   -0.000713770
     24        1           0.003162984    0.002389995    0.001410351
     25        1          -0.001895724    0.000057236   -0.001374277
     26        1          -0.000775633   -0.000339613    0.000165830
     27        1          -0.000103181    0.000149195    0.000042800
     28        1          -0.000740749   -0.000240476    0.000061064
     29        1          -0.001378697   -0.001531857    0.001285425
 -------------------------------------------------------------------
 Cartesian Forces:  Max     0.018293820 RMS     0.004300690
 Leave Link  716 at Wed Sep 29 00:23:03 2021, MaxMem= 1073741824 cpu:       0.0
 (Enter /sw/target/amd/app/gaussian/Gaussian09RevA.02_gcc-4.9.2/g09/l103.exe)

 GradGradGradGradGradGradGradGradGradGradGradGradGradGradGradGradGradGrad
 Berny optimization.
 Internal  Forces:  Max     0.017941166 RMS     0.002542000
 Search for a local minimum.
 Step number   1 out of a maximum of  154
 All quantities printed in internal units (Hartrees-Bohrs-Radians)
 RMS Force = .25420D-02 SwitMx=.10000D-02 MixMth= 1
 Mixed Optimization -- RFO/linear search
 Second derivative matrix not updated -- first step.
     Eigenvalues ---    0.00473   0.00520   0.01390   0.01400   0.01409
     Eigenvalues ---    0.02029   0.02031   0.02048   0.02066   0.02075
     Eigenvalues ---    0.02077   0.02098   0.02117   0.02125   0.02128
     Eigenvalues ---    0.02135   0.02148   0.02153   0.02162   0.02166
     Eigenvalues ---    0.02176   0.02192   0.05238   0.06268   0.09988
     Eigenvalues ---    0.10537   0.11255   0.15999   0.15999   0.15999
     Eigenvalues ---    0.15999   0.16000   0.16000   0.16000   0.16000
     Eigenvalues ---    0.16000   0.16000   0.16000   0.16000   0.19624
     Eigenvalues ---    0.21998   0.22000   0.22000   0.22964   0.23466
     Eigenvalues ---    0.23506   0.23999   0.24990   0.24996   0.25000
     Eigenvalues ---    0.25000   0.26619   0.30163   0.30504   0.34028
     Eigenvalues ---    0.34236   0.34244   0.34323   0.34968   0.35040
     Eigenvalues ---    0.35064   0.35085   0.35137   0.35146   0.35149
     Eigenvalues ---    0.35161   0.35397   0.41305   0.41550   0.41655
     Eigenvalues ---    0.41891   0.42154   0.45016   0.45034   0.45698
     Eigenvalues ---    0.45914   0.46059   0.46095   0.46514   0.46803
     Eigenvalues ---    0.515051000.000001000.000001000.000001000.00000
     Eigenvalues --- 1000.000001000.000001000.000001000.000001000.00000
     Eigenvalues --- 1000.000001000.000001000.000001000.000001000.00000
     Eigenvalues --- 1000.000001000.000001000.000001000.000001000.00000
     Eigenvalues --- 1000.000001000.000001000.000001000.000001000.00000
     Eigenvalues --- 1000.000001000.000001000.000001000.000001000.00000
     Eigenvalues --- 1000.000001000.000001000.000001000.000001000.00000
     Eigenvalues --- 1000.000001000.000001000.000001000.000001000.00000
     Eigenvalues --- 1000.000001000.000001000.000001000.000001000.00000
     Eigenvalues --- 1000.000001000.000001000.000001000.000001000.00000
     Eigenvalues --- 1000.000001000.000001000.000001000.000001000.00000
     Eigenvalues --- 1000.000001000.000001000.000001000.000001000.00000
     Eigenvalues --- 1000.000001000.000001000.000001000.00000
 RFO step:  Lambda=-4.20620970D-03 EMin= 4.73301924D-03
 Linear search not attempted -- first point.
 Iteration  1 RMS(Cart)=  0.08523921 RMS(Int)=  0.00124293
 Iteration  2 RMS(Cart)=  0.00220642 RMS(Int)=  0.00007998
 Iteration  3 RMS(Cart)=  0.00000119 RMS(Int)=  0.00007998
 Iteration  4 RMS(Cart)=  0.00000000 RMS(Int)=  0.00007998
 Variable       Old X    -DE/DX   Delta X   Delta X   Delta X     New X
                                 (Linear)    (Quad)   (Total)
    R1        2.68728  -0.00180   0.00000  -0.00423  -0.00423   2.68305
    R2        2.06788  -0.00110   0.00000  -0.00315  -0.00315   2.06472
    R3        2.06933   0.00147   0.00000   0.00424   0.00424   2.07357
    R4        2.06920   0.00171   0.00000   0.00494   0.00494   2.07414
    R5        2.58376  -0.00039   0.00000  -0.00075  -0.00075   2.58301
    R6        2.63261   0.00415   0.00000   0.00972   0.00973   2.64233
    R7        2.63578   0.00548   0.00000   0.01258   0.01259   2.64837
    R8        2.64590  -0.00324   0.00000  -0.00703  -0.00702   2.63888
    R9        2.05036  -0.00042   0.00000  -0.00119  -0.00119   2.04917
   R10        2.65818  -0.00769   0.00000  -0.01805  -0.01805   2.64013
   R11        2.05727  -0.00093   0.00000  -0.00262  -0.00262   2.05465
   R12        2.65093  -0.00106   0.00000  -0.00329  -0.00330   2.64763
   R13        2.87640  -0.00106   0.00000  -0.00347  -0.00347   2.87293
   R14        2.64361  -0.00763   0.00000  -0.01653  -0.01654   2.62707
   R15        2.05434  -0.00133   0.00000  -0.00375  -0.00375   2.05059
   R16        2.05610  -0.00175   0.00000  -0.00494  -0.00494   2.05116
   R17        2.86970  -0.00050   0.00000  -0.00160  -0.00160   2.86810
   R18        3.38961   0.01794   0.00000   0.06635   0.06635   3.45597
   R19        2.07282  -0.00262   0.00000  -0.00761  -0.00761   2.06522
   R20        2.65501  -0.00400   0.00000  -0.00966  -0.00963   2.64538
   R21        2.65755  -0.00570   0.00000  -0.01342  -0.01338   2.64417
   R22        2.64113  -0.00339   0.00000  -0.00736  -0.00736   2.63378
   R23        2.05537  -0.00097   0.00000  -0.00273  -0.00273   2.05264
   R24        2.63094   0.00404   0.00000   0.00925   0.00921   2.64015
   R25        2.05454  -0.00042   0.00000  -0.00119  -0.00119   2.05335
   R26        2.63077   0.00204   0.00000   0.00508   0.00504   2.63582
   R27        2.05415  -0.00001   0.00000  -0.00003  -0.00003   2.05411
   R28        2.63938  -0.00069   0.00000  -0.00143  -0.00143   2.63795
   R29        2.05438  -0.00028   0.00000  -0.00080  -0.00080   2.05359
   R30        2.05571  -0.00001   0.00000  -0.00003  -0.00003   2.05568
    A1        1.88219  -0.00648   0.00000  -0.03706  -0.03699   1.84520
    A2        1.94399   0.00105   0.00000   0.00497   0.00501   1.94899
    A3        1.93522   0.00216   0.00000   0.01202   0.01209   1.94730
    A4        1.87687   0.00350   0.00000   0.02342   0.02346   1.90034
    A5        1.88183   0.00320   0.00000   0.02223   0.02234   1.90417
    A6        1.94072  -0.00342   0.00000  -0.02503  -0.02500   1.91571
    A7        2.03927   0.00452   0.00000   0.01778   0.01778   2.05705
    A8        2.20129  -0.00486   0.00000  -0.02101  -0.02099   2.18030
    A9        2.00504   0.00480   0.00000   0.01698   0.01700   2.02203
   A10        2.07685   0.00007   0.00000   0.00403   0.00399   2.08084
   A11        2.09878  -0.00292   0.00000  -0.01065  -0.01068   2.08809
   A12        2.12513  -0.00027   0.00000  -0.00520  -0.00518   2.11995
   A13        2.05926   0.00319   0.00000   0.01585   0.01587   2.07513
   A14        2.11713   0.00185   0.00000   0.00668   0.00659   2.12372
   A15        2.06800  -0.00008   0.00000   0.00187   0.00186   2.06986
   A16        2.09803  -0.00177   0.00000  -0.00846  -0.00847   2.08956
   A17        2.05543   0.00199   0.00000   0.00448   0.00437   2.05980
   A18        2.07791  -0.00275   0.00000  -0.00925  -0.00925   2.06866
   A19        2.14973   0.00075   0.00000   0.00452   0.00452   2.15425
   A20        2.10809   0.00114   0.00000   0.00335   0.00327   2.11136
   A21        2.11109  -0.00260   0.00000  -0.01404  -0.01401   2.09708
   A22        2.06396   0.00146   0.00000   0.01064   0.01068   2.07464
   A23        2.10977  -0.00211   0.00000  -0.00719  -0.00725   2.10253
   A24        2.08709  -0.00127   0.00000  -0.01054  -0.01052   2.07657
   A25        2.08631   0.00337   0.00000   0.01772   0.01774   2.10405
   A26        2.00791  -0.00265   0.00000  -0.01892  -0.01912   1.98878
   A27        1.96695  -0.00237   0.00000  -0.01801  -0.01820   1.94875
   A28        1.86399   0.00308   0.00000   0.02298   0.02298   1.88697
   A29        1.91731   0.00267   0.00000   0.00475   0.00439   1.92170
   A30        1.89526  -0.00178   0.00000  -0.01280  -0.01269   1.88257
   A31        1.79822   0.00150   0.00000   0.02794   0.02803   1.82626
   A32        2.13056  -0.00192   0.00000  -0.00590  -0.00620   2.12436
   A33        2.08903  -0.00128   0.00000  -0.00338  -0.00368   2.08535
   A34        2.06326   0.00322   0.00000   0.01025   0.01013   2.07339
   A35        2.10827  -0.00056   0.00000  -0.00413  -0.00406   2.10421
   A36        2.10393  -0.00188   0.00000  -0.01106  -0.01113   2.09280
   A37        2.07094   0.00245   0.00000   0.01531   0.01524   2.08617
   A38        2.09701   0.00008   0.00000   0.00197   0.00197   2.09897
   A39        2.09253  -0.00080   0.00000  -0.00555  -0.00558   2.08695
   A40        2.09362   0.00072   0.00000   0.00366   0.00364   2.09726
   A41        2.09233  -0.00190   0.00000  -0.00510  -0.00513   2.08720
[...]

 Analyzing the CI density

 Job title: COc1ccc(cc1)C(c1ccccc1)Cl_conf_0                                

 Storage needed:    221522 in NPA (1073737329 available)


 NATURAL POPULATIONS:  Natural atomic orbital occupancies 
                                                          
   NAO  Atom  No  lang   Type(AO)    Occupancy
 --------------------------------------------
     1    C    1  S      Cor( 1S)     1.99941
     2    C    1  S      Val( 2S)     1.11015
     3    C    1  S      Ryd( 3S)     0.00149
     4    C    1  S      Ryd( 4S)     0.00003
     5    C    1  px     Val( 2p)     1.06623
     6    C    1  px     Ryd( 3p)     0.00243
     7    C    1  py     Val( 2p)     1.14921
     8    C    1  py     Ryd( 3p)     0.00075
     9    C    1  pz     Val( 2p)     0.99425
    10    C    1  pz     Ryd( 3p)     0.00330
    11    C    1  dxy    Ryd( 3d)     0.00105
    12    C    1  dxz    Ryd( 3d)     0.00162
    13    C    1  dyz    Ryd( 3d)     0.00161
    14    C    1  dx2y2  Ryd( 3d)     0.00114
    15    C    1  dz2    Ryd( 3d)     0.00094

    16    O    2  S      Cor( 1S)     1.99975
    17    O    2  S      Val( 2S)     1.59974
    18    O    2  S      Ryd( 3S)     0.00077
    19    O    2  S      Ryd( 4S)     0.00006
    20    O    2  px     Val( 2p)     1.45229
    21    O    2  px     Ryd( 3p)     0.00105
    22    O    2  py     Val( 2p)     1.64696
    23    O    2  py     Ryd( 3p)     0.00182
    24    O    2  pz     Val( 2p)     1.70766
    25    O    2  pz     Ryd( 3p)     0.00228
    26    O    2  dxy    Ryd( 3d)     0.00073
    27    O    2  dxz    Ryd( 3d)     0.00132
    28    O    2  dyz    Ryd( 3d)     0.00144
    29    O    2  dx2y2  Ryd( 3d)     0.00057
    30    O    2  dz2    Ryd( 3d)     0.00159

    31    C    3  S      Cor( 1S)     1.99879
    32    C    3  S      Val( 2S)     0.84882
    33    C    3  S      Ryd( 3S)     0.00139
    34    C    3  S      Ryd( 4S)     0.00013
    35    C    3  px     Val( 2p)     0.77322
    36    C    3  px     Ryd( 3p)     0.00582
    37    C    3  py     Val( 2p)     0.91705
    38    C    3  py     Ryd( 3p)     0.00143
    39    C    3  pz     Val( 2p)     1.06207
    40    C    3  pz     Ryd( 3p)     0.00608
    41    C    3  dxy    Ryd( 3d)     0.00153
    42    C    3  dxz    Ryd( 3d)     0.00149
    43    C    3  dyz    Ryd( 3d)     0.00091
    44    C    3  dx2y2  Ryd( 3d)     0.00147
    45    C    3  dz2    Ryd( 3d)     0.00109

    46    C    4  S      Cor( 1S)     1.99904
    47    C    4  S      Val( 2S)     0.97028
    48    C    4  S      Ryd( 3S)     0.00063
    49    C    4  S      Ryd( 4S)     0.00005
    50    C    4  px     Val( 2p)     1.11205
    51    C    4  px     Ryd( 3p)     0.00373
    52    C    4  py     Val( 2p)     1.05691
    53    C    4  py     Ryd( 3p)     0.00169
    54    C    4  pz     Val( 2p)     1.13403
    55    C    4  pz     Ryd( 3p)     0.00390
    56    C    4  dxy    Ryd( 3d)     0.00050
    57    C    4  dxz    Ryd( 3d)     0.00076
    58    C    4  dyz    Ryd( 3d)     0.00052
    59    C    4  dx2y2  Ryd( 3d)     0.00040
    60    C    4  dz2    Ryd( 3d)     0.00057

    61    C    5  S      Cor( 1S)     1.99903
    62    C    5  S      Val( 2S)     0.96670
    63    C    5  S      Ryd( 3S)     0.00076
    64    C    5  S      Ryd( 4S)     0.00006
    65    C    5  px     Val( 2p)     1.05495
    66    C    5  px     Ryd( 3p)     0.00369
    67    C    5  py     Val( 2p)     0.94734
    68    C    5  py     Ryd( 3p)     0.00110
    69    C    5  pz     Val( 2p)     1.18534
    70    C    5  pz     Ryd( 3p)     0.00557
    71    C    5  dxy    Ryd( 3d)     0.00049
    72    C    5  dxz    Ryd( 3d)     0.00074
    73    C    5  dyz    Ryd( 3d)     0.00044
    74    C    5  dx2y2  Ryd( 3d)     0.00050
    75    C    5  dz2    Ryd( 3d)     0.00077

    76    C    6  S      Cor( 1S)     1.99899
    77    C    6  S      Val( 2S)     0.90561
    78    C    6  S      Ryd( 3S)     0.00112
    79    C    6  S      Ryd( 4S)     0.00005
    80    C    6  px     Val( 2p)     1.07032
    81    C    6  px     Ryd( 3p)     0.00545
    82    C    6  py     Val( 2p)     0.82145
    83    C    6  py     Ryd( 3p)     0.00287
    84    C    6  pz     Val( 2p)     1.04880
    85    C    6  pz     Ryd( 3p)     0.00376
    86    C    6  dxy    Ryd( 3d)     0.00075
    87    C    6  dxz    Ryd( 3d)     0.00096
    88    C    6  dyz    Ryd( 3d)     0.00060
    89    C    6  dx2y2  Ryd( 3d)     0.00060
    90    C    6  dz2    Ryd( 3d)     0.00062

    91    C    7  S      Cor( 1S)     1.99904
    92    C    7  S      Val( 2S)     0.96625
    93    C    7  S      Ryd( 3S)     0.00073
    94    C    7  S      Ryd( 4S)     0.00005
    95    C    7  px     Val( 2p)     1.08282
    96    C    7  px     Ryd( 3p)     0.00410
    97    C    7  py     Val( 2p)     1.01352
    98    C    7  py     Ryd( 3p)     0.00309
    99    C    7  pz     Val( 2p)     1.15200
   100    C    7  pz     Ryd( 3p)     0.00554
   101    C    7  dxy    Ryd( 3d)     0.00050
   102    C    7  dxz    Ryd( 3d)     0.00069
   103    C    7  dyz    Ryd( 3d)     0.00051
   104    C    7  dx2y2  Ryd( 3d)     0.00048
   105    C    7  dz2    Ryd( 3d)     0.00061

   106    C    8  S      Cor( 1S)     1.99905
   107    C    8  S      Val( 2S)     0.97514
   108    C    8  S      Ryd( 3S)     0.00084
   109    C    8  S      Ryd( 4S)     0.00005
   110    C    8  px     Val( 2p)     1.08163
   111    C    8  px     Ryd( 3p)     0.00494
   112    C    8  py     Val( 2p)     0.97678
   113    C    8  py     Ryd( 3p)     0.00169
   114    C    8  pz     Val( 2p)     1.16415
   115    C    8  pz     Ryd( 3p)     0.00455
   116    C    8  dxy    Ryd( 3d)     0.00049
   117    C    8  dxz    Ryd( 3d)     0.00089
   118    C    8  dyz    Ryd( 3d)     0.00048
   119    C    8  dx2y2  Ryd( 3d)     0.00046
   120    C    8  dz2    Ryd( 3d)     0.00056

   121    C    9  S      Cor( 1S)     1.99893
   122    C    9  S      Val( 2S)     1.01804
   123    C    9  S      Ryd( 3S)     0.00131
   124    C    9  S      Ryd( 4S)     0.00001
   125    C    9  px     Val( 2p)     1.02025
   126    C    9  px     Ryd( 3p)     0.00465
   127    C    9  py     Val( 2p)     1.06124
   128    C    9  py     Ryd( 3p)     0.00358
   129    C    9  pz     Val( 2p)     1.19835
   130    C    9  pz     Ryd( 3p)     0.00726
   131    C    9  dxy    Ryd( 3d)     0.00078
   132    C    9  dxz    Ryd( 3d)     0.00037
   133    C    9  dyz    Ryd( 3d)     0.00104
   134    C    9  dx2y2  Ryd( 3d)     0.00150
   135    C    9  dz2    Ryd( 3d)     0.00136

   136    C   10  S      Cor( 1S)     1.99895
   137    C   10  S      Val( 2S)     0.85931
   138    C   10  S      Ryd( 3S)     0.00127
   139    C   10  S      Ryd( 4S)     0.00005
   140    C   10  px     Val( 2p)     1.06124
   141    C   10  px     Ryd( 3p)     0.00490
   142    C   10  py     Val( 2p)     1.08182
   143    C   10  py     Ryd( 3p)     0.00386
   144    C   10  pz     Val( 2p)     1.10306
   145    C   10  pz     Ryd( 3p)     0.00438
   146    C   10  dxy    Ryd( 3d)     0.00057
   147    C   10  dxz    Ryd( 3d)     0.00056
   148    C   10  dyz    Ryd( 3d)     0.00053
   149    C   10  dx2y2  Ryd( 3d)     0.00056
   150    C   10  dz2    Ryd( 3d)     0.00059

   151    C   11  S      Cor( 1S)     1.99902
   152    C   11  S      Val( 2S)     0.93646
   153    C   11  S      Ryd( 3S)     0.00055
   154    C   11  S      Ryd( 4S)     0.00005
   155    C   11  px     Val( 2p)     1.14170
   156    C   11  px     Ryd( 3p)     0.00363
   157    C   11  py     Val( 2p)     1.06505
   158    C   11  py     Ryd( 3p)     0.00287
   159    C   11  pz     Val( 2p)     1.10494
   160    C   11  pz     Ryd( 3p)     0.00346
   161    C   11  dxy    Ryd( 3d)     0.00039
   162    C   11  dxz    Ryd( 3d)     0.00081
   163    C   11  dyz    Ryd( 3d)     0.00044
   164    C   11  dx2y2  Ryd( 3d)     0.00074
   165    C   11  dz2    Ryd( 3d)     0.00051

   166    C   12  S      Cor( 1S)     1.99911
   167    C   12  S      Val( 2S)     0.95254
   168    C   12  S      Ryd( 3S)     0.00060
   169    C   12  S      Ryd( 4S)     0.00003
   170    C   12  px     Val( 2p)     1.05858
   171    C   12  px     Ryd( 3p)     0.00391
   172    C   12  py     Val( 2p)     1.08905
   173    C   12  py     Ryd( 3p)     0.00332
   174    C   12  pz     Val( 2p)     1.12328
   175    C   12  pz     Ryd( 3p)     0.00374
   176    C   12  dxy    Ryd( 3d)     0.00051
   177    C   12  dxz    Ryd( 3d)     0.00056
   178    C   12  dyz    Ryd( 3d)     0.00081
   179    C   12  dx2y2  Ryd( 3d)     0.00066
   180    C   12  dz2    Ryd( 3d)     0.00046

   181    C   13  S      Cor( 1S)     1.99910
   182    C   13  S      Val( 2S)     0.94923
   183    C   13  S      Ryd( 3S)     0.00053
   184    C   13  S      Ryd( 4S)     0.00003
   185    C   13  px     Val( 2p)     1.13354
   186    C   13  px     Ryd( 3p)     0.00439
   187    C   13  py     Val( 2p)     1.13847
   188    C   13  py     Ryd( 3p)     0.00407
   189    C   13  pz     Val( 2p)     1.07821
   190    C   13  pz     Ryd( 3p)     0.00432
   191    C   13  dxy    Ryd( 3d)     0.00072
   192    C   13  dxz    Ryd( 3d)     0.00047
   193    C   13  dyz    Ryd( 3d)     0.00047
   194    C   13  dx2y2  Ryd( 3d)     0.00041
   195    C   13  dz2    Ryd( 3d)     0.00056

   196    C   14  S      Cor( 1S)     1.99910
   197    C   14  S      Val( 2S)     0.95456
   198    C   14  S      Ryd( 3S)     0.00056
   199    C   14  S      Ryd( 4S)     0.00003
   200    C   14  px     Val( 2p)     1.13130
   201    C   14  px     Ryd( 3p)     0.00410
   202    C   14  py     Val( 2p)     1.04093
   203    C   14  py     Ryd( 3p)     0.00306
   204    C   14  pz     Val( 2p)     1.09033
   205    C   14  pz     Ryd( 3p)     0.00359
   206    C   14  dxy    Ryd( 3d)     0.00044
   207    C   14  dxz    Ryd( 3d)     0.00085
   208    C   14  dyz    Ryd( 3d)     0.00041
   209    C   14  dx2y2  Ryd( 3d)     0.00077
   210    C   14  dz2    Ryd( 3d)     0.00056

   211    C   15  S      Cor( 1S)     1.99902
   212    C   15  S      Val( 2S)     0.94023
   213    C   15  S      Ryd( 3S)     0.00061
   214    C   15  S      Ryd( 4S)     0.00005
   215    C   15  px     Val( 2p)     1.06226
   216    C   15  px     Ryd( 3p)     0.00338
   217    C   15  py     Val( 2p)     1.10837
   218    C   15  py     Ryd( 3p)     0.00348
   219    C   15  pz     Val( 2p)     1.13108
   220    C   15  pz     Ryd( 3p)     0.00413
   221    C   15  dxy    Ryd( 3d)     0.00048
   222    C   15  dxz    Ryd( 3d)     0.00054
   223    C   15  dyz    Ryd( 3d)     0.00075
   224    C   15  dx2y2  Ryd( 3d)     0.00065
   225    C   15  dz2    Ryd( 3d)     0.00044

   226   Cl   16  S      Cor( 1S)     2.00000
   227   Cl   16  S      Cor( 2S)     1.99989
   228   Cl   16  S      Val( 3S)     1.89755
   229   Cl   16  S      Ryd( 4S)     0.00511
   230   Cl   16  S      Ryd( 5S)     0.00001
   231   Cl   16  px     Cor( 2p)     1.99998
   232   Cl   16  px     Val( 3p)     1.90153
   233   Cl   16  px     Ryd( 4p)     0.00111
   234   Cl   16  py     Cor( 2p)     1.99995
   235   Cl   16  py     Val( 3p)     1.55957
   236   Cl   16  py     Ryd( 4p)     0.00982
   237   Cl   16  pz     Cor( 2p)     1.99998
   238   Cl   16  pz     Val( 3p)     1.85957
   239   Cl   16  pz     Ryd( 4p)     0.00291
   240   Cl   16  dxy    Ryd( 3d)     0.00127
   241   Cl   16  dxz    Ryd( 3d)     0.00041
   242   Cl   16  dyz    Ryd( 3d)     0.00234
   243   Cl   16  dx2y2  Ryd( 3d)     0.00223
   244   Cl   16  dz2    Ryd( 3d)     0.00082

   245    H   17  S      Val( 1S)     0.75199
   246    H   17  S      Ryd( 2S)     0.00035

   247    H   18  S      Val( 1S)     0.77301
   248    H   18  S      Ryd( 2S)     0.00121

   249    H   19  S      Val( 1S)     0.77174
   250    H   19  S      Ryd( 2S)     0.00113

   251    H   20  S      Val( 1S)     0.74602
   252    H   20  S      Ryd( 2S)     0.00079

   253    H   21  S      Val( 1S)     0.73539
   254    H   21  S      Ryd( 2S)     0.00082

   255    H   22  S      Val( 1S)     0.71486
   256    H   22  S      Ryd( 2S)     0.00134

   257    H   23  S      Val( 1S)     0.73451
   258    H   23  S      Ryd( 2S)     0.00094

   259    H   24  S      Val( 1S)     0.73742
   260    H   24  S      Ryd( 2S)     0.00198

   261    H   25  S      Val( 1S)     0.79305
   262    H   25  S      Ryd( 2S)     0.00115

   263    H   26  S      Val( 1S)     0.77922
   264    H   26  S      Ryd( 2S)     0.00090

   265    H   27  S      Val( 1S)     0.78069
   266    H   27  S      Ryd( 2S)     0.00082

   267    H   28  S      Val( 1S)     0.77619
   268    H   28  S      Ryd( 2S)     0.00090

   269    H   29  S      Val( 1S)     0.78071
   270    H   29  S      Ryd( 2S)     0.00106

 WARNING:  1 low occupancy (<1.9990e) core orbital  found on  C    3
           1 low occupancy (<1.9990e) core orbital  found on  C    6
           1 low occupancy (<1.9990e) core orbital  found on  C    9
           1 low occupancy (<1.9990e) core orbital  found on  C   10


 Summary of Natural Population Analysis:                  
                                                          
                                       Natural Population 
                Natural  -----------------------------------------------
    Atom  No    Charge         Core      Valence    Rydberg      Total
 -----------------------------------------------------------------------
      C    1   -0.33362      1.99941     4.31985    0.01435     6.33362
      O    2   -0.41804      1.99975     6.40665    0.01164     8.41804
      C    3    0.37871      1.99879     3.60117    0.02133     5.62129
      C    4   -0.28505      1.99904     4.27327    0.01274     6.28505
      C    5   -0.16746      1.99903     4.15433    0.01410     6.16746
      C    6    0.13804      1.99899     3.84617    0.01680     5.86196
      C    7   -0.22993      1.99904     4.21459    0.01629     6.22993
      C    8   -0.21169      1.99905     4.19771    0.01494     6.21169
      C    9   -0.31868      1.99893     4.29788    0.02187     6.31868
      C   10   -0.12164      1.99895     4.10542    0.01727     6.12164
      C   11   -0.26064      1.99902     4.24816    0.01346     6.26064
      C   12   -0.23716      1.99911     4.22345    0.01460     6.23716
      C   13   -0.31450      1.99910     4.29944    0.01596     6.31450
      C   14   -0.23060      1.99910     4.21712    0.01438     6.23060
      C   15   -0.25549      1.99902     4.24194    0.01452     6.25549
     Cl   16   -0.24404      9.99981     7.21822    0.02602    17.24404
      H   17    0.24766      0.00000     0.75199    0.00035     0.75234
      H   18    0.22578      0.00000     0.77301    0.00121     0.77422
      H   19    0.22713      0.00000     0.77174    0.00113     0.77287
      H   20    0.25319      0.00000     0.74602    0.00079     0.74681
      H   21    0.26379      0.00000     0.73539    0.00082     0.73621
      H   22    0.28380      0.00000     0.71486    0.00134     0.71620
      H   23    0.26454      0.00000     0.73451    0.00094     0.73546
      H   24    0.26059      0.00000     0.73742    0.00198     0.73941
      H   25    0.20579      0.00000     0.79305    0.00115     0.79421
      H   26    0.21988      0.00000     0.77922    0.00090     0.78012
      H   27    0.21849      0.00000     0.78069    0.00082     0.78151
      H   28    0.22292      0.00000     0.77619    0.00090     0.77708
      H   29    0.21823      0.00000     0.78071    0.00106     0.78177
 =======================================================================
   * Total *   -0.00000     39.98614    81.74018    0.27368   122.00000

                                 Natural Population      
 --------------------------------------------------------
   Core                      39.98614 ( 99.9654% of  40)
   Valence                   81.74018 ( 99.6831% of  82)
   Natural Minimal Basis    121.72632 ( 99.7757% of 122)
   Natural Rydberg Basis      0.27368 (  0.2243% of 122)
 --------------------------------------------------------

    Atom  No          Natural Electron Configuration
 ----------------------------------------------------------------------------
      C    1      [core]2S( 1.11)2p( 3.21)3p( 0.01)3d( 0.01)
      O    2      [core]2S( 1.60)2p( 4.81)3p( 0.01)3d( 0.01)
      C    3      [core]2S( 0.85)2p( 2.75)3p( 0.01)3d( 0.01)
      C    4      [core]2S( 0.97)2p( 3.30)3p( 0.01)
      C    5      [core]2S( 0.97)2p( 3.19)3p( 0.01)
      C    6      [core]2S( 0.91)2p( 2.94)3p( 0.01)
      C    7      [core]2S( 0.97)2p( 3.25)3p( 0.01)
      C    8      [core]2S( 0.98)2p( 3.22)3p( 0.01)
      C    9      [core]2S( 1.02)2p( 3.28)3p( 0.02)3d( 0.01)
      C   10      [core]2S( 0.86)2p( 3.25)3p( 0.01)
      C   11      [core]2S( 0.94)2p( 3.31)3p( 0.01)
      C   12      [core]2S( 0.95)2p( 3.27)3p( 0.01)
      C   13      [core]2S( 0.95)2p( 3.35)3p( 0.01)
      C   14      [core]2S( 0.95)2p( 3.26)3p( 0.01)
      C   15      [core]2S( 0.94)2p( 3.30)3p( 0.01)
     Cl   16      [core]3S( 1.90)3p( 5.32)4S( 0.01)3d( 0.01)4p( 0.01)
      H   17            1S( 0.75)
      H   18            1S( 0.77)
      H   19            1S( 0.77)
      H   20            1S( 0.75)
      H   21            1S( 0.74)
      H   22            1S( 0.71)
      H   23            1S( 0.73)
      H   24            1S( 0.74)
      H   25            1S( 0.79)
      H   26            1S( 0.78)
      H   27            1S( 0.78)
      H   28            1S( 0.78)
      H   29            1S( 0.78)


 NBO analysis skipped by request.
 Leave Link  607 at Wed Sep 29 07:05:52 2021, MaxMem= 1073741824 cpu:      15.4
 (Enter /sw/target/amd/app/gaussian/Gaussian09RevA.02_gcc-4.9.2/g09/l9999.exe)
 1\1\GINC-HERMITE\SP\RTD-B3LYP-FC\6-31G(d)\C14H13Cl1O1\JSCHLEINITZ\29-S
 ep-2021\0\\#p TD(NStates=10, Root=1) b3lyp/6-31G* volume pop=NPA densi
 ty=current Geom=AllCheck Guess=Read\\COc1ccc(cc1)C(c1ccccc1)Cl_conf_0\
 \0,1\C,0,1.451851213,1.1098050533,-0.2317381624\O,0,2.4732356038,0.125
 149408,-0.2044231457\C,0,3.1824439154,-0.1018143304,-1.3469759532\C,0,
 2.9811659664,0.5682108374,-2.5585070463\C,0,3.7713924866,0.2429483395,
 -3.6636538136\C,0,4.7678850698,-0.7335636452,-3.5916839845\C,0,4.94959
 73313,-1.4029728227,-2.3710008976\C,0,4.1714879858,-1.0937745144,-1.26
 40319115\C,0,5.6238409411,-0.9801203764,-4.813531564\C,0,6.932178271,-
 0.2187366331,-4.8806575672\C,0,7.6742504345,0.1019663923,-3.73723973\C
 ,0,8.8772607818,0.7993386508,-3.8475217427\C,0,9.3528445636,1.19085444
 55,-5.1001153045\C,0,8.617396866,0.88010252,-6.2454698854\C,0,7.417043
 1375,0.1805808612,-6.1338713716\Cl,0,5.9717000226,-2.7989721637,-5.025
 5713547\H,0,1.0259802887,1.1268161496,0.7730386898\H,0,0.6652657252,0.
 8555167916,-0.954468019\H,0,1.8545352468,2.1028248615,-0.4716759056\H,
 0,2.2169153521,1.33033155,-2.6580660688\H,0,3.6032264079,0.7714242851,
 -4.5994441085\H,0,5.692830188,-2.1906523794,-2.2969538031\H,0,4.304623
 9071,-1.6151544964,-0.3213055929\H,0,5.0403064821,-0.7456478949,-5.705
 6756703\H,0,7.3055208982,-0.1836409886,-2.7574099914\H,0,9.441115635,1
 .0416758028,-2.9506370428\H,0,10.2881526158,1.7378774989,-5.1830614527
 \H,0,8.9766855865,1.1839968592,-7.225028912\H,0,6.8508243185,-0.065990
 7049,-7.0293058634\\Version=AM64L-G09RevA.02\State=1-A\HF=-1076.730407
 3\RMSD=7.169e-09\Dipole=-4.2809908,1.6676857,3.0553\Quadrupole=5.98220
 25,-9.7945921,3.8123895,-7.6602793,-5.5765004,-1.3008135\PG=C01 [X(C14
 H13Cl1O1)]\\@


 IT IS A CAPITAL MISTAKE TO THEORIZE BEFORE ONE HAS
 DATA.  INSENSIBLY ONE BEGINS TO TWIST FACTS TO SUIT
 THEORIES RATHER THAN THEORIES TO SUIT FACTS.

                                         -- SHERLOCK HOLMES
 Job cpu time:  0 days  3 hours 32 minutes 44.6 seconds.
 File lengths (MBytes):  RWF=    235 Int=      0 D2E=      0 Chk=     33 Scr=      1
 Normal termination of Gaussian 09 at Wed Sep 29 07:05:58 2021.
