 Entering Gaussian System, Link 0=g09
 Input=C14H19NO4_7dbe_conf_0.com
 Output=C14H19NO4_7dbe_conf_0.log
 Initial command:
 /sw/target/amd/app/gaussian/Gaussian09RevA.02_gcc-4.9.2/g09/l1.exe /home/jschleinitz/gaussian/Gau-1260952.inp -scrdir=/home/jschleinitz/gaussian/
 Entering Link 1 = /sw/target/amd/app/gaussian/Gaussian09RevA.02_gcc-4.9.2/g09/l1.exe PID=   1260978.
  
 Copyright (c) 1988,1990,1992,1993,1995,1998,2003,2009, Gaussian, Inc.
                  All Rights Reserved.
  
 This is part of the Gaussian(R) 09 program.  It is based on
 the Gaussian(R) 03 system (copyright 2003, Gaussian, Inc.),
 the Gaussian(R) 98 system (copyright 1998, Gaussian, Inc.),
 the Gaussian(R) 94 system (copyright 1995, Gaussian, Inc.),
 the Gaussian 92(TM) system (copyright 1992, Gaussian, Inc.),
 the Gaussian 90(TM) system (copyright 1990, Gaussian, Inc.),
 the Gaussian 88(TM) system (copyright 1988, Gaussian, Inc.),
 the Gaussian 86(TM) system (copyright 1986, Carnegie Mellon
 University), and the Gaussian 82(TM) system (copyright 1983,
 Carnegie Mellon University). Gaussian is a federally registered
 trademark of Gaussian, Inc.
  
 This software contains proprietary and confidential information,
 including trade secrets, belonging to Gaussian, Inc.
  
 This software is provided under written license and may be
 used, copied, transmitted, or stored only in accord with that
 written license.
  
 The following legend is applicable only to US Government
 contracts under FAR:
  
                    RESTRICTED RIGHTS LEGEND
  
 Use, reproduction and disclosure by the US Government is
 subject to restrictions as set forth in subparagraphs (a)
 and (c) of the Commercial Computer Software - Restricted
 Rights clause in FAR 52.227-19.
  
 Gaussian, Inc.
 340 Quinnipiac St., Bldg. 40, Wallingford CT 06492
  
  
 ---------------------------------------------------------------
 Warning -- This program may not be used in any manner that
 competes with the business of Gaussian, Inc. or will provide
 assistance to any competitor of Gaussian, Inc.  The licensee
 of this program is prohibited from giving any competitor of
 Gaussian, Inc. access to this program.  By using this program,
 the user acknowledges that Gaussian, Inc. is engaged in the
 business of creating and licensing software in the field of
 computational chemistry and represents and warrants to the
 licensee that it is not a competitor of Gaussian, Inc. and that
 it will not use this program in any manner prohibited above.
 ---------------------------------------------------------------
  

 Cite this work as:
 Gaussian 09, Revision A.02,
 M. J. Frisch, G. W. Trucks, H. B. Schlegel, G. E. Scuseria, 
 M. A. Robb, J. R. Cheeseman, G. Scalmani, V. Barone, B. Mennucci, 
 G. A. Petersson, H. Nakatsuji, M. Caricato, X. Li, H. P. Hratchian, 
 A. F. Izmaylov, J. Bloino, G. Zheng, J. L. Sonnenberg, M. Hada, 
 M. Ehara, K. Toyota, R. Fukuda, J. Hasegawa, M. Ishida, T. Nakajima, 
 Y. Honda, O. Kitao, H. Nakai, T. Vreven, J. A. Montgomery, Jr., 
 J. E. Peralta, F. Ogliaro, M. Bearpark, J. J. Heyd, E. Brothers, 
 K. N. Kudin, V. N. Staroverov, R. Kobayashi, J. Normand, 
 K. Raghavachari, A. Rendell, J. C. Burant, S. S. Iyengar, J. Tomasi, 
 M. Cossi, N. Rega, J. M. Millam, M. Klene, J. E. Knox, J. B. Cross, 
 V. Bakken, C. Adamo, J. Jaramillo, R. Gomperts, R. E. Stratmann, 
 O. Yazyev, A. J. Austin, R. Cammi, C. Pomelli, J. W. Ochterski, 
 R. L. Martin, K. Morokuma, V. G. Zakrzewski, G. A. Voth, 
 P. Salvador, J. J. Dannenberg, S. Dapprich, A. D. Daniels, 
 O. Farkas, J. B. Foresman, J. V. Ortiz, J. Cioslowski, 
 and D. J. Fox, Gaussian, Inc., Wallingford CT, 2009.
 
 ******************************************
 Gaussian 09:  AM64L-G09RevA.02 11-Jun-2009
                30-Sep-2021 
 ******************************************
 %nproc=6
 Will use up to    6 processors via shared memory.
 %mem=12gb
 %chk=C14H19NO4_7dbe_conf_0.chk
 -----------------------------------
 #p opt b3lyp/6-31G* scf=(xqc,tight)
 -----------------------------------
 1/14=-1,18=20,19=15,26=3,38=1/1,3;
 2/9=110,12=2,17=6,18=5,40=1/2;
 3/5=1,6=6,7=1,11=2,16=1,25=1,30=1,71=1,74=-5/1,2,3;
 4//1;
 5/5=2,8=3,13=1,32=2,38=5/2,8;
 6/7=2,8=2,9=2,10=2,28=1/1;
 7//1,2,3,16;
 1/14=-1,18=20,19=15/3(2);
 2/9=110/2;
 99//99;
 2/9=110/2;
 3/5=1,6=6,7=1,11=2,16=1,25=1,30=1,71=1,74=-5/1,2,3;
 4/5=5,16=3/1;
 5/5=2,8=3,13=1,32=2,38=5/2,8;
 7//1,2,3,16;
 1/14=-1,18=20,19=15/3(-5);
 2/9=110/2;
 6/7=2,8=2,9=2,10=2,19=2,28=1/1;
 99/9=1/99;
 Leave Link    1 at Thu Sep 30 01:29:13 2021, MaxMem= 1610612736 cpu:       0.1
 (Enter /sw/target/amd/app/gaussian/Gaussian09RevA.02_gcc-4.9.2/g09/l101.exe)
 --------------------------------------
 CCOC(=O)c1cccc(c1)OC(=O)N(CC)CC_conf_0
 --------------------------------------
 Symbolic Z-matrix:
 Charge =  0 Multiplicity = 1
 C                     2.56913  -0.19949  -1.11823 
 C                     2.6826   -1.70787  -1.23735 
 O                     3.31771  -2.26839  -0.08094 
 C                     4.67548  -2.21234  -0.05318 
 O                     5.40124  -1.69751  -0.88221 
 C                     5.16041  -2.85539   1.19347 
 C                     4.43089  -3.88236   1.81159 
 C                     4.91721  -4.49583   2.96704 
 C                     6.13418  -4.08699   3.51147 
 C                     6.85192  -3.05869   2.90019 
 C                     6.387    -2.45056   1.73487 
 O                     8.13917  -2.68844   3.34034 
 C                     8.48973  -2.71206   4.69592 
 O                     7.67709  -2.74983   5.61564 
 N                     9.86631  -2.68972   4.88079 
 C                     10.80099  -2.70602   3.75896 
 C                     11.139   -1.3004    3.2899 
 C                     10.39833  -2.63347   6.23897 
 C                     10.61216  -4.01153   6.84874 
 H                     2.0457    0.21639  -1.98392 
 H                     3.55599   0.26789  -1.05061 
 H                     2.02318   0.07548  -0.20989 
 H                     3.21079  -2.00331  -2.15206 
 H                     1.67996  -2.14454  -1.28794 
 H                     3.48982  -4.22617   1.38997 
 H                     4.3589   -5.29912   3.43597 
 H                     6.51163  -4.5872    4.39857 
 H                     6.97307  -1.67578   1.2469 
 H                     10.36388  -3.26513   2.92418 
 H                     11.70627  -3.24528   4.05922 
 H                     10.24009  -0.76268   2.97029 
 H                     11.83223  -1.33793   2.44427 
 H                     11.60605  -0.71966   4.09172 
 H                     9.6956   -2.07524   6.86776 
 H                     11.33929  -2.07255   6.23194 
 H                     9.76884  -4.68131   6.65341 
 H                     10.73672  -3.92661   7.93385 
 H                     11.51584  -4.4816    6.44678 
 
 NAtoms=     38 NQM=     38 NQMF=      0 NMic=      0 NMicF=      0 NTot=     38.
                    Isotopes and Nuclear Properties:
 (Nuclear quadrupole moments (NQMom) in fm**2, nuclear magnetic moments (NMagM)
  in nuclear magnetons)

  Atom         1           2           3           4           5           6           7           8           9          10
 IAtWgt=          12          12          16          12          16          12          12          12          12          12
 AtmWgt=  12.0000000  12.0000000  15.9949146  12.0000000  15.9949146  12.0000000  12.0000000  12.0000000  12.0000000  12.0000000
 NucSpn=           0           0           0           0           0           0           0           0           0           0
 AtZEff=   0.0000000   0.0000000   0.0000000   0.0000000   0.0000000   0.0000000   0.0000000   0.0000000   0.0000000   0.0000000
 NQMom=    0.0000000   0.0000000   0.0000000   0.0000000   0.0000000   0.0000000   0.0000000   0.0000000   0.0000000   0.0000000
 NMagM=    0.0000000   0.0000000   0.0000000   0.0000000   0.0000000   0.0000000   0.0000000   0.0000000   0.0000000   0.0000000

  Atom        11          12          13          14          15          16          17          18          19          20
 IAtWgt=          12          16          12          16          14          12          12          12          12           1
 AtmWgt=  12.0000000  15.9949146  12.0000000  15.9949146  14.0030740  12.0000000  12.0000000  12.0000000  12.0000000   1.0078250
 NucSpn=           0           0           0           0           2           0           0           0           0           1
 AtZEff=   0.0000000   0.0000000   0.0000000   0.0000000   0.0000000   0.0000000   0.0000000   0.0000000   0.0000000   0.0000000
 NQMom=    0.0000000   0.0000000   0.0000000   0.0000000   2.0440000   0.0000000   0.0000000   0.0000000   0.0000000   0.0000000
 NMagM=    0.0000000   0.0000000   0.0000000   0.0000000   0.4037610   0.0000000   0.0000000   0.0000000   0.0000000   2.7928460

  Atom        21          22          23          24          25          26          27          28          29          30
 IAtWgt=           1           1           1           1           1           1           1           1           1           1
 AtmWgt=   1.0078250   1.0078250   1.0078250   1.0078250   1.0078250   1.0078250   1.0078250   1.0078250   1.0078250   1.0078250
 NucSpn=           1           1           1           1           1           1           1           1           1           1
 AtZEff=   0.0000000   0.0000000   0.0000000   0.0000000   0.0000000   0.0000000   0.0000000   0.0000000   0.0000000   0.0000000
 NQMom=    0.0000000   0.0000000   0.0000000   0.0000000   0.0000000   0.0000000   0.0000000   0.0000000   0.0000000   0.0000000
 NMagM=    2.7928460   2.7928460   2.7928460   2.7928460   2.7928460   2.7928460   2.7928460   2.7928460   2.7928460   2.7928460

  Atom        31          32          33          34          35          36          37          38
 IAtWgt=           1           1           1           1           1           1           1           1
 AtmWgt=   1.0078250   1.0078250   1.0078250   1.0078250   1.0078250   1.0078250   1.0078250   1.0078250
 NucSpn=           1           1           1           1           1           1           1           1
 AtZEff=   0.0000000   0.0000000   0.0000000   0.0000000   0.0000000   0.0000000   0.0000000   0.0000000
 NQMom=    0.0000000   0.0000000   0.0000000   0.0000000   0.0000000   0.0000000   0.0000000   0.0000000
 NMagM=    2.7928460   2.7928460   2.7928460   2.7928460   2.7928460   2.7928460   2.7928460   2.7928460
 Leave Link  101 at Thu Sep 30 01:29:14 2021, MaxMem= 1610612736 cpu:       0.2
 (Enter /sw/target/amd/app/gaussian/Gaussian09RevA.02_gcc-4.9.2/g09/l103.exe)

 GradGradGradGradGradGradGradGradGradGradGradGradGradGradGradGradGradGrad
 Berny optimization.
 Initialization pass.
                           ----------------------------
                           !    Initial Parameters    !
                           ! (Angstroms and Degrees)  !
 --------------------------                            --------------------------
 ! Name  Definition              Value          Derivative Info.                !
 --------------------------------------------------------------------------------
 ! R1    R(1,2)                  1.5173         estimate D2E/DX2                !
 ! R2    R(1,20)                 1.0938         estimate D2E/DX2                !
 ! R3    R(1,21)                 1.094          estimate D2E/DX2                !
 ! R4    R(1,22)                 1.0949         estimate D2E/DX2                !
 ! R5    R(2,3)                  1.4335         estimate D2E/DX2                !
 ! R6    R(2,23)                 1.0968         estimate D2E/DX2                !
 ! R7    R(2,24)                 1.0948         estimate D2E/DX2                !
 ! R8    R(3,4)                  1.3592         estimate D2E/DX2                !
 ! R9    R(4,5)                  1.2162         estimate D2E/DX2                !
 ! R10   R(4,6)                  1.4842         estimate D2E/DX2                !
 ! R11   R(6,7)                  1.4032         estimate D2E/DX2                !
 ! R12   R(6,11)                 1.4005         estimate D2E/DX2                !
 ! R13   R(7,8)                  1.3957         estimate D2E/DX2                !
 ! R14   R(7,25)                 1.087          estimate D2E/DX2                !
 ! R15   R(8,9)                  1.3945         estimate D2E/DX2                !
 ! R16   R(8,26)                 1.0848         estimate D2E/DX2                !
 ! R17   R(9,10)                 1.3951         estimate D2E/DX2                !
 ! R18   R(9,27)                 1.0861         estimate D2E/DX2                !
 ! R19   R(10,11)                1.3943         estimate D2E/DX2                !
 ! R20   R(10,12)                1.4099         estimate D2E/DX2                !
 ! R21   R(11,28)                1.0871         estimate D2E/DX2                !
 ! R22   R(12,13)                1.4004         estimate D2E/DX2                !
 ! R23   R(13,14)                1.2279         estimate D2E/DX2                !
 ! R24   R(13,15)                1.3891         estimate D2E/DX2                !
 ! R25   R(15,16)                1.4603         estimate D2E/DX2                !
 ! R26   R(15,18)                1.4597         estimate D2E/DX2                !
 ! R27   R(16,17)                1.5199         estimate D2E/DX2                !
 ! R28   R(16,29)                1.0957         estimate D2E/DX2                !
 ! R29   R(16,30)                1.0957         estimate D2E/DX2                !
 ! R30   R(17,31)                1.0951         estimate D2E/DX2                !
 ! R31   R(17,32)                1.0941         estimate D2E/DX2                !
 ! R32   R(17,33)                1.0947         estimate D2E/DX2                !
 ! R33   R(18,19)                1.522          estimate D2E/DX2                !
 ! R34   R(18,34)                1.0958         estimate D2E/DX2                !
 ! R35   R(18,35)                1.0955         estimate D2E/DX2                !
 ! R36   R(19,36)                1.0945         estimate D2E/DX2                !
 ! R37   R(19,37)                1.0955         estimate D2E/DX2                !
 ! R38   R(19,38)                1.0951         estimate D2E/DX2                !
 ! A1    A(2,1,20)             110.5871         estimate D2E/DX2                !
 ! A2    A(2,1,21)             111.2284         estimate D2E/DX2                !
 ! A3    A(2,1,22)             110.6148         estimate D2E/DX2                !
 ! A4    A(20,1,21)            108.5513         estimate D2E/DX2                !
 ! A5    A(20,1,22)            108.8149         estimate D2E/DX2                !
 ! A6    A(21,1,22)            106.9312         estimate D2E/DX2                !
 ! A7    A(1,2,3)              111.0092         estimate D2E/DX2                !
 ! A8    A(1,2,23)             111.6701         estimate D2E/DX2                !
 ! A9    A(1,2,24)             109.3693         estimate D2E/DX2                !
 ! A10   A(3,2,23)             110.7381         estimate D2E/DX2                !
 ! A11   A(3,2,24)             106.6836         estimate D2E/DX2                !
 ! A12   A(23,2,24)            107.1617         estimate D2E/DX2                !
 ! A13   A(2,3,4)              116.292          estimate D2E/DX2                !
 ! A14   A(3,4,5)              126.8453         estimate D2E/DX2                !
 ! A15   A(3,4,6)              109.0065         estimate D2E/DX2                !
 ! A16   A(5,4,6)              124.1256         estimate D2E/DX2                !
 ! A17   A(4,6,7)              121.1476         estimate D2E/DX2                !
 ! A18   A(4,6,11)             119.0524         estimate D2E/DX2                !
 ! A19   A(7,6,11)             119.7748         estimate D2E/DX2                !
 ! A20   A(6,7,8)              120.3469         estimate D2E/DX2                !
 ! A21   A(6,7,25)             120.7122         estimate D2E/DX2                !
 ! A22   A(8,7,25)             118.9305         estimate D2E/DX2                !
 ! A23   A(7,8,9)              119.8969         estimate D2E/DX2                !
 ! A24   A(7,8,26)             120.2651         estimate D2E/DX2                !
 ! A25   A(9,8,26)             119.8327         estimate D2E/DX2                !
 ! A26   A(8,9,10)             119.6057         estimate D2E/DX2                !
 ! A27   A(8,9,27)             119.1528         estimate D2E/DX2                !
 ! A28   A(10,9,27)            121.2361         estimate D2E/DX2                !
 ! A29   A(9,10,11)            121.0755         estimate D2E/DX2                !
 ! A30   A(9,10,12)            121.7694         estimate D2E/DX2                !
 ! A31   A(11,10,12)           116.7969         estimate D2E/DX2                !
 ! A32   A(6,11,10)            119.2782         estimate D2E/DX2                !
 ! A33   A(6,11,28)            120.3066         estimate D2E/DX2                !
 ! A34   A(10,11,28)           120.4136         estimate D2E/DX2                !
 ! A35   A(10,12,13)           121.7576         estimate D2E/DX2                !
 ! A36   A(12,13,14)           124.0499         estimate D2E/DX2                !
 ! A37   A(12,13,15)           112.125          estimate D2E/DX2                !
 ! A38   A(14,13,15)           123.8251         estimate D2E/DX2                !
 ! A39   A(13,15,16)           122.1324         estimate D2E/DX2                !
 ! A40   A(13,15,18)           119.0523         estimate D2E/DX2                !
 ! A41   A(16,15,18)           118.8119         estimate D2E/DX2                !
 ! A42   A(15,16,17)           111.6608         estimate D2E/DX2                !
 ! A43   A(15,16,29)           109.6119         estimate D2E/DX2                !
 ! A44   A(15,16,30)           108.8936         estimate D2E/DX2                !
 ! A45   A(17,16,29)           108.9969         estimate D2E/DX2                !
 ! A46   A(17,16,30)           110.8548         estimate D2E/DX2                !
 ! A47   A(29,16,30)           106.6939         estimate D2E/DX2                !
 ! A48   A(16,17,31)           111.1994         estimate D2E/DX2                !
 ! A49   A(16,17,32)           110.3474         estimate D2E/DX2                !
 ! A50   A(16,17,33)           111.0674         estimate D2E/DX2                !
 ! A51   A(31,17,32)           108.1403         estimate D2E/DX2                !
 ! A52   A(31,17,33)           107.6677         estimate D2E/DX2                !
 ! A53   A(32,17,33)           108.3003         estimate D2E/DX2                !
 ! A54   A(15,18,19)           112.8966         estimate D2E/DX2                !
 ! A55   A(15,18,34)           108.6507         estimate D2E/DX2                !
 ! A56   A(15,18,35)           109.075          estimate D2E/DX2                !
 ! A57   A(19,18,34)           108.7504         estimate D2E/DX2                !
 ! A58   A(19,18,35)           110.2118         estimate D2E/DX2                !
 ! A59   A(34,18,35)           107.0773         estimate D2E/DX2                !
 ! A60   A(18,19,36)           111.9817         estimate D2E/DX2                !
 ! A61   A(18,19,37)           110.0359         estimate D2E/DX2                !
 ! A62   A(18,19,38)           110.949          estimate D2E/DX2                !
 ! A63   A(36,19,37)           108.1679         estimate D2E/DX2                !
 ! A64   A(36,19,38)           107.9179         estimate D2E/DX2                !
 ! A65   A(37,19,38)           107.639          estimate D2E/DX2                !
 ! D1    D(20,1,2,3)          -177.5833         estimate D2E/DX2                !
 ! D2    D(20,1,2,23)           58.3084         estimate D2E/DX2                !
 ! D3    D(20,1,2,24)          -60.1321         estimate D2E/DX2                !
 ! D4    D(21,1,2,3)            61.7192         estimate D2E/DX2                !
 ! D5    D(21,1,2,23)          -62.389          estimate D2E/DX2                !
 ! D6    D(21,1,2,24)          179.1705         estimate D2E/DX2                !
 ! D7    D(22,1,2,3)           -56.9608         estimate D2E/DX2                !
 ! D8    D(22,1,2,23)          178.9309         estimate D2E/DX2                !
 ! D9    D(22,1,2,24)           60.4904         estimate D2E/DX2                !
 ! D10   D(1,2,3,4)            -81.2928         estimate D2E/DX2                !
 ! D11   D(23,2,3,4)            43.3441         estimate D2E/DX2                !
 ! D12   D(24,2,3,4)           159.6301         estimate D2E/DX2                !
 ! D13   D(2,3,4,5)              2.7134         estimate D2E/DX2                !
 ! D14   D(2,3,4,6)           -178.9679         estimate D2E/DX2                !
 ! D15   D(3,4,6,7)             28.8154         estimate D2E/DX2                !
 ! D16   D(3,4,6,11)          -153.0157         estimate D2E/DX2                !
 ! D17   D(5,4,6,7)           -152.8099         estimate D2E/DX2                !
 ! D18   D(5,4,6,11)            25.359          estimate D2E/DX2                !
 ! D19   D(4,6,7,8)            178.5673         estimate D2E/DX2                !
 ! D20   D(4,6,7,25)            -0.2504         estimate D2E/DX2                !
 ! D21   D(11,6,7,8)             0.4114         estimate D2E/DX2                !
 ! D22   D(11,6,7,25)         -178.4063         estimate D2E/DX2                !
 ! D23   D(4,6,11,10)         -179.5119         estimate D2E/DX2                !
 ! D24   D(4,6,11,28)            0.0281         estimate D2E/DX2                !
 ! D25   D(7,6,11,10)           -1.3173         estimate D2E/DX2                !
 ! D26   D(7,6,11,28)          178.2227         estimate D2E/DX2                !
 ! D27   D(6,7,8,9)              0.0135         estimate D2E/DX2                !
 ! D28   D(6,7,8,26)          -179.1417         estimate D2E/DX2                !
 ! D29   D(25,7,8,9)           178.8521         estimate D2E/DX2                !
 ! D30   D(25,7,8,26)           -0.3031         estimate D2E/DX2                !
 ! D31   D(7,8,9,10)             0.476          estimate D2E/DX2                !
 ! D32   D(7,8,9,27)          -178.6886         estimate D2E/DX2                !
 ! D33   D(26,8,9,10)          179.635          estimate D2E/DX2                !
 ! D34   D(26,8,9,27)            0.4704         estimate D2E/DX2                !
 ! D35   D(8,9,10,11)           -1.4144         estimate D2E/DX2                !
 ! D36   D(8,9,10,12)         -174.3218         estimate D2E/DX2                !
 ! D37   D(27,9,10,11)         177.7323         estimate D2E/DX2                !
 ! D38   D(27,9,10,12)           4.8249         estimate D2E/DX2                !
 ! D39   D(9,10,11,6)            1.8326         estimate D2E/DX2                !
 ! D40   D(9,10,11,28)        -177.7069         estimate D2E/DX2                !
 ! D41   D(12,10,11,6)         175.0788         estimate D2E/DX2                !
 ! D42   D(12,10,11,28)         -4.4607         estimate D2E/DX2                !
 ! D43   D(9,10,12,13)         -35.9901         estimate D2E/DX2                !
 ! D44   D(11,10,12,13)        150.8141         estimate D2E/DX2                !
 ! D45   D(10,12,13,14)        -17.1473         estimate D2E/DX2                !
 ! D46   D(10,12,13,15)        162.7653         estimate D2E/DX2                !
 ! D47   D(12,13,15,16)         -2.752          estimate D2E/DX2                !
 ! D48   D(12,13,15,18)        176.5677         estimate D2E/DX2                !
 ! D49   D(14,13,15,16)        177.1609         estimate D2E/DX2                !
 ! D50   D(14,13,15,18)         -3.5194         estimate D2E/DX2                !
 ! D51   D(13,15,16,17)         89.8444         estimate D2E/DX2                !
 ! D52   D(13,15,16,29)        -31.0417         estimate D2E/DX2                !
 ! D53   D(13,15,16,30)       -147.4181         estimate D2E/DX2                !
 ! D54   D(18,15,16,17)        -89.4769         estimate D2E/DX2                !
 ! D55   D(18,15,16,29)        149.637          estimate D2E/DX2                !
 ! D56   D(18,15,16,30)         33.2606         estimate D2E/DX2                !
 ! D57   D(13,15,18,19)         89.2209         estimate D2E/DX2                !
 ! D58   D(13,15,18,34)        -31.4982         estimate D2E/DX2                !
 ! D59   D(13,15,18,35)       -147.8996         estimate D2E/DX2                !
 ! D60   D(16,15,18,19)        -91.4366         estimate D2E/DX2                !
 ! D61   D(16,15,18,34)        147.8443         estimate D2E/DX2                !
 ! D62   D(16,15,18,35)         31.4429         estimate D2E/DX2                !
 ! D63   D(15,16,17,31)        -59.4728         estimate D2E/DX2                !
 ! D64   D(15,16,17,32)       -179.4732         estimate D2E/DX2                !
 ! D65   D(15,16,17,33)         60.4116         estimate D2E/DX2                !
 ! D66   D(29,16,17,31)         61.771          estimate D2E/DX2                !
 ! D67   D(29,16,17,32)        -58.2294         estimate D2E/DX2                !
 ! D68   D(29,16,17,33)       -178.3446         estimate D2E/DX2                !
 ! D69   D(30,16,17,31)        178.9167         estimate D2E/DX2                !
 ! D70   D(30,16,17,32)         58.9163         estimate D2E/DX2                !
 ! D71   D(30,16,17,33)        -61.1989         estimate D2E/DX2                !
 ! D72   D(15,18,19,36)        -43.8472         estimate D2E/DX2                !
 ! D73   D(15,18,19,37)       -164.1859         estimate D2E/DX2                !
 ! D74   D(15,18,19,38)         76.8027         estimate D2E/DX2                !
 ! D75   D(34,18,19,36)         76.8151         estimate D2E/DX2                !
 ! D76   D(34,18,19,37)        -43.5237         estimate D2E/DX2                !
 ! D77   D(34,18,19,38)       -162.535          estimate D2E/DX2                !
 ! D78   D(35,18,19,36)       -166.0913         estimate D2E/DX2                !
 ! D79   D(35,18,19,37)         73.57           estimate D2E/DX2                !
 ! D80   D(35,18,19,38)        -45.4413         estimate D2E/DX2                !
 --------------------------------------------------------------------------------
 Trust Radius=3.00D-01 FncErr=1.00D-07 GrdErr=1.00D-06
 Number of steps in this run= 193 maximum allowed number of steps= 228.
 GradGradGradGradGradGradGradGradGradGradGradGradGradGradGradGradGradGrad

 Leave Link  103 at Thu Sep 30 01:29:15 2021, MaxMem= 1610612736 cpu:       0.0
 (Enter /sw/target/amd/app/gaussian/Gaussian09RevA.02_gcc-4.9.2/g09/l202.exe)
                          Input orientation:                          
 ---------------------------------------------------------------------
 Center     Atomic      Atomic             Coordinates (Angstroms)
 Number     Number       Type             X           Y           Z
 ---------------------------------------------------------------------
      1          6           0        2.569132   -0.199491   -1.118231
      2          6           0        2.682599   -1.707872   -1.237352
      3          8           0        3.317715   -2.268393   -0.080940
      4          6           0        4.675479   -2.212342   -0.053176
      5          8           0        5.401236   -1.697513   -0.882208
      6          6           0        5.160408   -2.855385    1.193474
      7          6           0        4.430894   -3.882355    1.811593
      8          6           0        4.917212   -4.495829    2.967039
      9          6           0        6.134180   -4.086992    3.511469
     10          6           0        6.851920   -3.058687    2.900192
     11          6           0        6.387002   -2.450557    1.734868
     12          8           0        8.139168   -2.688442    3.340341
     13          6           0        8.489726   -2.712055    4.695917
     14          8           0        7.677087   -2.749829    5.615638
     15          7           0        9.866314   -2.689722    4.880786
     16          6           0       10.800990   -2.706024    3.758961
     17          6           0       11.139003   -1.300396    3.289904
     18          6           0       10.398326   -2.633474    6.238970
     19          6           0       10.612161   -4.011532    6.848738
     20          1           0        2.045704    0.216388   -1.983922
     21          1           0        3.555989    0.267889   -1.050614
     22          1           0        2.023183    0.075482   -0.209885
     23          1           0        3.210788   -2.003309   -2.152063
     24          1           0        1.679960   -2.144540   -1.287940
     25          1           0        3.489824   -4.226168    1.389973
     26          1           0        4.358898   -5.299116    3.435970
     27          1           0        6.511626   -4.587204    4.398571
     28          1           0        6.973074   -1.675779    1.246899
     29          1           0       10.363878   -3.265132    2.924181
     30          1           0       11.706266   -3.245284    4.059225
     31          1           0       10.240087   -0.762675    2.970288
     32          1           0       11.832229   -1.337927    2.444270
     33          1           0       11.606048   -0.719664    4.091715
     34          1           0        9.695600   -2.075236    6.867762
     35          1           0       11.339293   -2.072547    6.231940
     36          1           0        9.768836   -4.681309    6.653411
     37          1           0       10.736721   -3.926614    7.933845
     38          1           0       11.515841   -4.481600    6.446777
 ---------------------------------------------------------------------
                    Distance matrix (angstroms):
                    1          2          3          4          5
     1  C    0.000000
     2  C    1.517326   0.000000
     3  O    2.432428   1.433473   0.000000
     4  C    3.102034   2.372411   1.359205   0.000000
     5  O    3.212568   2.741756   2.304126   1.216169   0.000000
     6  C    4.371780   3.655849   2.316076   1.484181   2.388958
     7  C    5.060981   4.132915   2.725019   2.515180   3.601620
     8  C    6.376632   5.517527   4.100005   3.794001   4.783467
     9  C    7.018287   6.334424   4.913775   4.283551   5.054821
    10  C    6.531845   6.027206   4.690663   3.765046   4.273620
    11  C    5.271016   4.807107   3.570836   2.486596   2.896187
    12  O    7.556391   7.189641   5.926890   4.872347   5.129145
    13  C    8.670105   8.362702   7.054424   6.111634   6.456279
    14  O    8.828388   8.543656   7.189361   6.436924   6.964831
    15  N    9.769254   9.486907   8.226810   7.177509   7.357547
    16  C    9.891067   9.584765   8.422338   7.231735   7.191306
    17  C    9.699811   9.600669   8.571590   7.333823   7.105363
    18  C   11.015851  10.783532   9.497874   8.515833   8.749748
    19  C   11.945483  11.557234  10.211166   9.279961   9.606037
    20  H    1.093779   2.160041   3.378386   4.067214   4.017012
    21  H    1.094031   2.168251   2.725760   2.898221   2.701130
    22  H    1.094880   2.161219   2.680707   3.506190   3.873857
    23  H    2.175843   1.096796   2.090753   2.567945   2.550315
    24  H    2.145377   1.094771   2.038241   3.240737   3.769927
    25  H    4.832484   3.727770   2.454810   2.746626   3.900052
    26  H    7.067545   6.127557   4.757941   4.669319   5.718800
    27  H    8.076534   7.397001   5.970258   5.369307   6.121267
    28  H    5.212291   4.957894   3.933955   2.693889   2.646553
    29  H    9.300394   8.873864   7.724809   6.506220   6.447778
    30  H   10.934813  10.575629   9.405482   8.210406   8.158845
    31  H    8.710724   8.701336   7.713392   6.496747   6.255407
    32  H    9.989616   9.869495   8.929693   7.630262   7.249305
    33  H   10.444136  10.440472   9.407768   8.212247   8.012228
    34  H   10.866511  10.724272   9.433939   8.551011   8.868273
    35  H   11.595219  11.439479  10.209630   9.161258   9.274280
    36  H   11.503080  11.014546   9.632789   8.775898   9.206765
    37  H   12.749159  12.405747  11.046635  10.172015  10.543201
    38  H   12.474351  12.031857  10.710680   9.705126   9.942513
                    6          7          8          9         10
     6  C    0.000000
     7  C    1.403186   0.000000
     8  C    2.428113   1.395675   0.000000
     9  C    2.799677   2.415085   1.394475   0.000000
    10  C    2.411521   2.779360   2.411004   1.395070   0.000000
    11  C    1.400546   2.425344   2.803866   2.428610   1.394256
    12  O    3.675585   4.184948   3.713085   2.450551   1.409900
    13  C    4.834461   5.114981   4.351289   2.973544   2.455033
    14  O    5.089239   5.127488   4.204818   2.931909   2.854810
    15  N    5.980742   6.355007   5.605181   4.213813   3.625667
    16  C    6.198403   6.764179   6.200756   4.873134   4.056724
    17  C    6.523543   7.338299   7.001836   5.732579   4.650004
    18  C    7.276130   7.534694   6.649549   5.266395   4.889298
    19  C    7.939792   7.974808   6.909020   5.585282   5.535191
    20  H    5.406756   6.074107   7.413674   8.089131   7.594762
    21  H    4.167124   5.116856   6.378673   6.813564   6.126837
    22  H    4.516810   5.054495   6.274164   6.933611   6.543111
    23  H    3.964803   4.553026   5.943882   6.705486   6.316402
    24  H    4.333155   4.493857   5.840652   6.829899   6.717536
    25  H    2.169910   1.087007   2.144129   3.393042   3.866195
    26  H    3.412189   2.156617   1.084842   2.150947   3.394369
    27  H    3.885568   3.393922   2.144711   1.086107   2.167327
    28  H    2.163350   3.413288   3.890775   3.412618   2.158816
    29  H    5.499032   6.067876   5.584140   4.348644   3.518102
    30  H    7.156313   7.641253   6.989133   5.661860   4.994282
    31  H    5.774049   6.694901   6.501495   5.310596   4.093441
    32  H    6.955600   7.852016   7.619914   6.415920   5.288890
    33  H    7.382912   8.166052   7.763043   6.451118   5.430699
    34  H    7.305761   7.519817   6.626303   5.291084   4.979488
    35  H    8.011093   8.398860   7.600987   6.209038   5.675345
    36  H    7.374451   7.250872   6.096063   4.841047   5.022744
    37  H    8.813366   8.789049   7.672018   6.384867   6.417371
    38  H    8.404363   8.487668   7.459939   6.142803   6.029520
                   11         12         13         14         15
    11  C    0.000000
    12  O    2.388350   0.000000
    13  C    3.641103   1.400369   0.000000
    14  O    4.100519   2.322555   1.227883   0.000000
    15  N    4.696766   2.314305   1.389126   2.310052   0.000000
    16  C    4.862664   2.694596   2.493966   3.634273   1.460265
    17  C    5.130547   3.305787   3.314864   4.415287   2.465942
    18  C    6.034161   3.675441   2.455594   2.794141   1.459748
    19  C    6.814710   4.491671   3.290594   3.424484   2.485217
    20  H    6.307842   8.597449   9.732494   9.912832  10.804242
    21  H    4.812847   7.001850   8.139068   8.398153   9.151457
    22  H    5.404244   7.592671   8.582157   8.595681   9.750692
    23  H    5.039504   7.411129   8.675501   8.991234   9.707118
    24  H    5.602434   7.964809   9.083035   9.164677  10.264833
    25  H    3.415463   5.271142   6.182298   6.129355   7.430079
    26  H    3.888605   4.595128   5.034291   4.718071   6.263231
    27  H    3.417032   2.715519   2.741802   2.493090   3.884187
    28  H    1.087141   2.601492   3.907661   4.553580   4.754371
    29  H    4.230076   2.335615   2.637686   3.837750   2.099278
    30  H    5.859078   3.681176   3.322024   4.347664   2.090224
    31  H    4.384229   2.873913   3.137139   4.185168   2.739200
    32  H    5.602828   4.033055   4.257989   5.414448   3.410100
    33  H    5.982404   4.057081   3.747819   4.677676   2.744163
    34  H    6.118356   3.903998   2.564485   2.469268   2.086818
    35  H    6.700129   4.356773   3.299754   3.774957   2.091935
    36  H    6.372214   4.195685   3.057102   3.030347   2.667981
    37  H    7.715317   5.420391   4.124115   4.015006   3.407152
    38  H    7.254806   4.926184   3.918441   4.292535   2.895530
                   16         17         18         19         20
    16  C    0.000000
    17  C    1.519887   0.000000
    18  C    2.513532   3.320044   0.000000
    19  C    3.359573   4.504789   1.522034   0.000000
    20  H   10.870889  10.620827  12.062502  13.010587   0.000000
    21  H    9.190549   8.877032  10.410260  11.423780   1.776142
    22  H   10.026884   9.861021  10.911883  11.844762   1.779767
    23  H    9.645992   9.641871  11.066491  11.824876   2.512518
    24  H   10.439332  10.542425  11.528371  12.226013   2.488401
    25  H    7.834289   8.407129   8.589344   8.976183   5.762375
    26  H    6.951906   7.872796   7.171969   7.239347   8.071362
    27  H    4.727218   5.783154   4.723406   4.811352   9.151785
    28  H    4.693058   4.655077   6.129461   7.076672   6.188496
    29  H    1.095685   2.143539   3.374611   4.002612  10.266571
    30  H    1.095667   2.167079   2.614634   3.092828  11.909209
    31  H    2.170995   1.095147   3.769511   5.073055   9.625522
    32  H    2.159527   1.094106   4.258435   5.294910  10.853610
    33  H    2.168979   1.094661   3.119609   4.407423  11.366167
    34  H    3.359229   3.935081   1.095825   2.142356  11.921609
    35  H    2.608963   3.048264   1.095495   2.160747  12.613898
    36  H    3.653072   4.961967   2.182120   1.094509  12.579258
    37  H    4.350130   5.350238   2.158547   1.095530  13.822459
    38  H    3.299703   4.497546   2.169699   1.095068  13.521512
                   21         22         23         24         25
    21  H    0.000000
    22  H    1.758789   0.000000
    23  H    2.547684   3.082828   0.000000
    24  H    3.065228   2.491686   1.763544   0.000000
    25  H    5.114430   4.818172   4.191060   3.844477   0.000000
    26  H    7.194835   6.901748   6.588369   6.280397   2.468321
    27  H    7.874092   7.945101   7.777072   7.851625   4.279403
    28  H    4.553337   5.448904   5.080848   5.887462   4.319489
    29  H    8.638784   9.515738   8.861554   9.716385   7.108446
    30  H   10.241086  11.091208  10.596968  11.416244   8.694651
    31  H    7.868092   8.850622   8.785709   9.660115   7.749789
    32  H    9.126281  10.259612   9.792765  10.846593   8.890962
    33  H    9.603242  10.534103  10.541010  11.379727   9.244895
    34  H   10.290079  10.657610  11.109239  11.435505   8.552446
    35  H   10.912976  11.528272  11.677709  12.241589   9.470845
    36  H   11.065533  11.389778  11.301152  11.615945   8.205907
    37  H   12.242437  12.580257  12.730448  13.047683   9.768803
    38  H   11.921735  12.457476  12.208844  12.729190   9.489650
                   26         27         28         29         30
    26  H    0.000000
    27  H    2.463261   0.000000
    28  H    4.975392   4.315364   0.000000
    29  H    6.360724   4.331460   4.103275   0.000000
    30  H    7.654443   5.375890   5.725000   1.758045   0.000000
    31  H    7.442079   5.528873   3.804891   2.505941   3.082015
    32  H    8.516171   6.533446   5.015897   2.469917   2.502390
    33  H    8.597824   6.403528   5.520107   3.063581   2.527817
    34  H    7.116950   4.748113   6.258259   4.173042   3.646872
    35  H    8.182550   5.743790   6.638669   3.648967   2.496132
    36  H    6.324637   3.962648   6.788215   4.033211   3.541978
    37  H    7.924095   5.548511   7.996658   5.066883   4.051779
    38  H    7.807377   5.408186   7.453059   3.900705   2.695393
                   31         32         33         34         35
    31  H    0.000000
    32  H    1.772717   0.000000
    33  H    1.767852   1.774115   0.000000
    34  H    4.148444   4.967504   3.632330   0.000000
    35  H    3.682716   3.889614   2.545980   1.762386   0.000000
    36  H    5.398441   5.757835   5.062832   2.615899   3.074023
    37  H    5.907119   6.167404   5.079589   2.376566   2.587883
    38  H    5.248231   5.099299   4.439213   3.046489   2.425049
                   36         37         38
    36  H    0.000000
    37  H    1.773663   0.000000
    38  H    1.770483   1.768165   0.000000
 Stoichiometry    C14H19NO4
 Framework group  C1[X(C14H19NO4)]
 Deg. of freedom   108
 Full point group                 C1      NOp   1
 Largest Abelian subgroup         C1      NOp   1
 Largest concise Abelian subgroup C1      NOp   1
                         Standard orientation:                         
 ---------------------------------------------------------------------
 Center     Atomic      Atomic             Coordinates (Angstroms)
 Number     Number       Type             X           Y           Z
 ---------------------------------------------------------------------
      1          6           0       -5.963171    1.098515    1.310532
      2          6           0       -5.776656    0.251860    0.065275
      3          8           0       -4.481289   -0.361854    0.050352
      4          6           0       -3.451630    0.415607   -0.377191
      5          8           0       -3.507953    1.585925   -0.703152
      6          6           0       -2.200379   -0.382196   -0.351200
      7          6           0       -2.223375   -1.774187   -0.526593
      8          6           0       -1.033943   -2.504363   -0.528874
      9          6           0        0.184512   -1.848642   -0.355785
     10          6           0        0.202973   -0.465932   -0.171418
     11          6           0       -0.976204    0.277891   -0.186246
     12          8           0        1.410848    0.258686   -0.109882
     13          6           0        2.558731   -0.271742    0.491817
     14          8           0        2.552323   -1.230460    1.258964
     15          7           0        3.708748    0.412137    0.118398
     16          6           0        3.681567    1.509848   -0.844237
     17          6           0        3.463047    2.849841   -0.161064
     18          6           0        4.984935    0.032835    0.717015
     19          6           0        5.705608   -1.055905   -0.065202
     20          1           0       -6.968424    1.528828    1.336030
     21          1           0       -5.234531    1.913731    1.348084
     22          1           0       -5.814084    0.495812    2.212355
     23          1           0       -5.940776    0.834821   -0.849156
     24          1           0       -6.509692   -0.561270    0.065914
     25          1           0       -3.162715   -2.298757   -0.681674
     26          1           0       -1.052176   -3.578688   -0.678460
     27          1           0        1.104225   -2.425804   -0.381056
     28          1           0       -0.946162    1.359269   -0.078571
     29          1           0        2.876828    1.343576   -1.568996
     30          1           0        4.619849    1.508890   -1.410021
     31          1           0        2.517124    2.863489    0.390651
     32          1           0        3.437052    3.654718   -0.901717
     33          1           0        4.266214    3.063992    0.551217
     34          1           0        4.800915   -0.328070    1.735208
     35          1           0        5.619483    0.921918    0.800606
     36          1           0        5.025508   -1.854749   -0.377074
     37          1           0        6.495116   -1.500459    0.550617
     38          1           0        6.177489   -0.645164   -0.963975
 ---------------------------------------------------------------------
 Rotational constants (GHZ):      0.8915479      0.1416142      0.1287695
 Leave Link  202 at Thu Sep 30 01:29:15 2021, MaxMem= 1610612736 cpu:       0.1
 (Enter /sw/target/amd/app/gaussian/Gaussian09RevA.02_gcc-4.9.2/g09/l301.exe)
 Standard basis: 6-31G(d) (6D, 7F)
 Ernie: Thresh=  0.10000D-02 Tol=  0.10000D-05 Strict=F.
 There are   323 symmetry adapted basis functions of A   symmetry.
 Integral buffers will be    131072 words long.
 Raffenetti 2 integral format.
 Two-electron integral symmetry is turned on.
   323 basis functions,   608 primitive gaussians,   323 cartesian basis functions
    71 alpha electrons       71 beta electrons
       nuclear repulsion energy      1406.6868164918 Hartrees.
 IExCor=  402 DFT=T Ex+Corr=B3LYP ExCW=0 ScaHFX=  0.200000
 ScaDFX=  0.800000  0.720000  1.000000  0.810000 ScalE2=  1.000000  1.000000
 IRadAn=      0 IRanWt=     -1 IRanGd=            0 ICorTp=0
 NAtoms=   38 NActive=   38 NUniq=   38 SFac= 7.50D-01 NAtFMM=   80 NAOKFM=F Big=F
 Leave Link  301 at Thu Sep 30 01:29:15 2021, MaxMem= 1610612736 cpu:       0.1
 (Enter /sw/target/amd/app/gaussian/Gaussian09RevA.02_gcc-4.9.2/g09/l302.exe)
 NPDir=0 NMtPBC=     1 NCelOv=     1 NCel=       1 NClECP=     1 NCelD=      1
         NCelK=      1 NCelE2=     1 NClLst=     1 CellRange=     0.0.
 One-electron integrals computed using PRISM.
 NBasis=   323 RedAO= T  NBF=   323
 NBsUse=   323 1.00D-06 NBFU=   323
 Precomputing XC quadrature grid using
 IXCGrd= 2 IRadAn=           0 IRanWt=          -1 IRanGd=           0 AccXCQ= 1.00D-10.
 NRdTot=    2439 NPtTot=      311132 NUsed=      328712 NTot=      328744
 NSgBfM=   319   319   319   319   319 NAtAll=    38    38.
 Leave Link  302 at Thu Sep 30 01:29:21 2021, MaxMem= 1610612736 cpu:       3.8
 (Enter /sw/target/amd/app/gaussian/Gaussian09RevA.02_gcc-4.9.2/g09/l303.exe)
 DipDrv:  MaxL=1.
 Leave Link  303 at Thu Sep 30 01:29:22 2021, MaxMem= 1610612736 cpu:       0.3
 (Enter /sw/target/amd/app/gaussian/Gaussian09RevA.02_gcc-4.9.2/g09/l401.exe)
 Harris functional with IExCor=  402 diagonalized for initial guess.
 ExpMin= 1.61D-01 ExpMax= 5.48D+03 ExpMxC= 8.25D+02 IAcc=1 IRadAn=         1 AccDes= 0.00D+00
 HarFok:  IExCor=  402 AccDes= 0.00D+00 IRadAn=         1 IDoV= 1
 ScaDFX=  1.000000  1.000000  1.000000  1.000000
 FoFCou: FMM=F IPFlag=           0 FMFlag=      100000 FMFlg1=           0
         NFxFlg=           0 DoJE=T BraDBF=F KetDBF=T FulRan=T
         Omega=  0.000000  0.000000  1.000000  0.000000  0.000000 ICntrl=     500 IOpCl=  0
         NMat0=    1 NMatS0=    1 NMatT0=    0 NMatD0=    1 NMtDS0=    0 NMtDT0=    0
         I1Cent=           4 NGrid=           0.
 Petite list used in FoFCou.
 Harris En= -900.761406711202    
 Initial guess orbital symmetries:
       Occupied  (A) (A) (A) (A) (A) (A) (A) (A) (A) (A) (A) (A)
                 (A) (A) (A) (A) (A) (A) (A) (A) (A) (A) (A) (A)
                 (A) (A) (A) (A) (A) (A) (A) (A) (A) (A) (A) (A)
                 (A) (A) (A) (A) (A) (A) (A) (A) (A) (A) (A) (A)
                 (A) (A) (A) (A) (A) (A) (A) (A) (A) (A) (A) (A)
                 (A) (A) (A) (A) (A) (A) (A) (A) (A) (A) (A)
       Virtual   (A) (A) (A) (A) (A) (A) (A) (A) (A) (A) (A) (A)
                 (A) (A) (A) (A) (A) (A) (A) (A) (A) (A) (A) (A)
                 (A) (A) (A) (A) (A) (A) (A) (A) (A) (A) (A) (A)
                 (A) (A) (A) (A) (A) (A) (A) (A) (A) (A) (A) (A)
                 (A) (A) (A) (A) (A) (A) (A) (A) (A) (A) (A) (A)
                 (A) (A) (A) (A) (A) (A) (A) (A) (A) (A) (A) (A)
                 (A) (A) (A) (A) (A) (A) (A) (A) (A) (A) (A) (A)
                 (A) (A) (A) (A) (A) (A) (A) (A) (A) (A) (A) (A)
                 (A) (A) (A) (A) (A) (A) (A) (A) (A) (A) (A) (A)
                 (A) (A) (A) (A) (A) (A) (A) (A) (A) (A) (A) (A)
                 (A) (A) (A) (A) (A) (A) (A) (A) (A) (A) (A) (A)
                 (A) (A) (A) (A) (A) (A) (A) (A) (A) (A) (A) (A)
                 (A) (A) (A) (A) (A) (A) (A) (A) (A) (A) (A) (A)
                 (A) (A) (A) (A) (A) (A) (A) (A) (A) (A) (A) (A)
                 (A) (A) (A) (A) (A) (A) (A) (A) (A) (A) (A) (A)
                 (A) (A) (A) (A) (A) (A) (A) (A) (A) (A) (A) (A)
                 (A) (A) (A) (A) (A) (A) (A) (A) (A) (A) (A) (A)
                 (A) (A) (A) (A) (A) (A) (A) (A) (A) (A) (A) (A)
                 (A) (A) (A) (A) (A) (A) (A) (A) (A) (A) (A) (A)
                 (A) (A) (A) (A) (A) (A) (A) (A) (A) (A) (A) (A)
                 (A) (A) (A) (A) (A) (A) (A) (A) (A) (A) (A) (A)
 The electronic state of the initial guess is 1-A.
 Leave Link  401 at Thu Sep 30 01:29:36 2021, MaxMem= 1610612736 cpu:      15.2
 (Enter /sw/target/amd/app/gaussian/Gaussian09RevA.02_gcc-4.9.2/g09/l502.exe)
 Closed shell SCF:
 Requested convergence on RMS density matrix=1.00D-08 within  64 cycles.
 Requested convergence on MAX density matrix=1.00D-06.
 Requested convergence on             energy=1.00D-06.
 No special actions if energy rises.
 Using DIIS extrapolation, IDIIS=  1040.
 Integral symmetry usage will be decided dynamically.
       328357 words used for storage of precomputed grid.
 Keep R1 ints in memory in canonical form, NReq=1386688536.
 IEnd=      651271 IEndB=      651271 NGot=  1610612736 MDV=   241039013
 LenX=   241039013 LenY=   240934243
 Symmetry not used in FoFDir.
 MinBra= 0 MaxBra= 2 Meth= 1.
 IRaf=       0 NMat=   1 IRICut=       1 DoRegI=T DoRafI=F ISym2E= 0 JSym2E=0.
 Integral accuracy reduced to 1.0D-05 until final iterations.

 Cycle   1  Pass 0  IDiag  1:
 E= -900.043247274172    
 DIIS: error= 2.32D-02 at cycle   1 NSaved=   1.
 NSaved= 1 IEnMin= 1 EnMin= -900.043247274172     IErMin= 1 ErrMin= 2.32D-02
 ErrMax= 2.32D-02 EMaxC= 1.00D-01 BMatC= 6.11D-01 BMatP= 6.11D-01
 IDIUse=3 WtCom= 7.68D-01 WtEn= 2.32D-01
 Coeff-Com:  0.100D+01
 Coeff-En:   0.100D+01
 Coeff:      0.100D+01
 Gap=     0.218 Goal=   None    Shift=    0.000
 GapD=    0.218 DampG=1.000 DampE=0.500 DampFc=0.5000 IDamp=-1.
 Damping current iteration by 5.00D-01
 RMSDP=5.23D-03 MaxDP=1.99D-01              OVMax= 2.14D-01

 Cycle   2  Pass 0  IDiag  1:
 E= -900.220373601119     Delta-E=       -0.177126326947 Rises=F Damp=T
 DIIS: error= 1.04D-02 at cycle   2 NSaved=   2.
 NSaved= 2 IEnMin= 2 EnMin= -900.220373601119     IErMin= 2 ErrMin= 1.04D-02
 ErrMax= 1.04D-02 EMaxC= 1.00D-01 BMatC= 8.91D-02 BMatP= 6.11D-01
 IDIUse=3 WtCom= 8.96D-01 WtEn= 1.04D-01
 Coeff-Com:  0.208D+00 0.792D+00
 Coeff-En:   0.311D+00 0.689D+00
 Coeff:      0.219D+00 0.781D+00
 Gap=     0.233 Goal=   None    Shift=    0.000
 RMSDP=1.60D-03 MaxDP=6.04D-02 DE=-1.77D-01 OVMax= 1.58D-01

 Cycle   3  Pass 0  IDiag  1:
 E= -900.539170211593     Delta-E=       -0.318796610474 Rises=F Damp=F
 DIIS: error= 1.21D-02 at cycle   3 NSaved=   3.
 NSaved= 3 IEnMin= 3 EnMin= -900.539170211593     IErMin= 2 ErrMin= 1.04D-02
 ErrMax= 1.21D-02 EMaxC= 1.00D-01 BMatC= 9.14D-02 BMatP= 8.91D-02
 IDIUse=3 WtCom= 8.79D-01 WtEn= 1.21D-01
 Coeff-Com:  0.757D-01 0.495D+00 0.429D+00
 Coeff-En:   0.000D+00 0.000D+00 0.100D+01
 Coeff:      0.665D-01 0.435D+00 0.498D+00
 Gap=     0.205 Goal=   None    Shift=    0.000
 RMSDP=1.17D-03 MaxDP=5.19D-02 DE=-3.19D-01 OVMax= 8.71D-02

 Cycle   4  Pass 0  IDiag  1:
 E= -900.602605437466     Delta-E=       -0.063435225873 Rises=F Damp=F
 DIIS: error= 5.36D-03 at cycle   4 NSaved=   4.
 NSaved= 4 IEnMin= 4 EnMin= -900.602605437466     IErMin= 4 ErrMin= 5.36D-03
 ErrMax= 5.36D-03 EMaxC= 1.00D-01 BMatC= 1.72D-02 BMatP= 8.91D-02
 IDIUse=3 WtCom= 9.46D-01 WtEn= 5.36D-02
 Coeff-Com:  0.167D-01 0.102D+00 0.308D+00 0.574D+00
 Coeff-En:   0.000D+00 0.000D+00 0.182D+00 0.818D+00
 Coeff:      0.158D-01 0.963D-01 0.301D+00 0.587D+00
 Gap=     0.199 Goal=   None    Shift=    0.000
 RMSDP=3.98D-04 MaxDP=1.70D-02 DE=-6.34D-02 OVMax= 3.21D-02

 Cycle   5  Pass 0  IDiag  1:
 E= -900.615377853294     Delta-E=       -0.012772415828 Rises=F Damp=F
 DIIS: error= 9.61D-04 at cycle   5 NSaved=   5.
 NSaved= 5 IEnMin= 5 EnMin= -900.615377853294     IErMin= 5 ErrMin= 9.61D-04
 ErrMax= 9.61D-04 EMaxC= 1.00D-01 BMatC= 9.52D-04 BMatP= 1.72D-02
 IDIUse=3 WtCom= 9.90D-01 WtEn= 9.61D-03
 Coeff-Com:  0.325D-02 0.114D-01 0.123D+00 0.325D+00 0.537D+00
 Coeff-En:   0.000D+00 0.000D+00 0.000D+00 0.000D+00 0.100D+01
 Coeff:      0.322D-02 0.113D-01 0.122D+00 0.322D+00 0.542D+00
 Gap=     0.198 Goal=   None    Shift=    0.000
 RMSDP=1.07D-04 MaxDP=4.32D-03 DE=-1.28D-02 OVMax= 9.83D-03

 Cycle   6  Pass 0  IDiag  1:
 E= -900.616147156325     Delta-E=       -0.000769303030 Rises=F Damp=F
 DIIS: error= 2.94D-04 at cycle   6 NSaved=   6.
 NSaved= 6 IEnMin= 6 EnMin= -900.616147156325     IErMin= 6 ErrMin= 2.94D-04
 ErrMax= 2.94D-04 EMaxC= 1.00D-01 BMatC= 8.41D-05 BMatP= 9.52D-04
 IDIUse=3 WtCom= 9.97D-01 WtEn= 2.94D-03
 Coeff-Com:  0.580D-03-0.203D-02 0.416D-01 0.126D+00 0.304D+00 0.530D+00
 Coeff-En:   0.000D+00 0.000D+00 0.000D+00 0.000D+00 0.166D-01 0.983D+00
 Coeff:      0.579D-03-0.203D-02 0.414D-01 0.125D+00 0.303D+00 0.531D+00
 Gap=     0.198 Goal=   None    Shift=    0.000
 RMSDP=3.34D-05 MaxDP=1.27D-03 DE=-7.69D-04 OVMax= 2.82D-03

 Cycle   7  Pass 0  IDiag  1:
 E= -900.616215150189     Delta-E=       -0.000067993864 Rises=F Damp=F
 DIIS: error= 1.14D-04 at cycle   7 NSaved=   7.
 NSaved= 7 IEnMin= 7 EnMin= -900.616215150189     IErMin= 7 ErrMin= 1.14D-04
 ErrMax= 1.14D-04 EMaxC= 1.00D-01 BMatC= 9.48D-06 BMatP= 8.41D-05
 IDIUse=3 WtCom= 9.99D-01 WtEn= 1.14D-03
 Coeff-Com:  0.120D-03-0.211D-02 0.141D-01 0.456D-01 0.138D+00 0.320D+00
 Coeff-Com:  0.483D+00
 Coeff-En:   0.000D+00 0.000D+00 0.000D+00 0.000D+00 0.000D+00 0.437D-01
 Coeff-En:   0.956D+00
 Coeff:      0.120D-03-0.211D-02 0.141D-01 0.456D-01 0.138D+00 0.320D+00
 Coeff:      0.484D+00
 Gap=     0.197 Goal=   None    Shift=    0.000
 RMSDP=1.12D-05 MaxDP=4.43D-04 DE=-6.80D-05 OVMax= 1.05D-03

 Cycle   8  Pass 0  IDiag  1:
 E= -900.616223354264     Delta-E=       -0.000008204075 Rises=F Damp=F
 DIIS: error= 4.50D-05 at cycle   8 NSaved=   8.
 NSaved= 8 IEnMin= 8 EnMin= -900.616223354264     IErMin= 8 ErrMin= 4.50D-05
 ErrMax= 4.50D-05 EMaxC= 1.00D-01 BMatC= 9.76D-07 BMatP= 9.48D-06
 IDIUse=1 WtCom= 1.00D+00 WtEn= 0.00D+00
 Coeff-Com:  0.455D-04-0.105D-02 0.395D-02 0.131D-01 0.511D-01 0.134D+00
 Coeff-Com:  0.287D+00 0.511D+00
 Coeff:      0.455D-04-0.105D-02 0.395D-02 0.131D-01 0.511D-01 0.134D+00
 Coeff:      0.287D+00 0.511D+00
 Gap=     0.198 Goal=   None    Shift=    0.000
 RMSDP=3.61D-06 MaxDP=2.02D-04 DE=-8.20D-06 OVMax= 2.86D-04

 Initial convergence to 1.0D-05 achieved.  Increase integral accuracy.
 Cycle   9  Pass 1  IDiag  1:
 E= -900.616157236814     Delta-E=        0.000066117450 Rises=F Damp=F
 DIIS: error= 4.73D-05 at cycle   1 NSaved=   1.
 NSaved= 1 IEnMin= 1 EnMin= -900.616157236814     IErMin= 1 ErrMin= 4.73D-05
 ErrMax= 4.73D-05 EMaxC= 1.00D-01 BMatC= 2.54D-07 BMatP= 2.54D-07
 IDIUse=1 WtCom= 1.00D+00 WtEn= 0.00D+00
 Coeff-Com:  0.100D+01
 Coeff:      0.100D+01
 Gap=     0.197 Goal=   None    Shift=    0.000
 RMSDP=3.61D-06 MaxDP=2.02D-04 DE= 6.61D-05 OVMax= 2.06D-04

 Cycle  10  Pass 1  IDiag  1:
 E= -900.616157066354     Delta-E=        0.000000170460 Rises=F Damp=F
 DIIS: error= 3.26D-05 at cycle   2 NSaved=   2.
 NSaved= 2 IEnMin= 1 EnMin= -900.616157236814     IErMin= 2 ErrMin= 3.26D-05
 ErrMax= 3.26D-05 EMaxC= 1.00D-01 BMatC= 5.70D-07 BMatP= 2.54D-07
 IDIUse=1 WtCom= 1.00D+00 WtEn= 0.00D+00
 Coeff-Com:  0.619D+00 0.381D+00
 Coeff:      0.619D+00 0.381D+00
 Gap=     0.198 Goal=   None    Shift=    0.000
 RMSDP=2.47D-06 MaxDP=1.34D-04 DE= 1.70D-07 OVMax= 1.78D-04

 Cycle  11  Pass 1  IDiag  1:
 E= -900.616157484832     Delta-E=       -0.000000418478 Rises=F Damp=F
 DIIS: error= 8.46D-06 at cycle   3 NSaved=   3.
 NSaved= 3 IEnMin= 3 EnMin= -900.616157484832     IErMin= 3 ErrMin= 8.46D-06
 ErrMax= 8.46D-06 EMaxC= 1.00D-01 BMatC= 4.33D-08 BMatP= 2.54D-07
 IDIUse=1 WtCom= 1.00D+00 WtEn= 0.00D+00
 Coeff-Com:  0.465D-01 0.214D+00 0.739D+00
 Coeff:      0.465D-01 0.214D+00 0.739D+00
 Gap=     0.198 Goal=   None    Shift=    0.000
 RMSDP=6.86D-07 MaxDP=3.23D-05 DE=-4.18D-07 OVMax= 5.46D-05

 Cycle  12  Pass 1  IDiag  1:
 E= -900.616157513413     Delta-E=       -0.000000028581 Rises=F Damp=F
 DIIS: error= 2.90D-06 at cycle   4 NSaved=   4.
 NSaved= 4 IEnMin= 4 EnMin= -900.616157513413     IErMin= 4 ErrMin= 2.90D-06
 ErrMax= 2.90D-06 EMaxC= 1.00D-01 BMatC= 6.60D-09 BMatP= 4.33D-08
 IDIUse=1 WtCom= 1.00D+00 WtEn= 0.00D+00
 Coeff-Com: -0.121D-01 0.105D+00 0.445D+00 0.462D+00
 Coeff:     -0.121D-01 0.105D+00 0.445D+00 0.462D+00
 Gap=     0.198 Goal=   None    Shift=    0.000
 RMSDP=2.55D-07 MaxDP=1.34D-05 DE=-2.86D-08 OVMax= 1.59D-05

 Cycle  13  Pass 1  IDiag  1:
 E= -900.616157518746     Delta-E=       -0.000000005333 Rises=F Damp=F
 DIIS: error= 7.12D-07 at cycle   5 NSaved=   5.
 NSaved= 5 IEnMin= 5 EnMin= -900.616157518746     IErMin= 5 ErrMin= 7.12D-07
 ErrMax= 7.12D-07 EMaxC= 1.00D-01 BMatC= 2.32D-10 BMatP= 6.60D-09
 IDIUse=1 WtCom= 1.00D+00 WtEn= 0.00D+00
 Coeff-Com: -0.841D-02 0.453D-01 0.200D+00 0.245D+00 0.518D+00
 Coeff:     -0.841D-02 0.453D-01 0.200D+00 0.245D+00 0.518D+00
 Gap=     0.198 Goal=   None    Shift=    0.000
 RMSDP=6.14D-08 MaxDP=2.77D-06 DE=-5.33D-09 OVMax= 5.09D-06

 Cycle  14  Pass 1  IDiag  1:
 E= -900.616157518964     Delta-E=       -0.000000000218 Rises=F Damp=F
 DIIS: error= 2.35D-07 at cycle   6 NSaved=   6.
 NSaved= 6 IEnMin= 6 EnMin= -900.616157518964     IErMin= 6 ErrMin= 2.35D-07
 ErrMax= 2.35D-07 EMaxC= 1.00D-01 BMatC= 3.95D-11 BMatP= 2.32D-10
 IDIUse=1 WtCom= 1.00D+00 WtEn= 0.00D+00
 Coeff-Com: -0.418D-02 0.183D-01 0.832D-01 0.108D+00 0.328D+00 0.467D+00
 Coeff:     -0.418D-02 0.183D-01 0.832D-01 0.108D+00 0.328D+00 0.467D+00
 Gap=     0.198 Goal=   None    Shift=    0.000
 RMSDP=2.15D-08 MaxDP=9.12D-07 DE=-2.18D-10 OVMax= 2.02D-06

 Cycle  15  Pass 1  IDiag  1:
 E= -900.616157518935     Delta-E=        0.000000000029 Rises=F Damp=F
 DIIS: error= 1.00D-07 at cycle   7 NSaved=   7.
 NSaved= 7 IEnMin= 6 EnMin= -900.616157518964     IErMin= 7 ErrMin= 1.00D-07
 ErrMax= 1.00D-07 EMaxC= 1.00D-01 BMatC= 3.27D-12 BMatP= 3.95D-11
 IDIUse=1 WtCom= 1.00D+00 WtEn= 0.00D+00
 Coeff-Com: -0.141D-02 0.525D-02 0.246D-01 0.328D-01 0.129D+00 0.266D+00
 Coeff-Com:  0.544D+00
 Coeff:     -0.141D-02 0.525D-02 0.246D-01 0.328D-01 0.129D+00 0.266D+00
 Coeff:      0.544D+00
 Gap=     0.198 Goal=   None    Shift=    0.000
 RMSDP=6.00D-09 MaxDP=3.82D-07 DE= 2.91D-11 OVMax= 3.36D-07

 SCF Done:  E(RB3LYP) =  -900.616157519     A.U. after   15 cycles
             Convg  =    0.6005D-08             -V/T =  2.0096
 KE= 8.920846282357D+02 PE=-4.911201216002D+03 EE= 1.711813613756D+03
 Leave Link  502 at Thu Sep 30 01:44:06 2021, MaxMem= 1610612736 cpu:     467.6
 (Enter /sw/target/amd/app/gaussian/Gaussian09RevA.02_gcc-4.9.2/g09/l508.exe)
 QCSCF skips out because SCF is already converged.
 Leave Link  508 at Thu Sep 30 01:44:10 2021, MaxMem= 1610612736 cpu:       0.0
 (Enter /sw/target/amd/app/gaussian/Gaussian09RevA.02_gcc-4.9.2/g09/l601.exe)
 Copying SCF densities to generalized density rwf, IOpCl= 0 IROHF=0.

 **********************************************************************

            Population analysis using the SCF density.

 **********************************************************************

 Orbital symmetries:
       Occupied  (A) (A) (A) (A) (A) (A) (A) (A) (A) (A) (A) (A)
                 (A) (A) (A) (A) (A) (A) (A) (A) (A) (A) (A) (A)
                 (A) (A) (A) (A) (A) (A) (A) (A) (A) (A) (A) (A)
                 (A) (A) (A) (A) (A) (A) (A) (A) (A) (A) (A) (A)
                 (A) (A) (A) (A) (A) (A) (A) (A) (A) (A) (A) (A)
                 (A) (A) (A) (A) (A) (A) (A) (A) (A) (A) (A)
       Virtual   (A) (A) (A) (A) (A) (A) (A) (A) (A) (A) (A) (A)
                 (A) (A) (A) (A) (A) (A) (A) (A) (A) (A) (A) (A)
                 (A) (A) (A) (A) (A) (A) (A) (A) (A) (A) (A) (A)
                 (A) (A) (A) (A) (A) (A) (A) (A) (A) (A) (A) (A)
                 (A) (A) (A) (A) (A) (A) (A) (A) (A) (A) (A) (A)
                 (A) (A) (A) (A) (A) (A) (A) (A) (A) (A) (A) (A)
                 (A) (A) (A) (A) (A) (A) (A) (A) (A) (A) (A) (A)
                 (A) (A) (A) (A) (A) (A) (A) (A) (A) (A) (A) (A)
                 (A) (A) (A) (A) (A) (A) (A) (A) (A) (A) (A) (A)
                 (A) (A) (A) (A) (A) (A) (A) (A) (A) (A) (A) (A)
                 (A) (A) (A) (A) (A) (A) (A) (A) (A) (A) (A) (A)
                 (A) (A) (A) (A) (A) (A) (A) (A) (A) (A) (A) (A)
                 (A) (A) (A) (A) (A) (A) (A) (A) (A) (A) (A) (A)
                 (A) (A) (A) (A) (A) (A) (A) (A) (A) (A) (A) (A)
                 (A) (A) (A) (A) (A) (A) (A) (A) (A) (A) (A) (A)
                 (A) (A) (A) (A) (A) (A) (A) (A) (A) (A) (A) (A)
                 (A) (A) (A) (A) (A) (A) (A) (A) (A) (A) (A) (A)
                 (A) (A) (A) (A) (A) (A) (A) (A) (A) (A) (A) (A)
                 (A) (A) (A) (A) (A) (A) (A) (A) (A) (A) (A) (A)
                 (A) (A) (A) (A) (A) (A) (A) (A) (A) (A) (A) (A)
                 (A) (A) (A) (A) (A) (A) (A) (A) (A) (A) (A) (A)
 The electronic state is 1-A.
 Alpha  occ. eigenvalues --  -19.19942 -19.19213 -19.13639 -19.12095 -14.36836
 Alpha  occ. eigenvalues --  -10.33870 -10.31608 -10.26017 -10.24325 -10.22594
 Alpha  occ. eigenvalues --  -10.22478 -10.20627 -10.20007 -10.19824 -10.19767
 Alpha  occ. eigenvalues --  -10.19640 -10.18094 -10.18028 -10.17953  -1.09825
 Alpha  occ. eigenvalues --   -1.09642  -1.01548  -1.01127  -0.93973  -0.86281
 Alpha  occ. eigenvalues --   -0.78536  -0.77657  -0.76138  -0.75457  -0.73675
 Alpha  occ. eigenvalues --   -0.66981  -0.66310  -0.64318  -0.62350  -0.60936
 Alpha  occ. eigenvalues --   -0.58259  -0.54834  -0.52995  -0.51023  -0.49777
 Alpha  occ. eigenvalues --   -0.49200  -0.48473  -0.46649  -0.46025  -0.45805
 Alpha  occ. eigenvalues --   -0.45219  -0.44219  -0.43708  -0.43647  -0.42856
 Alpha  occ. eigenvalues --   -0.41405  -0.40608  -0.39747  -0.39236  -0.38787
 Alpha  occ. eigenvalues --   -0.37983  -0.37577  -0.37332  -0.36772  -0.36661
 Alpha  occ. eigenvalues --   -0.35550  -0.35437  -0.34615  -0.33989  -0.31968
 Alpha  occ. eigenvalues --   -0.29955  -0.27609  -0.27431  -0.25472  -0.24356
 Alpha  occ. eigenvalues --   -0.23746
 Alpha virt. eigenvalues --   -0.03995  -0.00532   0.03757   0.05805   0.07864
 Alpha virt. eigenvalues --    0.09116   0.10926   0.11476   0.11564   0.13076
 Alpha virt. eigenvalues --    0.13427   0.14266   0.14464   0.15074   0.15452
 Alpha virt. eigenvalues --    0.15632   0.16010   0.16388   0.16593   0.16750
 Alpha virt. eigenvalues --    0.17623   0.18443   0.19095   0.19327   0.19722
 Alpha virt. eigenvalues --    0.20189   0.20529   0.22183   0.23142   0.24325
 Alpha virt. eigenvalues --    0.25719   0.25970   0.26928   0.29210   0.29923
 Alpha virt. eigenvalues --    0.30281   0.33835   0.35827   0.37584   0.38424
 Alpha virt. eigenvalues --    0.41992   0.46297   0.47866   0.49095   0.49643
 Alpha virt. eigenvalues --    0.50191   0.50743   0.51937   0.52358   0.53299
 Alpha virt. eigenvalues --    0.53933   0.54218   0.55155   0.55747   0.56209
 Alpha virt. eigenvalues --    0.57382   0.58093   0.58623   0.58998   0.59454
 Alpha virt. eigenvalues --    0.59900   0.60912   0.62296   0.62816   0.63657
 Alpha virt. eigenvalues --    0.63782   0.65441   0.65654   0.65789   0.66655
 Alpha virt. eigenvalues --    0.68037   0.69666   0.70050   0.73717   0.74428
 Alpha virt. eigenvalues --    0.76158   0.76970   0.79004   0.79617   0.79868
 Alpha virt. eigenvalues --    0.80965   0.82393   0.82608   0.83224   0.84111
 Alpha virt. eigenvalues --    0.84843   0.85501   0.86836   0.86875   0.88725
 Alpha virt. eigenvalues --    0.88965   0.89510   0.89558   0.90266   0.90611
 Alpha virt. eigenvalues --    0.90852   0.91624   0.93356   0.93679   0.94568
 Alpha virt. eigenvalues --    0.96244   0.96470   0.96714   0.97567   0.98382
 Alpha virt. eigenvalues --    0.99017   1.00627   1.01567   1.03156   1.03453
 Alpha virt. eigenvalues --    1.07434   1.08275   1.09528   1.10569   1.13029
 Alpha virt. eigenvalues --    1.13943   1.14307   1.15094   1.16938   1.17379
 Alpha virt. eigenvalues --    1.19537   1.20877   1.23470   1.23993   1.25084
 Alpha virt. eigenvalues --    1.26934   1.30486   1.35052   1.36622   1.38846
 Alpha virt. eigenvalues --    1.39640   1.40596   1.41502   1.43115   1.44784
 Alpha virt. eigenvalues --    1.45815   1.47666   1.48288   1.49545   1.50199
 Alpha virt. eigenvalues --    1.52362   1.54615   1.61540   1.61748   1.63560
 Alpha virt. eigenvalues --    1.66080   1.69074   1.71935   1.73065   1.75203
 Alpha virt. eigenvalues --    1.75465   1.76505   1.77872   1.78925   1.79680
 Alpha virt. eigenvalues --    1.80427   1.81477   1.82923   1.84278   1.84477
 Alpha virt. eigenvalues --    1.86126   1.88450   1.88624   1.89610   1.91102
 Alpha virt. eigenvalues --    1.92456   1.93591   1.94378   1.95002   1.95765
 Alpha virt. eigenvalues --    1.96174   1.99205   1.99784   2.01213   2.02700
 Alpha virt. eigenvalues --    2.03870   2.05237   2.05301   2.06682   2.08278
 Alpha virt. eigenvalues --    2.10281   2.11799   2.13691   2.14159   2.14944
 Alpha virt. eigenvalues --    2.16563   2.17807   2.19541   2.21048   2.22140
 Alpha virt. eigenvalues --    2.28885   2.29212   2.29479   2.30981   2.31482
 Alpha virt. eigenvalues --    2.32500   2.32700   2.33666   2.37016   2.38595
 Alpha virt. eigenvalues --    2.40394   2.41099   2.42036   2.44614   2.46510
 Alpha virt. eigenvalues --    2.49810   2.51359   2.55051   2.57307   2.58447
 Alpha virt. eigenvalues --    2.60087   2.61531   2.63913   2.64540   2.66050
 Alpha virt. eigenvalues --    2.68604   2.69605   2.71222   2.73941   2.76325
 Alpha virt. eigenvalues --    2.77034   2.79100   2.82903   2.85290   2.90697
 Alpha virt. eigenvalues --    2.94706   2.97599   3.00599   3.11810   3.16458
 Alpha virt. eigenvalues --    3.19001   3.27721   3.43534   3.98512   4.00754
 Alpha virt. eigenvalues --    4.08593   4.09709   4.11833   4.15314   4.17074
 Alpha virt. eigenvalues --    4.18407   4.24899   4.25808   4.34391   4.38136
 Alpha virt. eigenvalues --    4.41524   4.42416   4.45038   4.47175   4.52825
 Alpha virt. eigenvalues --    4.53457   4.77653
          Condensed to atoms (all electrons):
              1          2          3          4          5          6
     1  C    5.124173   0.370949  -0.039980  -0.005057  -0.005133  -0.000901
     2  C    0.370949   4.813107   0.201688  -0.014611   0.003099   0.008102
     3  O   -0.039980   0.201688   8.271861   0.250085  -0.074388  -0.100324
     4  C   -0.005057  -0.014611   0.250085   4.407664   0.529124   0.336084
     5  O   -0.005133   0.003099  -0.074388   0.529124   8.080107  -0.083416
     6  C   -0.000901   0.008102  -0.100324   0.336084  -0.083416   4.924511
     7  C    0.000055  -0.000064   0.003080  -0.039457   0.002826   0.508459
     8  C    0.000001   0.000009   0.000469   0.004745  -0.000068  -0.013861
     9  C   -0.000000   0.000000  -0.000002   0.000474   0.000001  -0.032094
    10  C    0.000000   0.000000  -0.000040   0.005289   0.000722  -0.012898
    11  C    0.000038  -0.000181   0.003319  -0.033845   0.004991   0.482166
    12  O    0.000000  -0.000000   0.000000  -0.000064  -0.000000   0.002566
    13  C   -0.000000   0.000000  -0.000000   0.000000  -0.000000  -0.000007
    14  O    0.000000  -0.000000  -0.000000   0.000000   0.000000   0.000008
    15  N    0.000000  -0.000000   0.000000  -0.000000  -0.000000   0.000001
    16  C    0.000000  -0.000000   0.000000  -0.000000   0.000000  -0.000000
    17  C    0.000000  -0.000000   0.000000  -0.000000   0.000000   0.000000
    18  C   -0.000000   0.000000  -0.000000   0.000000  -0.000000  -0.000000
    19  C    0.000000  -0.000000   0.000000  -0.000000   0.000000  -0.000000
    20  H    0.357935  -0.025400   0.003032   0.000090   0.000019   0.000010
    21  H    0.377812  -0.030001  -0.004533   0.003965   0.006845   0.000010
    22  H    0.373756  -0.033647   0.000653   0.000301   0.000152  -0.000033
    23  H   -0.041755   0.368371  -0.031971  -0.005205   0.011184   0.000396
    24  H   -0.046311   0.382619  -0.033805   0.003862   0.000311  -0.000016
    25  H    0.000031  -0.000292   0.009310  -0.008229   0.000091  -0.040182
    26  H    0.000000  -0.000000  -0.000003  -0.000153   0.000000   0.003308
    27  H    0.000000  -0.000000   0.000000   0.000005  -0.000000   0.000320
    28  H    0.000005  -0.000018   0.000250  -0.007607   0.009490  -0.040549
    29  H    0.000000  -0.000000  -0.000000   0.000000  -0.000000  -0.000002
    30  H    0.000000  -0.000000  -0.000000  -0.000000  -0.000000   0.000000
    31  H    0.000000  -0.000000   0.000000  -0.000000  -0.000000   0.000001
    32  H    0.000000  -0.000000   0.000000   0.000000  -0.000000  -0.000000
    33  H   -0.000000   0.000000  -0.000000   0.000000  -0.000000  -0.000000
    34  H   -0.000000   0.000000  -0.000000   0.000000  -0.000000  -0.000000
    35  H    0.000000  -0.000000   0.000000  -0.000000   0.000000   0.000000
    36  H   -0.000000  -0.000000   0.000000  -0.000000   0.000000  -0.000000
    37  H    0.000000   0.000000  -0.000000   0.000000   0.000000   0.000000
    38  H   -0.000000   0.000000   0.000000  -0.000000  -0.000000   0.000000
              7          8          9         10         11         12
     1  C    0.000055   0.000001  -0.000000   0.000000   0.000038   0.000000
     2  C   -0.000064   0.000009   0.000000   0.000000  -0.000181  -0.000000
     3  O    0.003080   0.000469  -0.000002  -0.000040   0.003319   0.000000
     4  C   -0.039457   0.004745   0.000474   0.005289  -0.033845  -0.000064
     5  O    0.002826  -0.000068   0.000001   0.000722   0.004991  -0.000000
     6  C    0.508459  -0.013861  -0.032094  -0.012898   0.482166   0.002566
     7  C    4.978766   0.505319  -0.037933  -0.038795  -0.063548   0.000311
     8  C    0.505319   4.913279   0.501121  -0.004672  -0.040131   0.003582
     9  C   -0.037933   0.501121   4.995251   0.507228  -0.072538  -0.048867
    10  C   -0.038795  -0.004672   0.507228   4.558519   0.494286   0.202570
    11  C   -0.063548  -0.040131  -0.072538   0.494286   5.115783  -0.042673
    12  O    0.000311   0.003582  -0.048867   0.202570  -0.042673   8.359858
    13  C    0.000024   0.000168  -0.000266  -0.009296   0.000488   0.244271
    14  O    0.000000   0.000043   0.000522  -0.000455   0.000011  -0.068696
    15  N    0.000000  -0.000005   0.000087   0.002086  -0.000214  -0.087714
    16  C    0.000000  -0.000001   0.000027   0.000278  -0.000038  -0.002622
    17  C    0.000000  -0.000000  -0.000005   0.000003   0.000009  -0.002156
    18  C   -0.000000   0.000000  -0.000001  -0.000033   0.000003   0.002551
    19  C    0.000000   0.000000  -0.000005   0.000010  -0.000000  -0.000072
    20  H   -0.000001  -0.000000   0.000000   0.000000  -0.000000  -0.000000
    21  H   -0.000013   0.000000   0.000000  -0.000000   0.000000  -0.000000
    22  H    0.000004   0.000000   0.000000   0.000000  -0.000005  -0.000000
    23  H    0.000027   0.000001  -0.000000  -0.000000  -0.000035  -0.000000
    24  H   -0.000087  -0.000002   0.000000  -0.000000   0.000001   0.000000
    25  H    0.358140  -0.044377   0.004881   0.000420   0.005499   0.000002
    26  H   -0.037434   0.359449  -0.038397   0.003210   0.000850  -0.000047
    27  H    0.004628  -0.039964   0.350295  -0.034388   0.005343  -0.007049
    28  H    0.005713  -0.000082   0.006014  -0.037170   0.345674  -0.000591
    29  H    0.000000   0.000002  -0.000018   0.000236  -0.000032   0.010217
    30  H    0.000000   0.000000   0.000001  -0.000001  -0.000000   0.000373
    31  H    0.000000  -0.000000   0.000010  -0.000008  -0.000001   0.003914
    32  H   -0.000000   0.000000   0.000000  -0.000001  -0.000000  -0.000005
    33  H   -0.000000  -0.000000   0.000000   0.000001  -0.000000   0.000021
    34  H    0.000000  -0.000000  -0.000000  -0.000005  -0.000000   0.000196
    35  H    0.000000  -0.000000  -0.000000  -0.000000  -0.000000  -0.000045
    36  H    0.000000  -0.000000  -0.000016   0.000001   0.000000  -0.000051
    37  H   -0.000000  -0.000000   0.000000  -0.000000  -0.000000   0.000000
    38  H   -0.000000   0.000000   0.000000  -0.000000   0.000000   0.000001
             13         14         15         16         17         18
     1  C   -0.000000   0.000000   0.000000   0.000000   0.000000  -0.000000
     2  C    0.000000  -0.000000  -0.000000  -0.000000  -0.000000   0.000000
     3  O   -0.000000  -0.000000   0.000000   0.000000   0.000000  -0.000000
     4  C    0.000000   0.000000  -0.000000  -0.000000  -0.000000   0.000000
     5  O   -0.000000   0.000000  -0.000000   0.000000   0.000000  -0.000000
     6  C   -0.000007   0.000008   0.000001  -0.000000   0.000000  -0.000000
     7  C    0.000024   0.000000   0.000000   0.000000   0.000000  -0.000000
     8  C    0.000168   0.000043  -0.000005  -0.000001  -0.000000   0.000000
     9  C   -0.000266   0.000522   0.000087   0.000027  -0.000005  -0.000001
    10  C   -0.009296  -0.000455   0.002086   0.000278   0.000003  -0.000033
    11  C    0.000488   0.000011  -0.000214  -0.000038   0.000009   0.000003
    12  O    0.244271  -0.068696  -0.087714  -0.002622  -0.002156   0.002551
    13  C    4.171725   0.538136   0.325046  -0.028960  -0.001076  -0.025377
    14  O    0.538136   8.106585  -0.089404   0.002295  -0.000068   0.001604
    15  N    0.325046  -0.089404   6.987012   0.286959  -0.068603   0.292317
    16  C   -0.028960   0.002295   0.286959   4.893100   0.373634  -0.040544
    17  C   -0.001076  -0.000068  -0.068603   0.373634   5.119596  -0.002743
    18  C   -0.025377   0.001604   0.292317  -0.040544  -0.002743   4.878243
    19  C   -0.002219  -0.001337  -0.061861  -0.002296  -0.000098   0.371543
    20  H   -0.000000  -0.000000  -0.000000  -0.000000   0.000000   0.000000
    21  H   -0.000000  -0.000000   0.000000   0.000000  -0.000000   0.000000
    22  H    0.000000  -0.000000   0.000000   0.000000   0.000000   0.000000
    23  H   -0.000000  -0.000000   0.000000  -0.000000  -0.000000   0.000000
    24  H   -0.000000   0.000000   0.000000   0.000000  -0.000000  -0.000000
    25  H    0.000000   0.000000   0.000000  -0.000000   0.000000  -0.000000
    26  H   -0.000012  -0.000003  -0.000000   0.000000  -0.000000   0.000000
    27  H    0.002639   0.008987  -0.000430  -0.000014  -0.000001   0.000029
    28  H    0.000039   0.000010  -0.000015   0.000009   0.000000  -0.000000
    29  H   -0.005853   0.000133  -0.031985   0.377655  -0.043331   0.004356
    30  H    0.002993  -0.000065  -0.039962   0.375375  -0.047492  -0.002525
    31  H    0.002067  -0.000056  -0.003246  -0.030821   0.377920  -0.000112
    32  H    0.000004   0.000000   0.005096  -0.027300   0.356783   0.000001
    33  H    0.000003  -0.000002  -0.002436  -0.035190   0.376429   0.001724
    34  H   -0.003703   0.011718  -0.035444   0.004785   0.000107   0.377772
    35  H    0.003520   0.000511  -0.043612  -0.000841   0.001707   0.375756
    36  H    0.003315   0.002832  -0.006294   0.000062  -0.000004  -0.030059
    37  H   -0.000080  -0.000096   0.004708  -0.000001   0.000005  -0.027980
    38  H    0.000072   0.000026  -0.000678   0.001156   0.000035  -0.034727
             19         20         21         22         23         24
     1  C    0.000000   0.357935   0.377812   0.373756  -0.041755  -0.046311
     2  C   -0.000000  -0.025400  -0.030001  -0.033647   0.368371   0.382619
     3  O    0.000000   0.003032  -0.004533   0.000653  -0.031971  -0.033805
     4  C   -0.000000   0.000090   0.003965   0.000301  -0.005205   0.003862
     5  O    0.000000   0.000019   0.006845   0.000152   0.011184   0.000311
     6  C   -0.000000   0.000010   0.000010  -0.000033   0.000396  -0.000016
     7  C    0.000000  -0.000001  -0.000013   0.000004   0.000027  -0.000087
     8  C    0.000000  -0.000000   0.000000   0.000000   0.000001  -0.000002
     9  C   -0.000005   0.000000   0.000000   0.000000  -0.000000   0.000000
    10  C    0.000010   0.000000  -0.000000   0.000000  -0.000000  -0.000000
    11  C   -0.000000  -0.000000   0.000000  -0.000005  -0.000035   0.000001
    12  O   -0.000072  -0.000000  -0.000000  -0.000000  -0.000000   0.000000
    13  C   -0.002219  -0.000000  -0.000000   0.000000  -0.000000  -0.000000
    14  O   -0.001337  -0.000000  -0.000000  -0.000000  -0.000000   0.000000
    15  N   -0.061861  -0.000000   0.000000   0.000000   0.000000   0.000000
    16  C   -0.002296  -0.000000   0.000000   0.000000  -0.000000   0.000000
    17  C   -0.000098   0.000000  -0.000000   0.000000  -0.000000  -0.000000
    18  C    0.371543   0.000000   0.000000   0.000000   0.000000  -0.000000
    19  C    5.111639   0.000000  -0.000000  -0.000000  -0.000000  -0.000000
    20  H    0.000000   0.566852  -0.025189  -0.026554   0.000466  -0.000240
    21  H   -0.000000  -0.025189   0.523806  -0.031629  -0.005152   0.004714
    22  H   -0.000000  -0.026554  -0.031629   0.560216   0.005137  -0.005840
    23  H   -0.000000   0.000466  -0.005152   0.005137   0.574392  -0.040267
    24  H   -0.000000  -0.000240   0.004714  -0.005840  -0.040267   0.582883
    25  H    0.000000  -0.000000  -0.000000  -0.000000   0.000002  -0.000005
    26  H   -0.000000   0.000000  -0.000000  -0.000000  -0.000000   0.000000
    27  H    0.000005  -0.000000   0.000000  -0.000000   0.000000  -0.000000
    28  H   -0.000000  -0.000000  -0.000000  -0.000001  -0.000005  -0.000000
    29  H    0.000023   0.000000   0.000000   0.000000   0.000000   0.000000
    30  H    0.002064   0.000000  -0.000000   0.000000   0.000000  -0.000000
    31  H   -0.000002  -0.000000  -0.000000   0.000000   0.000000  -0.000000
    32  H    0.000007   0.000000  -0.000000   0.000000   0.000000  -0.000000
    33  H    0.000038  -0.000000   0.000000  -0.000000  -0.000000   0.000000
    34  H   -0.044437   0.000000   0.000000   0.000000   0.000000  -0.000000
    35  H   -0.048218  -0.000000   0.000000  -0.000000  -0.000000   0.000000
    36  H    0.378858  -0.000000  -0.000000  -0.000000  -0.000000  -0.000000
    37  H    0.363000   0.000000   0.000000  -0.000000  -0.000000   0.000000
    38  H    0.374539   0.000000   0.000000   0.000000  -0.000000   0.000000
             25         26         27         28         29         30
     1  C    0.000031   0.000000   0.000000   0.000005   0.000000   0.000000
     2  C   -0.000292  -0.000000  -0.000000  -0.000018  -0.000000  -0.000000
     3  O    0.009310  -0.000003   0.000000   0.000250  -0.000000  -0.000000
     4  C   -0.008229  -0.000153   0.000005  -0.007607   0.000000  -0.000000
     5  O    0.000091   0.000000  -0.000000   0.009490  -0.000000  -0.000000
     6  C   -0.040182   0.003308   0.000320  -0.040549  -0.000002   0.000000
     7  C    0.358140  -0.037434   0.004628   0.005713   0.000000   0.000000
     8  C   -0.044377   0.359449  -0.039964  -0.000082   0.000002   0.000000
     9  C    0.004881  -0.038397   0.350295   0.006014  -0.000018   0.000001
    10  C    0.000420   0.003210  -0.034388  -0.037170   0.000236  -0.000001
    11  C    0.005499   0.000850   0.005343   0.345674  -0.000032  -0.000000
    12  O    0.000002  -0.000047  -0.007049  -0.000591   0.010217   0.000373
    13  C    0.000000  -0.000012   0.002639   0.000039  -0.005853   0.002993
    14  O    0.000000  -0.000003   0.008987   0.000010   0.000133  -0.000065
    15  N    0.000000  -0.000000  -0.000430  -0.000015  -0.031985  -0.039962
    16  C   -0.000000   0.000000  -0.000014   0.000009   0.377655   0.375375
    17  C    0.000000  -0.000000  -0.000001   0.000000  -0.043331  -0.047492
    18  C   -0.000000   0.000000   0.000029  -0.000000   0.004356  -0.002525
    19  C    0.000000  -0.000000   0.000005  -0.000000   0.000023   0.002064
    20  H   -0.000000   0.000000  -0.000000  -0.000000   0.000000   0.000000
    21  H   -0.000000  -0.000000   0.000000  -0.000000   0.000000  -0.000000
    22  H   -0.000000  -0.000000  -0.000000  -0.000001   0.000000   0.000000
    23  H    0.000002  -0.000000   0.000000  -0.000005   0.000000   0.000000
    24  H   -0.000005   0.000000  -0.000000  -0.000000   0.000000  -0.000000
    25  H    0.570609  -0.005021  -0.000153  -0.000130  -0.000000  -0.000000
    26  H   -0.005021   0.577650  -0.005351   0.000016   0.000000   0.000000
    27  H   -0.000153  -0.005351   0.552314  -0.000123   0.000011   0.000001
[...]
    71    O    5  dxy    Ryd( 3d)     0.00458
    72    O    5  dxz    Ryd( 3d)     0.00007
    73    O    5  dyz    Ryd( 3d)     0.00441
    74    O    5  dx2y2  Ryd( 3d)     0.00442
    75    O    5  dz2    Ryd( 3d)     0.00140

    76    C    6  S      Cor( 1S)     1.99896
    77    C    6  S      Val( 2S)     0.91340
    78    C    6  S      Ryd( 3S)     0.00117
    79    C    6  S      Ryd( 4S)     0.00006
    80    C    6  px     Val( 2p)     1.09306
    81    C    6  px     Ryd( 3p)     0.00631
    82    C    6  py     Val( 2p)     1.09251
    83    C    6  py     Ryd( 3p)     0.00563
    84    C    6  pz     Val( 2p)     1.05552
    85    C    6  pz     Ryd( 3p)     0.00216
    86    C    6  dxy    Ryd( 3d)     0.00075
    87    C    6  dxz    Ryd( 3d)     0.00081
    88    C    6  dyz    Ryd( 3d)     0.00063
    89    C    6  dx2y2  Ryd( 3d)     0.00068
    90    C    6  dz2    Ryd( 3d)     0.00035

    91    C    7  S      Cor( 1S)     1.99907
    92    C    7  S      Val( 2S)     0.96791
    93    C    7  S      Ryd( 3S)     0.00053
    94    C    7  S      Ryd( 4S)     0.00005
    95    C    7  px     Val( 2p)     1.17641
    96    C    7  px     Ryd( 3p)     0.00438
    97    C    7  py     Val( 2p)     1.07967
    98    C    7  py     Ryd( 3p)     0.00440
    99    C    7  pz     Val( 2p)     0.90832
   100    C    7  pz     Ryd( 3p)     0.00271
   101    C    7  dxy    Ryd( 3d)     0.00079
   102    C    7  dxz    Ryd( 3d)     0.00046
   103    C    7  dyz    Ryd( 3d)     0.00059
   104    C    7  dx2y2  Ryd( 3d)     0.00079
   105    C    7  dz2    Ryd( 3d)     0.00043

   106    C    8  S      Cor( 1S)     1.99914
   107    C    8  S      Val( 2S)     0.96822
   108    C    8  S      Ryd( 3S)     0.00064
   109    C    8  S      Ryd( 4S)     0.00005
   110    C    8  px     Val( 2p)     1.05614
   111    C    8  px     Ryd( 3p)     0.00488
   112    C    8  py     Val( 2p)     1.19351
   113    C    8  py     Ryd( 3p)     0.00503
   114    C    8  pz     Val( 2p)     0.97323
   115    C    8  pz     Ryd( 3p)     0.00210
   116    C    8  dxy    Ryd( 3d)     0.00066
   117    C    8  dxz    Ryd( 3d)     0.00078
   118    C    8  dyz    Ryd( 3d)     0.00035
   119    C    8  dx2y2  Ryd( 3d)     0.00087
   120    C    8  dz2    Ryd( 3d)     0.00044

   121    C    9  S      Cor( 1S)     1.99904
   122    C    9  S      Val( 2S)     0.96188
   123    C    9  S      Ryd( 3S)     0.00071
   124    C    9  S      Ryd( 4S)     0.00004
   125    C    9  px     Val( 2p)     1.16881
   126    C    9  px     Ryd( 3p)     0.00396
   127    C    9  py     Val( 2p)     1.09216
   128    C    9  py     Ryd( 3p)     0.00457
   129    C    9  pz     Val( 2p)     1.09957
   130    C    9  pz     Ryd( 3p)     0.00395
   131    C    9  dxy    Ryd( 3d)     0.00060
   132    C    9  dxz    Ryd( 3d)     0.00047
   133    C    9  dyz    Ryd( 3d)     0.00045
   134    C    9  dx2y2  Ryd( 3d)     0.00075
   135    C    9  dz2    Ryd( 3d)     0.00046

   136    C   10  S      Cor( 1S)     1.99872
   137    C   10  S      Val( 2S)     0.84815
   138    C   10  S      Ryd( 3S)     0.00137
   139    C   10  S      Ryd( 4S)     0.00014
   140    C   10  px     Val( 2p)     0.79723
   141    C   10  px     Ryd( 3p)     0.00541
   142    C   10  py     Val( 2p)     1.01752
   143    C   10  py     Ryd( 3p)     0.00649
   144    C   10  pz     Val( 2p)     0.97060
   145    C   10  pz     Ryd( 3p)     0.00271
   146    C   10  dxy    Ryd( 3d)     0.00174
   147    C   10  dxz    Ryd( 3d)     0.00115
   148    C   10  dyz    Ryd( 3d)     0.00122
   149    C   10  dx2y2  Ryd( 3d)     0.00142
   150    C   10  dz2    Ryd( 3d)     0.00051

   151    C   11  S      Cor( 1S)     1.99899
   152    C   11  S      Val( 2S)     0.96520
   153    C   11  S      Ryd( 3S)     0.00082
   154    C   11  S      Ryd( 4S)     0.00006
   155    C   11  px     Val( 2p)     1.04709
   156    C   11  px     Ryd( 3p)     0.00506
   157    C   11  py     Val( 2p)     1.20962
   158    C   11  py     Ryd( 3p)     0.00466
   159    C   11  pz     Val( 2p)     0.96890
   160    C   11  pz     Ryd( 3p)     0.00402
   161    C   11  dxy    Ryd( 3d)     0.00073
   162    C   11  dxz    Ryd( 3d)     0.00063
   163    C   11  dyz    Ryd( 3d)     0.00041
   164    C   11  dx2y2  Ryd( 3d)     0.00069
   165    C   11  dz2    Ryd( 3d)     0.00044

   166    O   12  S      Cor( 1S)     1.99969
   167    O   12  S      Val( 2S)     1.60051
   168    O   12  S      Ryd( 3S)     0.00089
   169    O   12  S      Ryd( 4S)     0.00013
   170    O   12  px     Val( 2p)     1.43886
   171    O   12  px     Ryd( 3p)     0.00096
   172    O   12  py     Val( 2p)     1.78177
   173    O   12  py     Ryd( 3p)     0.00214
   174    O   12  pz     Val( 2p)     1.66682
   175    O   12  pz     Ryd( 3p)     0.00116
   176    O   12  dxy    Ryd( 3d)     0.00109
   177    O   12  dxz    Ryd( 3d)     0.00080
   178    O   12  dyz    Ryd( 3d)     0.00118
   179    O   12  dx2y2  Ryd( 3d)     0.00094
   180    O   12  dz2    Ryd( 3d)     0.00117

   181    C   13  S      Cor( 1S)     1.99936
   182    C   13  S      Val( 2S)     0.69619
   183    C   13  S      Ryd( 3S)     0.00268
   184    C   13  S      Ryd( 4S)     0.00054
   185    C   13  px     Val( 2p)     0.76068
   186    C   13  px     Ryd( 3p)     0.00614
   187    C   13  py     Val( 2p)     0.79141
   188    C   13  py     Ryd( 3p)     0.01375
   189    C   13  pz     Val( 2p)     0.77461
   190    C   13  pz     Ryd( 3p)     0.01039
   191    C   13  dxy    Ryd( 3d)     0.00297
   192    C   13  dxz    Ryd( 3d)     0.00303
   193    C   13  dyz    Ryd( 3d)     0.00100
   194    C   13  dx2y2  Ryd( 3d)     0.00212
   195    C   13  dz2    Ryd( 3d)     0.00239

   196    O   14  S      Cor( 1S)     1.99978
   197    O   14  S      Val( 2S)     1.70566
   198    O   14  S      Ryd( 3S)     0.00046
   199    O   14  S      Ryd( 4S)     0.00013
   200    O   14  px     Val( 2p)     1.79327
   201    O   14  px     Ryd( 3p)     0.00090
   202    O   14  py     Val( 2p)     1.55515
   203    O   14  py     Ryd( 3p)     0.00054
   204    O   14  pz     Val( 2p)     1.54684
   205    O   14  pz     Ryd( 3p)     0.00069
   206    O   14  dxy    Ryd( 3d)     0.00321
   207    O   14  dxz    Ryd( 3d)     0.00211
   208    O   14  dyz    Ryd( 3d)     0.00446
   209    O   14  dx2y2  Ryd( 3d)     0.00292
   210    O   14  dz2    Ryd( 3d)     0.00382

   211    N   15  S      Cor( 1S)     1.99930
   212    N   15  S      Val( 2S)     1.21641
   213    N   15  S      Ryd( 3S)     0.00167
   214    N   15  S      Ryd( 4S)     0.00005
   215    N   15  px     Val( 2p)     1.32854
   216    N   15  px     Ryd( 3p)     0.00193
   217    N   15  py     Val( 2p)     1.41604
   218    N   15  py     Ryd( 3p)     0.00327
   219    N   15  pz     Val( 2p)     1.45002
   220    N   15  pz     Ryd( 3p)     0.00326
   221    N   15  dxy    Ryd( 3d)     0.00080
   222    N   15  dxz    Ryd( 3d)     0.00069
   223    N   15  dyz    Ryd( 3d)     0.00058
   224    N   15  dx2y2  Ryd( 3d)     0.00056
   225    N   15  dz2    Ryd( 3d)     0.00055

   226    C   16  S      Cor( 1S)     1.99934
   227    C   16  S      Val( 2S)     1.02252
   228    C   16  S      Ryd( 3S)     0.00135
   229    C   16  S      Ryd( 4S)     0.00003
   230    C   16  px     Val( 2p)     1.24869
   231    C   16  px     Ryd( 3p)     0.00539
   232    C   16  py     Val( 2p)     0.92509
   233    C   16  py     Ryd( 3p)     0.00202
   234    C   16  pz     Val( 2p)     1.05632
   235    C   16  pz     Ryd( 3p)     0.00148
   236    C   16  dxy    Ryd( 3d)     0.00044
   237    C   16  dxz    Ryd( 3d)     0.00094
   238    C   16  dyz    Ryd( 3d)     0.00128
   239    C   16  dx2y2  Ryd( 3d)     0.00135
   240    C   16  dz2    Ryd( 3d)     0.00081

   241    C   17  S      Cor( 1S)     1.99944
   242    C   17  S      Val( 2S)     1.11303
   243    C   17  S      Ryd( 3S)     0.00046
   244    C   17  S      Ryd( 4S)     0.00001
   245    C   17  px     Val( 2p)     1.24046
   246    C   17  px     Ryd( 3p)     0.00155
   247    C   17  py     Val( 2p)     1.10658
   248    C   17  py     Ryd( 3p)     0.00125
   249    C   17  pz     Val( 2p)     1.22146
   250    C   17  pz     Ryd( 3p)     0.00128
   251    C   17  dxy    Ryd( 3d)     0.00025
   252    C   17  dxz    Ryd( 3d)     0.00082
   253    C   17  dyz    Ryd( 3d)     0.00091
   254    C   17  dx2y2  Ryd( 3d)     0.00088
   255    C   17  dz2    Ryd( 3d)     0.00034

   256    C   18  S      Cor( 1S)     1.99934
   257    C   18  S      Val( 2S)     1.02288
   258    C   18  S      Ryd( 3S)     0.00123
   259    C   18  S      Ryd( 4S)     0.00003
   260    C   18  px     Val( 2p)     0.92694
   261    C   18  px     Ryd( 3p)     0.00292
   262    C   18  py     Val( 2p)     1.17812
   263    C   18  py     Ryd( 3p)     0.00427
   264    C   18  pz     Val( 2p)     1.11916
   265    C   18  pz     Ryd( 3p)     0.00217
   266    C   18  dxy    Ryd( 3d)     0.00109
   267    C   18  dxz    Ryd( 3d)     0.00120
   268    C   18  dyz    Ryd( 3d)     0.00054
   269    C   18  dx2y2  Ryd( 3d)     0.00093
   270    C   18  dz2    Ryd( 3d)     0.00109

   271    C   19  S      Cor( 1S)     1.99944
   272    C   19  S      Val( 2S)     1.11282
   273    C   19  S      Ryd( 3S)     0.00043
   274    C   19  S      Ryd( 4S)     0.00001
   275    C   19  px     Val( 2p)     1.18277
   276    C   19  px     Ryd( 3p)     0.00132
   277    C   19  py     Val( 2p)     1.17566
   278    C   19  py     Ryd( 3p)     0.00132
   279    C   19  pz     Val( 2p)     1.20974
   280    C   19  pz     Ryd( 3p)     0.00135
   281    C   19  dxy    Ryd( 3d)     0.00068
   282    C   19  dxz    Ryd( 3d)     0.00081
   283    C   19  dyz    Ryd( 3d)     0.00042
   284    C   19  dx2y2  Ryd( 3d)     0.00058
   285    C   19  dz2    Ryd( 3d)     0.00071

   286    H   20  S      Val( 1S)     0.77086
   287    H   20  S      Ryd( 2S)     0.00107

   288    H   21  S      Val( 1S)     0.75370
   289    H   21  S      Ryd( 2S)     0.00164

   290    H   22  S      Val( 1S)     0.77111
   291    H   22  S      Ryd( 2S)     0.00149

   292    H   23  S      Val( 1S)     0.76924
   293    H   23  S      Ryd( 2S)     0.00266

   294    H   24  S      Val( 1S)     0.78306
   295    H   24  S      Ryd( 2S)     0.00125

   296    H   25  S      Val( 1S)     0.74496
   297    H   25  S      Ryd( 2S)     0.00123

   298    H   26  S      Val( 1S)     0.76048
   299    H   26  S      Ryd( 2S)     0.00084

   300    H   27  S      Val( 1S)     0.74893
   301    H   27  S      Ryd( 2S)     0.00106

   302    H   28  S      Val( 1S)     0.73499
   303    H   28  S      Ryd( 2S)     0.00225

   304    H   29  S      Val( 1S)     0.73644
   305    H   29  S      Ryd( 2S)     0.00131

   306    H   30  S      Val( 1S)     0.75774
   307    H   30  S      Ryd( 2S)     0.00134

   308    H   31  S      Val( 1S)     0.75213
   309    H   31  S      Ryd( 2S)     0.00124

   310    H   32  S      Val( 1S)     0.75324
   311    H   32  S      Ryd( 2S)     0.00072

   312    H   33  S      Val( 1S)     0.76745
   313    H   33  S      Ryd( 2S)     0.00086

   314    H   34  S      Val( 1S)     0.73025
   315    H   34  S      Ryd( 2S)     0.00185

   316    H   35  S      Val( 1S)     0.76172
   317    H   35  S      Ryd( 2S)     0.00126

   318    H   36  S      Val( 1S)     0.75123
   319    H   36  S      Ryd( 2S)     0.00120

   320    H   37  S      Val( 1S)     0.75410
   321    H   37  S      Ryd( 2S)     0.00069

   322    H   38  S      Val( 1S)     0.76971
   323    H   38  S      Ryd( 2S)     0.00088

 WARNING:  1 low occupancy (<1.9990e) core orbital  found on  C    6
           1 low occupancy (<1.9990e) core orbital  found on  C   10
           1 low occupancy (<1.9990e) core orbital  found on  C   11


 Summary of Natural Population Analysis:                  
                                                          
                                       Natural Population 
                Natural  -----------------------------------------------
    Atom  No    Charge         Core      Valence    Rydberg      Total
 -----------------------------------------------------------------------
      C    1   -0.70363      1.99945     4.69702    0.00716     6.70363
      C    2   -0.10875      1.99927     4.09168    0.01780     6.10875
      O    3   -0.58185      1.99975     6.57133    0.01077     8.58185
      C    4    0.70003      1.99937     3.25508    0.04553     5.29997
      O    5   -0.67124      1.99979     6.65257    0.01888     8.67124
      C    6   -0.17199      1.99896     4.15448    0.01855     6.17199
      C    7   -0.14651      1.99907     4.13231    0.01513     6.14651
      C    8   -0.20603      1.99914     4.19109    0.01580     6.20603
      C    9   -0.33743      1.99904     4.32243    0.01597     6.33743
      C   10    0.34562      1.99872     3.63351    0.02216     5.65438
      C   11   -0.20732      1.99899     4.19081    0.01752     6.20732
      O   12   -0.49812      1.99969     6.48796    0.01046     8.49812
      C   13    0.93273      1.99936     3.02289    0.04502     5.06727
      O   14   -0.61994      1.99978     6.60092    0.01924     8.61994
      N   15   -0.42368      1.99930     5.41101    0.01336     7.42368
      C   16   -0.26706      1.99934     4.25262    0.01510     6.26706
      C   17   -0.68871      1.99944     4.68153    0.00774     6.68871
      C   18   -0.26189      1.99934     4.24710    0.01545     6.26189
      C   19   -0.68806      1.99944     4.68099    0.00763     6.68806
      H   20    0.22807      0.00000     0.77086    0.00107     0.77193
      H   21    0.24466      0.00000     0.75370    0.00164     0.75534
      H   22    0.22740      0.00000     0.77111    0.00149     0.77260
      H   23    0.22810      0.00000     0.76924    0.00266     0.77190
      H   24    0.21569      0.00000     0.78306    0.00125     0.78431
      H   25    0.25381      0.00000     0.74496    0.00123     0.74619
      H   26    0.23868      0.00000     0.76048    0.00084     0.76132
      H   27    0.25001      0.00000     0.74893    0.00106     0.74999
      H   28    0.26276      0.00000     0.73499    0.00225     0.73724
      H   29    0.26226      0.00000     0.73644    0.00131     0.73774
      H   30    0.24092      0.00000     0.75774    0.00134     0.75908
      H   31    0.24663      0.00000     0.75213    0.00124     0.75337
      H   32    0.24603      0.00000     0.75324    0.00072     0.75397
      H   33    0.23169      0.00000     0.76745    0.00086     0.76831
      H   34    0.26790      0.00000     0.73025    0.00185     0.73210
      H   35    0.23702      0.00000     0.76172    0.00126     0.76298
      H   36    0.24757      0.00000     0.75123    0.00120     0.75243
      H   37    0.24521      0.00000     0.75410    0.00069     0.75479
      H   38    0.22941      0.00000     0.76971    0.00088     0.77059
 =======================================================================
   * Total *   -0.00000     37.98723   103.64869    0.36408   142.00000

                                 Natural Population      
 --------------------------------------------------------
   Core                      37.98723 ( 99.9664% of  38)
   Valence                  103.64869 ( 99.6622% of 104)
   Natural Minimal Basis    141.63592 ( 99.7436% of 142)
   Natural Rydberg Basis      0.36408 (  0.2564% of 142)
 --------------------------------------------------------

    Atom  No          Natural Electron Configuration
 ----------------------------------------------------------------------------
      C    1      [core]2S( 1.12)2p( 3.58)
      C    2      [core]2S( 1.03)2p( 3.06)3p( 0.01)3d( 0.01)
      O    3      [core]2S( 1.61)2p( 4.96)
      C    4      [core]2S( 0.75)2p( 2.51)3p( 0.03)3d( 0.01)
      O    5      [core]2S( 1.70)2p( 4.96)3d( 0.01)
      C    6      [core]2S( 0.91)2p( 3.24)3p( 0.01)
      C    7      [core]2S( 0.97)2p( 3.16)3p( 0.01)
      C    8      [core]2S( 0.97)2p( 3.22)3p( 0.01)
      C    9      [core]2S( 0.96)2p( 3.36)3p( 0.01)
      C   10      [core]2S( 0.85)2p( 2.79)3p( 0.01)3d( 0.01)
      C   11      [core]2S( 0.97)2p( 3.23)3p( 0.01)
      O   12      [core]2S( 1.60)2p( 4.89)3d( 0.01)
      C   13      [core]2S( 0.70)2p( 2.33)3p( 0.03)3d( 0.01)
      O   14      [core]2S( 1.71)2p( 4.90)3d( 0.02)
      N   15      [core]2S( 1.22)2p( 4.19)3p( 0.01)
      C   16      [core]2S( 1.02)2p( 3.23)3p( 0.01)
      C   17      [core]2S( 1.11)2p( 3.57)
      C   18      [core]2S( 1.02)2p( 3.22)3p( 0.01)
      C   19      [core]2S( 1.11)2p( 3.57)
      H   20            1S( 0.77)
      H   21            1S( 0.75)
      H   22            1S( 0.77)
      H   23            1S( 0.77)
      H   24            1S( 0.78)
      H   25            1S( 0.74)
      H   26            1S( 0.76)
      H   27            1S( 0.75)
      H   28            1S( 0.73)
      H   29            1S( 0.74)
      H   30            1S( 0.76)
      H   31            1S( 0.75)
      H   32            1S( 0.75)
      H   33            1S( 0.77)
      H   34            1S( 0.73)
      H   35            1S( 0.76)
      H   36            1S( 0.75)
      H   37            1S( 0.75)
      H   38            1S( 0.77)


 NBO analysis skipped by request.
 Leave Link  607 at Thu Sep 30 13:27:38 2021, MaxMem= 1610612736 cpu:      27.5
 (Enter /sw/target/amd/app/gaussian/Gaussian09RevA.02_gcc-4.9.2/g09/l9999.exe)
 1\1\GINC-HERMITE\SP\RTD-B3LYP-FC\6-31G(d)\C14H19N1O4\JSCHLEINITZ\30-Se
 p-2021\0\\#p TD(NStates=10, Root=1) b3lyp/6-31G* volume pop=NPA densit
 y=current Geom=AllCheck Guess=Read\\CCOC(=O)c1cccc(c1)OC(=O)N(CC)CC_co
 nf_0\\0,1\C,0,2.410733316,-0.2442523898,-1.0281781108\C,0,2.9966860887
 ,-1.5893986512,-1.4308114005\O,0,3.4934609646,-2.3145702872,-0.2816041
 896\C,0,4.752950297,-2.0235955742,0.1182549012\O,0,5.4641924059,-1.207
 9364693,-0.4376484733\C,0,5.1654579176,-2.8187607264,1.3106952581\C,0,
 4.3248343164,-3.7591916834,1.920074254\C,0,4.7791976329,-4.4684656807,
 3.03075625\C,0,6.0599778619,-4.2567134522,3.5429057771\C,0,6.885213867
 7,-3.3103202594,2.9299433242\C,0,6.4487940128,-2.5931680059,1.82230688
 46\O,0,8.2009295041,-3.0904477366,3.319540147\C,0,8.509380928,-2.94773
 27368,4.6610954749\O,0,7.6842802925,-2.9687352206,5.5556386506\N,0,9.8
 488239613,-2.7751682095,4.8246846483\C,0,10.8126704883,-2.7749943043,3
 .7182911087\C,0,11.0231412994,-1.3913646681,3.0977223102\C,0,10.339517
 6545,-2.5497586043,6.1885679067\C,0,10.6985679885,-3.8469642316,6.9172
 940816\H,0,1.975206542,0.2482878726,-1.9053262802\H,0,3.1883075638,0.4
 069313948,-0.6195261745\H,0,1.6231245883,-0.3706771252,-0.2781071702\H
 ,0,3.8117206403,-1.4672243623,-2.1481574371\H,0,2.2343677025,-2.247843
 4691,-1.8548765601\H,0,3.3305399863,-3.9284813764,1.5239357683\H,0,4.1
 317762513,-5.1994791394,3.5066734026\H,0,6.4097732021,-4.8020205125,4.
 4098368327\H,0,7.0967716188,-1.8643105479,1.3488950098\H,0,10.47531771
 75,-3.4825132814,2.9588835679\H,0,11.757503987,-3.1602449306,4.1185230
 687\H,0,10.0908298131,-1.0223884371,2.6596286112\H,0,11.779453532,-1.4
 403678381,2.3057766059\H,0,11.362396753,-0.6658961289,3.8458335973\H,0
 ,9.5639671808,-2.0135954212,6.7395650731\H,0,11.2131362063,-1.89188049
 16,6.117965409\H,0,9.810201016,-4.4763333241,7.0268658615\H,0,11.08931
 81893,-3.6266426354,7.9174739536\H,0,11.461874955,-4.4150218089,6.3729
 950125\\Version=AM64L-G09RevA.02\State=1-A\HF=-900.6254223\RMSD=7.624e
 -09\Dipole=2.3887605,-0.7150062,1.670861\Quadrupole=14.4766222,-6.1385
 834,-8.3380388,2.2460731,9.4511417,2.1022658\PG=C01 [X(C14H19N1O4)]\\@


 Make no judgements where you have no compassion.
                               -- Anne McCaffrey
 Job cpu time:  0 days  6 hours 26 minutes 29.4 seconds.
 File lengths (MBytes):  RWF=    353 Int=      0 D2E=      0 Chk=     47 Scr=      1
 Normal termination of Gaussian 09 at Thu Sep 30 13:27:45 2021.
