 Entering Gaussian System, Link 0=g09
 Input=C14H16O2_0a89_conf_0.com
 Output=C14H16O2_0a89_conf_0.log
 Initial command:
 /sw/target/amd/app/gaussian/Gaussian09RevA.02_gcc-4.9.2/g09/l1.exe /home/jschleinitz/gaussian/Gau-3300529.inp -scrdir=/home/jschleinitz/gaussian/
 Entering Link 1 = /sw/target/amd/app/gaussian/Gaussian09RevA.02_gcc-4.9.2/g09/l1.exe PID=   3300623.
  
 Copyright (c) 1988,1990,1992,1993,1995,1998,2003,2009, Gaussian, Inc.
                  All Rights Reserved.
  
 This is part of the Gaussian(R) 09 program.  It is based on
 the Gaussian(R) 03 system (copyright 2003, Gaussian, Inc.),
 the Gaussian(R) 98 system (copyright 1998, Gaussian, Inc.),
 the Gaussian(R) 94 system (copyright 1995, Gaussian, Inc.),
 the Gaussian 92(TM) system (copyright 1992, Gaussian, Inc.),
 the Gaussian 90(TM) system (copyright 1990, Gaussian, Inc.),
 the Gaussian 88(TM) system (copyright 1988, Gaussian, Inc.),
 the Gaussian 86(TM) system (copyright 1986, Carnegie Mellon
 University), and the Gaussian 82(TM) system (copyright 1983,
 Carnegie Mellon University). Gaussian is a federally registered
 trademark of Gaussian, Inc.
  
 This software contains proprietary and confidential information,
 including trade secrets, belonging to Gaussian, Inc.
  
 This software is provided under written license and may be
 used, copied, transmitted, or stored only in accord with that
 written license.
  
 The following legend is applicable only to US Government
 contracts under FAR:
  
                    RESTRICTED RIGHTS LEGEND
  
 Use, reproduction and disclosure by the US Government is
 subject to restrictions as set forth in subparagraphs (a)
 and (c) of the Commercial Computer Software - Restricted
 Rights clause in FAR 52.227-19.
  
 Gaussian, Inc.
 340 Quinnipiac St., Bldg. 40, Wallingford CT 06492
  
  
 ---------------------------------------------------------------
 Warning -- This program may not be used in any manner that
 competes with the business of Gaussian, Inc. or will provide
 assistance to any competitor of Gaussian, Inc.  The licensee
 of this program is prohibited from giving any competitor of
 Gaussian, Inc. access to this program.  By using this program,
 the user acknowledges that Gaussian, Inc. is engaged in the
 business of creating and licensing software in the field of
 computational chemistry and represents and warrants to the
 licensee that it is not a competitor of Gaussian, Inc. and that
 it will not use this program in any manner prohibited above.
 ---------------------------------------------------------------
  

 Cite this work as:
 Gaussian 09, Revision A.02,
 M. J. Frisch, G. W. Trucks, H. B. Schlegel, G. E. Scuseria, 
 M. A. Robb, J. R. Cheeseman, G. Scalmani, V. Barone, B. Mennucci, 
 G. A. Petersson, H. Nakatsuji, M. Caricato, X. Li, H. P. Hratchian, 
 A. F. Izmaylov, J. Bloino, G. Zheng, J. L. Sonnenberg, M. Hada, 
 M. Ehara, K. Toyota, R. Fukuda, J. Hasegawa, M. Ishida, T. Nakajima, 
 Y. Honda, O. Kitao, H. Nakai, T. Vreven, J. A. Montgomery, Jr., 
 J. E. Peralta, F. Ogliaro, M. Bearpark, J. J. Heyd, E. Brothers, 
 K. N. Kudin, V. N. Staroverov, R. Kobayashi, J. Normand, 
 K. Raghavachari, A. Rendell, J. C. Burant, S. S. Iyengar, J. Tomasi, 
 M. Cossi, N. Rega, J. M. Millam, M. Klene, J. E. Knox, J. B. Cross, 
 V. Bakken, C. Adamo, J. Jaramillo, R. Gomperts, R. E. Stratmann, 
 O. Yazyev, A. J. Austin, R. Cammi, C. Pomelli, J. W. Ochterski, 
 R. L. Martin, K. Morokuma, V. G. Zakrzewski, G. A. Voth, 
 P. Salvador, J. J. Dannenberg, S. Dapprich, A. D. Daniels, 
 O. Farkas, J. B. Foresman, J. V. Ortiz, J. Cioslowski, 
 and D. J. Fox, Gaussian, Inc., Wallingford CT, 2009.
 
 ******************************************
 Gaussian 09:  AM64L-G09RevA.02 11-Jun-2009
                28-Sep-2021 
 ******************************************
 %nproc=5
 Will use up to    5 processors via shared memory.
 %mem=10gb
 %chk=C14H16O2_0a89_conf_0.chk
 -----------------------------------
 #p opt b3lyp/6-31G* scf=(xqc,tight)
 -----------------------------------
 1/14=-1,18=20,19=15,26=3,38=1/1,3;
 2/9=110,12=2,17=6,18=5,40=1/2;
 3/5=1,6=6,7=1,11=2,16=1,25=1,30=1,71=1,74=-5/1,2,3;
 4//1;
 5/5=2,8=3,13=1,32=2,38=5/2,8;
 6/7=2,8=2,9=2,10=2,28=1/1;
 7//1,2,3,16;
 1/14=-1,18=20,19=15/3(2);
 2/9=110/2;
 99//99;
 2/9=110/2;
 3/5=1,6=6,7=1,11=2,16=1,25=1,30=1,71=1,74=-5/1,2,3;
 4/5=5,16=3/1;
 5/5=2,8=3,13=1,32=2,38=5/2,8;
 7//1,2,3,16;
 1/14=-1,18=20,19=15/3(-5);
 2/9=110/2;
 6/7=2,8=2,9=2,10=2,19=2,28=1/1;
 99/9=1/99;
 Leave Link    1 at Tue Sep 28 15:18:30 2021, MaxMem= 1342177280 cpu:       0.1
 (Enter /sw/target/amd/app/gaussian/Gaussian09RevA.02_gcc-4.9.2/g09/l101.exe)
 ---------------------------------
 COc1ccc2c(c1)cc(cc2)OC(C)C_conf_0
 ---------------------------------
 Symbolic Z-matrix:
 Charge =  0 Multiplicity = 1
 C                     1.42624   1.1456   -0.24548 
 O                     2.65301   0.44698  -0.08096 
 C                     3.13368  -0.22464  -1.1724 
 C                     2.53347  -0.29424  -2.42596 
 C                     3.13349  -1.03379  -3.45255 
 C                     4.34154  -1.71694  -3.23743 
 C                     4.95409  -1.63972  -1.97085 
 C                     4.34072  -0.89168  -0.95341 
 C                     6.16337  -2.3173   -1.74065 
 C                     6.75838  -3.08838  -2.74016 
 C                     6.14859  -3.15849  -3.99264 
 C                     4.95374  -2.4764   -4.24524 
 O                     7.91347  -3.81313  -2.62285 
 C                     8.6128   -3.79865  -1.37316 
 C                     9.36399  -5.12178  -1.25272 
 C                     9.59035  -2.62782  -1.34957 
 H                     1.17427   1.60734   0.7138 
 H                     0.61279   0.46154  -0.5091 
 H                     1.52772   1.94572  -0.98577 
 H                     1.59765   0.21007  -2.64175 
 H                     2.64546  -1.0768   -4.42316 
 H                     4.7992   -0.82904   0.03132 
 H                     6.61605  -2.22021  -0.76055 
 H                     6.60577  -3.75034  -4.7822 
 H                     4.50433  -2.55084  -5.23187 
 H                     7.92728  -3.75816  -0.52053 
 H                     10.1034  -5.23468  -2.05241 
 H                     8.66815  -5.96334  -1.34179 
 H                     9.87551  -5.19484  -0.2877 
 H                     10.32889  -2.7199   -2.15386 
 H                     10.12127  -2.57561  -0.39367 
 H                     9.07414  -1.67603  -1.51036 
 
 NAtoms=     32 NQM=     32 NQMF=      0 NMic=      0 NMicF=      0 NTot=     32.
                    Isotopes and Nuclear Properties:
 (Nuclear quadrupole moments (NQMom) in fm**2, nuclear magnetic moments (NMagM)
  in nuclear magnetons)

  Atom         1           2           3           4           5           6           7           8           9          10
 IAtWgt=          12          16          12          12          12          12          12          12          12          12
 AtmWgt=  12.0000000  15.9949146  12.0000000  12.0000000  12.0000000  12.0000000  12.0000000  12.0000000  12.0000000  12.0000000
 NucSpn=           0           0           0           0           0           0           0           0           0           0
 AtZEff=   0.0000000   0.0000000   0.0000000   0.0000000   0.0000000   0.0000000   0.0000000   0.0000000   0.0000000   0.0000000
 NQMom=    0.0000000   0.0000000   0.0000000   0.0000000   0.0000000   0.0000000   0.0000000   0.0000000   0.0000000   0.0000000
 NMagM=    0.0000000   0.0000000   0.0000000   0.0000000   0.0000000   0.0000000   0.0000000   0.0000000   0.0000000   0.0000000

  Atom        11          12          13          14          15          16          17          18          19          20
 IAtWgt=          12          12          16          12          12          12           1           1           1           1
 AtmWgt=  12.0000000  12.0000000  15.9949146  12.0000000  12.0000000  12.0000000   1.0078250   1.0078250   1.0078250   1.0078250
 NucSpn=           0           0           0           0           0           0           1           1           1           1
 AtZEff=   0.0000000   0.0000000   0.0000000   0.0000000   0.0000000   0.0000000   0.0000000   0.0000000   0.0000000   0.0000000
 NQMom=    0.0000000   0.0000000   0.0000000   0.0000000   0.0000000   0.0000000   0.0000000   0.0000000   0.0000000   0.0000000
 NMagM=    0.0000000   0.0000000   0.0000000   0.0000000   0.0000000   0.0000000   2.7928460   2.7928460   2.7928460   2.7928460

  Atom        21          22          23          24          25          26          27          28          29          30
 IAtWgt=           1           1           1           1           1           1           1           1           1           1
 AtmWgt=   1.0078250   1.0078250   1.0078250   1.0078250   1.0078250   1.0078250   1.0078250   1.0078250   1.0078250   1.0078250
 NucSpn=           1           1           1           1           1           1           1           1           1           1
 AtZEff=   0.0000000   0.0000000   0.0000000   0.0000000   0.0000000   0.0000000   0.0000000   0.0000000   0.0000000   0.0000000
 NQMom=    0.0000000   0.0000000   0.0000000   0.0000000   0.0000000   0.0000000   0.0000000   0.0000000   0.0000000   0.0000000
 NMagM=    2.7928460   2.7928460   2.7928460   2.7928460   2.7928460   2.7928460   2.7928460   2.7928460   2.7928460   2.7928460

  Atom        31          32
 IAtWgt=           1           1
 AtmWgt=   1.0078250   1.0078250
 NucSpn=           1           1
 AtZEff=   0.0000000   0.0000000
 NQMom=    0.0000000   0.0000000
 NMagM=    2.7928460   2.7928460
 Leave Link  101 at Tue Sep 28 15:18:30 2021, MaxMem= 1342177280 cpu:       0.2
 (Enter /sw/target/amd/app/gaussian/Gaussian09RevA.02_gcc-4.9.2/g09/l103.exe)

 GradGradGradGradGradGradGradGradGradGradGradGradGradGradGradGradGradGrad
 Berny optimization.
 Initialization pass.
                           ----------------------------
                           !    Initial Parameters    !
                           ! (Angstroms and Degrees)  !
 --------------------------                            --------------------------
 ! Name  Definition              Value          Derivative Info.                !
 --------------------------------------------------------------------------------
 ! R1    R(1,2)                  1.4213         estimate D2E/DX2                !
 ! R2    R(1,17)                 1.094          estimate D2E/DX2                !
 ! R3    R(1,18)                 1.095          estimate D2E/DX2                !
 ! R4    R(1,19)                 1.0948         estimate D2E/DX2                !
 ! R5    R(2,3)                  1.3687         estimate D2E/DX2                !
 ! R6    R(3,4)                  1.3916         estimate D2E/DX2                !
 ! R7    R(3,8)                  1.3964         estimate D2E/DX2                !
 ! R8    R(4,5)                  1.4003         estimate D2E/DX2                !
 ! R9    R(4,20)                 1.0847         estimate D2E/DX2                !
 ! R10   R(5,6)                  1.4044         estimate D2E/DX2                !
 ! R11   R(5,21)                 1.0872         estimate D2E/DX2                !
 ! R12   R(6,7)                  1.4091         estimate D2E/DX2                !
 ! R13   R(6,12)                 1.4026         estimate D2E/DX2                !
 ! R14   R(7,8)                  1.4039         estimate D2E/DX2                !
 ! R15   R(7,9)                  1.4052         estimate D2E/DX2                !
 ! R16   R(8,22)                 1.088          estimate D2E/DX2                !
 ! R17   R(9,10)                 1.3956         estimate D2E/DX2                !
 ! R18   R(9,23)                 1.084          estimate D2E/DX2                !
 ! R19   R(10,11)                1.3948         estimate D2E/DX2                !
 ! R20   R(10,13)                1.3687         estimate D2E/DX2                !
 ! R21   R(11,12)                1.3988         estimate D2E/DX2                !
 ! R22   R(11,24)                1.0875         estimate D2E/DX2                !
 ! R23   R(12,25)                1.0867         estimate D2E/DX2                !
 ! R24   R(13,14)                1.4321         estimate D2E/DX2                !
 ! R25   R(14,15)                1.5263         estimate D2E/DX2                !
 ! R26   R(14,16)                1.5255         estimate D2E/DX2                !
 ! R27   R(14,26)                1.0948         estimate D2E/DX2                !
 ! R28   R(15,27)                1.095          estimate D2E/DX2                !
 ! R29   R(15,28)                1.0956         estimate D2E/DX2                !
 ! R30   R(15,29)                1.0947         estimate D2E/DX2                !
 ! R31   R(16,30)                1.0958         estimate D2E/DX2                !
 ! R32   R(16,31)                1.0947         estimate D2E/DX2                !
 ! R33   R(16,32)                1.0946         estimate D2E/DX2                !
 ! A1    A(2,1,17)             107.7432         estimate D2E/DX2                !
 ! A2    A(2,1,18)             111.2221         estimate D2E/DX2                !
 ! A3    A(2,1,19)             110.9472         estimate D2E/DX2                !
 ! A4    A(17,1,18)            107.6771         estimate D2E/DX2                !
 ! A5    A(17,1,19)            107.8059         estimate D2E/DX2                !
 ! A6    A(18,1,19)            111.2617         estimate D2E/DX2                !
 ! A7    A(1,2,3)              116.8728         estimate D2E/DX2                !
 ! A8    A(2,3,4)              126.2565         estimate D2E/DX2                !
 ! A9    A(2,3,8)              114.3881         estimate D2E/DX2                !
 ! A10   A(4,3,8)              119.3548         estimate D2E/DX2                !
 ! A11   A(3,4,5)              120.1327         estimate D2E/DX2                !
 ! A12   A(3,4,20)             121.8738         estimate D2E/DX2                !
 ! A13   A(5,4,20)             117.9931         estimate D2E/DX2                !
 ! A14   A(4,5,6)              120.8767         estimate D2E/DX2                !
 ! A15   A(4,5,21)             118.8835         estimate D2E/DX2                !
 ! A16   A(6,5,21)             120.239          estimate D2E/DX2                !
 ! A17   A(5,6,7)              119.0108         estimate D2E/DX2                !
 ! A18   A(5,6,12)             121.9233         estimate D2E/DX2                !
 ! A19   A(7,6,12)             119.0657         estimate D2E/DX2                !
 ! A20   A(6,7,8)              119.3875         estimate D2E/DX2                !
 ! A21   A(6,7,9)              119.6669         estimate D2E/DX2                !
 ! A22   A(8,7,9)              120.9443         estimate D2E/DX2                !
 ! A23   A(3,8,7)              121.2338         estimate D2E/DX2                !
 ! A24   A(3,8,22)             118.5998         estimate D2E/DX2                !
 ! A25   A(7,8,22)             120.1643         estimate D2E/DX2                !
 ! A26   A(7,9,10)             121.0661         estimate D2E/DX2                !
 ! A27   A(7,9,23)             117.668          estimate D2E/DX2                !
 ! A28   A(10,9,23)            121.2659         estimate D2E/DX2                !
 ! A29   A(9,10,11)            118.9794         estimate D2E/DX2                !
 ! A30   A(9,10,13)            126.2291         estimate D2E/DX2                !
 ! A31   A(11,10,13)           114.7912         estimate D2E/DX2                !
 ! A32   A(10,11,12)           120.7358         estimate D2E/DX2                !
 ! A33   A(10,11,24)           119.7033         estimate D2E/DX2                !
 ! A34   A(12,11,24)           119.5609         estimate D2E/DX2                !
 ! A35   A(6,12,11)            120.4716         estimate D2E/DX2                !
 ! A36   A(6,12,25)            120.5934         estimate D2E/DX2                !
 ! A37   A(11,12,25)           118.9334         estimate D2E/DX2                !
 ! A38   A(10,13,14)           118.787          estimate D2E/DX2                !
 ! A39   A(13,14,15)           107.4837         estimate D2E/DX2                !
 ! A40   A(13,14,16)           109.5223         estimate D2E/DX2                !
 ! A41   A(13,14,26)           111.9753         estimate D2E/DX2                !
 ! A42   A(15,14,16)           110.4114         estimate D2E/DX2                !
 ! A43   A(15,14,26)           106.1885         estimate D2E/DX2                !
 ! A44   A(16,14,26)           111.1511         estimate D2E/DX2                !
 ! A45   A(14,15,27)           111.3531         estimate D2E/DX2                !
 ! A46   A(14,15,28)           110.297          estimate D2E/DX2                !
 ! A47   A(14,15,29)           110.9415         estimate D2E/DX2                !
 ! A48   A(27,15,28)           106.8765         estimate D2E/DX2                !
 ! A49   A(27,15,29)           108.7486         estimate D2E/DX2                !
 ! A50   A(28,15,29)           108.4923         estimate D2E/DX2                !
 ! A51   A(14,16,30)           110.8574         estimate D2E/DX2                !
 ! A52   A(14,16,31)           111.1556         estimate D2E/DX2                !
 ! A53   A(14,16,32)           111.2783         estimate D2E/DX2                !
 ! A54   A(30,16,31)           108.5456         estimate D2E/DX2                !
 ! A55   A(30,16,32)           106.4439         estimate D2E/DX2                !
 ! A56   A(31,16,32)           108.392          estimate D2E/DX2                !
 ! D1    D(17,1,2,3)           178.9404         estimate D2E/DX2                !
 ! D2    D(18,1,2,3)            61.1485         estimate D2E/DX2                !
 ! D3    D(19,1,2,3)           -63.2669         estimate D2E/DX2                !
 ! D4    D(1,2,3,4)             -0.3175         estimate D2E/DX2                !
 ! D5    D(1,2,3,8)            179.9748         estimate D2E/DX2                !
 ! D6    D(2,3,4,5)           -179.3122         estimate D2E/DX2                !
 ! D7    D(2,3,4,20)             0.472          estimate D2E/DX2                !
 ! D8    D(8,3,4,5)              0.3823         estimate D2E/DX2                !
 ! D9    D(8,3,4,20)          -179.8334         estimate D2E/DX2                !
 ! D10   D(2,3,8,7)            179.2086         estimate D2E/DX2                !
 ! D11   D(2,3,8,22)            -0.2678         estimate D2E/DX2                !
 ! D12   D(4,3,8,7)             -0.521          estimate D2E/DX2                !
 ! D13   D(4,3,8,22)          -179.9974         estimate D2E/DX2                !
 ! D14   D(3,4,5,6)              0.1584         estimate D2E/DX2                !
 ! D15   D(3,4,5,21)           179.8194         estimate D2E/DX2                !
 ! D16   D(20,4,5,6)          -179.6341         estimate D2E/DX2                !
 ! D17   D(20,4,5,21)            0.0269         estimate D2E/DX2                !
 ! D18   D(4,5,6,7)             -0.5612         estimate D2E/DX2                !
 ! D19   D(4,5,6,12)           179.2623         estimate D2E/DX2                !
 ! D20   D(21,5,6,7)           179.7824         estimate D2E/DX2                !
 ! D21   D(21,5,6,12)           -0.3941         estimate D2E/DX2                !
 ! D22   D(5,6,7,8)              0.4219         estimate D2E/DX2                !
 ! D23   D(5,6,7,9)           -179.9686         estimate D2E/DX2                !
 ! D24   D(12,6,7,8)          -179.4067         estimate D2E/DX2                !
 ! D25   D(12,6,7,9)             0.2028         estimate D2E/DX2                !
 ! D26   D(5,6,12,11)         -179.1891         estimate D2E/DX2                !
 ! D27   D(5,6,12,25)            0.3409         estimate D2E/DX2                !
 ! D28   D(7,6,12,11)            0.6343         estimate D2E/DX2                !
 ! D29   D(7,6,12,25)         -179.8357         estimate D2E/DX2                !
 ! D30   D(6,7,8,3)              0.1152         estimate D2E/DX2                !
 ! D31   D(6,7,8,22)           179.5835         estimate D2E/DX2                !
 ! D32   D(9,7,8,3)           -179.4892         estimate D2E/DX2                !
 ! D33   D(9,7,8,22)            -0.0209         estimate D2E/DX2                !
 ! D34   D(6,7,9,10)            -1.1951         estimate D2E/DX2                !
 ! D35   D(6,7,9,23)           178.8463         estimate D2E/DX2                !
 ! D36   D(8,7,9,10)           178.4081         estimate D2E/DX2                !
 ! D37   D(8,7,9,23)            -1.5504         estimate D2E/DX2                !
 ! D38   D(7,9,10,11)            1.3238         estimate D2E/DX2                !
 ! D39   D(7,9,10,13)         -178.4539         estimate D2E/DX2                !
 ! D40   D(23,9,10,11)        -178.7191         estimate D2E/DX2                !
 ! D41   D(23,9,10,13)           1.5032         estimate D2E/DX2                !
 ! D42   D(9,10,11,12)          -0.4715         estimate D2E/DX2                !
 ! D43   D(9,10,11,24)         179.577          estimate D2E/DX2                !
 ! D44   D(13,10,11,12)        179.331          estimate D2E/DX2                !
 ! D45   D(13,10,11,24)         -0.6205         estimate D2E/DX2                !
 ! D46   D(9,10,13,14)          -0.3974         estimate D2E/DX2                !
 ! D47   D(11,10,13,14)        179.8168         estimate D2E/DX2                !
 ! D48   D(10,11,12,6)          -0.5054         estimate D2E/DX2                !
 ! D49   D(10,11,12,25)        179.9569         estimate D2E/DX2                !
 ! D50   D(24,11,12,6)         179.4462         estimate D2E/DX2                !
 ! D51   D(24,11,12,25)         -0.0916         estimate D2E/DX2                !
 ! D52   D(10,13,14,15)        151.7725         estimate D2E/DX2                !
 ! D53   D(10,13,14,16)        -88.2517         estimate D2E/DX2                !
 ! D54   D(10,13,14,26)         35.5213         estimate D2E/DX2                !
 ! D55   D(13,14,15,27)         61.9318         estimate D2E/DX2                !
 ! D56   D(13,14,15,28)        -56.5537         estimate D2E/DX2                !
 ! D57   D(13,14,15,29)       -176.7944         estimate D2E/DX2                !
 ! D58   D(16,14,15,27)        -57.4775         estimate D2E/DX2                !
 ! D59   D(16,14,15,28)       -175.963          estimate D2E/DX2                !
 ! D60   D(16,14,15,29)         63.7964         estimate D2E/DX2                !
 ! D61   D(26,14,15,27)       -178.07           estimate D2E/DX2                !
 ! D62   D(26,14,15,28)         63.4445         estimate D2E/DX2                !
 ! D63   D(26,14,15,29)        -56.7962         estimate D2E/DX2                !
 ! D64   D(13,14,16,30)        -60.6869         estimate D2E/DX2                !
 ! D65   D(13,14,16,31)        178.4889         estimate D2E/DX2                !
 ! D66   D(13,14,16,32)         57.573          estimate D2E/DX2                !
 ! D67   D(15,14,16,30)         57.4807         estimate D2E/DX2                !
 ! D68   D(15,14,16,31)        -63.3435         estimate D2E/DX2                !
 ! D69   D(15,14,16,32)        175.7407         estimate D2E/DX2                !
 ! D70   D(26,14,16,30)        175.0575         estimate D2E/DX2                !
 ! D71   D(26,14,16,31)         54.2333         estimate D2E/DX2                !
 ! D72   D(26,14,16,32)        -66.6826         estimate D2E/DX2                !
 --------------------------------------------------------------------------------
 Trust Radius=3.00D-01 FncErr=1.00D-07 GrdErr=1.00D-06
 Number of steps in this run= 171 maximum allowed number of steps= 192.
 GradGradGradGradGradGradGradGradGradGradGradGradGradGradGradGradGradGrad

 Leave Link  103 at Tue Sep 28 15:18:30 2021, MaxMem= 1342177280 cpu:       0.0
 (Enter /sw/target/amd/app/gaussian/Gaussian09RevA.02_gcc-4.9.2/g09/l202.exe)
                          Input orientation:                          
 ---------------------------------------------------------------------
 Center     Atomic      Atomic             Coordinates (Angstroms)
 Number     Number       Type             X           Y           Z
 ---------------------------------------------------------------------
      1          6           0        1.426237    1.145595   -0.245478
      2          8           0        2.653005    0.446979   -0.080959
      3          6           0        3.133681   -0.224642   -1.172401
      4          6           0        2.533471   -0.294240   -2.425963
      5          6           0        3.133492   -1.033788   -3.452554
      6          6           0        4.341540   -1.716938   -3.237434
      7          6           0        4.954090   -1.639718   -1.970846
      8          6           0        4.340724   -0.891680   -0.953408
      9          6           0        6.163365   -2.317297   -1.740651
     10          6           0        6.758379   -3.088377   -2.740155
     11          6           0        6.148589   -3.158489   -3.992635
     12          6           0        4.953738   -2.476397   -4.245235
     13          8           0        7.913472   -3.813125   -2.622846
     14          6           0        8.612801   -3.798654   -1.373157
     15          6           0        9.363994   -5.121778   -1.252725
     16          6           0        9.590353   -2.627816   -1.349567
     17          1           0        1.174267    1.607343    0.713802
     18          1           0        0.612792    0.461539   -0.509096
     19          1           0        1.527717    1.945724   -0.985766
     20          1           0        1.597653    0.210069   -2.641752
     21          1           0        2.645464   -1.076803   -4.423157
     22          1           0        4.799202   -0.829043    0.031318
     23          1           0        6.616055   -2.220208   -0.760551
     24          1           0        6.605765   -3.750340   -4.782199
     25          1           0        4.504325   -2.550836   -5.231871
     26          1           0        7.927284   -3.758161   -0.520526
     27          1           0       10.103396   -5.234679   -2.052409
     28          1           0        8.668149   -5.963345   -1.341788
     29          1           0        9.875508   -5.194842   -0.287699
     30          1           0       10.328885   -2.719898   -2.153865
     31          1           0       10.121270   -2.575612   -0.393669
     32          1           0        9.074145   -1.676028   -1.510359
 ---------------------------------------------------------------------
                    Distance matrix (angstroms):
                    1          2          3          4          5
     1  C    0.000000
     2  O    1.421299   0.000000
     3  C    2.377414   1.368710   0.000000
     4  C    2.837888   2.462263   1.391587   0.000000
     5  C    4.236717   3.713649   2.419466   1.400302   0.000000
     6  C    5.064078   4.182944   2.819616   2.439604   1.404403
     7  C    4.814624   3.636065   2.440050   2.806571   2.424291
     8  C    3.625726   2.324128   1.396371   2.406557   2.779088
     9  C    6.055373   4.766385   3.725735   4.211715   3.709196
    10  C    7.251322   6.035243   4.878245   5.075014   4.227133
    11  C    7.407222   6.365510   5.064667   4.871084   3.727847
    12  C    6.446716   5.583968   4.222004   3.732191   2.454131
    13  O    8.504411   7.230642   6.150399   6.431620   5.591184
    14  C    8.795679   7.430636   6.544817   7.095603   6.480062
    15  C   10.163783   8.798946   7.924973   8.446162   7.769817
    16  C    9.061481   7.693538   6.891680   7.510246   6.975280
    17  H    1.094038   2.040774   3.279212   3.914279   5.307792
    18  H    1.095043   2.084702   2.695495   2.816840   4.153778
    19  H    1.094774   2.081150   2.706370   2.846603   4.188204
    20  H    2.578124   2.779849   2.169643   1.084734   2.136208
    21  H    4.886570   4.601809   3.395872   2.147959   1.087241
    22  H    3.918252   2.499399   2.142008   3.384934   3.867024
    23  H    6.207103   4.825089   4.034703   4.811490   4.558806
    24  H    8.448641   7.439318   6.125077   5.837813   4.604812
    25  H    6.928373   6.240687   4.875361   4.104828   2.710459
    26  H    8.147765   6.759766   5.990770   6.687500   6.244952
    27  H   10.920896   9.574767   8.628547   9.047168   8.257569
    28  H   10.207067   8.880535   7.974443   8.423091   7.706380
    29  H   10.563763   9.167192   8.422459   9.082597   8.531438
    30  H    9.891467   8.558340   7.678577   8.168619   7.503548
    31  H    9.459013   8.062804   7.413493   8.179827   7.782225
    32  H    8.249362   6.912407   6.124529   6.747450   6.282988
                    6          7          8          9         10
     6  C    0.000000
     7  C    1.409052   0.000000
     8  C    2.428544   1.403908   0.000000
     9  C    2.433072   1.405151   2.444209   0.000000
    10  C    2.822985   2.438423   3.723305   1.395570   0.000000
    11  C    2.431835   2.796627   4.200440   2.404009   1.394800
    12  C    1.402579   2.423402   3.704489   2.785939   2.428274
    13  O    4.186934   3.729175   4.907789   2.465491   1.368672
    14  C    5.104189   4.290036   5.184335   2.886037   2.410822
    15  C    6.384125   5.664600   6.573930   4.283364   3.624417
    16  C    5.651883   4.780927   5.543439   3.463180   3.188405
    17  H    6.057618   5.660195   4.364763   6.805750   8.072293
    18  H    5.108145   5.039728   3.990750   6.328311   7.439608
    19  H    5.138356   5.056264   3.995612   6.342904   7.468593
    20  H    3.405453   3.890694   3.404232   5.295781   6.125563
    21  H    2.166191   3.414741   3.866178   4.594594   4.878011
    22  H    3.417975   2.165605   1.088031   2.686208   4.077258
    23  H    3.400242   2.136331   2.641838   1.083951   2.166289
    24  H    3.412878   3.884130   5.287910   3.391216   2.152076
    25  H    2.167871   3.415657   4.591820   3.872412   3.402698
    26  H    4.940217   3.928245   4.611671   2.583835   2.596479
    27  H    6.854033   6.280585   7.299166   4.912449   4.033453
    28  H    6.351771   5.734431   6.678266   4.441475   3.723989
    29  H    7.170882   6.300178   7.042315   4.916435   4.490905
    30  H    6.166714   5.485317   6.375073   4.205281   3.637035
    31  H    6.498431   5.482986   6.046788   4.188806   4.132549
    32  H    5.038056   4.145868   4.830183   2.989464   2.978237
                   11         12         13         14         15
    11  C    0.000000
    12  C    1.398830   0.000000
    13  O    2.328021   3.630291   0.000000
    14  C    3.652920   4.835902   1.432129   0.000000
    15  C    4.658374   5.950085   2.386172   1.526254   0.000000
    16  C    4.371861   5.468640   2.416222   1.525459   2.506085
    17  H    8.343116   7.453414   9.269929   9.429316  10.780534
    18  H    7.475606   6.436926   8.720127   9.104724  10.407206
    19  H    7.513102   6.474327   8.753413   9.129423  10.555950
    20  H    5.820918   4.588199   7.488393   8.178723   9.522292
    21  H    4.097639   2.705300   6.203264   7.233263   8.458848
    22  H    4.841422   4.585473   5.064387   5.033357   6.396379
    23  H    3.397832   3.869361   2.772873   2.617972   4.026477
    24  H    1.087524   2.154172   2.525241   3.956273   4.684641
    25  H    2.146753   1.086721   4.474669   5.772894   6.786732
    26  H    3.947013   4.935418   2.103085   1.094785   2.111801
    27  H    4.869861   6.239838   2.672448   2.178399   1.094969
    28  H    4.608947   5.863929   2.614209   2.165625   1.095612
    29  H    5.635886   6.875744   3.348378   2.173013   1.094650
    30  H    4.587845   5.772810   2.692454   2.172134   2.740821
    31  H    5.392078   6.445758   3.372691   2.175019   2.791846
    32  H    4.113182   5.009780   2.674317   2.176512   3.467504
                   16         17         18         19         20
    16  C    0.000000
    17  H    9.644925   0.000000
    18  H    9.531375   1.767371   0.000000
    19  H    9.276622   1.768605   1.807514   0.000000
    20  H    8.579429   3.659423   2.362500   2.399933   0.000000
    21  H    7.751392   5.979750   4.670987   4.711760   2.434615
    22  H    5.300713   4.420623   4.414031   4.408673   4.298253
    23  H    3.059336   6.814464   6.579829   6.580037   5.884685
    24  H    4.685167   9.402764   8.480275   8.523181   6.734059
    25  H    6.398898   7.983156   6.820780   6.863575   4.772846
    26  H    2.175037   8.712946   8.444394   8.585173   7.765995
    27  H    2.748260  11.584236  11.175879  11.235576  10.116337
    28  H    3.460675  10.848919  10.337373  10.661421   9.475910
    29  H    2.792579  11.089829  10.855485  11.007297  10.162554
    30  H    1.095812  10.524047  10.355156  10.029608   9.222644
    31  H    1.094686   9.938434   9.982422   9.728422   9.244779
    32  H    1.094635   8.839428   8.784430   8.386945   7.793289
                   21         22         23         24         25
    21  H    0.000000
    22  H    4.954020   0.000000
    23  H    5.521562   2.421436   0.000000
    24  H    4.791732   5.913341   4.302914   0.000000
    25  H    2.506423   5.545511   4.955948   2.461110   0.000000
    26  H    7.093506   4.320783   2.035248   4.461876   5.947357
    27  H    8.861666   7.203195   4.787221   4.678508   6.975786
    28  H    8.345410   6.573830   4.308132   4.581184   6.641942
    29  H    9.291598   6.703048   4.438026   5.742676   7.764355
    30  H    8.178289   6.239211   3.997015   4.672427   6.590008
    31  H    8.623855   5.617431   3.542238   5.744385   7.413426
    32  H    7.083177   4.622693   2.626890   4.593540   5.958036
                   26         27         28         29         30
    26  H    0.000000
    27  H    3.043392   0.000000
    28  H    2.467021   1.759508   0.000000
    29  H    2.431838   1.779809   1.777474   0.000000
    30  H    3.084392   2.526907   3.733291   3.132646   0.000000
    31  H    2.495614   3.134067   3.806208   2.632868   1.778261
    32  H    2.574944   3.743951   4.309795   3.810398   1.754462
                   31         32
    31  H    0.000000
    32  H    1.775590   0.000000
 Stoichiometry    C14H16O2
 Framework group  C1[X(C14H16O2)]
 Deg. of freedom    90
 Full point group                 C1      NOp   1
 Largest Abelian subgroup         C1      NOp   1
 Largest concise Abelian subgroup C1      NOp   1
                         Standard orientation:                         
 ---------------------------------------------------------------------
 Center     Atomic      Atomic             Coordinates (Angstroms)
 Number     Number       Type             X           Y           Z
 ---------------------------------------------------------------------
      1          6           0       -5.185208   -1.353545   -0.095638
      2          8           0       -3.794591   -1.646545   -0.116251
      3          6           0       -2.936962   -0.582327   -0.043575
      4          6           0       -3.295809    0.759447    0.042358
      5          6           0       -2.307004    1.749505    0.096156
      6          6           0       -0.944662    1.410151    0.061336
      7          6           0       -0.580731    0.051164   -0.016987
      8          6           0       -1.584530   -0.929047   -0.067300
      9          6           0        0.778351   -0.303975   -0.051957
     10          6           0        1.777820    0.669882   -0.035263
     11          6           0        1.411155    2.013215    0.045222
     12          6           0        0.063554    2.384492    0.098583
     13          8           0        3.126680    0.445767   -0.095374
     14          6           0        3.598606   -0.903967   -0.175975
     15          6           0        4.934496   -0.879358   -0.913703
     16          6           0        3.777967   -1.466145    1.230728
     17          1           0       -5.726728   -2.300440   -0.179699
     18          1           0       -5.471577   -0.729840   -0.948928
     19          1           0       -5.472764   -0.886406    0.851792
     20          1           0       -4.333524    1.074440    0.066364
     21          1           0       -2.610225    2.791649    0.160081
     22          1           0       -1.317838   -1.981729   -0.134743
     23          1           0        1.021892   -1.359416   -0.092977
     24          1           0        2.180573    2.781508    0.066008
     25          1           0       -0.188997    3.439578    0.161630
     26          1           0        2.932386   -1.535999   -0.771995
     27          1           0        5.680617   -0.292557   -0.367879
     28          1           0        4.817289   -0.409628   -1.896548
     29          1           0        5.320820   -1.893441   -1.057398
     30          1           0        4.512447   -0.879982    1.794428
     31          1           0        4.113270   -2.507766    1.200128
     32          1           0        2.843395   -1.420707    1.798827
 ---------------------------------------------------------------------
 Rotational constants (GHZ):      1.2043329      0.2465012      0.2123019
 Leave Link  202 at Tue Sep 28 15:18:30 2021, MaxMem= 1342177280 cpu:       0.1
 (Enter /sw/target/amd/app/gaussian/Gaussian09RevA.02_gcc-4.9.2/g09/l301.exe)
 Standard basis: 6-31G(d) (6D, 7F)
 Ernie: Thresh=  0.10000D-02 Tol=  0.10000D-05 Strict=F.
 There are   272 symmetry adapted basis functions of A   symmetry.
 Integral buffers will be    131072 words long.
 Raffenetti 2 integral format.
 Two-electron integral symmetry is turned on.
   272 basis functions,   512 primitive gaussians,   272 cartesian basis functions
    58 alpha electrons       58 beta electrons
       nuclear repulsion energy      1037.6668881076 Hartrees.
 IExCor=  402 DFT=T Ex+Corr=B3LYP ExCW=0 ScaHFX=  0.200000
 ScaDFX=  0.800000  0.720000  1.000000  0.810000 ScalE2=  1.000000  1.000000
 IRadAn=      0 IRanWt=     -1 IRanGd=            0 ICorTp=0
 NAtoms=   32 NActive=   32 NUniq=   32 SFac= 7.50D-01 NAtFMM=   80 NAOKFM=F Big=F
 Leave Link  301 at Tue Sep 28 15:18:31 2021, MaxMem= 1342177280 cpu:       0.1
 (Enter /sw/target/amd/app/gaussian/Gaussian09RevA.02_gcc-4.9.2/g09/l302.exe)
 NPDir=0 NMtPBC=     1 NCelOv=     1 NCel=       1 NClECP=     1 NCelD=      1
         NCelK=      1 NCelE2=     1 NClLst=     1 CellRange=     0.0.
 One-electron integrals computed using PRISM.
 NBasis=   272 RedAO= T  NBF=   272
 NBsUse=   272 1.00D-06 NBFU=   272
 Precomputing XC quadrature grid using
 IXCGrd= 2 IRadAn=           0 IRanWt=          -1 IRanGd=           0 AccXCQ= 1.00D-10.
 NRdTot=    2039 NPtTot=      259716 NUsed=      274418 NTot=      274450
 NSgBfM=   270   270   270   270   270 NAtAll=    32    32.
 Leave Link  302 at Tue Sep 28 15:18:34 2021, MaxMem= 1342177280 cpu:       3.0
 (Enter /sw/target/amd/app/gaussian/Gaussian09RevA.02_gcc-4.9.2/g09/l303.exe)
 DipDrv:  MaxL=1.
 Leave Link  303 at Tue Sep 28 15:18:35 2021, MaxMem= 1342177280 cpu:       0.2
 (Enter /sw/target/amd/app/gaussian/Gaussian09RevA.02_gcc-4.9.2/g09/l401.exe)
 Harris functional with IExCor=  402 diagonalized for initial guess.
 ExpMin= 1.61D-01 ExpMax= 5.48D+03 ExpMxC= 8.25D+02 IAcc=1 IRadAn=         1 AccDes= 0.00D+00
 HarFok:  IExCor=  402 AccDes= 0.00D+00 IRadAn=         1 IDoV= 1
 ScaDFX=  1.000000  1.000000  1.000000  1.000000
 FoFCou: FMM=F IPFlag=           0 FMFlag=      100000 FMFlg1=           0
         NFxFlg=           0 DoJE=T BraDBF=F KetDBF=T FulRan=T
         Omega=  0.000000  0.000000  1.000000  0.000000  0.000000 ICntrl=     500 IOpCl=  0
         NMat0=    1 NMatS0=    1 NMatT0=    0 NMatD0=    1 NMtDS0=    0 NMtDT0=    0
         I1Cent=           4 NGrid=           0.
 Petite list used in FoFCou.
 Harris En= -693.661023717165    
 Initial guess orbital symmetries:
       Occupied  (A) (A) (A) (A) (A) (A) (A) (A) (A) (A) (A) (A)
                 (A) (A) (A) (A) (A) (A) (A) (A) (A) (A) (A) (A)
                 (A) (A) (A) (A) (A) (A) (A) (A) (A) (A) (A) (A)
                 (A) (A) (A) (A) (A) (A) (A) (A) (A) (A) (A) (A)
                 (A) (A) (A) (A) (A) (A) (A) (A) (A) (A)
       Virtual   (A) (A) (A) (A) (A) (A) (A) (A) (A) (A) (A) (A)
                 (A) (A) (A) (A) (A) (A) (A) (A) (A) (A) (A) (A)
                 (A) (A) (A) (A) (A) (A) (A) (A) (A) (A) (A) (A)
                 (A) (A) (A) (A) (A) (A) (A) (A) (A) (A) (A) (A)
                 (A) (A) (A) (A) (A) (A) (A) (A) (A) (A) (A) (A)
                 (A) (A) (A) (A) (A) (A) (A) (A) (A) (A) (A) (A)
                 (A) (A) (A) (A) (A) (A) (A) (A) (A) (A) (A) (A)
                 (A) (A) (A) (A) (A) (A) (A) (A) (A) (A) (A) (A)
                 (A) (A) (A) (A) (A) (A) (A) (A) (A) (A) (A) (A)
                 (A) (A) (A) (A) (A) (A) (A) (A) (A) (A) (A) (A)
                 (A) (A) (A) (A) (A) (A) (A) (A) (A) (A) (A) (A)
                 (A) (A) (A) (A) (A) (A) (A) (A) (A) (A) (A) (A)
                 (A) (A) (A) (A) (A) (A) (A) (A) (A) (A) (A) (A)
                 (A) (A) (A) (A) (A) (A) (A) (A) (A) (A) (A) (A)
                 (A) (A) (A) (A) (A) (A) (A) (A) (A) (A) (A) (A)
                 (A) (A) (A) (A) (A) (A) (A) (A) (A) (A) (A) (A)
                 (A) (A) (A) (A) (A) (A) (A) (A) (A) (A) (A) (A)
                 (A) (A) (A) (A) (A) (A) (A) (A) (A) (A)
 The electronic state of the initial guess is 1-A.
 Leave Link  401 at Tue Sep 28 15:18:48 2021, MaxMem= 1342177280 cpu:      12.3
 (Enter /sw/target/amd/app/gaussian/Gaussian09RevA.02_gcc-4.9.2/g09/l502.exe)
 Closed shell SCF:
 Requested convergence on RMS density matrix=1.00D-08 within  64 cycles.
 Requested convergence on MAX density matrix=1.00D-06.
 Requested convergence on             energy=1.00D-06.
 No special actions if energy rises.
 Using DIIS extrapolation, IDIIS=  1040.
 Integral symmetry usage will be decided dynamically.
       274117 words used for storage of precomputed grid.
 Keep R1 ints in memory in canonical form, NReq=699941145.
 IEnd=      505303 IEndB=      505303 NGot=  1342177280 MDV=   652487674
 LenX=   652487674 LenY=   652413249
 Symmetry not used in FoFDir.
 MinBra= 0 MaxBra= 2 Meth= 1.
 IRaf=       0 NMat=   1 IRICut=       1 DoRegI=T DoRafI=F ISym2E= 0 JSym2E=0.
 Integral accuracy reduced to 1.0D-05 until final iterations.

 Cycle   1  Pass 0  IDiag  1:
 E= -693.165054252534    
 DIIS: error= 3.00D-02 at cycle   1 NSaved=   1.
 NSaved= 1 IEnMin= 1 EnMin= -693.165054252534     IErMin= 1 ErrMin= 3.00D-02
 ErrMax= 3.00D-02 EMaxC= 1.00D-01 BMatC= 3.77D-01 BMatP= 3.77D-01
 IDIUse=3 WtCom= 7.00D-01 WtEn= 3.00D-01
 Coeff-Com:  0.100D+01
 Coeff-En:   0.100D+01
 Coeff:      0.100D+01
 Gap=     0.161 Goal=   None    Shift=    0.000
 GapD=    0.161 DampG=1.000 DampE=0.500 DampFc=0.5000 IDamp=-1.
 Damping current iteration by 5.00D-01
 RMSDP=5.20D-03 MaxDP=1.38D-01              OVMax= 1.82D-01

 Cycle   2  Pass 0  IDiag  1:
 E= -693.354281871100     Delta-E=       -0.189227618567 Rises=F Damp=T
 DIIS: error= 5.61D-03 at cycle   2 NSaved=   2.
 NSaved= 2 IEnMin= 2 EnMin= -693.354281871100     IErMin= 2 ErrMin= 5.61D-03
 ErrMax= 5.61D-03 EMaxC= 1.00D-01 BMatC= 1.96D-02 BMatP= 3.77D-01
 IDIUse=3 WtCom= 9.44D-01 WtEn= 5.61D-02
 Coeff-Com:  0.233D-01 0.977D+00
 Coeff-En:   0.349D-01 0.965D+00
 Coeff:      0.239D-01 0.976D+00
 Gap=     0.158 Goal=   None    Shift=    0.000
 RMSDP=1.68D-03 MaxDP=4.28D-02 DE=-1.89D-01 OVMax= 1.39D-01

 Cycle   3  Pass 0  IDiag  1:
 E= -693.549814129167     Delta-E=       -0.195532258067 Rises=F Damp=F
 DIIS: error= 5.14D-03 at cycle   3 NSaved=   3.
 NSaved= 3 IEnMin= 3 EnMin= -693.549814129167     IErMin= 3 ErrMin= 5.14D-03
 ErrMax= 5.14D-03 EMaxC= 1.00D-01 BMatC= 1.72D-02 BMatP= 1.96D-02
 IDIUse=3 WtCom= 9.49D-01 WtEn= 5.14D-02
 Coeff-Com: -0.227D-01 0.490D+00 0.533D+00
 Coeff-En:   0.000D+00 0.000D+00 0.100D+01
 Coeff:     -0.215D-01 0.464D+00 0.557D+00
 Gap=     0.156 Goal=   None    Shift=    0.000
 RMSDP=8.59D-04 MaxDP=2.69D-02 DE=-1.96D-01 OVMax= 6.22D-02

 Cycle   4  Pass 0  IDiag  1:
 E= -693.561344282782     Delta-E=       -0.011530153615 Rises=F Damp=F
 DIIS: error= 3.30D-03 at cycle   4 NSaved=   4.
 NSaved= 4 IEnMin= 4 EnMin= -693.561344282782     IErMin= 4 ErrMin= 3.30D-03
 ErrMax= 3.30D-03 EMaxC= 1.00D-01 BMatC= 6.19D-03 BMatP= 1.72D-02
 IDIUse=3 WtCom= 9.67D-01 WtEn= 3.30D-02
 Coeff-Com: -0.158D-01 0.108D+00 0.377D+00 0.531D+00
 Coeff-En:   0.000D+00 0.000D+00 0.301D+00 0.699D+00
 Coeff:     -0.152D-01 0.104D+00 0.375D+00 0.536D+00
 Gap=     0.159 Goal=   None    Shift=    0.000
 RMSDP=3.48D-04 MaxDP=9.45D-03 DE=-1.15D-02 OVMax= 2.50D-02

 Cycle   5  Pass 0  IDiag  1:
 E= -693.567482805136     Delta-E=       -0.006138522354 Rises=F Damp=F
 DIIS: error= 7.01D-04 at cycle   5 NSaved=   5.
 NSaved= 5 IEnMin= 5 EnMin= -693.567482805136     IErMin= 5 ErrMin= 7.01D-04
 ErrMax= 7.01D-04 EMaxC= 1.00D-01 BMatC= 2.21D-04 BMatP= 6.19D-03
 IDIUse=3 WtCom= 9.93D-01 WtEn= 7.01D-03
 Coeff-Com: -0.522D-02 0.231D-01 0.155D+00 0.272D+00 0.555D+00
 Coeff-En:   0.000D+00 0.000D+00 0.000D+00 0.000D+00 0.100D+01
 Coeff:     -0.518D-02 0.229D-01 0.154D+00 0.270D+00 0.558D+00
 Gap=     0.159 Goal=   None    Shift=    0.000
 RMSDP=7.07D-05 MaxDP=2.61D-03 DE=-6.14D-03 OVMax= 4.66D-03

 Cycle   6  Pass 0  IDiag  1:
 E= -693.567674879693     Delta-E=       -0.000192074556 Rises=F Damp=F
 DIIS: error= 1.98D-04 at cycle   6 NSaved=   6.
 NSaved= 6 IEnMin= 6 EnMin= -693.567674879693     IErMin= 6 ErrMin= 1.98D-04
 ErrMax= 1.98D-04 EMaxC= 1.00D-01 BMatC= 2.29D-05 BMatP= 2.21D-04
 IDIUse=3 WtCom= 9.98D-01 WtEn= 1.98D-03
 Coeff-Com: -0.114D-02 0.172D-02 0.463D-01 0.919D-01 0.303D+00 0.558D+00
 Coeff-En:   0.000D+00 0.000D+00 0.000D+00 0.000D+00 0.323D-01 0.968D+00
 Coeff:     -0.114D-02 0.172D-02 0.462D-01 0.917D-01 0.303D+00 0.559D+00
 Gap=     0.159 Goal=   None    Shift=    0.000
 RMSDP=2.31D-05 MaxDP=7.68D-04 DE=-1.92D-04 OVMax= 2.13D-03

 Cycle   7  Pass 0  IDiag  1:
 E= -693.567694164383     Delta-E=       -0.000019284690 Rises=F Damp=F
 DIIS: error= 9.46D-05 at cycle   7 NSaved=   7.
 NSaved= 7 IEnMin= 7 EnMin= -693.567694164383     IErMin= 7 ErrMin= 9.46D-05
 ErrMax= 9.46D-05 EMaxC= 1.00D-01 BMatC= 2.60D-06 BMatP= 2.29D-05
 IDIUse=1 WtCom= 1.00D+00 WtEn= 0.00D+00
 Coeff-Com: -0.362D-03-0.166D-03 0.199D-01 0.407D-01 0.157D+00 0.344D+00
 Coeff-Com:  0.438D+00
 Coeff:     -0.362D-03-0.166D-03 0.199D-01 0.407D-01 0.157D+00 0.344D+00
 Coeff:      0.438D+00
 Gap=     0.159 Goal=   None    Shift=    0.000
 RMSDP=8.24D-06 MaxDP=2.64D-04 DE=-1.93D-05 OVMax= 8.18D-04

 Initial convergence to 1.0D-05 achieved.  Increase integral accuracy.
 Cycle   8  Pass 1  IDiag  1:
 E= -693.567676227892     Delta-E=        0.000017936491 Rises=F Damp=F
 DIIS: error= 2.81D-05 at cycle   1 NSaved=   1.
 NSaved= 1 IEnMin= 1 EnMin= -693.567676227892     IErMin= 1 ErrMin= 2.81D-05
 ErrMax= 2.81D-05 EMaxC= 1.00D-01 BMatC= 2.52D-07 BMatP= 2.52D-07
 IDIUse=1 WtCom= 1.00D+00 WtEn= 0.00D+00
 Coeff-Com:  0.100D+01
 Coeff:      0.100D+01
 Gap=     0.159 Goal=   None    Shift=    0.000
 RMSDP=8.24D-06 MaxDP=2.64D-04 DE= 1.79D-05 OVMax= 4.99D-04

 Cycle   9  Pass 1  IDiag  1:
 E= -693.567675979578     Delta-E=        0.000000248314 Rises=F Damp=F
 DIIS: error= 4.51D-05 at cycle   2 NSaved=   2.
 NSaved= 2 IEnMin= 1 EnMin= -693.567676227892     IErMin= 1 ErrMin= 2.81D-05
 ErrMax= 4.51D-05 EMaxC= 1.00D-01 BMatC= 4.98D-07 BMatP= 2.52D-07
 IDIUse=1 WtCom= 1.00D+00 WtEn= 0.00D+00
 Coeff-Com:  0.600D+00 0.400D+00
 Coeff:      0.600D+00 0.400D+00
 Gap=     0.159 Goal=   None    Shift=    0.000
 RMSDP=3.79D-06 MaxDP=1.25D-04 DE= 2.48D-07 OVMax= 4.77D-04

 Cycle  10  Pass 1  IDiag  1:
 E= -693.567676505482     Delta-E=       -0.000000525904 Rises=F Damp=F
 DIIS: error= 1.24D-05 at cycle   3 NSaved=   3.
 NSaved= 3 IEnMin= 3 EnMin= -693.567676505482     IErMin= 3 ErrMin= 1.24D-05
 ErrMax= 1.24D-05 EMaxC= 1.00D-01 BMatC= 3.42D-08 BMatP= 2.52D-07
 IDIUse=1 WtCom= 1.00D+00 WtEn= 0.00D+00
 Coeff-Com:  0.486D-01 0.207D+00 0.744D+00
 Coeff:      0.486D-01 0.207D+00 0.744D+00
 Gap=     0.159 Goal=   None    Shift=    0.000
 RMSDP=1.02D-06 MaxDP=3.21D-05 DE=-5.26D-07 OVMax= 1.14D-04

 Cycle  11  Pass 1  IDiag  1:
 E= -693.567676539601     Delta-E=       -0.000000034119 Rises=F Damp=F
 DIIS: error= 2.94D-06 at cycle   4 NSaved=   4.
 NSaved= 4 IEnMin= 4 EnMin= -693.567676539601     IErMin= 4 ErrMin= 2.94D-06
 ErrMax= 2.94D-06 EMaxC= 1.00D-01 BMatC= 5.63D-09 BMatP= 3.42D-08
 IDIUse=1 WtCom= 1.00D+00 WtEn= 0.00D+00
 Coeff-Com: -0.114D-01 0.970D-01 0.442D+00 0.472D+00
 Coeff:     -0.114D-01 0.970D-01 0.442D+00 0.472D+00
 Gap=     0.159 Goal=   None    Shift=    0.000
 RMSDP=3.24D-07 MaxDP=1.04D-05 DE=-3.41D-08 OVMax= 3.05D-05

 Cycle  12  Pass 1  IDiag  1:
 E= -693.567676545067     Delta-E=       -0.000000005466 Rises=F Damp=F
 DIIS: error= 7.21D-07 at cycle   5 NSaved=   5.
 NSaved= 5 IEnMin= 5 EnMin= -693.567676545067     IErMin= 5 ErrMin= 7.21D-07
 ErrMax= 7.21D-07 EMaxC= 1.00D-01 BMatC= 2.11D-10 BMatP= 5.63D-09
 IDIUse=1 WtCom= 1.00D+00 WtEn= 0.00D+00
 Coeff-Com: -0.890D-02 0.395D-01 0.187D+00 0.244D+00 0.539D+00
 Coeff:     -0.890D-02 0.395D-01 0.187D+00 0.244D+00 0.539D+00
 Gap=     0.159 Goal=   None    Shift=    0.000
 RMSDP=8.18D-08 MaxDP=2.28D-06 DE=-5.47D-09 OVMax= 8.62D-06

 Cycle  13  Pass 1  IDiag  1:
 E= -693.567676545238     Delta-E=       -0.000000000171 Rises=F Damp=F
 DIIS: error= 3.79D-07 at cycle   6 NSaved=   6.
 NSaved= 6 IEnMin= 6 EnMin= -693.567676545238     IErMin= 6 ErrMin= 3.79D-07
 ErrMax= 3.79D-07 EMaxC= 1.00D-01 BMatC= 3.84D-11 BMatP= 2.11D-10
 IDIUse=1 WtCom= 1.00D+00 WtEn= 0.00D+00
 Coeff-Com: -0.435D-02 0.165D-01 0.767D-01 0.110D+00 0.337D+00 0.464D+00
 Coeff:     -0.435D-02 0.165D-01 0.767D-01 0.110D+00 0.337D+00 0.464D+00
 Gap=     0.159 Goal=   None    Shift=    0.000
 RMSDP=3.07D-08 MaxDP=1.37D-06 DE=-1.71D-10 OVMax= 3.19D-06

 Cycle  14  Pass 1  IDiag  1:
 E= -693.567676545274     Delta-E=       -0.000000000036 Rises=F Damp=F
 DIIS: error= 5.46D-08 at cycle   7 NSaved=   7.
 NSaved= 7 IEnMin= 7 EnMin= -693.567676545274     IErMin= 7 ErrMin= 5.46D-08
 ErrMax= 5.46D-08 EMaxC= 1.00D-01 BMatC= 1.44D-12 BMatP= 3.84D-11
 IDIUse=1 WtCom= 1.00D+00 WtEn= 0.00D+00
 Coeff-Com: -0.431D-03 0.112D-02 0.266D-02 0.682D-02 0.369D-01 0.173D+00
 Coeff-Com:  0.780D+00
 Coeff:     -0.431D-03 0.112D-02 0.266D-02 0.682D-02 0.369D-01 0.173D+00
 Coeff:      0.780D+00
 Gap=     0.159 Goal=   None    Shift=    0.000
 RMSDP=5.87D-09 MaxDP=1.60D-07 DE=-3.57D-11 OVMax= 5.03D-07

 SCF Done:  E(RB3LYP) =  -693.567676545     A.U. after   14 cycles
             Convg  =    0.5874D-08             -V/T =  2.0093
 KE= 6.872032087087D+02 PE=-3.686968235225D+03 EE= 1.268530461864D+03
 Leave Link  502 at Tue Sep 28 15:34:09 2021, MaxMem= 1342177280 cpu:     344.8
 (Enter /sw/target/amd/app/gaussian/Gaussian09RevA.02_gcc-4.9.2/g09/l508.exe)
 QCSCF skips out because SCF is already converged.
 Leave Link  508 at Tue Sep 28 15:34:27 2021, MaxMem= 1342177280 cpu:       0.0
 (Enter /sw/target/amd/app/gaussian/Gaussian09RevA.02_gcc-4.9.2/g09/l601.exe)
 Copying SCF densities to generalized density rwf, IOpCl= 0 IROHF=0.

 **********************************************************************

            Population analysis using the SCF density.

 **********************************************************************

 Orbital symmetries:
       Occupied  (A) (A) (A) (A) (A) (A) (A) (A) (A) (A) (A) (A)
                 (A) (A) (A) (A) (A) (A) (A) (A) (A) (A) (A) (A)
                 (A) (A) (A) (A) (A) (A) (A) (A) (A) (A) (A) (A)
                 (A) (A) (A) (A) (A) (A) (A) (A) (A) (A) (A) (A)
                 (A) (A) (A) (A) (A) (A) (A) (A) (A) (A)
       Virtual   (A) (A) (A) (A) (A) (A) (A) (A) (A) (A) (A) (A)
                 (A) (A) (A) (A) (A) (A) (A) (A) (A) (A) (A) (A)
                 (A) (A) (A) (A) (A) (A) (A) (A) (A) (A) (A) (A)
                 (A) (A) (A) (A) (A) (A) (A) (A) (A) (A) (A) (A)
                 (A) (A) (A) (A) (A) (A) (A) (A) (A) (A) (A) (A)
                 (A) (A) (A) (A) (A) (A) (A) (A) (A) (A) (A) (A)
                 (A) (A) (A) (A) (A) (A) (A) (A) (A) (A) (A) (A)
                 (A) (A) (A) (A) (A) (A) (A) (A) (A) (A) (A) (A)
                 (A) (A) (A) (A) (A) (A) (A) (A) (A) (A) (A) (A)
                 (A) (A) (A) (A) (A) (A) (A) (A) (A) (A) (A) (A)
                 (A) (A) (A) (A) (A) (A) (A) (A) (A) (A) (A) (A)
                 (A) (A) (A) (A) (A) (A) (A) (A) (A) (A) (A) (A)
                 (A) (A) (A) (A) (A) (A) (A) (A) (A) (A) (A) (A)
                 (A) (A) (A) (A) (A) (A) (A) (A) (A) (A) (A) (A)
                 (A) (A) (A) (A) (A) (A) (A) (A) (A) (A) (A) (A)
                 (A) (A) (A) (A) (A) (A) (A) (A) (A) (A) (A) (A)
                 (A) (A) (A) (A) (A) (A) (A) (A) (A) (A) (A) (A)
                 (A) (A) (A) (A) (A) (A) (A) (A) (A) (A)
 The electronic state is 1-A.
 Alpha  occ. eigenvalues --  -19.17376 -19.17066 -10.24393 -10.24206 -10.24101
 Alpha  occ. eigenvalues --  -10.23805 -10.18884 -10.18838 -10.18674 -10.18458
 Alpha  occ. eigenvalues --  -10.18068 -10.17934 -10.17727 -10.17670 -10.17573
 Alpha  occ. eigenvalues --  -10.17301  -1.05857  -1.05634  -0.86819  -0.81666
 Alpha  occ. eigenvalues --   -0.78515  -0.76699  -0.73771  -0.71792  -0.69066
 Alpha  occ. eigenvalues --   -0.68258  -0.63847  -0.60179  -0.59612  -0.57603
 Alpha  occ. eigenvalues --   -0.53679  -0.52125  -0.50781  -0.47946  -0.46756
 Alpha  occ. eigenvalues --   -0.46110  -0.45424  -0.44732  -0.43233  -0.42308
 Alpha  occ. eigenvalues --   -0.41200  -0.40304  -0.39938  -0.39359  -0.39037
 Alpha  occ. eigenvalues --   -0.38631  -0.37139  -0.36155  -0.34957  -0.34731
 Alpha  occ. eigenvalues --   -0.34134  -0.32407  -0.32236  -0.31670  -0.27435
 Alpha  occ. eigenvalues --   -0.26981  -0.21181  -0.19072
 Alpha virt. eigenvalues --   -0.03177   0.01513   0.04123   0.09383   0.09498
 Alpha virt. eigenvalues --    0.10660   0.11798   0.12133   0.12431   0.13274
 Alpha virt. eigenvalues --    0.14498   0.14770   0.15337   0.15562   0.16508
 Alpha virt. eigenvalues --    0.17076   0.18375   0.18769   0.19179   0.19244
 Alpha virt. eigenvalues --    0.20376   0.21655   0.22160   0.22670   0.24166
 Alpha virt. eigenvalues --    0.25749   0.26709   0.28935   0.30009   0.32559
 Alpha virt. eigenvalues --    0.34103   0.37171   0.38123   0.40945   0.47489
 Alpha virt. eigenvalues --    0.48637   0.49525   0.50513   0.51544   0.51718
 Alpha virt. eigenvalues --    0.52662   0.53734   0.54501   0.55421   0.56599
 Alpha virt. eigenvalues --    0.56753   0.57085   0.57858   0.58273   0.58561
 Alpha virt. eigenvalues --    0.59221   0.60355   0.61338   0.61542   0.62272
 Alpha virt. eigenvalues --    0.62518   0.63684   0.65023   0.65992   0.67180
 Alpha virt. eigenvalues --    0.69240   0.69962   0.70453   0.71096   0.74615
 Alpha virt. eigenvalues --    0.75193   0.76577   0.79423   0.79984   0.82811
 Alpha virt. eigenvalues --    0.83979   0.84219   0.84743   0.84956   0.86516
 Alpha virt. eigenvalues --    0.86973   0.88060   0.88464   0.88858   0.89543
 Alpha virt. eigenvalues --    0.90963   0.91626   0.91994   0.92510   0.93823
 Alpha virt. eigenvalues --    0.94108   0.96066   0.96923   0.97063   0.98303
 Alpha virt. eigenvalues --    0.99623   1.01587   1.03495   1.05137   1.05630
 Alpha virt. eigenvalues --    1.07890   1.10132   1.11609   1.12789   1.15271
 Alpha virt. eigenvalues --    1.16965   1.19476   1.21472   1.24558   1.25270
 Alpha virt. eigenvalues --    1.25820   1.26333   1.33110   1.35002   1.37877
 Alpha virt. eigenvalues --    1.39004   1.39892   1.40991   1.41097   1.42767
 Alpha virt. eigenvalues --    1.45104   1.47678   1.49075   1.49711   1.49981
 Alpha virt. eigenvalues --    1.50553   1.52028   1.52927   1.55727   1.63066
 Alpha virt. eigenvalues --    1.68594   1.69180   1.73954   1.76770   1.79990
 Alpha virt. eigenvalues --    1.81452   1.82081   1.83916   1.85486   1.86256
 Alpha virt. eigenvalues --    1.86823   1.87747   1.89808   1.92511   1.94258
 Alpha virt. eigenvalues --    1.94430   1.96461   1.96718   1.97964   1.98292
 Alpha virt. eigenvalues --    1.99187   2.01994   2.02415   2.04311   2.05312
 Alpha virt. eigenvalues --    2.05907   2.10244   2.10842   2.11729   2.14029
 Alpha virt. eigenvalues --    2.15412   2.17107   2.18800   2.20036   2.21059
 Alpha virt. eigenvalues --    2.22749   2.25585   2.27105   2.28003   2.28936
 Alpha virt. eigenvalues --    2.30963   2.33035   2.34219   2.35168   2.39118
 Alpha virt. eigenvalues --    2.39879   2.44362   2.45598   2.48758   2.50899
 Alpha virt. eigenvalues --    2.53118   2.56820   2.60420   2.61536   2.63320
 Alpha virt. eigenvalues --    2.65429   2.68674   2.70800   2.71961   2.74515
 Alpha virt. eigenvalues --    2.76231   2.79254   2.83024   2.85687   2.89259
 Alpha virt. eigenvalues --    2.91969   2.99521   3.01201   3.06247   3.17862
 Alpha virt. eigenvalues --    3.18189   3.41853   3.52170   4.05931   4.07736
 Alpha virt. eigenvalues --    4.10356   4.12517   4.13016   4.18319   4.21164
 Alpha virt. eigenvalues --    4.27405   4.28741   4.32492   4.35292   4.41241
 Alpha virt. eigenvalues --    4.51903   4.58232   4.67303   4.88266
          Condensed to atoms (all electrons):
              1          2          3          4          5          6
     1  C    4.894452   0.248182  -0.043317  -0.006514   0.000426  -0.000046
     2  O    0.248182   8.206554   0.271585  -0.060810   0.003446   0.000402
     3  C   -0.043317   0.271585   4.551160   0.425030   0.013870  -0.036479
     4  C   -0.006514  -0.060810   0.425030   5.157230   0.455246  -0.004553
     5  C    0.000426   0.003446   0.013870   0.455246   5.163867   0.442178
     6  C   -0.000046   0.000402  -0.036479  -0.004553   0.442178   4.694076
     7  C   -0.000039   0.002038   0.008385  -0.041373  -0.019227   0.487866
     8  C    0.004114  -0.049713   0.505946  -0.059125  -0.076569  -0.033341
     9  C    0.000004  -0.000093   0.007784  -0.000595   0.018956  -0.038327
    10  C   -0.000000   0.000000  -0.000237   0.000058  -0.000817  -0.036132
    11  C    0.000000  -0.000000   0.000048  -0.000352   0.008651  -0.008319
    12  C   -0.000000   0.000001  -0.000865   0.009745  -0.106012   0.437392
    13  O    0.000000  -0.000000   0.000000  -0.000000   0.000001   0.000374
    14  C    0.000000  -0.000000  -0.000000   0.000000  -0.000000  -0.000003
    15  C   -0.000000  -0.000000   0.000000  -0.000000  -0.000000   0.000000
    16  C   -0.000000  -0.000000   0.000000  -0.000000   0.000000   0.000006
    17  H    0.384347  -0.031339   0.003281   0.000155   0.000002   0.000000
    18  H    0.364058  -0.035813  -0.005168   0.004712  -0.000157  -0.000002
    19  H    0.365027  -0.036402  -0.004727   0.004398  -0.000138  -0.000000
    20  H    0.005721  -0.006988  -0.044474   0.351041  -0.034457   0.002477
    21  H   -0.000006  -0.000047   0.002865  -0.041474   0.352290  -0.036888
    22  H   -0.000224   0.000555  -0.038884   0.007706  -0.000073   0.005271
    23  H    0.000000  -0.000003   0.000155   0.000009  -0.000218   0.005133
    24  H   -0.000000   0.000000  -0.000000   0.000003  -0.000167   0.003374
    25  H    0.000000  -0.000000   0.000010   0.000188  -0.008525  -0.040780
    26  H   -0.000000   0.000000  -0.000000   0.000000   0.000000  -0.000005
    27  H   -0.000000   0.000000  -0.000000   0.000000   0.000000   0.000000
    28  H    0.000000   0.000000   0.000000  -0.000000   0.000000   0.000000
    29  H   -0.000000   0.000000  -0.000000   0.000000  -0.000000  -0.000000
    30  H   -0.000000   0.000000  -0.000000   0.000000  -0.000000  -0.000000
    31  H    0.000000   0.000000  -0.000000  -0.000000  -0.000000   0.000000
    32  H    0.000000   0.000000  -0.000000   0.000000   0.000000   0.000004
              7          8          9         10         11         12
     1  C   -0.000039   0.004114   0.000004  -0.000000   0.000000  -0.000000
     2  O    0.002038  -0.049713  -0.000093   0.000000  -0.000000   0.000001
     3  C    0.008385   0.505946   0.007784  -0.000237   0.000048  -0.000865
     4  C   -0.041373  -0.059125  -0.000595   0.000058  -0.000352   0.009745
     5  C   -0.019227  -0.076569   0.018956  -0.000817   0.008651  -0.106012
     6  C    0.487866  -0.033341  -0.038327  -0.036132  -0.008319   0.437392
     7  C    4.670787   0.430338   0.393248   0.019956  -0.034910  -0.025398
     8  C    0.430338   5.281555  -0.086487   0.007068  -0.000301   0.017264
     9  C    0.393248  -0.086487   5.416935   0.424511  -0.055888  -0.080707
    10  C    0.019956   0.007068   0.424511   4.555457   0.498933  -0.002039
    11  C   -0.034910  -0.000301  -0.055888   0.498933   5.029317   0.492989
    12  C   -0.025398   0.017264  -0.080707  -0.002039   0.492989   5.149697
    13  O    0.002701  -0.000059  -0.053657   0.261220  -0.050194   0.003023
    14  C    0.001218  -0.000027  -0.005759  -0.030518   0.003445  -0.000133
    15  C   -0.000014   0.000000   0.000193   0.003040  -0.000255   0.000004
    16  C   -0.000105   0.000000  -0.001219  -0.003399  -0.000149   0.000009
    17  H    0.000001  -0.000089  -0.000000   0.000000   0.000000  -0.000000
    18  H    0.000006   0.000079  -0.000000  -0.000000   0.000000   0.000000
    19  H    0.000004   0.000063  -0.000000  -0.000000   0.000000   0.000000
    20  H    0.001041   0.004181   0.000011  -0.000000   0.000003  -0.000194
    21  H    0.004320   0.000723  -0.000226   0.000015   0.000156  -0.008210
    22  H   -0.042270   0.341153  -0.010233   0.000221   0.000008  -0.000153
    23  H   -0.034525  -0.009390   0.343027  -0.048624   0.004537   0.000555
    24  H    0.000445   0.000009   0.007468  -0.036560   0.343310  -0.037701
    25  H    0.004611  -0.000203   0.000324   0.003921  -0.042218   0.355265
    26  H   -0.000019  -0.000000   0.006599  -0.007610   0.000328  -0.000002
    27  H    0.000000  -0.000000   0.000019  -0.000054  -0.000004  -0.000000
    28  H   -0.000000   0.000000   0.000016   0.000298  -0.000037  -0.000000
    29  H   -0.000000   0.000000   0.000005  -0.000089   0.000003  -0.000000
    30  H   -0.000000   0.000000   0.000036   0.000196   0.000002  -0.000000
    31  H    0.000002   0.000000  -0.000126  -0.000029   0.000003  -0.000000
    32  H   -0.000097  -0.000022   0.003492   0.003318  -0.000163  -0.000014
             13         14         15         16         17         18
     1  C    0.000000   0.000000  -0.000000  -0.000000   0.384347   0.364058
     2  O   -0.000000  -0.000000  -0.000000  -0.000000  -0.031339  -0.035813
     3  C    0.000000  -0.000000   0.000000   0.000000   0.003281  -0.005168
     4  C   -0.000000   0.000000  -0.000000  -0.000000   0.000155   0.004712
     5  C    0.000001  -0.000000  -0.000000   0.000000   0.000002  -0.000157
     6  C    0.000374  -0.000003   0.000000   0.000006   0.000000  -0.000002
     7  C    0.002701   0.001218  -0.000014  -0.000105   0.000001   0.000006
     8  C   -0.000059  -0.000027   0.000000   0.000000  -0.000089   0.000079
     9  C   -0.053657  -0.005759   0.000193  -0.001219  -0.000000  -0.000000
    10  C    0.261220  -0.030518   0.003040  -0.003399   0.000000  -0.000000
    11  C   -0.050194   0.003445  -0.000255  -0.000149   0.000000   0.000000
    12  C    0.003023  -0.000133   0.000004   0.000009  -0.000000   0.000000
    13  O    8.287219   0.215561  -0.048786  -0.047322  -0.000000  -0.000000
    14  C    0.215561   4.711257   0.387782   0.374595  -0.000000   0.000000
    15  C   -0.048786   0.387782   5.131968  -0.064186  -0.000000   0.000000
    16  C   -0.047322   0.374595  -0.064186   5.165445   0.000000  -0.000000
    17  H   -0.000000  -0.000000  -0.000000   0.000000   0.544690  -0.033878
    18  H   -0.000000   0.000000   0.000000  -0.000000  -0.033878   0.598543
    19  H    0.000000  -0.000000  -0.000000   0.000000  -0.034136  -0.046305
    20  H    0.000000   0.000000   0.000000  -0.000000  -0.000114   0.001822
    21  H   -0.000000  -0.000000   0.000000  -0.000000  -0.000000   0.000002
    22  H   -0.000001  -0.000002   0.000000  -0.000003  -0.000028   0.000032
    23  H   -0.006049   0.001986  -0.000159   0.000149  -0.000000  -0.000000
    24  H    0.000291  -0.000295  -0.000020   0.000014  -0.000000   0.000000
    25  H   -0.000060   0.000002  -0.000000  -0.000000  -0.000000   0.000000
    26  H   -0.034445   0.366228  -0.050544  -0.059981   0.000000   0.000000
    27  H    0.000160  -0.027903   0.369697  -0.008583   0.000000   0.000000
    28  H    0.001740  -0.027097   0.365864   0.005813   0.000000  -0.000000
    29  H    0.003134  -0.026875   0.360261   0.000503   0.000000  -0.000000
    30  H   -0.000080  -0.028702  -0.008072   0.370664   0.000000   0.000000
    31  H    0.003431  -0.024408  -0.000922   0.353367  -0.000000   0.000000
    32  H   -0.003136  -0.027673   0.005326   0.368800  -0.000000   0.000000
             19         20         21         22         23         24
     1  C    0.365027   0.005721  -0.000006  -0.000224   0.000000  -0.000000
     2  O   -0.036402  -0.006988  -0.000047   0.000555  -0.000003   0.000000
     3  C   -0.004727  -0.044474   0.002865  -0.038884   0.000155  -0.000000
     4  C    0.004398   0.351041  -0.041474   0.007706   0.000009   0.000003
     5  C   -0.000138  -0.034457   0.352290  -0.000073  -0.000218  -0.000167
     6  C   -0.000000   0.002477  -0.036888   0.005271   0.005133   0.003374
     7  C    0.000004   0.001041   0.004320  -0.042270  -0.034525   0.000445
     8  C    0.000063   0.004181   0.000723   0.341153  -0.009390   0.000009
     9  C   -0.000000   0.000011  -0.000226  -0.010233   0.343027   0.007468
    10  C   -0.000000  -0.000000   0.000015   0.000221  -0.048624  -0.036560
    11  C    0.000000   0.000003   0.000156   0.000008   0.004537   0.343310
    12  C    0.000000  -0.000194  -0.008210  -0.000153   0.000555  -0.037701
    13  O    0.000000   0.000000  -0.000000  -0.000001  -0.006049   0.000291
    14  C   -0.000000   0.000000  -0.000000  -0.000002   0.001986  -0.000295
    15  C   -0.000000   0.000000   0.000000   0.000000  -0.000159  -0.000020
    16  C    0.000000  -0.000000  -0.000000  -0.000003   0.000149   0.000014
    17  H   -0.034136  -0.000114  -0.000000  -0.000028  -0.000000  -0.000000
    18  H   -0.046305   0.001822   0.000002   0.000032  -0.000000   0.000000
    19  H    0.598395   0.001696   0.000001   0.000031  -0.000000   0.000000
    20  H    0.001696   0.595091  -0.005224  -0.000178  -0.000000  -0.000000
    21  H    0.000001  -0.005224   0.595325   0.000018   0.000003  -0.000011
    22  H    0.000031  -0.000178   0.000018   0.601204   0.006855  -0.000000
    23  H   -0.000000  -0.000000   0.000003   0.006855   0.600642  -0.000175
    24  H    0.000000  -0.000000  -0.000011  -0.000000  -0.000175   0.592424
    25  H    0.000000  -0.000012   0.006150   0.000003   0.000019  -0.005937
    26  H    0.000000   0.000000   0.000000  -0.000001   0.005132   0.000041
    27  H   -0.000000   0.000000  -0.000000  -0.000000   0.000003   0.000011
    28  H    0.000000  -0.000000   0.000000  -0.000000   0.000007   0.000008
    29  H    0.000000  -0.000000   0.000000   0.000000   0.000020   0.000000
    30  H   -0.000000   0.000000   0.000000   0.000000  -0.000022   0.000008
    31  H   -0.000000  -0.000000   0.000000   0.000000   0.000079  -0.000000
    32  H   -0.000000  -0.000000   0.000000  -0.000000   0.000821  -0.000004
             25         26         27         28         29         30
     1  C    0.000000  -0.000000  -0.000000   0.000000  -0.000000  -0.000000
     2  O   -0.000000   0.000000   0.000000   0.000000   0.000000   0.000000
     3  C    0.000010  -0.000000  -0.000000   0.000000  -0.000000  -0.000000
     4  C    0.000188   0.000000   0.000000  -0.000000   0.000000   0.000000
     5  C   -0.008525   0.000000   0.000000   0.000000  -0.000000  -0.000000
     6  C   -0.040780  -0.000005   0.000000   0.000000  -0.000000  -0.000000
     7  C    0.004611  -0.000019   0.000000  -0.000000  -0.000000  -0.000000
     8  C   -0.000203  -0.000000  -0.000000   0.000000   0.000000   0.000000
     9  C    0.000324   0.006599   0.000019   0.000016   0.000005   0.000036
    10  C    0.003921  -0.007610  -0.000054   0.000298  -0.000089   0.000196
    11  C   -0.042218   0.000328  -0.000004  -0.000037   0.000003   0.000002
    12  C    0.355265  -0.000002  -0.000000  -0.000000  -0.000000  -0.000000
    13  O   -0.000060  -0.034445   0.000160   0.001740   0.003134  -0.000080
    14  C    0.000002   0.366228  -0.027903  -0.027097  -0.026875  -0.028702
    15  C   -0.000000  -0.050544   0.369697   0.365864   0.360261  -0.008072
    16  C   -0.000000  -0.059981  -0.008583   0.005813   0.000503   0.370664
    17  H   -0.000000   0.000000   0.000000   0.000000   0.000000   0.000000
    18  H    0.000000   0.000000   0.000000  -0.000000  -0.000000   0.000000
    19  H    0.000000   0.000000  -0.000000   0.000000   0.000000  -0.000000
    20  H   -0.000012   0.000000   0.000000  -0.000000  -0.000000   0.000000
    21  H    0.006150   0.000000  -0.000000   0.000000   0.000000   0.000000
    22  H    0.000003  -0.000001  -0.000000  -0.000000   0.000000   0.000000
    23  H    0.000019   0.005132   0.000003   0.000007   0.000020  -0.000022
    24  H   -0.005937   0.000041   0.000011   0.000008   0.000000   0.000008
    25  H    0.597817   0.000000  -0.000000  -0.000000   0.000000   0.000000
    26  H    0.000000   0.632950   0.005836  -0.004092  -0.001819   0.005488
    27  H   -0.000000   0.005836   0.559967  -0.030552  -0.028421   0.005818
    28  H   -0.000000  -0.004092  -0.030552   0.558371  -0.026174   0.000009
    29  H    0.000000  -0.001819  -0.028421  -0.026174   0.573178   0.000094
    30  H    0.000000   0.005488   0.005818   0.000009   0.000094   0.557699
    31  H    0.000000   0.000685   0.000154  -0.000110   0.001007  -0.028142
    32  H   -0.000000  -0.004416  -0.000040  -0.000198  -0.000024  -0.030515
             31         32
     1  C    0.000000   0.000000
     2  O    0.000000   0.000000
     3  C   -0.000000  -0.000000
     4  C   -0.000000   0.000000
     5  C   -0.000000   0.000000
     6  C    0.000000   0.000004
     7  C    0.000002  -0.000097
     8  C    0.000000  -0.000022
     9  C   -0.000126   0.003492
    10  C   -0.000029   0.003318
    11  C    0.000003  -0.000163
    12  C   -0.000000  -0.000014
    13  O    0.003431  -0.003136
    14  C   -0.024408  -0.027673
    15  C   -0.000922   0.005326
    16  C    0.353367   0.368800
    17  H   -0.000000  -0.000000
    18  H    0.000000   0.000000
    19  H   -0.000000  -0.000000
    20  H   -0.000000  -0.000000
    21  H    0.000000   0.000000
    22  H    0.000000  -0.000000
    23  H    0.000079   0.000821
    24  H   -0.000000  -0.000004
    25  H    0.000000  -0.000000
    26  H    0.000685  -0.004416
    27  H    0.000154  -0.000040
    28  H   -0.000110  -0.000198
    29  H    0.001007  -0.000024
    30  H   -0.028142  -0.030515
    31  H    0.579368  -0.027496
    32  H   -0.027496   0.552483
 Mulliken atomic charges:
              1
     1  C   -0.216183
     2  O   -0.511556
     3  C    0.384033
     4  C   -0.200724
     5  C   -0.212571
     6  C    0.156322
     7  C    0.171010
     8  C   -0.277166
     9  C   -0.289309
    10  C    0.387894
    11  C   -0.188941
    12  C   -0.204515
    13  O   -0.535066
    14  C    0.137323
    15  C   -0.451177
    16  C   -0.454419
    17  H    0.167108
    18  H    0.152069
    19  H    0.152094
    20  H    0.128558
    21  H    0.130216
    22  H    0.128993
    23  H    0.130034
    24  H    0.133465
    25  H    0.129425
    26  H    0.139647
    27  H    0.153891
    28  H    0.156135
    29  H    0.145198
    30  H    0.155520
    31  H    0.143138
    32  H    0.159556
 Sum of Mulliken atomic charges =  -0.00000
 Mulliken charges with hydrogens summed into heavy atoms:
              1
     1  C    0.255087
     2  O   -0.511556
     3  C    0.384033
     4  C   -0.072166
     5  C   -0.082355
     6  C    0.156322
     7  C    0.171010
     8  C   -0.148173
     9  C   -0.159275
    10  C    0.387894
    11  C   -0.055476
    12  C   -0.075090
    13  O   -0.535066
    14  C    0.276969
    15  C    0.004046
    16  C    0.003794
 Sum of Mulliken charges with hydrogens summed into heavy atoms =  -0.00000
 Electronic spatial extent (au):  <R**2>=           5119.1622
 Charge=             -0.0000 electrons
 Dipole moment (field-independent basis, Debye):
    X=             -0.9097    Y=             -0.4598    Z=             -0.0043  Tot=              1.0193
 Quadrupole moment (field-independent basis, Debye-Ang):
   XX=            -75.0537   YY=            -89.0854   ZZ=            -97.6157
   XY=             -5.4573   XZ=             -0.2782   YZ=              0.7183
 Traceless Quadrupole moment (field-independent basis, Debye-Ang):
   XX=             12.1979   YY=             -1.8338   ZZ=            -10.3641
   XY=             -5.4573   XZ=             -0.2782   YZ=              0.7183
 Octapole moment (field-independent basis, Debye-Ang**2):
  XXX=            -83.0348  YYY=              7.6429  ZZZ=             -1.6981  XYY=              3.4828
  XXY=            -25.3873  XXZ=             -1.2114  XZZ=              4.0338  YZZ=             -6.2607
  YYZ=              0.3009  XYZ=              0.9858
 Hexadecapole moment (field-independent basis, Debye-Ang**3):
 XXXX=          -4760.3919 YYYY=          -1051.9170 ZZZZ=           -240.6526 XXXY=             68.1092
 XXXZ=             11.8141 YYYX=             11.3722 YYYZ=              7.9024 ZZZX=             -1.3271
 ZZZY=             -0.5122 XXYY=          -1044.3194 XXZZ=           -953.7942 YYZZ=           -241.2167
 XXYZ=              9.0942 YYXZ=             -3.3364 ZZXY=             13.2808
 N-N= 1.037666888108D+03 E-N=-3.686968239694D+03  KE= 6.872032087087D+02
 No NMR shielding tensors so no spin-rotation constants.
 Leave Link  601 at Tue Sep 28 15:34:51 2021, MaxMem= 1342177280 cpu:       1.9
 (Enter /sw/target/amd/app/gaussian/Gaussian09RevA.02_gcc-4.9.2/g09/l701.exe)
 Compute integral first derivatives.
 ... and contract with generalized density number  0.
 Leave Link  701 at Tue Sep 28 15:34:53 2021, MaxMem= 1342177280 cpu:       1.7
 (Enter /sw/target/amd/app/gaussian/Gaussian09RevA.02_gcc-4.9.2/g09/l702.exe)
 L702 exits ... SP integral derivatives will be done elsewhere.
 Leave Link  702 at Tue Sep 28 15:34:53 2021, MaxMem= 1342177280 cpu:       0.1
 (Enter /sw/target/amd/app/gaussian/Gaussian09RevA.02_gcc-4.9.2/g09/l703.exe)
 Compute integral first derivatives, UseDBF=F ICtDFT=           0.
 Integral derivatives from FoFDir, PRISM(SPDF).
 Calling FoFJK, ICntrl=      2127 FMM=F ISym2X=0 I1Cent= 0 IOpClX= 0 NMat=1 NMatS=1 NMatT=0.
 FoFCou: FMM=F IPFlag=           0 FMFlag=      100000 FMFlg1=         800
         NFxFlg=           0 DoJE=F BraDBF=F KetDBF=F FulRan=T
         Omega=  0.000000  0.000000  1.000000  0.000000  0.000000 ICntrl=    2127 IOpCl=  0
         NMat0=    1 NMatS0=    1 NMatT0=    0 NMatD0=    1 NMtDS0=    0 NMtDT0=    0
         I1Cent=           0 NGrid=           0.
 Symmetry not used in FoFCou.
 Leave Link  703 at Tue Sep 28 15:36:10 2021, MaxMem= 1342177280 cpu:     132.7
 (Enter /sw/target/amd/app/gaussian/Gaussian09RevA.02_gcc-4.9.2/g09/l716.exe)
 Dipole        =-3.57886136D-01-1.80883402D-01-1.69538556D-03
 ***** Axes restored to original set *****
 -------------------------------------------------------------------
 Center     Atomic                   Forces (Hartrees/Bohr)
 Number     Number              X              Y              Z
 -------------------------------------------------------------------
      1        6           0.000619935    0.001354984    0.004895815
      2        8          -0.007424281    0.003460725   -0.002755718
      3        6           0.023761345   -0.007696944    0.020482017
      4        6          -0.007491089   -0.005666192   -0.029123408
      5        6          -0.013036141    0.013137269    0.014592905
      6        6          -0.012124542    0.002582355   -0.014663540
      7        6           0.002720578    0.002837164    0.013114653
      8        6          -0.009130880    0.007516676    0.004382624
      9        6           0.018568013   -0.012283026   -0.001511659
     10        6           0.002009520    0.007273750    0.020205673
     11        6          -0.026380367    0.007292502   -0.027209097
     12        6           0.027608947   -0.019291064   -0.003042001
     13        8          -0.006226281    0.000135292    0.005082995
     14        6           0.016169944   -0.005128847    0.002873576
     15        6          -0.003443436   -0.006671518   -0.005788360
     16        6          -0.001903140    0.008088777   -0.000663989
     17        1           0.003951706   -0.001916736    0.001017159
     18        1          -0.001305318    0.000364057   -0.003537789
     19        1          -0.002313998   -0.000311748   -0.003390888
     20        1           0.000004633    0.000705220    0.001682252
     21        1           0.000982894   -0.000653585   -0.000030689
     22        1          -0.001005064    0.000276564   -0.001131289
     23        1           0.000359147   -0.000255679   -0.000106953
     24        1           0.001212527    0.000065203    0.002440971
     25        1          -0.001158878    0.000892586    0.000487247
     26        1          -0.004908879    0.003627457   -0.002982105
     27        1           0.001155055    0.001611368   -0.000045759
     28        1          -0.000355026   -0.000062278    0.001623791
     29        1           0.000070466    0.001122862    0.000013984
     30        1          -0.000093968   -0.002888044    0.000465308
     31        1           0.000223002   -0.000181206    0.000622908
     32        1          -0.001116426    0.000662057    0.001999363
 -------------------------------------------------------------------
 Cartesian Forces:  Max     0.029123408 RMS     0.008900577
 Leave Link  716 at Tue Sep 28 15:36:12 2021, MaxMem= 1342177280 cpu:       0.1
 (Enter /sw/target/amd/app/gaussian/Gaussian09RevA.02_gcc-4.9.2/g09/l103.exe)

 GradGradGradGradGradGradGradGradGradGradGradGradGradGradGradGradGradGrad
 Berny optimization.
 Internal  Forces:  Max     0.021984397 RMS     0.004519588
 Search for a local minimum.
 Step number   1 out of a maximum of  171
 All quantities printed in internal units (Hartrees-Bohrs-Radians)
 RMS Force = .45196D-02 SwitMx=.10000D-02 MixMth= 1
 Mixed Optimization -- RFO/linear search
 Second derivative matrix not updated -- first step.
     Eigenvalues ---    0.00419   0.00429   0.01267   0.01410   0.02011
     Eigenvalues ---    0.02020   0.02025   0.02057   0.02070   0.02079
     Eigenvalues ---    0.02080   0.02085   0.02086   0.02106   0.02106
     Eigenvalues ---    0.02130   0.02132   0.02139   0.02143   0.02148
     Eigenvalues ---    0.02170   0.04674   0.05079   0.05488   0.05505
     Eigenvalues ---    0.05606   0.05659   0.07020   0.10001   0.10554
     Eigenvalues ---    0.15999   0.15999   0.16000   0.16000   0.16000
     Eigenvalues ---    0.16000   0.16000   0.16000   0.16000   0.16000
     Eigenvalues ---    0.16000   0.16000   0.16000   0.16000   0.16000
     Eigenvalues ---    0.16171   0.19544   0.22267   0.22590   0.23421
     Eigenvalues ---    0.23606   0.24466   0.24775   0.25000   0.25000
     Eigenvalues ---    0.25000   0.25000   0.29772   0.29847   0.34150
     Eigenvalues ---    0.34172   0.34236   0.34245   0.34265   0.34267
     Eigenvalues ---    0.34277   0.34281   0.34282   0.34350   0.35041
     Eigenvalues ---    0.35100   0.35133   0.35194   0.35428   0.35521
     Eigenvalues ---    0.39012   0.40685   0.41036   0.41642   0.42265
     Eigenvalues ---    0.43636   0.44783   0.45296   0.45374   0.45685
     Eigenvalues ---    0.45811   0.46289   0.46571   0.51225   0.51233
     Eigenvalues --- 1000.000001000.000001000.000001000.000001000.00000
[...]
     3    C    1  S      Ryd( 3S)     0.00147
     4    C    1  S      Ryd( 4S)     0.00003
     5    C    1  px     Val( 2p)     0.75023
     6    C    1  px     Ryd( 3p)     0.00268
     7    C    1  py     Val( 2p)     1.22435
     8    C    1  py     Ryd( 3p)     0.00292
     9    C    1  pz     Val( 2p)     1.22984
    10    C    1  pz     Ryd( 3p)     0.00029
    11    C    1  dxy    Ryd( 3d)     0.00150
    12    C    1  dxz    Ryd( 3d)     0.00139
    13    C    1  dyz    Ryd( 3d)     0.00094
    14    C    1  dx2y2  Ryd( 3d)     0.00156
    15    C    1  dz2    Ryd( 3d)     0.00111

    16    O    2  S      Cor( 1S)     1.99975
    17    O    2  S      Val( 2S)     1.59223
    18    O    2  S      Ryd( 3S)     0.00080
    19    O    2  S      Ryd( 4S)     0.00006
    20    O    2  px     Val( 2p)     1.39327
    21    O    2  px     Ryd( 3p)     0.00081
    22    O    2  py     Val( 2p)     1.70632
    23    O    2  py     Ryd( 3p)     0.00237
    24    O    2  pz     Val( 2p)     1.78074
    25    O    2  pz     Ryd( 3p)     0.00227
    26    O    2  dxy    Ryd( 3d)     0.00129
    27    O    2  dxz    Ryd( 3d)     0.00032
    28    O    2  dyz    Ryd( 3d)     0.00164
    29    O    2  dx2y2  Ryd( 3d)     0.00128
    30    O    2  dz2    Ryd( 3d)     0.00077

    31    C    3  S      Cor( 1S)     1.99880
    32    C    3  S      Val( 2S)     0.83747
    33    C    3  S      Ryd( 3S)     0.00160
    34    C    3  S      Ryd( 4S)     0.00013
    35    C    3  px     Val( 2p)     0.92785
    36    C    3  px     Ryd( 3p)     0.00422
    37    C    3  py     Val( 2p)     0.90807
    38    C    3  py     Ryd( 3p)     0.00898
    39    C    3  pz     Val( 2p)     0.96710
    40    C    3  pz     Ryd( 3p)     0.00121
    41    C    3  dxy    Ryd( 3d)     0.00175
    42    C    3  dxz    Ryd( 3d)     0.00146
    43    C    3  dyz    Ryd( 3d)     0.00161
    44    C    3  dx2y2  Ryd( 3d)     0.00132
    45    C    3  dz2    Ryd( 3d)     0.00050

    46    C    4  S      Cor( 1S)     1.99904
    47    C    4  S      Val( 2S)     0.95256
    48    C    4  S      Ryd( 3S)     0.00067
    49    C    4  S      Ryd( 4S)     0.00005
    50    C    4  px     Val( 2p)     1.19493
    51    C    4  px     Ryd( 3p)     0.00361
    52    C    4  py     Val( 2p)     1.06929
    53    C    4  py     Ryd( 3p)     0.00439
    54    C    4  pz     Val( 2p)     1.13122
    55    C    4  pz     Ryd( 3p)     0.00282
    56    C    4  dxy    Ryd( 3d)     0.00055
    57    C    4  dxz    Ryd( 3d)     0.00044
    58    C    4  dyz    Ryd( 3d)     0.00065
    59    C    4  dx2y2  Ryd( 3d)     0.00078
    60    C    4  dz2    Ryd( 3d)     0.00046

    61    C    5  S      Cor( 1S)     1.99907
    62    C    5  S      Val( 2S)     0.94038
    63    C    5  S      Ryd( 3S)     0.00075
    64    C    5  S      Ryd( 4S)     0.00006
    65    C    5  px     Val( 2p)     1.05316
    66    C    5  px     Ryd( 3p)     0.00457
    67    C    5  py     Val( 2p)     1.18054
    68    C    5  py     Ryd( 3p)     0.00463
    69    C    5  pz     Val( 2p)     1.03298
    70    C    5  pz     Ryd( 3p)     0.00403
    71    C    5  dxy    Ryd( 3d)     0.00066
    72    C    5  dxz    Ryd( 3d)     0.00062
    73    C    5  dyz    Ryd( 3d)     0.00037
    74    C    5  dx2y2  Ryd( 3d)     0.00079
    75    C    5  dz2    Ryd( 3d)     0.00043

    76    C    6  S      Cor( 1S)     1.99902
    77    C    6  S      Val( 2S)     0.86647
    78    C    6  S      Ryd( 3S)     0.00044
    79    C    6  S      Ryd( 4S)     0.00006
    80    C    6  px     Val( 2p)     1.09933
    81    C    6  px     Ryd( 3p)     0.00486
    82    C    6  py     Val( 2p)     1.07475
    83    C    6  py     Ryd( 3p)     0.00545
    84    C    6  pz     Val( 2p)     1.01800
    85    C    6  pz     Ryd( 3p)     0.00065
    86    C    6  dxy    Ryd( 3d)     0.00065
    87    C    6  dxz    Ryd( 3d)     0.00110
    88    C    6  dyz    Ryd( 3d)     0.00049
    89    C    6  dx2y2  Ryd( 3d)     0.00073
    90    C    6  dz2    Ryd( 3d)     0.00034

    91    C    7  S      Cor( 1S)     1.99904
    92    C    7  S      Val( 2S)     0.86682
    93    C    7  S      Ryd( 3S)     0.00060
    94    C    7  S      Ryd( 4S)     0.00007
    95    C    7  px     Val( 2p)     1.08094
    96    C    7  px     Ryd( 3p)     0.00506
    97    C    7  py     Val( 2p)     1.08671
    98    C    7  py     Ryd( 3p)     0.00597
    99    C    7  pz     Val( 2p)     1.00487
   100    C    7  pz     Ryd( 3p)     0.00071
   101    C    7  dxy    Ryd( 3d)     0.00071
   102    C    7  dxz    Ryd( 3d)     0.00098
   103    C    7  dyz    Ryd( 3d)     0.00057
   104    C    7  dx2y2  Ryd( 3d)     0.00069
   105    C    7  dz2    Ryd( 3d)     0.00035

   106    C    8  S      Cor( 1S)     1.99899
   107    C    8  S      Val( 2S)     0.95269
   108    C    8  S      Ryd( 3S)     0.00089
   109    C    8  S      Ryd( 4S)     0.00006
   110    C    8  px     Val( 2p)     1.05636
   111    C    8  px     Ryd( 3p)     0.00421
   112    C    8  py     Val( 2p)     1.18341
   113    C    8  py     Ryd( 3p)     0.00453
   114    C    8  pz     Val( 2p)     1.02039
   115    C    8  pz     Ryd( 3p)     0.00389
   116    C    8  dxy    Ryd( 3d)     0.00056
   117    C    8  dxz    Ryd( 3d)     0.00063
   118    C    8  dyz    Ryd( 3d)     0.00034
   119    C    8  dx2y2  Ryd( 3d)     0.00086
   120    C    8  dz2    Ryd( 3d)     0.00045

   121    C    9  S      Cor( 1S)     1.99898
   122    C    9  S      Val( 2S)     0.94854
   123    C    9  S      Ryd( 3S)     0.00065
   124    C    9  S      Ryd( 4S)     0.00006
   125    C    9  px     Val( 2p)     1.06560
   126    C    9  px     Ryd( 3p)     0.00314
   127    C    9  py     Val( 2p)     1.18781
   128    C    9  py     Ryd( 3p)     0.00341
   129    C    9  pz     Val( 2p)     1.05823
   130    C    9  pz     Ryd( 3p)     0.00353
   131    C    9  dxy    Ryd( 3d)     0.00073
   132    C    9  dxz    Ryd( 3d)     0.00057
   133    C    9  dyz    Ryd( 3d)     0.00039
   134    C    9  dx2y2  Ryd( 3d)     0.00067
   135    C    9  dz2    Ryd( 3d)     0.00045

   136    C   10  S      Cor( 1S)     1.99882
   137    C   10  S      Val( 2S)     0.83323
   138    C   10  S      Ryd( 3S)     0.00119
   139    C   10  S      Ryd( 4S)     0.00014
   140    C   10  px     Val( 2p)     0.76672
   141    C   10  px     Ryd( 3p)     0.00888
   142    C   10  py     Val( 2p)     1.07536
   143    C   10  py     Ryd( 3p)     0.00494
   144    C   10  pz     Val( 2p)     0.96736
   145    C   10  pz     Ryd( 3p)     0.00120
   146    C   10  dxy    Ryd( 3d)     0.00136
   147    C   10  dxz    Ryd( 3d)     0.00203
   148    C   10  dyz    Ryd( 3d)     0.00110
   149    C   10  dx2y2  Ryd( 3d)     0.00172
   150    C   10  dz2    Ryd( 3d)     0.00050

   151    C   11  S      Cor( 1S)     1.99905
   152    C   11  S      Val( 2S)     0.95721
   153    C   11  S      Ryd( 3S)     0.00085
   154    C   11  S      Ryd( 4S)     0.00005
   155    C   11  px     Val( 2p)     1.14493
   156    C   11  px     Ryd( 3p)     0.00511
   157    C   11  py     Val( 2p)     1.10100
   158    C   11  py     Ryd( 3p)     0.00465
   159    C   11  pz     Val( 2p)     1.08150
   160    C   11  pz     Ryd( 3p)     0.00275
   161    C   11  dxy    Ryd( 3d)     0.00072
   162    C   11  dxz    Ryd( 3d)     0.00067
   163    C   11  dyz    Ryd( 3d)     0.00044
   164    C   11  dx2y2  Ryd( 3d)     0.00064
   165    C   11  dz2    Ryd( 3d)     0.00045

   166    C   12  S      Cor( 1S)     1.99906
   167    C   12  S      Val( 2S)     0.94284
   168    C   12  S      Ryd( 3S)     0.00063
   169    C   12  S      Ryd( 4S)     0.00006
   170    C   12  px     Val( 2p)     1.06257
   171    C   12  px     Ryd( 3p)     0.00425
   172    C   12  py     Val( 2p)     1.17417
   173    C   12  py     Ryd( 3p)     0.00458
   174    C   12  pz     Val( 2p)     1.03948
   175    C   12  pz     Ryd( 3p)     0.00356
   176    C   12  dxy    Ryd( 3d)     0.00068
   177    C   12  dxz    Ryd( 3d)     0.00072
   178    C   12  dyz    Ryd( 3d)     0.00030
   179    C   12  dx2y2  Ryd( 3d)     0.00077
   180    C   12  dz2    Ryd( 3d)     0.00043

   181    O   13  S      Cor( 1S)     1.99973
   182    O   13  S      Val( 2S)     1.59004
   183    O   13  S      Ryd( 3S)     0.00129
   184    O   13  S      Ryd( 4S)     0.00008
   185    O   13  px     Val( 2p)     1.51692
   186    O   13  px     Ryd( 3p)     0.00182
   187    O   13  py     Val( 2p)     1.59485
   188    O   13  py     Ryd( 3p)     0.00191
   189    O   13  pz     Val( 2p)     1.80125
   190    O   13  pz     Ryd( 3p)     0.00257
   191    O   13  dxy    Ryd( 3d)     0.00125
   192    O   13  dxz    Ryd( 3d)     0.00110
   193    O   13  dyz    Ryd( 3d)     0.00088
   194    O   13  dx2y2  Ryd( 3d)     0.00131
   195    O   13  dz2    Ryd( 3d)     0.00074

   196    C   14  S      Cor( 1S)     1.99914
   197    C   14  S      Val( 2S)     0.96104
   198    C   14  S      Ryd( 3S)     0.00205
   199    C   14  S      Ryd( 4S)     0.00005
   200    C   14  px     Val( 2p)     1.05219
   201    C   14  px     Ryd( 3p)     0.00327
   202    C   14  py     Val( 2p)     0.78353
   203    C   14  py     Ryd( 3p)     0.00363
   204    C   14  pz     Val( 2p)     1.09654
   205    C   14  pz     Ryd( 3p)     0.00219
   206    C   14  dxy    Ryd( 3d)     0.00157
   207    C   14  dxz    Ryd( 3d)     0.00107
   208    C   14  dyz    Ryd( 3d)     0.00161
   209    C   14  dx2y2  Ryd( 3d)     0.00138
   210    C   14  dz2    Ryd( 3d)     0.00099

   211    C   15  S      Cor( 1S)     1.99940
   212    C   15  S      Val( 2S)     1.10634
   213    C   15  S      Ryd( 3S)     0.00049
   214    C   15  S      Ryd( 4S)     0.00002
   215    C   15  px     Val( 2p)     1.10228
   216    C   15  px     Ryd( 3p)     0.00125
   217    C   15  py     Val( 2p)     1.24316
   218    C   15  py     Ryd( 3p)     0.00203
   219    C   15  pz     Val( 2p)     1.22867
   220    C   15  pz     Ryd( 3p)     0.00215
   221    C   15  dxy    Ryd( 3d)     0.00066
   222    C   15  dxz    Ryd( 3d)     0.00061
   223    C   15  dyz    Ryd( 3d)     0.00069
   224    C   15  dx2y2  Ryd( 3d)     0.00057
   225    C   15  dz2    Ryd( 3d)     0.00069

   226    C   16  S      Cor( 1S)     1.99940
   227    C   16  S      Val( 2S)     1.10944
   228    C   16  S      Ryd( 3S)     0.00049
   229    C   16  S      Ryd( 4S)     0.00002
   230    C   16  px     Val( 2p)     1.25234
   231    C   16  px     Ryd( 3p)     0.00211
   232    C   16  py     Val( 2p)     1.21121
   233    C   16  py     Ryd( 3p)     0.00133
   234    C   16  pz     Val( 2p)     1.12159
   235    C   16  pz     Ryd( 3p)     0.00117
   236    C   16  dxy    Ryd( 3d)     0.00052
   237    C   16  dxz    Ryd( 3d)     0.00081
   238    C   16  dyz    Ryd( 3d)     0.00054
   239    C   16  dx2y2  Ryd( 3d)     0.00078
   240    C   16  dz2    Ryd( 3d)     0.00060

   241    H   17  S      Val( 1S)     0.77081
   242    H   17  S      Ryd( 2S)     0.00054

   243    H   18  S      Val( 1S)     0.78786
   244    H   18  S      Ryd( 2S)     0.00232

   245    H   19  S      Val( 1S)     0.78786
   246    H   19  S      Ryd( 2S)     0.00231

   247    H   20  S      Val( 1S)     0.76648
   248    H   20  S      Ryd( 2S)     0.00087

   249    H   21  S      Val( 1S)     0.76904
   250    H   21  S      Ryd( 2S)     0.00113

   251    H   22  S      Val( 1S)     0.76034
   252    H   22  S      Ryd( 2S)     0.00171

   253    H   23  S      Val( 1S)     0.76986
   254    H   23  S      Ryd( 2S)     0.00123

   255    H   24  S      Val( 1S)     0.75792
   256    H   24  S      Ryd( 2S)     0.00115

   257    H   25  S      Val( 1S)     0.76943
   258    H   25  S      Ryd( 2S)     0.00108

   259    H   26  S      Val( 1S)     0.77985
   260    H   26  S      Ryd( 2S)     0.00265

   261    H   27  S      Val( 1S)     0.76241
   262    H   27  S      Ryd( 2S)     0.00145

   263    H   28  S      Val( 1S)     0.75563
   264    H   28  S      Ryd( 2S)     0.00107

   265    H   29  S      Val( 1S)     0.76439
   266    H   29  S      Ryd( 2S)     0.00071

   267    H   30  S      Val( 1S)     0.76145
   268    H   30  S      Ryd( 2S)     0.00151

   269    H   31  S      Val( 1S)     0.76373
   270    H   31  S      Ryd( 2S)     0.00101

   271    H   32  S      Val( 1S)     0.75877
   272    H   32  S      Ryd( 2S)     0.00122

 WARNING:  1 low occupancy (<1.9990e) core orbital  found on  C    3
           1 low occupancy (<1.9990e) core orbital  found on  C    8
           1 low occupancy (<1.9990e) core orbital  found on  C    9
           1 low occupancy (<1.9990e) core orbital  found on  C   10


 Summary of Natural Population Analysis:                  
                                                          
                                       Natural Population 
                Natural  -----------------------------------------------
    Atom  No    Charge         Core      Valence    Rydberg      Total
 -----------------------------------------------------------------------
      C    1   -0.31828      1.99942     4.30496    0.01390     6.31828
      O    2   -0.48391      1.99975     6.47256    0.01160     8.48391
      C    3    0.33792      1.99880     3.64050    0.02278     5.66208
      C    4   -0.36146      1.99904     4.34801    0.01441     6.36146
      C    5   -0.22303      1.99907     4.20705    0.01691     6.22303
      C    6   -0.07234      1.99902     4.05855    0.01477     6.07234
      C    7   -0.05408      1.99904     4.03933    0.01570     6.05408
      C    8   -0.22825      1.99899     4.21285    0.01641     6.22825
      C    9   -0.27276      1.99898     4.26019    0.01359     6.27276
      C   10    0.33544      1.99882     3.64268    0.02306     5.66456
      C   11   -0.30002      1.99905     4.28463    0.01634     6.30002
      C   12   -0.23409      1.99906     4.21907    0.01596     6.23409
      O   13   -0.51573      1.99973     6.50305    0.01295     8.51573
      C   14    0.08975      1.99914     3.89330    0.01781     5.91025
      C   15   -0.68903      1.99940     4.68045    0.00917     6.68903
      C   16   -0.70234      1.99940     4.69457    0.00837     6.70234
      H   17    0.22865      0.00000     0.77081    0.00054     0.77135
      H   18    0.20982      0.00000     0.78786    0.00232     0.79018
      H   19    0.20983      0.00000     0.78786    0.00231     0.79017
      H   20    0.23265      0.00000     0.76648    0.00087     0.76735
      H   21    0.22983      0.00000     0.76904    0.00113     0.77017
      H   22    0.23795      0.00000     0.76034    0.00171     0.76205
      H   23    0.22890      0.00000     0.76986    0.00123     0.77110
      H   24    0.24093      0.00000     0.75792    0.00115     0.75907
      H   25    0.22949      0.00000     0.76943    0.00108     0.77051
      H   26    0.21750      0.00000     0.77985    0.00265     0.78250
      H   27    0.23614      0.00000     0.76241    0.00145     0.76386
      H   28    0.24330      0.00000     0.75563    0.00107     0.75670
      H   29    0.23489      0.00000     0.76439    0.00071     0.76511
      H   30    0.23703      0.00000     0.76145    0.00151     0.76297
      H   31    0.23526      0.00000     0.76373    0.00101     0.76474
      H   32    0.24000      0.00000     0.75877    0.00122     0.76000
 =======================================================================
   * Total *    0.00000     31.98671    83.74758    0.26570   116.00000

                                 Natural Population      
 --------------------------------------------------------
   Core                      31.98671 ( 99.9585% of  32)
   Valence                   83.74758 ( 99.6995% of  84)
   Natural Minimal Basis    115.73430 ( 99.7709% of 116)
   Natural Rydberg Basis      0.26570 (  0.2291% of 116)
 --------------------------------------------------------

    Atom  No          Natural Electron Configuration
 ----------------------------------------------------------------------------
      C    1      [core]2S( 1.10)2p( 3.20)3p( 0.01)3d( 0.01)
      O    2      [core]2S( 1.59)2p( 4.88)3p( 0.01)3d( 0.01)
      C    3      [core]2S( 0.84)2p( 2.80)3p( 0.01)3d( 0.01)
      C    4      [core]2S( 0.95)2p( 3.40)3p( 0.01)
      C    5      [core]2S( 0.94)2p( 3.27)3p( 0.01)
      C    6      [core]2S( 0.87)2p( 3.19)3p( 0.01)
      C    7      [core]2S( 0.87)2p( 3.17)3p( 0.01)
      C    8      [core]2S( 0.95)2p( 3.26)3p( 0.01)
      C    9      [core]2S( 0.95)2p( 3.31)3p( 0.01)
      C   10      [core]2S( 0.83)2p( 2.81)3p( 0.02)3d( 0.01)
      C   11      [core]2S( 0.96)2p( 3.33)3p( 0.01)
      C   12      [core]2S( 0.94)2p( 3.28)3p( 0.01)
      O   13      [core]2S( 1.59)2p( 4.91)3p( 0.01)3d( 0.01)
      C   14      [core]2S( 0.96)2p( 2.93)3p( 0.01)3d( 0.01)
      C   15      [core]2S( 1.11)2p( 3.57)3p( 0.01)
      C   16      [core]2S( 1.11)2p( 3.59)
      H   17            1S( 0.77)
      H   18            1S( 0.79)
      H   19            1S( 0.79)
      H   20            1S( 0.77)
      H   21            1S( 0.77)
      H   22            1S( 0.76)
      H   23            1S( 0.77)
      H   24            1S( 0.76)
      H   25            1S( 0.77)
      H   26            1S( 0.78)
      H   27            1S( 0.76)
      H   28            1S( 0.76)
      H   29            1S( 0.76)
      H   30            1S( 0.76)
      H   31            1S( 0.76)
      H   32            1S( 0.76)


 NBO analysis skipped by request.
 Leave Link  607 at Tue Sep 28 22:04:34 2021, MaxMem= 1342177280 cpu:      22.6
 (Enter /sw/target/amd/app/gaussian/Gaussian09RevA.02_gcc-4.9.2/g09/l9999.exe)
 1\1\GINC-HERMITE\SP\RTD-B3LYP-FC\6-31G(d)\C14H16O2\JSCHLEINITZ\28-Sep-
 2021\0\\#p TD(NStates=10, Root=1) b3lyp/6-31G* volume pop=NPA density=
 current Geom=AllCheck Guess=Read\\COc1ccc2c(c1)cc(cc2)OC(C)C_conf_0\\0
 ,1\C,0,1.4281156242,1.2283073508,-0.3076245237\O,0,2.6407003151,0.5188
 550069,-0.1183873148\C,0,3.1476107249,-0.2049923454,-1.162837835\C,0,2
 .5273541528,-0.2896958247,-2.4353423244\C,0,3.1143437752,-1.0467996156
 ,-3.4283371279\C,0,4.3244050487,-1.7456491921,-3.2120864388\C,0,4.9487
 022405,-1.6578414803,-1.9249030992\C,0,4.3337451125,-0.8767244001,-0.9
 198106948\C,0,6.1690112793,-2.3561317982,-1.6916178705\C,0,6.743310374
 6,-3.1144814035,-2.692503644\C,0,6.1225882454,-3.1974478067,-3.9733325
 021\C,0,4.9504015901,-2.5325311387,-4.218922131\O,0,7.8914909097,-3.84
 42286692,-2.5887128994\C,0,8.6426031075,-3.8574670778,-1.3605761149\C,
 0,9.4724298607,-5.1361382412,-1.3996916634\C,0,9.5049305391,-2.5999458
 689,-1.2450739915\H,0,1.2198429585,1.7212009376,0.6441227349\H,0,0.595
 9303292,0.5551254724,-0.5534511801\H,0,1.5193866365,1.9894542109,-1.09
 40954326\H,0,1.5993495015,0.2329437884,-2.6359758422\H,0,2.6388652244,
 -1.1116638024,-4.4045174503\H,0,4.7862281117,-0.7942099531,0.064226067
 \H,0,6.6260221049,-2.270965874,-0.7122573192\H,0,6.6059535709,-3.80278
 28261,-4.733549634\H,0,4.4812665127,-2.6019786899,-5.1977664343\H,0,7.
 9397393135,-3.9135053327,-0.5185126378\H,0,10.1522682823,-5.1230202602
 ,-2.2585627403\H,0,8.8244568564,-6.0136149251,-1.4870062325\H,0,10.069
 3423186,-5.2320363203,-0.4863084572\H,0,10.219285495,-2.5583205348,-2.
 0746616496\H,0,10.0672824114,-2.6073423417,-0.3043884997\H,0,8.8958446
 487,-1.6918545454,-1.2731363993\\Version=AM64L-G09RevA.02\State=1-A\HF
 =-693.5736375\RMSD=8.164e-09\Dipole=-0.0405213,0.3523472,0.7836227\Qua
 drupole=6.5811903,-2.7111892,-3.8700011,-8.730819,1.9196602,0.3243402\
 PG=C01 [X(C14H16O2)]\\@


 BE NOT THE FIRST BY WHOM THE NEW ARE TRIED,
 NOR YET THE THE LAST TO LAY THE OLD ASIDE.

                          -- ALEXANDER POPE
 Job cpu time:  0 days  4 hours 17 minutes 13.1 seconds.
 File lengths (MBytes):  RWF=    245 Int=      0 D2E=      0 Chk=     34 Scr=      1
 Normal termination of Gaussian 09 at Tue Sep 28 22:04:40 2021.
