 Entering Gaussian System, Link 0=g09
 Input=C14H16O_9a19_conf_0.com
 Output=C14H16O_9a19_conf_0.log
 Initial command:
 /sw/target/amd/app/gaussian/Gaussian09RevA.02_gcc-4.9.2/g09/l1.exe /home/jschleinitz/gaussian/Gau-1961426.inp -scrdir=/home/jschleinitz/gaussian/
 Entering Link 1 = /sw/target/amd/app/gaussian/Gaussian09RevA.02_gcc-4.9.2/g09/l1.exe PID=   1961428.
  
 Copyright (c) 1988,1990,1992,1993,1995,1998,2003,2009, Gaussian, Inc.
                  All Rights Reserved.
  
 This is part of the Gaussian(R) 09 program.  It is based on
 the Gaussian(R) 03 system (copyright 2003, Gaussian, Inc.),
 the Gaussian(R) 98 system (copyright 1998, Gaussian, Inc.),
 the Gaussian(R) 94 system (copyright 1995, Gaussian, Inc.),
 the Gaussian 92(TM) system (copyright 1992, Gaussian, Inc.),
 the Gaussian 90(TM) system (copyright 1990, Gaussian, Inc.),
 the Gaussian 88(TM) system (copyright 1988, Gaussian, Inc.),
 the Gaussian 86(TM) system (copyright 1986, Carnegie Mellon
 University), and the Gaussian 82(TM) system (copyright 1983,
 Carnegie Mellon University). Gaussian is a federally registered
 trademark of Gaussian, Inc.
  
 This software contains proprietary and confidential information,
 including trade secrets, belonging to Gaussian, Inc.
  
 This software is provided under written license and may be
 used, copied, transmitted, or stored only in accord with that
 written license.
  
 The following legend is applicable only to US Government
 contracts under FAR:
  
                    RESTRICTED RIGHTS LEGEND
  
 Use, reproduction and disclosure by the US Government is
 subject to restrictions as set forth in subparagraphs (a)
 and (c) of the Commercial Computer Software - Restricted
 Rights clause in FAR 52.227-19.
  
 Gaussian, Inc.
 340 Quinnipiac St., Bldg. 40, Wallingford CT 06492
  
  
 ---------------------------------------------------------------
 Warning -- This program may not be used in any manner that
 competes with the business of Gaussian, Inc. or will provide
 assistance to any competitor of Gaussian, Inc.  The licensee
 of this program is prohibited from giving any competitor of
 Gaussian, Inc. access to this program.  By using this program,
 the user acknowledges that Gaussian, Inc. is engaged in the
 business of creating and licensing software in the field of
 computational chemistry and represents and warrants to the
 licensee that it is not a competitor of Gaussian, Inc. and that
 it will not use this program in any manner prohibited above.
 ---------------------------------------------------------------
  

 Cite this work as:
 Gaussian 09, Revision A.02,
 M. J. Frisch, G. W. Trucks, H. B. Schlegel, G. E. Scuseria, 
 M. A. Robb, J. R. Cheeseman, G. Scalmani, V. Barone, B. Mennucci, 
 G. A. Petersson, H. Nakatsuji, M. Caricato, X. Li, H. P. Hratchian, 
 A. F. Izmaylov, J. Bloino, G. Zheng, J. L. Sonnenberg, M. Hada, 
 M. Ehara, K. Toyota, R. Fukuda, J. Hasegawa, M. Ishida, T. Nakajima, 
 Y. Honda, O. Kitao, H. Nakai, T. Vreven, J. A. Montgomery, Jr., 
 J. E. Peralta, F. Ogliaro, M. Bearpark, J. J. Heyd, E. Brothers, 
 K. N. Kudin, V. N. Staroverov, R. Kobayashi, J. Normand, 
 K. Raghavachari, A. Rendell, J. C. Burant, S. S. Iyengar, J. Tomasi, 
 M. Cossi, N. Rega, J. M. Millam, M. Klene, J. E. Knox, J. B. Cross, 
 V. Bakken, C. Adamo, J. Jaramillo, R. Gomperts, R. E. Stratmann, 
 O. Yazyev, A. J. Austin, R. Cammi, C. Pomelli, J. W. Ochterski, 
 R. L. Martin, K. Morokuma, V. G. Zakrzewski, G. A. Voth, 
 P. Salvador, J. J. Dannenberg, S. Dapprich, A. D. Daniels, 
 O. Farkas, J. B. Foresman, J. V. Ortiz, J. Cioslowski, 
 and D. J. Fox, Gaussian, Inc., Wallingford CT, 2009.
 
 ******************************************
 Gaussian 09:  AM64L-G09RevA.02 11-Jun-2009
                30-Sep-2021 
 ******************************************
 %nproc=5
 Will use up to    5 processors via shared memory.
 %mem=10gb
 %chk=C14H16O_9a19_conf_0.chk
 -----------------------------------
 #p opt b3lyp/6-31G* scf=(xqc,tight)
 -----------------------------------
 1/14=-1,18=20,19=15,26=3,38=1/1,3;
 2/9=110,12=2,17=6,18=5,40=1/2;
 3/5=1,6=6,7=1,11=2,16=1,25=1,30=1,71=1,74=-5/1,2,3;
 4//1;
 5/5=2,8=3,13=1,32=2,38=5/2,8;
 6/7=2,8=2,9=2,10=2,28=1/1;
 7//1,2,3,16;
 1/14=-1,18=20,19=15/3(2);
 2/9=110/2;
 99//99;
 2/9=110/2;
 3/5=1,6=6,7=1,11=2,16=1,25=1,30=1,71=1,74=-5/1,2,3;
 4/5=5,16=3/1;
 5/5=2,8=3,13=1,32=2,38=5/2,8;
 7//1,2,3,16;
 1/14=-1,18=20,19=15/3(-5);
 2/9=110/2;
 6/7=2,8=2,9=2,10=2,19=2,28=1/1;
 99/9=1/99;
 Leave Link    1 at Thu Sep 30 06:12:55 2021, MaxMem= 1342177280 cpu:       0.1
 (Enter /sw/target/amd/app/gaussian/Gaussian09RevA.02_gcc-4.9.2/g09/l101.exe)
 ----------------------------
 CCCCOc1ccc2c(c1)cccc2_conf_0
 ----------------------------
 Symbolic Z-matrix:
 Charge =  0 Multiplicity = 1
 C                     2.11477   0.53249  -1.28924 
 C                     3.56394   0.69967  -1.71921 
 C                     4.52949   0.16123  -0.66181 
 C                     5.99043   0.30989  -1.08438 
 O                     6.30107   1.69228  -1.28249 
 C                     7.58917   1.9787   -1.65334 
 C                     8.60657   1.03741  -1.80676 
 C                     9.88691   1.43831  -2.18657 
 C                     10.17886   2.78542  -2.41655 
 C                     9.16005   3.7545   -2.26182 
 C                     7.87054   3.33191  -1.88129 
 C                     9.47715   5.1043   -2.49282 
 C                     10.76872   5.48516  -2.86617 
 C                     11.76519   4.52357  -3.01686 
 C                     11.46924   3.18133  -2.79446 
 H                     1.44195   0.91781  -2.06197 
 H                     1.91796   1.08207  -0.36326 
 H                     1.86995  -0.52136  -1.12259 
 H                     3.75961   1.76261  -1.89908 
 H                     3.72212   0.17597  -2.66929 
 H                     4.31716  -0.89815  -0.4709 
 H                     4.37042   0.7025    0.27834 
 H                     6.15651  -0.25072  -2.01287 
 H                     6.62352  -0.1008   -0.28768 
 H                     8.44419  -0.02093  -1.63383 
 H                     10.65984   0.68078  -2.29878 
 H                     7.07215   4.06063  -1.75851 
 H                     8.71573   5.8738   -2.38257 
 H                     11.00116   6.53326  -3.03999 
 H                     12.77081   4.81522  -3.30641 
 H                     12.2567   2.43991  -2.9173 
 
 NAtoms=     31 NQM=     31 NQMF=      0 NMic=      0 NMicF=      0 NTot=     31.
                    Isotopes and Nuclear Properties:
 (Nuclear quadrupole moments (NQMom) in fm**2, nuclear magnetic moments (NMagM)
  in nuclear magnetons)

  Atom         1           2           3           4           5           6           7           8           9          10
 IAtWgt=          12          12          12          12          16          12          12          12          12          12
 AtmWgt=  12.0000000  12.0000000  12.0000000  12.0000000  15.9949146  12.0000000  12.0000000  12.0000000  12.0000000  12.0000000
 NucSpn=           0           0           0           0           0           0           0           0           0           0
 AtZEff=   0.0000000   0.0000000   0.0000000   0.0000000   0.0000000   0.0000000   0.0000000   0.0000000   0.0000000   0.0000000
 NQMom=    0.0000000   0.0000000   0.0000000   0.0000000   0.0000000   0.0000000   0.0000000   0.0000000   0.0000000   0.0000000
 NMagM=    0.0000000   0.0000000   0.0000000   0.0000000   0.0000000   0.0000000   0.0000000   0.0000000   0.0000000   0.0000000

  Atom        11          12          13          14          15          16          17          18          19          20
 IAtWgt=          12          12          12          12          12           1           1           1           1           1
 AtmWgt=  12.0000000  12.0000000  12.0000000  12.0000000  12.0000000   1.0078250   1.0078250   1.0078250   1.0078250   1.0078250
 NucSpn=           0           0           0           0           0           1           1           1           1           1
 AtZEff=   0.0000000   0.0000000   0.0000000   0.0000000   0.0000000   0.0000000   0.0000000   0.0000000   0.0000000   0.0000000
 NQMom=    0.0000000   0.0000000   0.0000000   0.0000000   0.0000000   0.0000000   0.0000000   0.0000000   0.0000000   0.0000000
 NMagM=    0.0000000   0.0000000   0.0000000   0.0000000   0.0000000   2.7928460   2.7928460   2.7928460   2.7928460   2.7928460

  Atom        21          22          23          24          25          26          27          28          29          30
 IAtWgt=           1           1           1           1           1           1           1           1           1           1
 AtmWgt=   1.0078250   1.0078250   1.0078250   1.0078250   1.0078250   1.0078250   1.0078250   1.0078250   1.0078250   1.0078250
 NucSpn=           1           1           1           1           1           1           1           1           1           1
 AtZEff=   0.0000000   0.0000000   0.0000000   0.0000000   0.0000000   0.0000000   0.0000000   0.0000000   0.0000000   0.0000000
 NQMom=    0.0000000   0.0000000   0.0000000   0.0000000   0.0000000   0.0000000   0.0000000   0.0000000   0.0000000   0.0000000
 NMagM=    2.7928460   2.7928460   2.7928460   2.7928460   2.7928460   2.7928460   2.7928460   2.7928460   2.7928460   2.7928460

  Atom        31
 IAtWgt=           1
 AtmWgt=   1.0078250
 NucSpn=           1
 AtZEff=   0.0000000
 NQMom=    0.0000000
 NMagM=    2.7928460
 Leave Link  101 at Thu Sep 30 06:12:56 2021, MaxMem= 1342177280 cpu:       0.2
 (Enter /sw/target/amd/app/gaussian/Gaussian09RevA.02_gcc-4.9.2/g09/l103.exe)

 GradGradGradGradGradGradGradGradGradGradGradGradGradGradGradGradGradGrad
 Berny optimization.
 Initialization pass.
                           ----------------------------
                           !    Initial Parameters    !
                           ! (Angstroms and Degrees)  !
 --------------------------                            --------------------------
 ! Name  Definition              Value          Derivative Info.                !
 --------------------------------------------------------------------------------
 ! R1    R(1,2)                  1.5208         estimate D2E/DX2                !
 ! R2    R(1,16)                 1.0947         estimate D2E/DX2                !
 ! R3    R(1,17)                 1.0946         estimate D2E/DX2                !
 ! R4    R(1,18)                 1.0947         estimate D2E/DX2                !
 ! R5    R(2,3)                  1.5298         estimate D2E/DX2                !
 ! R6    R(2,19)                 1.0957         estimate D2E/DX2                !
 ! R7    R(2,20)                 1.0963         estimate D2E/DX2                !
 ! R8    R(3,4)                  1.5281         estimate D2E/DX2                !
 ! R9    R(3,21)                 1.0972         estimate D2E/DX2                !
 ! R10   R(3,22)                 1.0964         estimate D2E/DX2                !
 ! R11   R(4,5)                  1.4307         estimate D2E/DX2                !
 ! R12   R(4,23)                 1.0973         estimate D2E/DX2                !
 ! R13   R(4,24)                 1.0974         estimate D2E/DX2                !
 ! R14   R(5,6)                  1.3707         estimate D2E/DX2                !
 ! R15   R(6,7)                  1.3945         estimate D2E/DX2                !
 ! R16   R(6,11)                 1.4008         estimate D2E/DX2                !
 ! R17   R(7,8)                  1.3944         estimate D2E/DX2                !
 ! R18   R(7,25)                 1.0846         estimate D2E/DX2                !
 ! R19   R(8,9)                  1.3974         estimate D2E/DX2                !
 ! R20   R(8,26)                 1.0881         estimate D2E/DX2                !
 ! R21   R(9,10)                 1.4146         estimate D2E/DX2                !
 ! R22   R(9,15)                 1.4017         estimate D2E/DX2                !
 ! R23   R(10,11)                1.4093         estimate D2E/DX2                !
 ! R24   R(10,12)                1.4056         estimate D2E/DX2                !
 ! R25   R(11,27)                1.0879         estimate D2E/DX2                !
 ! R26   R(12,13)                1.3974         estimate D2E/DX2                !
 ! R27   R(12,28)                1.0881         estimate D2E/DX2                !
 ! R28   R(13,14)                1.393          estimate D2E/DX2                !
 ! R29   R(13,29)                1.0876         estimate D2E/DX2                !
 ! R30   R(14,15)                1.3924         estimate D2E/DX2                !
 ! R31   R(14,30)                1.0864         estimate D2E/DX2                !
 ! R32   R(15,31)                1.0885         estimate D2E/DX2                !
 ! A1    A(2,1,16)             110.3289         estimate D2E/DX2                !
 ! A2    A(2,1,17)             110.8114         estimate D2E/DX2                !
 ! A3    A(2,1,18)             111.2216         estimate D2E/DX2                !
 ! A4    A(16,1,17)            108.054          estimate D2E/DX2                !
 ! A5    A(16,1,18)            107.9916         estimate D2E/DX2                !
 ! A6    A(17,1,18)            108.3221         estimate D2E/DX2                !
 ! A7    A(1,2,3)              111.55           estimate D2E/DX2                !
 ! A8    A(1,2,19)             108.8583         estimate D2E/DX2                !
 ! A9    A(1,2,20)             109.2673         estimate D2E/DX2                !
 ! A10   A(3,2,19)             110.0117         estimate D2E/DX2                !
 ! A11   A(3,2,20)             109.8649         estimate D2E/DX2                !
 ! A12   A(19,2,20)            107.1806         estimate D2E/DX2                !
 ! A13   A(2,3,4)              112.2125         estimate D2E/DX2                !
 ! A14   A(2,3,21)             109.7528         estimate D2E/DX2                !
 ! A15   A(2,3,22)             109.1083         estimate D2E/DX2                !
 ! A16   A(4,3,21)             109.0911         estimate D2E/DX2                !
 ! A17   A(4,3,22)             109.1354         estimate D2E/DX2                !
 ! A18   A(21,3,22)            107.4207         estimate D2E/DX2                !
 ! A19   A(3,4,5)              109.8706         estimate D2E/DX2                !
 ! A20   A(3,4,23)             109.2089         estimate D2E/DX2                !
 ! A21   A(3,4,24)             108.3241         estimate D2E/DX2                !
 ! A22   A(5,4,23)             110.0989         estimate D2E/DX2                !
 ! A23   A(5,4,24)             109.6879         estimate D2E/DX2                !
 ! A24   A(23,4,24)            109.6219         estimate D2E/DX2                !
 ! A25   A(4,5,6)              116.323          estimate D2E/DX2                !
 ! A26   A(5,6,7)              125.0533         estimate D2E/DX2                !
 ! A27   A(5,6,11)             115.7623         estimate D2E/DX2                !
 ! A28   A(7,6,11)             119.1837         estimate D2E/DX2                !
 ! A29   A(6,7,8)              120.3852         estimate D2E/DX2                !
 ! A30   A(6,7,25)             122.1329         estimate D2E/DX2                !
 ! A31   A(8,7,25)             117.481          estimate D2E/DX2                !
 ! A32   A(7,8,9)              120.9188         estimate D2E/DX2                !
 ! A33   A(7,8,26)             118.6988         estimate D2E/DX2                !
 ! A34   A(9,8,26)             120.3822         estimate D2E/DX2                !
 ! A35   A(8,9,10)             119.4673         estimate D2E/DX2                !
 ! A36   A(8,9,15)             120.5968         estimate D2E/DX2                !
 ! A37   A(10,9,15)            119.9357         estimate D2E/DX2                !
 ! A38   A(9,10,11)            118.8881         estimate D2E/DX2                !
 ! A39   A(9,10,12)            118.5155         estimate D2E/DX2                !
 ! A40   A(11,10,12)           122.5963         estimate D2E/DX2                !
 ! A41   A(6,11,10)            121.1564         estimate D2E/DX2                !
 ! A42   A(6,11,27)            118.7704         estimate D2E/DX2                !
 ! A43   A(10,11,27)           120.0732         estimate D2E/DX2                !
 ! A44   A(10,12,13)           120.9404         estimate D2E/DX2                !
 ! A45   A(10,12,28)           120.3028         estimate D2E/DX2                !
 ! A46   A(13,12,28)           118.7568         estimate D2E/DX2                !
 ! A47   A(12,13,14)           120.1301         estimate D2E/DX2                !
 ! A48   A(12,13,29)           120.1937         estimate D2E/DX2                !
 ! A49   A(14,13,29)           119.6763         estimate D2E/DX2                !
 ! A50   A(13,14,15)           119.745          estimate D2E/DX2                !
 ! A51   A(13,14,30)           120.3784         estimate D2E/DX2                !
 ! A52   A(15,14,30)           119.8766         estimate D2E/DX2                !
 ! A53   A(9,15,14)            120.733          estimate D2E/DX2                !
 ! A54   A(9,15,31)            120.2665         estimate D2E/DX2                !
 ! A55   A(14,15,31)           119.0005         estimate D2E/DX2                !
 ! D1    D(16,1,2,3)          -179.6363         estimate D2E/DX2                !
 ! D2    D(16,1,2,19)           58.7835         estimate D2E/DX2                !
 ! D3    D(16,1,2,20)          -57.9637         estimate D2E/DX2                !
 ! D4    D(17,1,2,3)            60.7344         estimate D2E/DX2                !
 ! D5    D(17,1,2,19)          -60.8457         estimate D2E/DX2                !
 ! D6    D(17,1,2,20)         -177.593          estimate D2E/DX2                !
 ! D7    D(18,1,2,3)           -59.8201         estimate D2E/DX2                !
 ! D8    D(18,1,2,19)          178.5997         estimate D2E/DX2                !
 ! D9    D(18,1,2,20)           61.8525         estimate D2E/DX2                !
 ! D10   D(1,2,3,4)            179.4674         estimate D2E/DX2                !
 ! D11   D(1,2,3,21)            58.0001         estimate D2E/DX2                !
 ! D12   D(1,2,3,22)           -59.4553         estimate D2E/DX2                !
 ! D13   D(19,2,3,4)           -59.6232         estimate D2E/DX2                !
 ! D14   D(19,2,3,21)          178.9095         estimate D2E/DX2                !
 ! D15   D(19,2,3,22)           61.4541         estimate D2E/DX2                !
 ! D16   D(20,2,3,4)            58.1414         estimate D2E/DX2                !
 ! D17   D(20,2,3,21)          -63.3259         estimate D2E/DX2                !
 ! D18   D(20,2,3,22)          179.2187         estimate D2E/DX2                !
 ! D19   D(2,3,4,5)             60.6117         estimate D2E/DX2                !
 ! D20   D(2,3,4,23)           -60.2428         estimate D2E/DX2                !
 ! D21   D(2,3,4,24)          -179.583          estimate D2E/DX2                !
 ! D22   D(21,3,4,5)          -177.5426         estimate D2E/DX2                !
 ! D23   D(21,3,4,23)           61.6029         estimate D2E/DX2                !
 ! D24   D(21,3,4,24)          -57.7373         estimate D2E/DX2                !
 ! D25   D(22,3,4,5)           -60.45           estimate D2E/DX2                !
 ! D26   D(22,3,4,23)          178.6955         estimate D2E/DX2                !
 ! D27   D(22,3,4,24)           59.3553         estimate D2E/DX2                !
 ! D28   D(3,4,5,6)            179.3651         estimate D2E/DX2                !
 ! D29   D(23,4,5,6)           -60.3181         estimate D2E/DX2                !
 ! D30   D(24,4,5,6)            60.3939         estimate D2E/DX2                !
 ! D31   D(4,5,6,7)             -2.072          estimate D2E/DX2                !
 ! D32   D(4,5,6,11)           178.2453         estimate D2E/DX2                !
 ! D33   D(5,6,7,8)           -179.8765         estimate D2E/DX2                !
 ! D34   D(5,6,7,25)            -0.2425         estimate D2E/DX2                !
 ! D35   D(11,6,7,8)            -0.2038         estimate D2E/DX2                !
 ! D36   D(11,6,7,25)          179.4303         estimate D2E/DX2                !
 ! D37   D(5,6,11,10)          179.7169         estimate D2E/DX2                !
 ! D38   D(5,6,11,27)           -0.2253         estimate D2E/DX2                !
 ! D39   D(7,6,11,10)            0.0143         estimate D2E/DX2                !
 ! D40   D(7,6,11,27)         -179.9278         estimate D2E/DX2                !
 ! D41   D(6,7,8,9)              0.2074         estimate D2E/DX2                !
 ! D42   D(6,7,8,26)          -179.962          estimate D2E/DX2                !
 ! D43   D(25,7,8,9)          -179.4433         estimate D2E/DX2                !
 ! D44   D(25,7,8,26)            0.3873         estimate D2E/DX2                !
 ! D45   D(7,8,9,10)            -0.018          estimate D2E/DX2                !
 ! D46   D(7,8,9,15)           179.8195         estimate D2E/DX2                !
 ! D47   D(26,8,9,10)         -179.8457         estimate D2E/DX2                !
 ! D48   D(26,8,9,15)           -0.0082         estimate D2E/DX2                !
 ! D49   D(8,9,10,11)           -0.1678         estimate D2E/DX2                !
 ! D50   D(8,9,10,12)          179.7393         estimate D2E/DX2                !
 ! D51   D(15,9,10,11)         179.9936         estimate D2E/DX2                !
 ! D52   D(15,9,10,12)          -0.0993         estimate D2E/DX2                !
 ! D53   D(8,9,15,14)         -179.6287         estimate D2E/DX2                !
 ! D54   D(8,9,15,31)            0.3035         estimate D2E/DX2                !
 ! D55   D(10,9,15,14)           0.2081         estimate D2E/DX2                !
 ! D56   D(10,9,15,31)        -179.8598         estimate D2E/DX2                !
 ! D57   D(9,10,11,6)            0.1707         estimate D2E/DX2                !
 ! D58   D(9,10,11,27)        -179.8879         estimate D2E/DX2                !
 ! D59   D(12,10,11,6)        -179.7323         estimate D2E/DX2                !
 ! D60   D(12,10,11,27)          0.2091         estimate D2E/DX2                !
 ! D61   D(9,10,12,13)          -0.0461         estimate D2E/DX2                !
 ! D62   D(9,10,12,28)         179.9777         estimate D2E/DX2                !
 ! D63   D(11,10,12,13)        179.8573         estimate D2E/DX2                !
 ! D64   D(11,10,12,28)         -0.1189         estimate D2E/DX2                !
 ! D65   D(10,12,13,14)          0.086          estimate D2E/DX2                !
 ! D66   D(10,12,13,29)       -179.8812         estimate D2E/DX2                !
 ! D67   D(28,12,13,14)       -179.9374         estimate D2E/DX2                !
 ! D68   D(28,12,13,29)          0.0954         estimate D2E/DX2                !
 ! D69   D(12,13,14,15)          0.0213         estimate D2E/DX2                !
 ! D70   D(12,13,14,30)       -179.9646         estimate D2E/DX2                !
 ! D71   D(29,13,14,15)        179.9887         estimate D2E/DX2                !
 ! D72   D(29,13,14,30)          0.0028         estimate D2E/DX2                !
 ! D73   D(13,14,15,9)          -0.1685         estimate D2E/DX2                !
 ! D74   D(13,14,15,31)        179.8985         estimate D2E/DX2                !
 ! D75   D(30,14,15,9)         179.8175         estimate D2E/DX2                !
 ! D76   D(30,14,15,31)         -0.1155         estimate D2E/DX2                !
 --------------------------------------------------------------------------------
 Trust Radius=3.00D-01 FncErr=1.00D-07 GrdErr=1.00D-06
 Number of steps in this run= 173 maximum allowed number of steps= 186.
 GradGradGradGradGradGradGradGradGradGradGradGradGradGradGradGradGradGrad

 Leave Link  103 at Thu Sep 30 06:12:57 2021, MaxMem= 1342177280 cpu:       0.0
 (Enter /sw/target/amd/app/gaussian/Gaussian09RevA.02_gcc-4.9.2/g09/l202.exe)
                          Input orientation:                          
 ---------------------------------------------------------------------
 Center     Atomic      Atomic             Coordinates (Angstroms)
 Number     Number       Type             X           Y           Z
 ---------------------------------------------------------------------
      1          6           0        2.114770    0.532486   -1.289237
      2          6           0        3.563941    0.699667   -1.719208
      3          6           0        4.529492    0.161226   -0.661807
      4          6           0        5.990426    0.309887   -1.084380
      5          8           0        6.301072    1.692281   -1.282495
      6          6           0        7.589174    1.978697   -1.653345
      7          6           0        8.606570    1.037411   -1.806762
      8          6           0        9.886911    1.438310   -2.186566
      9          6           0       10.178862    2.785416   -2.416554
     10          6           0        9.160052    3.754505   -2.261816
     11          6           0        7.870539    3.331912   -1.881291
     12          6           0        9.477149    5.104295   -2.492819
     13          6           0       10.768717    5.485155   -2.866171
     14          6           0       11.765192    4.523572   -3.016855
     15          6           0       11.469242    3.181330   -2.794456
     16          1           0        1.441949    0.917810   -2.061970
     17          1           0        1.917962    1.082067   -0.363259
     18          1           0        1.869952   -0.521358   -1.122592
     19          1           0        3.759612    1.762612   -1.899082
     20          1           0        3.722116    0.175968   -2.669286
     21          1           0        4.317163   -0.898152   -0.470900
     22          1           0        4.370422    0.702497    0.278338
     23          1           0        6.156507   -0.250722   -2.012869
     24          1           0        6.623516   -0.100803   -0.287683
     25          1           0        8.444190   -0.020931   -1.633831
     26          1           0       10.659837    0.680783   -2.298780
     27          1           0        7.072146    4.060633   -1.758507
     28          1           0        8.715731    5.873804   -2.382565
     29          1           0       11.001159    6.533265   -3.039987
     30          1           0       12.770809    4.815222   -3.306412
     31          1           0       12.256704    2.439906   -2.917299
 ---------------------------------------------------------------------
                    Distance matrix (angstroms):
                    1          2          3          4          5
     1  C    0.000000
     2  C    1.520829   0.000000
     3  C    2.522377   1.529805   0.000000
     4  C    3.887445   2.538260   1.528070   0.000000
     5  O    4.343996   2.944128   2.422371   1.430651   0.000000
     6  C    5.673905   4.224069   3.694321   2.380051   1.370682
     7  C    6.531941   5.054686   4.324488   2.809864   2.453371
     8  C    7.876033   6.383101   5.714699   4.203659   3.706762
     9  C    8.448439   6.970927   6.471545   5.044395   4.185485
    10  C    7.807901   6.398665   6.075670   4.826828   3.658634
    11  C    6.427768   5.049929   4.764766   3.647263   2.347376
    12  C    8.749553   7.413856   7.229513   6.093216   4.816035
    13  C   10.094873   8.724977   8.493020   7.265689   6.070731
    14  C   10.585088   9.141481   8.771071   7.405236   6.393811
    15  C    9.838100   8.355154   7.863164   6.417707   5.586884
    16  H    1.094659   2.160538   3.473586   4.691897   4.981814
    17  H    1.094627   2.166580   2.785169   4.207284   4.519846
    18  H    1.094666   2.171739   2.784133   4.203658   4.955864
    19  H    2.142574   1.095670   2.165179   2.784004   2.616132
    20  H    2.148302   1.096325   2.163803   2.770395   3.297485
    21  H    2.750807   2.163017   1.097183   2.153027   3.362280
    22  H    2.752120   2.154208   1.096426   2.153034   2.672692
    23  H    4.180036   2.776847   2.154588   1.097250   2.080770
    24  H    4.661863   3.471458   2.143261   1.097359   2.075757
    25  H    6.362906   4.933901   4.037682   2.536196   2.766132
    26  H    8.605774   7.119551   6.366377   4.838980   4.588550
    27  H    6.102754   4.858512   4.782595   3.961396   2.535791
    28  H    8.561410   7.331622   7.288290   6.330066   4.952360
    29  H   10.864731   9.543980   9.388350   8.225708   6.972426
    30  H   11.660274  10.208988   9.827153   8.438546   7.463679
    31  H   10.447376   8.945837   8.365970   6.867519   6.221019
                    6          7          8          9         10
     6  C    0.000000
     7  C    1.394507   0.000000
     8  C    2.419905   1.394362   0.000000
     9  C    2.817759   2.428882   1.397435   0.000000
    10  C    2.447731   2.809985   2.428733   1.414585   0.000000
    11  C    1.400827   2.410815   2.782926   2.431772   1.409335
    12  C    3.746803   4.215226   3.701505   2.423926   1.405649
    13  C    4.886276   5.057633   4.197189   2.799764   2.438893
    14  C    5.076877   4.857421   3.706232   2.428578   2.819274
    15  C    4.219406   3.710366   2.431340   1.401656   2.438154
    16  H    6.251467   7.170163   8.461905   8.941327   8.225320
    17  H    5.884803   6.842745   8.182634   8.681006   7.949484
    18  H    6.264302   6.948372   8.321297   9.035877   8.527977
    19  H    3.843518   4.901780   6.142607   6.520788   5.767492
    20  H    4.385898   5.034275   6.311199   6.968691   6.522507
    21  H    4.514476   4.891824   6.278906   7.191228   6.950408
    22  H    3.964902   4.733367   6.086775   6.733421   6.221550
    23  H    2.674341   2.775711   4.098648   5.055733   5.012494
    24  H    2.668679   2.745111   4.077300   5.050033   5.019423
    25  H    2.174844   1.084602   2.125170   3.390771   3.893680
    26  H    3.395606   2.141301   1.088051   2.162103   3.420305
    27  H    2.147751   3.390672   3.870751   3.422117   2.169420
    28  H    4.119800   4.871772   4.591697   3.417608   2.168740
    29  H    5.857347   6.120401   5.284736   3.887314   3.422972
    30  H    6.134154   5.819080   4.579788   3.410301   3.905621
    31  H    4.857585   4.064943   2.674525   2.165076   3.427402
                   11         12         13         14         15
    11  C    0.000000
    12  C    2.469110   0.000000
    13  C    3.742443   1.397353   0.000000
    14  C    4.228224   2.418056   1.392951   0.000000
    15  C    3.715805   2.785178   2.409044   1.392359   0.000000
    16  H    6.869302   9.070652  10.416141  10.976460  10.305662
    17  H    6.542125   8.823528  10.197432  10.763525  10.076932
    18  H    7.171497   9.560070  10.876869  11.267446  10.423598
    19  H    4.400312   6.649031   7.995008   8.541759   7.890048
    20  H    5.271654   7.578915   8.825011   9.149510   8.310585
    21  H    5.701678   8.169638   9.386506   9.557726   8.555309
    22  H    4.881459   7.289294   8.584867   8.952181   8.122802
    23  H    3.973725   6.319274   7.409514   7.433654   6.372990
    24  H    3.984744   6.332368   7.418505   7.434383   6.366895
    25  H    3.410553   5.298378   6.102383   5.796061   4.555487
    26  H    3.870784   4.582998   4.838986   4.062569   2.674615
    27  H    1.087907   2.722588   4.113493   4.880823   4.602262
    28  H    2.725223   1.088143   2.144685   3.394799   3.873099
    29  H    4.625150   2.159619   1.087554   2.150150   3.393355
    30  H    5.314492   3.404952   2.156617   1.086356   2.150763
    31  H    4.594282   3.873640   3.389729   2.143166   1.088530
                   16         17         18         19         20
    16  H    0.000000
    17  H    1.771775   0.000000
    18  H    1.771107   1.774785   0.000000
    19  H    2.472202   2.492702   3.064354   0.000000
    20  H    2.473525   3.064922   2.511780   1.764103   0.000000
    21  H    3.754475   3.112719   2.560375   3.070868   2.518078
    22  H    3.754912   2.563256   3.116533   2.497617   3.063662
    23  H    4.857463   4.739494   4.386388   3.132343   2.557187
    24  H    5.570845   4.852539   4.844617   3.777680   3.763875
    25  H    7.077847   6.739629   6.613047   5.019627   4.838276
    26  H    9.223976   8.962569   8.949338   6.995944   6.965923
    27  H    6.455118   6.114260   6.961454   4.034049   5.209879
    28  H    8.807529   8.558505   9.452530   6.457460   7.581803
    29  H   11.129616  10.926339  11.697139   8.746474   9.671459
    30  H   12.044980  11.848328  12.331944   9.617728  10.188595
    31  H   10.954785  10.735755  10.948730   8.584642   8.833240
                   21         22         23         24         25
    21  H    0.000000
    22  H    1.768127   0.000000
    23  H    2.485965   3.057508   0.000000
    24  H    2.447162   2.458069   1.793556   0.000000
    25  H    4.376560   4.557995   2.330228   2.265689   0.000000
    26  H    6.787024   6.796966   4.607540   4.576819   2.417365
    27  H    5.816993   4.767088   4.414847   4.436455   4.307808
    28  H    8.298268   7.259789   6.648017   6.667970   5.948298
    29  H   10.319979   9.432699   8.399292   8.411289   7.174458
    30  H   10.589944  10.016559   8.431253   8.430257   6.701160
    31  H    8.953425   8.684707   6.728289   6.715868   4.715748
                   26         27         28         29         30
    26  H    0.000000
    27  H    4.958509   0.000000
    28  H    5.545632   2.525552   0.000000
    29  H    5.909098   4.815937   2.467848   0.000000
    30  H    4.750275   5.953165   4.291590   2.480789   0.000000
    31  H    2.455008   5.554206   4.961460   4.283344   2.461268
                   31
    31  H    0.000000
 Stoichiometry    C14H16O
 Framework group  C1[X(C14H16O)]
 Deg. of freedom    87
 Full point group                 C1      NOp   1
 Largest Abelian subgroup         C1      NOp   1
 Largest concise Abelian subgroup C1      NOp   1
                         Standard orientation:                         
 ---------------------------------------------------------------------
 Center     Atomic      Atomic             Coordinates (Angstroms)
 Number     Number       Type             X           Y           Z
 ---------------------------------------------------------------------
      1          6           0       -5.795760   -1.060283    0.350497
      2          6           0       -4.375274   -0.564889    0.573486
      3          6           0       -3.973284    0.477783   -0.471284
      4          6           0       -2.552269    0.995735   -0.253480
      5          8           0       -1.620586   -0.085792   -0.348498
      6          6           0       -0.297937    0.235372   -0.186561
      7          6           0        0.194045    1.523971    0.018658
      8          6           0        1.563235    1.740479    0.169290
      9          6           0        2.468647    0.677466    0.113992
     10          6           0        1.987723   -0.635949   -0.097438
     11          6           0        0.600611   -0.837781   -0.243755
     12          6           0        2.916481   -1.689481   -0.155121
     13          6           0        4.285222   -1.449444   -0.008411
     14          6           0        4.749281   -0.152747    0.200251
     15          6           0        3.843992    0.903300    0.262527
     16          1           0       -6.064594   -1.799560    1.111730
     17          1           0       -5.892800   -1.533915   -0.631574
     18          1           0       -6.515916   -0.237913    0.408603
     19          1           0       -3.691428   -1.419962    0.532271
     20          1           0       -4.295765   -0.134800    1.578787
     21          1           0       -4.672121    1.323024   -0.439583
     22          1           0       -4.043790    0.030849   -1.469998
     23          1           0       -2.486547    1.464148    0.736584
     24          1           0       -2.334031    1.740899   -1.028915
     25          1           0       -0.457374    2.390076    0.061990
     26          1           0        1.917052    2.756968    0.328719
     27          1           0        0.209598   -1.840053   -0.405315
     28          1           0        2.578477   -2.711185   -0.316148
     29          1           0        4.993333   -2.273451   -0.057047
     30          1           0        5.812568    0.038538    0.314264
     31          1           0        4.219747    1.911474    0.427722
 ---------------------------------------------------------------------
 Rotational constants (GHZ):      1.9702391      0.2323541      0.2119219
 Leave Link  202 at Thu Sep 30 06:12:57 2021, MaxMem= 1342177280 cpu:       0.1
 (Enter /sw/target/amd/app/gaussian/Gaussian09RevA.02_gcc-4.9.2/g09/l301.exe)
 Standard basis: 6-31G(d) (6D, 7F)
 Ernie: Thresh=  0.10000D-02 Tol=  0.10000D-05 Strict=F.
 There are   257 symmetry adapted basis functions of A   symmetry.
 Integral buffers will be    131072 words long.
 Raffenetti 2 integral format.
 Two-electron integral symmetry is turned on.
   257 basis functions,   484 primitive gaussians,   257 cartesian basis functions
    54 alpha electrons       54 beta electrons
       nuclear repulsion energy       904.1196142750 Hartrees.
 IExCor=  402 DFT=T Ex+Corr=B3LYP ExCW=0 ScaHFX=  0.200000
 ScaDFX=  0.800000  0.720000  1.000000  0.810000 ScalE2=  1.000000  1.000000
 IRadAn=      0 IRanWt=     -1 IRanGd=            0 ICorTp=0
 NAtoms=   31 NActive=   31 NUniq=   31 SFac= 7.50D-01 NAtFMM=   80 NAOKFM=F Big=F
 Leave Link  301 at Thu Sep 30 06:12:58 2021, MaxMem= 1342177280 cpu:       0.1
 (Enter /sw/target/amd/app/gaussian/Gaussian09RevA.02_gcc-4.9.2/g09/l302.exe)
 NPDir=0 NMtPBC=     1 NCelOv=     1 NCel=       1 NClECP=     1 NCelD=      1
         NCelK=      1 NCelE2=     1 NClLst=     1 CellRange=     0.0.
 One-electron integrals computed using PRISM.
 NBasis=   257 RedAO= T  NBF=   257
 NBsUse=   257 1.00D-06 NBFU=   257
 Precomputing XC quadrature grid using
 IXCGrd= 2 IRadAn=           0 IRanWt=          -1 IRanGd=           0 AccXCQ= 1.00D-10.
 NRdTot=    1974 NPtTot=      251816 NUsed=      266050 NTot=      266082
 NSgBfM=   255   255   255   255   255 NAtAll=    31    31.
 Leave Link  302 at Thu Sep 30 06:13:02 2021, MaxMem= 1342177280 cpu:       2.7
 (Enter /sw/target/amd/app/gaussian/Gaussian09RevA.02_gcc-4.9.2/g09/l303.exe)
 DipDrv:  MaxL=1.
 Leave Link  303 at Thu Sep 30 06:13:03 2021, MaxMem= 1342177280 cpu:       0.2
 (Enter /sw/target/amd/app/gaussian/Gaussian09RevA.02_gcc-4.9.2/g09/l401.exe)
 Harris functional with IExCor=  402 diagonalized for initial guess.
 ExpMin= 1.61D-01 ExpMax= 5.48D+03 ExpMxC= 8.25D+02 IAcc=1 IRadAn=         1 AccDes= 0.00D+00
 HarFok:  IExCor=  402 AccDes= 0.00D+00 IRadAn=         1 IDoV= 1
 ScaDFX=  1.000000  1.000000  1.000000  1.000000
 FoFCou: FMM=F IPFlag=           0 FMFlag=      100000 FMFlg1=           0
         NFxFlg=           0 DoJE=T BraDBF=F KetDBF=T FulRan=T
         Omega=  0.000000  0.000000  1.000000  0.000000  0.000000 ICntrl=     500 IOpCl=  0
         NMat0=    1 NMatS0=    1 NMatT0=    0 NMatD0=    1 NMtDS0=    0 NMtDT0=    0
         I1Cent=           4 NGrid=           0.
 Petite list used in FoFCou.
 Harris En= -618.455350010061    
 Initial guess orbital symmetries:
       Occupied  (A) (A) (A) (A) (A) (A) (A) (A) (A) (A) (A) (A)
                 (A) (A) (A) (A) (A) (A) (A) (A) (A) (A) (A) (A)
                 (A) (A) (A) (A) (A) (A) (A) (A) (A) (A) (A) (A)
                 (A) (A) (A) (A) (A) (A) (A) (A) (A) (A) (A) (A)
                 (A) (A) (A) (A) (A) (A)
       Virtual   (A) (A) (A) (A) (A) (A) (A) (A) (A) (A) (A) (A)
                 (A) (A) (A) (A) (A) (A) (A) (A) (A) (A) (A) (A)
                 (A) (A) (A) (A) (A) (A) (A) (A) (A) (A) (A) (A)
                 (A) (A) (A) (A) (A) (A) (A) (A) (A) (A) (A) (A)
                 (A) (A) (A) (A) (A) (A) (A) (A) (A) (A) (A) (A)
                 (A) (A) (A) (A) (A) (A) (A) (A) (A) (A) (A) (A)
                 (A) (A) (A) (A) (A) (A) (A) (A) (A) (A) (A) (A)
                 (A) (A) (A) (A) (A) (A) (A) (A) (A) (A) (A) (A)
                 (A) (A) (A) (A) (A) (A) (A) (A) (A) (A) (A) (A)
                 (A) (A) (A) (A) (A) (A) (A) (A) (A) (A) (A) (A)
                 (A) (A) (A) (A) (A) (A) (A) (A) (A) (A) (A) (A)
                 (A) (A) (A) (A) (A) (A) (A) (A) (A) (A) (A) (A)
                 (A) (A) (A) (A) (A) (A) (A) (A) (A) (A) (A) (A)
                 (A) (A) (A) (A) (A) (A) (A) (A) (A) (A) (A) (A)
                 (A) (A) (A) (A) (A) (A) (A) (A) (A) (A) (A) (A)
                 (A) (A) (A) (A) (A) (A) (A) (A) (A) (A) (A) (A)
                 (A) (A) (A) (A) (A) (A) (A) (A) (A) (A) (A)
 The electronic state of the initial guess is 1-A.
 Leave Link  401 at Thu Sep 30 06:13:17 2021, MaxMem= 1342177280 cpu:      11.0
 (Enter /sw/target/amd/app/gaussian/Gaussian09RevA.02_gcc-4.9.2/g09/l502.exe)
 Closed shell SCF:
 Requested convergence on RMS density matrix=1.00D-08 within  64 cycles.
 Requested convergence on MAX density matrix=1.00D-06.
 Requested convergence on             energy=1.00D-06.
 No special actions if energy rises.
 Using DIIS extrapolation, IDIIS=  1040.
 Integral symmetry usage will be decided dynamically.
       265758 words used for storage of precomputed grid.
 Keep R1 ints in memory in canonical form, NReq=558636860.
 IEnd=      472938 IEndB=      472938 NGot=  1342177280 MDV=   792197564
 LenX=   792197564 LenY=   792131074
 Symmetry not used in FoFDir.
 MinBra= 0 MaxBra= 2 Meth= 1.
 IRaf=       0 NMat=   1 IRICut=       1 DoRegI=T DoRafI=F ISym2E= 0 JSym2E=0.
 Integral accuracy reduced to 1.0D-05 until final iterations.

 Cycle   1  Pass 0  IDiag  1:
 E= -617.954011091160    
 DIIS: error= 3.48D-02 at cycle   1 NSaved=   1.
 NSaved= 1 IEnMin= 1 EnMin= -617.954011091160     IErMin= 1 ErrMin= 3.48D-02
 ErrMax= 3.48D-02 EMaxC= 1.00D-01 BMatC= 3.61D-01 BMatP= 3.61D-01
 IDIUse=3 WtCom= 6.52D-01 WtEn= 3.48D-01
 Coeff-Com:  0.100D+01
 Coeff-En:   0.100D+01
 Coeff:      0.100D+01
 Gap=     0.174 Goal=   None    Shift=    0.000
 GapD=    0.174 DampG=1.000 DampE=0.500 DampFc=0.5000 IDamp=-1.
 Damping current iteration by 5.00D-01
 RMSDP=5.72D-03 MaxDP=1.42D-01              OVMax= 1.79D-01

 Cycle   2  Pass 0  IDiag  1:
 E= -618.138673889863     Delta-E=       -0.184662798703 Rises=F Damp=T
 DIIS: error= 6.11D-03 at cycle   2 NSaved=   2.
 NSaved= 2 IEnMin= 2 EnMin= -618.138673889863     IErMin= 2 ErrMin= 6.11D-03
 ErrMax= 6.11D-03 EMaxC= 1.00D-01 BMatC= 1.94D-02 BMatP= 3.61D-01
 IDIUse=3 WtCom= 9.39D-01 WtEn= 6.11D-02
 Coeff-Com:  0.368D-01 0.963D+00
 Coeff-En:   0.617D-01 0.938D+00
 Coeff:      0.383D-01 0.962D+00
 Gap=     0.164 Goal=   None    Shift=    0.000
 RMSDP=1.74D-03 MaxDP=4.38D-02 DE=-1.85D-01 OVMax= 1.66D-01

 Cycle   3  Pass 0  IDiag  1:
 E= -618.339759699894     Delta-E=       -0.201085810031 Rises=F Damp=F
 DIIS: error= 6.28D-03 at cycle   3 NSaved=   3.
 NSaved= 3 IEnMin= 3 EnMin= -618.339759699894     IErMin= 2 ErrMin= 6.11D-03
 ErrMax= 6.28D-03 EMaxC= 1.00D-01 BMatC= 1.47D-02 BMatP= 1.94D-02
 IDIUse=3 WtCom= 9.37D-01 WtEn= 6.28D-02
 Coeff-Com: -0.193D-01 0.462D+00 0.557D+00
 Coeff-En:   0.000D+00 0.000D+00 0.100D+01
 Coeff:     -0.181D-01 0.433D+00 0.585D+00
 Gap=     0.162 Goal=   None    Shift=    0.000
 RMSDP=8.98D-04 MaxDP=3.65D-02 DE=-2.01D-01 OVMax= 7.68D-02

 Cycle   4  Pass 0  IDiag  1:
 E= -618.349654187867     Delta-E=       -0.009894487973 Rises=F Damp=F
 DIIS: error= 4.21D-03 at cycle   4 NSaved=   4.
 NSaved= 4 IEnMin= 4 EnMin= -618.349654187867     IErMin= 4 ErrMin= 4.21D-03
 ErrMax= 4.21D-03 EMaxC= 1.00D-01 BMatC= 5.66D-03 BMatP= 1.47D-02
 IDIUse=3 WtCom= 9.58D-01 WtEn= 4.21D-02
 Coeff-Com: -0.152D-01 0.108D+00 0.388D+00 0.519D+00
 Coeff-En:   0.000D+00 0.000D+00 0.319D+00 0.681D+00
 Coeff:     -0.146D-01 0.103D+00 0.386D+00 0.526D+00
 Gap=     0.159 Goal=   None    Shift=    0.000
 RMSDP=3.82D-04 MaxDP=1.41D-02 DE=-9.89D-03 OVMax= 3.59D-02

 Cycle   5  Pass 0  IDiag  1:
 E= -618.355967973160     Delta-E=       -0.006313785293 Rises=F Damp=F
 DIIS: error= 4.99D-04 at cycle   5 NSaved=   5.
 NSaved= 5 IEnMin= 5 EnMin= -618.355967973160     IErMin= 5 ErrMin= 4.99D-04
 ErrMax= 4.99D-04 EMaxC= 1.00D-01 BMatC= 1.78D-04 BMatP= 5.66D-03
 IDIUse=3 WtCom= 9.95D-01 WtEn= 4.99D-03
 Coeff-Com: -0.481D-02 0.186D-01 0.140D+00 0.250D+00 0.596D+00
 Coeff-En:   0.000D+00 0.000D+00 0.000D+00 0.000D+00 0.100D+01
 Coeff:     -0.478D-02 0.185D-01 0.140D+00 0.249D+00 0.598D+00
 Gap=     0.158 Goal=   None    Shift=    0.000
 RMSDP=6.48D-05 MaxDP=2.22D-03 DE=-6.31D-03 OVMax= 4.86D-03

 Cycle   6  Pass 0  IDiag  1:
 E= -618.356145042573     Delta-E=       -0.000177069413 Rises=F Damp=F
 DIIS: error= 1.48D-04 at cycle   6 NSaved=   6.
 NSaved= 6 IEnMin= 6 EnMin= -618.356145042573     IErMin= 6 ErrMin= 1.48D-04
 ErrMax= 1.48D-04 EMaxC= 1.00D-01 BMatC= 1.44D-05 BMatP= 1.78D-04
 IDIUse=3 WtCom= 9.99D-01 WtEn= 1.48D-03
 Coeff-Com: -0.104D-02 0.599D-03 0.369D-01 0.780D-01 0.294D+00 0.591D+00
 Coeff-En:   0.000D+00 0.000D+00 0.000D+00 0.000D+00 0.000D+00 0.100D+01
 Coeff:     -0.104D-02 0.598D-03 0.369D-01 0.779D-01 0.294D+00 0.592D+00
 Gap=     0.158 Goal=   None    Shift=    0.000
 RMSDP=1.57D-05 MaxDP=4.27D-04 DE=-1.77D-04 OVMax= 8.35D-04

 Cycle   7  Pass 0  IDiag  1:
 E= -618.356158072858     Delta-E=       -0.000013030285 Rises=F Damp=F
 DIIS: error= 5.38D-05 at cycle   7 NSaved=   7.
 NSaved= 7 IEnMin= 7 EnMin= -618.356158072858     IErMin= 7 ErrMin= 5.38D-05
 ErrMax= 5.38D-05 EMaxC= 1.00D-01 BMatC= 5.62D-07 BMatP= 1.44D-05
 IDIUse=1 WtCom= 1.00D+00 WtEn= 0.00D+00
 Coeff-Com: -0.280D-03-0.298D-03 0.128D-01 0.277D-01 0.119D+00 0.273D+00
 Coeff-Com:  0.568D+00
 Coeff:     -0.280D-03-0.298D-03 0.128D-01 0.277D-01 0.119D+00 0.273D+00
 Coeff:      0.568D+00
 Gap=     0.158 Goal=   None    Shift=    0.000
 RMSDP=4.60D-06 MaxDP=1.45D-04 DE=-1.30D-05 OVMax= 4.64D-04

 Initial convergence to 1.0D-05 achieved.  Increase integral accuracy.
 Cycle   8  Pass 1  IDiag  1:
 E= -618.356197072710     Delta-E=       -0.000038999852 Rises=F Damp=F
 DIIS: error= 3.09D-05 at cycle   1 NSaved=   1.
 NSaved= 1 IEnMin= 1 EnMin= -618.356197072710     IErMin= 1 ErrMin= 3.09D-05
 ErrMax= 3.09D-05 EMaxC= 1.00D-01 BMatC= 2.12D-07 BMatP= 2.12D-07
 IDIUse=1 WtCom= 1.00D+00 WtEn= 0.00D+00
 Coeff-Com:  0.100D+01
 Coeff:      0.100D+01
 Gap=     0.158 Goal=   None    Shift=    0.000
 RMSDP=4.60D-06 MaxDP=1.45D-04 DE=-3.90D-05 OVMax= 5.74D-04

 Cycle   9  Pass 1  IDiag  1:
 E= -618.356196629677     Delta-E=        0.000000443033 Rises=F Damp=F
 DIIS: error= 6.90D-05 at cycle   2 NSaved=   2.
 NSaved= 2 IEnMin= 1 EnMin= -618.356197072710     IErMin= 1 ErrMin= 3.09D-05
 ErrMax= 6.90D-05 EMaxC= 1.00D-01 BMatC= 6.30D-07 BMatP= 2.12D-07
 IDIUse=1 WtCom= 1.00D+00 WtEn= 0.00D+00
 Coeff-Com:  0.643D+00 0.357D+00
 Coeff:      0.643D+00 0.357D+00
 Gap=     0.158 Goal=   None    Shift=    0.000
 RMSDP=3.80D-06 MaxDP=1.44D-04 DE= 4.43D-07 OVMax= 4.72D-04

 Cycle  10  Pass 1  IDiag  1:
 E= -618.356197296977     Delta-E=       -0.000000667300 Rises=F Damp=F
 DIIS: error= 9.16D-06 at cycle   3 NSaved=   3.
 NSaved= 3 IEnMin= 3 EnMin= -618.356197296977     IErMin= 3 ErrMin= 9.16D-06
 ErrMax= 9.16D-06 EMaxC= 1.00D-01 BMatC= 1.15D-08 BMatP= 2.12D-07
 IDIUse=1 WtCom= 1.00D+00 WtEn= 0.00D+00
 Coeff-Com:  0.105D+00 0.134D+00 0.761D+00
 Coeff:      0.105D+00 0.134D+00 0.761D+00
 Gap=     0.158 Goal=   None    Shift=    0.000
 RMSDP=7.85D-07 MaxDP=2.31D-05 DE=-6.67D-07 OVMax= 8.42D-05

 Cycle  11  Pass 1  IDiag  1:
 E= -618.356197304861     Delta-E=       -0.000000007884 Rises=F Damp=F
 DIIS: error= 4.36D-06 at cycle   4 NSaved=   4.
 NSaved= 4 IEnMin= 4 EnMin= -618.356197304861     IErMin= 4 ErrMin= 4.36D-06
 ErrMax= 4.36D-06 EMaxC= 1.00D-01 BMatC= 5.64D-09 BMatP= 1.15D-08
 IDIUse=1 WtCom= 1.00D+00 WtEn= 0.00D+00
 Coeff-Com: -0.830D-02 0.459D-01 0.498D+00 0.464D+00
 Coeff:     -0.830D-02 0.459D-01 0.498D+00 0.464D+00
 Gap=     0.158 Goal=   None    Shift=    0.000
 RMSDP=3.54D-07 MaxDP=1.14D-05 DE=-7.88D-09 OVMax= 3.28D-05

 Cycle  12  Pass 1  IDiag  1:
 E= -618.356197310340     Delta-E=       -0.000000005479 Rises=F Damp=F
 DIIS: error= 7.63D-07 at cycle   5 NSaved=   5.
 NSaved= 5 IEnMin= 5 EnMin= -618.356197310340     IErMin= 5 ErrMin= 7.63D-07
 ErrMax= 7.63D-07 EMaxC= 1.00D-01 BMatC= 1.95D-10 BMatP= 5.64D-09
 IDIUse=1 WtCom= 1.00D+00 WtEn= 0.00D+00
 Coeff-Com: -0.101D-01 0.189D-01 0.238D+00 0.258D+00 0.496D+00
 Coeff:     -0.101D-01 0.189D-01 0.238D+00 0.258D+00 0.496D+00
 Gap=     0.158 Goal=   None    Shift=    0.000
 RMSDP=7.37D-08 MaxDP=1.84D-06 DE=-5.48D-09 OVMax= 4.97D-06

 Cycle  13  Pass 1  IDiag  1:
 E= -618.356197310521     Delta-E=       -0.000000000181 Rises=F Damp=F
 DIIS: error= 1.71D-07 at cycle   6 NSaved=   6.
 NSaved= 6 IEnMin= 6 EnMin= -618.356197310521     IErMin= 6 ErrMin= 1.71D-07
 ErrMax= 1.71D-07 EMaxC= 1.00D-01 BMatC= 1.35D-11 BMatP= 1.95D-10
 IDIUse=1 WtCom= 1.00D+00 WtEn= 0.00D+00
 Coeff-Com: -0.432D-02 0.590D-02 0.770D-01 0.910D-01 0.264D+00 0.567D+00
 Coeff:     -0.432D-02 0.590D-02 0.770D-01 0.910D-01 0.264D+00 0.567D+00
 Gap=     0.158 Goal=   None    Shift=    0.000
 RMSDP=1.93D-08 MaxDP=5.65D-07 DE=-1.81D-10 OVMax= 1.37D-06

 Cycle  14  Pass 1  IDiag  1:
 E= -618.356197310526     Delta-E=       -0.000000000005 Rises=F Damp=F
 DIIS: error= 6.24D-08 at cycle   7 NSaved=   7.
 NSaved= 7 IEnMin= 7 EnMin= -618.356197310526     IErMin= 7 ErrMin= 6.24D-08
 ErrMax= 6.24D-08 EMaxC= 1.00D-01 BMatC= 1.22D-12 BMatP= 1.35D-11
 IDIUse=1 WtCom= 1.00D+00 WtEn= 0.00D+00
 Coeff-Com: -0.146D-02 0.165D-02 0.207D-01 0.271D-01 0.987D-01 0.297D+00
 Coeff-Com:  0.556D+00
 Coeff:     -0.146D-02 0.165D-02 0.207D-01 0.271D-01 0.987D-01 0.297D+00
 Coeff:      0.556D+00
 Gap=     0.158 Goal=   None    Shift=    0.000
 RMSDP=5.77D-09 MaxDP=1.98D-07 DE=-4.77D-12 OVMax= 3.92D-07

 SCF Done:  E(RB3LYP) =  -618.356197311     A.U. after   14 cycles
             Convg  =    0.5770D-08             -V/T =  2.0094
 KE= 6.125699538954D+02 PE=-3.242185801989D+03 EE= 1.107140036508D+03
 Leave Link  502 at Thu Sep 30 06:21:58 2021, MaxMem= 1342177280 cpu:     283.3
 (Enter /sw/target/amd/app/gaussian/Gaussian09RevA.02_gcc-4.9.2/g09/l508.exe)
 QCSCF skips out because SCF is already converged.
 Leave Link  508 at Thu Sep 30 06:22:01 2021, MaxMem= 1342177280 cpu:       0.0
 (Enter /sw/target/amd/app/gaussian/Gaussian09RevA.02_gcc-4.9.2/g09/l601.exe)
 Copying SCF densities to generalized density rwf, IOpCl= 0 IROHF=0.

 **********************************************************************

            Population analysis using the SCF density.

 **********************************************************************

 Orbital symmetries:
       Occupied  (A) (A) (A) (A) (A) (A) (A) (A) (A) (A) (A) (A)
                 (A) (A) (A) (A) (A) (A) (A) (A) (A) (A) (A) (A)
                 (A) (A) (A) (A) (A) (A) (A) (A) (A) (A) (A) (A)
                 (A) (A) (A) (A) (A) (A) (A) (A) (A) (A) (A) (A)
                 (A) (A) (A) (A) (A) (A)
       Virtual   (A) (A) (A) (A) (A) (A) (A) (A) (A) (A) (A) (A)
                 (A) (A) (A) (A) (A) (A) (A) (A) (A) (A) (A) (A)
                 (A) (A) (A) (A) (A) (A) (A) (A) (A) (A) (A) (A)
                 (A) (A) (A) (A) (A) (A) (A) (A) (A) (A) (A) (A)
                 (A) (A) (A) (A) (A) (A) (A) (A) (A) (A) (A) (A)
                 (A) (A) (A) (A) (A) (A) (A) (A) (A) (A) (A) (A)
                 (A) (A) (A) (A) (A) (A) (A) (A) (A) (A) (A) (A)
                 (A) (A) (A) (A) (A) (A) (A) (A) (A) (A) (A) (A)
                 (A) (A) (A) (A) (A) (A) (A) (A) (A) (A) (A) (A)
                 (A) (A) (A) (A) (A) (A) (A) (A) (A) (A) (A) (A)
                 (A) (A) (A) (A) (A) (A) (A) (A) (A) (A) (A) (A)
                 (A) (A) (A) (A) (A) (A) (A) (A) (A) (A) (A) (A)
                 (A) (A) (A) (A) (A) (A) (A) (A) (A) (A) (A) (A)
                 (A) (A) (A) (A) (A) (A) (A) (A) (A) (A) (A) (A)
                 (A) (A) (A) (A) (A) (A) (A) (A) (A) (A) (A) (A)
                 (A) (A) (A) (A) (A) (A) (A) (A) (A) (A) (A) (A)
                 (A) (A) (A) (A) (A) (A) (A) (A) (A) (A) (A)
 The electronic state is 1-A.
 Alpha  occ. eigenvalues --  -19.17446 -10.24480 -10.23950 -10.19049 -10.18992
 Alpha  occ. eigenvalues --  -10.18816 -10.18629 -10.18496 -10.18483 -10.18398
 Alpha  occ. eigenvalues --  -10.18302 -10.18161 -10.17912 -10.17784 -10.17164
 Alpha  occ. eigenvalues --   -1.05865  -0.87033  -0.81712  -0.79734  -0.76793
 Alpha  occ. eigenvalues --   -0.74240  -0.72813  -0.70095  -0.64151  -0.62533
 Alpha  occ. eigenvalues --   -0.59918  -0.59393  -0.57551  -0.53109  -0.51036
 Alpha  occ. eigenvalues --   -0.49844  -0.47906  -0.46362  -0.45275  -0.44479
 Alpha  occ. eigenvalues --   -0.43677  -0.41829  -0.41036  -0.40331  -0.39802
 Alpha  occ. eigenvalues --   -0.38792  -0.38558  -0.37698  -0.35434  -0.34823
 Alpha  occ. eigenvalues --   -0.33805  -0.33513  -0.33145  -0.32697  -0.31429
 Alpha  occ. eigenvalues --   -0.29709  -0.27229  -0.23075  -0.19510
 Alpha virt. eigenvalues --   -0.03677   0.00862   0.03855   0.09154   0.09540
 Alpha virt. eigenvalues --    0.10950   0.11233   0.11787   0.12687   0.13279
 Alpha virt. eigenvalues --    0.14576   0.14801   0.16509   0.16824   0.17472
 Alpha virt. eigenvalues --    0.17867   0.18375   0.19117   0.19708   0.20124
 Alpha virt. eigenvalues --    0.21329   0.21747   0.23614   0.24866   0.25522
 Alpha virt. eigenvalues --    0.25948   0.27502   0.29206   0.31637   0.33542
 Alpha virt. eigenvalues --    0.34866   0.36109   0.38495   0.48350   0.48762
 Alpha virt. eigenvalues --    0.50617   0.51497   0.52125   0.52543   0.53180
 Alpha virt. eigenvalues --    0.54249   0.54952   0.55353   0.55569   0.56617
 Alpha virt. eigenvalues --    0.57409   0.57758   0.58039   0.59937   0.60730
 Alpha virt. eigenvalues --    0.60906   0.61431   0.61873   0.62445   0.63010
 Alpha virt. eigenvalues --    0.63341   0.65172   0.65783   0.67981   0.68155
 Alpha virt. eigenvalues --    0.68708   0.69506   0.70526   0.73330   0.76806
 Alpha virt. eigenvalues --    0.77578   0.80538   0.83132   0.83331   0.83785
 Alpha virt. eigenvalues --    0.84464   0.85206   0.85713   0.86432   0.87182
 Alpha virt. eigenvalues --    0.88408   0.89406   0.90145   0.90939   0.91817
 Alpha virt. eigenvalues --    0.92554   0.94067   0.94407   0.94577   0.95859
 Alpha virt. eigenvalues --    0.96161   0.97588   0.98966   0.99537   1.00809
 Alpha virt. eigenvalues --    1.04068   1.04686   1.07203   1.09514   1.10913
 Alpha virt. eigenvalues --    1.14307   1.15829   1.19782   1.20150   1.23541
 Alpha virt. eigenvalues --    1.24338   1.26523   1.26773   1.33183   1.34910
 Alpha virt. eigenvalues --    1.37230   1.39678   1.39955   1.41239   1.43443
 Alpha virt. eigenvalues --    1.45475   1.46505   1.47763   1.49149   1.49523
 Alpha virt. eigenvalues --    1.50324   1.51136   1.52200   1.53037   1.55625
 Alpha virt. eigenvalues --    1.62969   1.69097   1.72867   1.74330   1.79463
 Alpha virt. eigenvalues --    1.81618   1.84589   1.85778   1.86876   1.88140
 Alpha virt. eigenvalues --    1.90170   1.91088   1.91541   1.92358   1.94086
 Alpha virt. eigenvalues --    1.94967   1.95311   1.96252   1.97423   1.98019
 Alpha virt. eigenvalues --    1.98707   2.02757   2.04111   2.06148   2.07024
 Alpha virt. eigenvalues --    2.10891   2.12258   2.13752   2.15697   2.16470
 Alpha virt. eigenvalues --    2.18629   2.20895   2.22941   2.25110   2.26598
 Alpha virt. eigenvalues --    2.27959   2.29233   2.33060   2.33609   2.34169
 Alpha virt. eigenvalues --    2.34481   2.38112   2.39254   2.40608   2.42497
 Alpha virt. eigenvalues --    2.44636   2.53434   2.54909   2.58649   2.61028
 Alpha virt. eigenvalues --    2.64611   2.64870   2.66794   2.69375   2.69836
 Alpha virt. eigenvalues --    2.70718   2.75953   2.79236   2.80246   2.83235
 Alpha virt. eigenvalues --    2.85800   2.90473   2.91641   3.04547   3.07150
 Alpha virt. eigenvalues --    3.18028   3.39845   3.50795   4.06753   4.09612
 Alpha virt. eigenvalues --    4.11145   4.12482   4.13952   4.15201   4.23200
 Alpha virt. eigenvalues --    4.28151   4.32026   4.38634   4.41947   4.43927
 Alpha virt. eigenvalues --    4.52471   4.62547   4.85564
          Condensed to atoms (all electrons):
              1          2          3          4          5          6
     1  C    5.065161   0.375557  -0.047757   0.004164   0.000154  -0.000004
     2  C    0.375557   4.956885   0.380310  -0.037749  -0.001153   0.000200
     3  C   -0.047757   0.380310   5.034844   0.376497  -0.044185   0.002935
     4  C    0.004164  -0.037749   0.376497   4.855949   0.227014  -0.036143
     5  O    0.000154  -0.001153  -0.044185   0.227014   8.248632   0.267997
     6  C   -0.000004   0.000200   0.002935  -0.036143   0.267997   4.561701
     7  C    0.000000  -0.000010   0.000499  -0.007025  -0.059115   0.417512
     8  C   -0.000000   0.000000  -0.000005   0.000675   0.003413   0.011285
     9  C   -0.000000   0.000000  -0.000000  -0.000038   0.000342  -0.036887
    10  C    0.000000  -0.000000   0.000002  -0.000053   0.001956   0.010990
    11  C    0.000000  -0.000027  -0.000156   0.003144  -0.047533   0.494194
    12  C    0.000000  -0.000000  -0.000000   0.000003  -0.000075   0.007958
    13  C   -0.000000   0.000000   0.000000  -0.000000   0.000000  -0.000299
    14  C    0.000000  -0.000000   0.000000   0.000000  -0.000000   0.000058
    15  C   -0.000000   0.000000  -0.000000  -0.000000   0.000001  -0.000862
    16  H    0.373765  -0.030160   0.004687  -0.000168   0.000002   0.000000
    17  H    0.378950  -0.035663  -0.005180   0.000092  -0.000001  -0.000000
    18  H    0.376750  -0.035503  -0.005008   0.000020  -0.000002   0.000000
    19  H   -0.038366   0.382748  -0.037316  -0.007473   0.008419   0.000254
    20  H   -0.039736   0.377000  -0.042731  -0.002846  -0.000396  -0.000021
    21  H   -0.003651  -0.038199   0.363190  -0.031042   0.002701  -0.000049
    22  H   -0.003582  -0.041085   0.368302  -0.033146   0.000998   0.000077
    23  H   -0.000019  -0.010107  -0.037558   0.357598  -0.039047  -0.004452
    24  H   -0.000127   0.005901  -0.037939   0.360997  -0.037036  -0.005810
    25  H   -0.000000   0.000005  -0.000079   0.005992  -0.007130  -0.044835
    26  H    0.000000  -0.000000  -0.000000  -0.000008  -0.000047   0.002981
    27  H   -0.000000  -0.000003  -0.000020  -0.000302   0.000481  -0.039705
    28  H    0.000000  -0.000000  -0.000000   0.000000  -0.000002   0.000125
    29  H   -0.000000   0.000000  -0.000000   0.000000  -0.000000   0.000003
    30  H   -0.000000   0.000000  -0.000000  -0.000000   0.000000  -0.000001
    31  H   -0.000000   0.000000  -0.000000   0.000000  -0.000000   0.000006
              7          8          9         10         11         12
     1  C    0.000000  -0.000000  -0.000000   0.000000   0.000000   0.000000
     2  C   -0.000010   0.000000   0.000000  -0.000000  -0.000027  -0.000000
     3  C    0.000499  -0.000005  -0.000000   0.000002  -0.000156  -0.000000
     4  C   -0.007025   0.000675  -0.000038  -0.000053   0.003144   0.000003
     5  O   -0.059115   0.003413   0.000342   0.001956  -0.047533  -0.000075
     6  C    0.417512   0.011285  -0.036887   0.010990   0.494194   0.007958
     7  C    5.152849   0.452424  -0.001875  -0.041798  -0.052627  -0.000788
     8  C    0.452424   5.166234   0.444450  -0.024612  -0.076313   0.017988
     9  C   -0.001875   0.444450   4.677223   0.487120  -0.032057  -0.027603
    10  C   -0.041798  -0.024612   0.487120   4.666594   0.424348   0.443683
    11  C   -0.052627  -0.076313  -0.032057   0.424348   5.296756  -0.097947
    12  C   -0.000788   0.017988  -0.027603   0.443683  -0.097947   5.139455
    13  C    0.000071  -0.000732  -0.039991  -0.002598   0.007914   0.513394
    14  C   -0.000409   0.008985  -0.001485  -0.039057  -0.000638  -0.019515
    15  C    0.010234  -0.102577   0.444375  -0.030365   0.017172  -0.078096
    16  H    0.000000   0.000000  -0.000000  -0.000000  -0.000000   0.000000
    17  H    0.000000   0.000000   0.000000  -0.000000   0.000000   0.000000
    18  H   -0.000000   0.000000   0.000000  -0.000000   0.000000  -0.000000
    19  H    0.000032  -0.000001   0.000000  -0.000000  -0.000033  -0.000000
    20  H   -0.000001  -0.000000   0.000000  -0.000000  -0.000001  -0.000000
    21  H    0.000005  -0.000000  -0.000000  -0.000000   0.000004   0.000000
    22  H    0.000009  -0.000000   0.000000  -0.000000  -0.000024  -0.000000
    23  H    0.004456  -0.000138   0.000001  -0.000003   0.000187  -0.000000
    24  H    0.004458  -0.000054  -0.000002   0.000002   0.000096  -0.000000
    25  H    0.351108  -0.034482   0.002599   0.001027   0.004146   0.000011
    26  H   -0.041963   0.353517  -0.037737   0.004438   0.000664  -0.000212
    27  H    0.007617  -0.000060   0.005063  -0.042230   0.343181  -0.008870
    28  H    0.000011  -0.000206   0.004733  -0.039911  -0.008080   0.353317
    29  H   -0.000001   0.000009   0.001037   0.002719  -0.000190  -0.036652
    30  H    0.000004  -0.000218   0.002733   0.001080   0.000012   0.004321
    31  H    0.000299  -0.009012  -0.043362   0.004520  -0.000181   0.000515
             13         14         15         16         17         18
     1  C   -0.000000   0.000000  -0.000000   0.373765   0.378950   0.376750
     2  C    0.000000  -0.000000   0.000000  -0.030160  -0.035663  -0.035503
     3  C    0.000000   0.000000  -0.000000   0.004687  -0.005180  -0.005008
     4  C   -0.000000   0.000000  -0.000000  -0.000168   0.000092   0.000020
     5  O    0.000000  -0.000000   0.000001   0.000002  -0.000001  -0.000002
     6  C   -0.000299   0.000058  -0.000862   0.000000  -0.000000   0.000000
     7  C    0.000071  -0.000409   0.010234   0.000000   0.000000  -0.000000
     8  C   -0.000732   0.008985  -0.102577   0.000000   0.000000   0.000000
     9  C   -0.039991  -0.001485   0.444375  -0.000000   0.000000   0.000000
    10  C   -0.002598  -0.039057  -0.030365  -0.000000  -0.000000  -0.000000
    11  C    0.007914  -0.000638   0.017172  -0.000000   0.000000   0.000000
    12  C    0.513394  -0.019515  -0.078096   0.000000   0.000000  -0.000000
    13  C    4.894430   0.504676  -0.018964  -0.000000   0.000000   0.000000
    14  C    0.504676   4.905597   0.507891   0.000000  -0.000000  -0.000000
    15  C   -0.018964   0.507891   5.136657   0.000000   0.000000   0.000000
    16  H   -0.000000   0.000000   0.000000   0.575404  -0.030287  -0.030941
    17  H    0.000000  -0.000000   0.000000  -0.030287   0.575878  -0.032492
    18  H    0.000000  -0.000000   0.000000  -0.030941  -0.032492   0.583242
    19  H   -0.000000  -0.000000   0.000000  -0.002528  -0.004725   0.005178
    20  H   -0.000000  -0.000000   0.000000  -0.003096   0.005508  -0.004576
    21  H   -0.000000   0.000000  -0.000000  -0.000021  -0.000427   0.005149
    22  H    0.000000  -0.000000   0.000000  -0.000038   0.005080  -0.000370
    23  H   -0.000000   0.000000   0.000000  -0.000001   0.000008   0.000005
    24  H   -0.000000   0.000000   0.000000   0.000003   0.000004  -0.000006
    25  H   -0.000001   0.000004  -0.000215   0.000000  -0.000000   0.000000
    26  H    0.000013   0.000235  -0.008883  -0.000000   0.000000  -0.000000
    27  H    0.000185   0.000007  -0.000148   0.000000   0.000000   0.000000
    28  H   -0.045603   0.004556   0.000646   0.000000  -0.000000  -0.000000
    29  H    0.356642  -0.042604   0.004485   0.000000   0.000000   0.000000
    30  H   -0.042293   0.356073  -0.036662   0.000000  -0.000000  -0.000000
    31  H    0.004767  -0.046000   0.355405   0.000000   0.000000  -0.000000
             19         20         21         22         23         24
     1  C   -0.038366  -0.039736  -0.003651  -0.003582  -0.000019  -0.000127
     2  C    0.382748   0.377000  -0.038199  -0.041085  -0.010107   0.005901
     3  C   -0.037316  -0.042731   0.363190   0.368302  -0.037558  -0.037939
     4  C   -0.007473  -0.002846  -0.031042  -0.033146   0.357598   0.360997
     5  O    0.008419  -0.000396   0.002701   0.000998  -0.039047  -0.037036
     6  C    0.000254  -0.000021  -0.000049   0.000077  -0.004452  -0.005810
     7  C    0.000032  -0.000001   0.000005   0.000009   0.004456   0.004458
     8  C   -0.000001  -0.000000  -0.000000  -0.000000  -0.000138  -0.000054
     9  C    0.000000   0.000000  -0.000000   0.000000   0.000001  -0.000002
    10  C   -0.000000  -0.000000  -0.000000  -0.000000  -0.000003   0.000002
    11  C   -0.000033  -0.000001   0.000004  -0.000024   0.000187   0.000096
    12  C   -0.000000  -0.000000   0.000000  -0.000000  -0.000000  -0.000000
    13  C   -0.000000  -0.000000  -0.000000   0.000000  -0.000000  -0.000000
    14  C   -0.000000  -0.000000   0.000000  -0.000000   0.000000   0.000000
    15  C    0.000000   0.000000  -0.000000   0.000000   0.000000   0.000000
    16  H   -0.002528  -0.003096  -0.000021  -0.000038  -0.000001   0.000003
    17  H   -0.004725   0.005508  -0.000427   0.005080   0.000008   0.000004
    18  H    0.005178  -0.004576   0.005149  -0.000370   0.000005  -0.000006
    19  H    0.572043  -0.036283   0.005548  -0.004634   0.000053   0.000186
    20  H   -0.036283   0.611497  -0.004903   0.005863   0.005788  -0.000036
    21  H    0.005548  -0.004903   0.601259  -0.034106  -0.000627  -0.000650
    22  H   -0.004634   0.005863  -0.034106   0.589966   0.006279  -0.006209
    23  H    0.000053   0.005788  -0.000627   0.006279   0.632690  -0.054941
    24  H    0.000186  -0.000036  -0.000650  -0.006209  -0.054941   0.630024
    25  H    0.000002  -0.000002   0.000028   0.000005   0.001855   0.002379
    26  H    0.000000   0.000000   0.000000   0.000000   0.000000   0.000001
    27  H    0.000117   0.000000   0.000000   0.000006   0.000030   0.000030
    28  H    0.000000  -0.000000   0.000000  -0.000000  -0.000000  -0.000000
    29  H    0.000000  -0.000000   0.000000  -0.000000   0.000000  -0.000000
    30  H   -0.000000   0.000000  -0.000000   0.000000   0.000000   0.000000
    31  H    0.000000   0.000000   0.000000   0.000000   0.000000   0.000000
             25         26         27         28         29         30
     1  C   -0.000000   0.000000  -0.000000   0.000000  -0.000000  -0.000000
     2  C    0.000005  -0.000000  -0.000003  -0.000000   0.000000   0.000000
     3  C   -0.000079  -0.000000  -0.000020  -0.000000  -0.000000  -0.000000
     4  C    0.005992  -0.000008  -0.000302   0.000000   0.000000  -0.000000
     5  O   -0.007130  -0.000047   0.000481  -0.000002  -0.000000   0.000000
     6  C   -0.044835   0.002981  -0.039705   0.000125   0.000003  -0.000001
     7  C    0.351108  -0.041963   0.007617   0.000011  -0.000001   0.000004
     8  C   -0.034482   0.353517  -0.000060  -0.000206   0.000009  -0.000218
     9  C    0.002599  -0.037737   0.005063   0.004733   0.001037   0.002733
    10  C    0.001027   0.004438  -0.042230  -0.039911   0.002719   0.001080
    11  C    0.004146   0.000664   0.343181  -0.008080  -0.000190   0.000012
    12  C    0.000011  -0.000212  -0.008870   0.353317  -0.036652   0.004321
    13  C   -0.000001   0.000013   0.000185  -0.045603   0.356642  -0.042293
    14  C    0.000004   0.000235   0.000007   0.004556  -0.042604   0.356073
    15  C   -0.000215  -0.008883  -0.000148   0.000646   0.004485  -0.036662
    16  H    0.000000  -0.000000   0.000000   0.000000   0.000000   0.000000
    17  H   -0.000000   0.000000   0.000000  -0.000000   0.000000  -0.000000
    18  H    0.000000  -0.000000   0.000000  -0.000000   0.000000  -0.000000
    19  H    0.000002   0.000000   0.000117   0.000000   0.000000  -0.000000
    20  H   -0.000002   0.000000   0.000000  -0.000000  -0.000000   0.000000
    21  H    0.000028   0.000000   0.000000   0.000000   0.000000  -0.000000
    22  H    0.000005   0.000000   0.000006  -0.000000  -0.000000   0.000000
    23  H    0.001855   0.000000   0.000030  -0.000000   0.000000   0.000000
    24  H    0.002379   0.000001   0.000030  -0.000000  -0.000000   0.000000
    25  H    0.588534  -0.005425  -0.000168  -0.000000  -0.000000  -0.000000
    26  H   -0.005425   0.593759   0.000018   0.000003  -0.000000  -0.000013
    27  H   -0.000168   0.000018   0.596301   0.005750  -0.000011   0.000000
    28  H   -0.000000   0.000003   0.005750   0.602743  -0.005328  -0.000196
    29  H   -0.000000  -0.000000  -0.000011  -0.005328   0.598170  -0.005245
    30  H   -0.000000  -0.000013   0.000000  -0.000196  -0.005245   0.600630
    31  H   -0.000015   0.006496   0.000003   0.000020  -0.000205  -0.005383
             31
     1  C   -0.000000
     2  C    0.000000
     3  C   -0.000000
     4  C    0.000000
     5  O   -0.000000
     6  C    0.000006
     7  C    0.000299
     8  C   -0.009012
     9  C   -0.043362
    10  C    0.004520
    11  C   -0.000181
    12  C    0.000515
    13  C    0.004767
    14  C   -0.046000
    15  C    0.355405
    16  H    0.000000
    17  H    0.000000
    18  H   -0.000000
    19  H    0.000000
    20  H    0.000000
    21  H    0.000000
    22  H    0.000000
    23  H    0.000000
    24  H    0.000000
    25  H   -0.000015
    26  H    0.006496
    27  H    0.000003
    28  H    0.000020
    29  H   -0.000205
    30  H   -0.005383
    31  H    0.606131
 Mulliken atomic charges:
              1
     1  C   -0.441259
     2  C   -0.248947
     3  C   -0.273332
     4  C   -0.036152
     5  O   -0.526388
     6  C    0.390793
     7  C   -0.195978
     8  C   -0.210569
     9  C    0.151362
    10  C    0.172148
    11  C   -0.276012
    12  C   -0.210886
    13  C   -0.131612
    14  C   -0.138373
    15  C   -0.200092
    16  H    0.143380
    17  H    0.143256
    18  H    0.138554
    19  H    0.156776
    20  H    0.128971
    21  H    0.135792
    22  H    0.146608
    23  H    0.137942
    24  H    0.138728
    25  H    0.134654
    26  H    0.132164
    27  H    0.132727
    28  H    0.127424
    29  H    0.127169
    30  H    0.125158
    31  H    0.125997
 Sum of Mulliken atomic charges =  -0.00000
 Mulliken charges with hydrogens summed into heavy atoms:
              1
     1  C   -0.016070
     2  C    0.036799
     3  C    0.009067
     4  C    0.240518
     5  O   -0.526388
     6  C    0.390793
     7  C   -0.061324
     8  C   -0.078405
     9  C    0.151362
    10  C    0.172148
    11  C   -0.143285
    12  C   -0.083462
    13  C   -0.004443
    14  C   -0.013216
    15  C   -0.074095
 Sum of Mulliken charges with hydrogens summed into heavy atoms =  -0.00000
 Electronic spatial extent (au):  <R**2>=           5095.3572
 Charge=             -0.0000 electrons
 Dipole moment (field-independent basis, Debye):
    X=             -0.9374    Y=              1.1789    Z=              0.1356  Tot=              1.5123
 Quadrupole moment (field-independent basis, Debye-Ang):
   XX=            -80.9220   YY=            -81.8415   ZZ=            -92.8600
   XY=             -2.7221   XZ=              0.6533   YZ=              1.0310
 Traceless Quadrupole moment (field-independent basis, Debye-Ang):
   XX=              4.2858   YY=              3.3663   ZZ=             -7.6521
   XY=             -2.7221   XZ=              0.6533   YZ=              1.0310
 Octapole moment (field-independent basis, Debye-Ang**2):
  XXX=             11.3578  YYY=              1.3858  ZZZ=             -2.0584  XYY=              4.5111
  XXY=              7.6988  XXZ=              3.6024  XZZ=            -17.6324  YZZ=              0.0563
  YYZ=             -0.5052  XYZ=              3.6451
 Hexadecapole moment (field-independent basis, Debye-Ang**3):
 XXXX=          -5870.4016 YYYY=           -719.3776 ZZZZ=           -170.9012 XXXY=            -55.8575
 XXXZ=             26.4299 YYYX=             -7.7033 YYYZ=              8.8384 ZZZX=              0.5689
 ZZZY=             -1.3081 XXYY=          -1083.6689 XXZZ=          -1082.0913 YYZZ=           -163.6825
 XXYZ=             10.5953 YYXZ=              1.4878 ZZXY=              6.4425
 N-N= 9.041196142750D+02 E-N=-3.242185798124D+03  KE= 6.125699538954D+02
 No NMR shielding tensors so no spin-rotation constants.
 Leave Link  601 at Thu Sep 30 06:22:04 2021, MaxMem= 1342177280 cpu:       1.7
 (Enter /sw/target/amd/app/gaussian/Gaussian09RevA.02_gcc-4.9.2/g09/l701.exe)
 Compute integral first derivatives.
 ... and contract with generalized density number  0.
 Leave Link  701 at Thu Sep 30 06:22:07 2021, MaxMem= 1342177280 cpu:       1.6
 (Enter /sw/target/amd/app/gaussian/Gaussian09RevA.02_gcc-4.9.2/g09/l702.exe)
 L702 exits ... SP integral derivatives will be done elsewhere.
 Leave Link  702 at Thu Sep 30 06:22:08 2021, MaxMem= 1342177280 cpu:       0.1
 (Enter /sw/target/amd/app/gaussian/Gaussian09RevA.02_gcc-4.9.2/g09/l703.exe)
 Compute integral first derivatives, UseDBF=F ICtDFT=           0.
 Integral derivatives from FoFDir, PRISM(SPDF).
 Calling FoFJK, ICntrl=      2127 FMM=F ISym2X=0 I1Cent= 0 IOpClX= 0 NMat=1 NMatS=1 NMatT=0.
 FoFCou: FMM=F IPFlag=           0 FMFlag=      100000 FMFlg1=         800
         NFxFlg=           0 DoJE=F BraDBF=F KetDBF=F FulRan=T
         Omega=  0.000000  0.000000  1.000000  0.000000  0.000000 ICntrl=    2127 IOpCl=  0
         NMat0=    1 NMatS0=    1 NMatT0=    0 NMatD0=    1 NMtDS0=    0 NMtDT0=    0
         I1Cent=           0 NGrid=           0.
 Symmetry not used in FoFCou.
 Leave Link  703 at Thu Sep 30 06:23:48 2021, MaxMem= 1342177280 cpu:      97.5
 (Enter /sw/target/amd/app/gaussian/Gaussian09RevA.02_gcc-4.9.2/g09/l716.exe)
 Dipole        =-3.68801572D-01 4.63833028D-01 5.33661315D-02
 ***** Axes restored to original set *****
 -------------------------------------------------------------------
 Center     Atomic                   Forces (Hartrees/Bohr)
 Number     Number              X              Y              Z
 -------------------------------------------------------------------
      1        6          -0.003982965    0.001063693   -0.002794414
      2        6          -0.002587692   -0.000049022    0.002418747
      3        6           0.003309947    0.010592180   -0.006800550
      4        6          -0.006284413   -0.003623440    0.007746248
      5        8           0.002629155   -0.007899707   -0.000254677
      6        6          -0.010068091    0.029964415   -0.000615955
      7        6           0.024450988   -0.014313183   -0.004572162
      8        6          -0.020143111   -0.016149598    0.007104805
      9        6           0.012104779   -0.007970588   -0.002319548
     10        6          -0.013599664    0.002043431    0.003384775
     11        6          -0.007983913   -0.010205171    0.003166985
     12        6           0.016781798    0.020541580   -0.006658438
     13        6          -0.024395352    0.005822726    0.005654807
     14        6           0.008987526   -0.022397284    0.000063235
     15        6           0.018655492    0.019848796   -0.006954142
     16        1          -0.002496749   -0.000102878    0.000623483
     17        1          -0.001457772   -0.000062707    0.001322251
     18        1          -0.001406087   -0.001189579    0.000940017
     19        1           0.002834122   -0.000630505   -0.000649743
     20        1           0.001734547   -0.000302543   -0.001742803
     21        1           0.002312180   -0.000766336    0.000343364
     22        1           0.000490045   -0.000629764    0.001701493
     23        1           0.002876684   -0.000544738   -0.000617895
     24        1           0.003635253   -0.001128969   -0.001992381
     25        1          -0.002457526    0.001045079    0.000088559
     26        1           0.000333494    0.001841179   -0.000282973
     27        1           0.000530734   -0.001279471    0.000038302
     28        1          -0.001301902   -0.002183047    0.000613707
     29        1          -0.001568738   -0.000125641    0.000386472
     30        1           0.000212517    0.000105023   -0.000128206
     31        1          -0.002145286   -0.001313932    0.000786637
 -------------------------------------------------------------------
 Cartesian Forces:  Max     0.029964415 RMS     0.008295987
 Leave Link  716 at Thu Sep 30 06:23:49 2021, MaxMem= 1342177280 cpu:       0.1
 (Enter /sw/target/amd/app/gaussian/Gaussian09RevA.02_gcc-4.9.2/g09/l103.exe)

 GradGradGradGradGradGradGradGradGradGradGradGradGradGradGradGradGradGrad
 Berny optimization.
 Internal  Forces:  Max     0.019375108 RMS     0.004315966
 Search for a local minimum.
 Step number   1 out of a maximum of  173
 All quantities printed in internal units (Hartrees-Bohrs-Radians)
 RMS Force = .43160D-02 SwitMx=.10000D-02 MixMth= 1
 Mixed Optimization -- RFO/linear search
 Second derivative matrix not updated -- first step.
     Eigenvalues ---    0.00372   0.00395   0.00490   0.01286   0.01974
     Eigenvalues ---    0.01982   0.02019   0.02032   0.02068   0.02078
     Eigenvalues ---    0.02080   0.02094   0.02115   0.02124   0.02141
     Eigenvalues ---    0.02147   0.02152   0.02162   0.02165   0.02186
     Eigenvalues ---    0.03618   0.03705   0.04881   0.04916   0.05204
     Eigenvalues ---    0.05595   0.05695   0.06015   0.08173   0.08242
     Eigenvalues ---    0.11195   0.12073   0.12133   0.13726   0.16000
     Eigenvalues ---    0.16000   0.16000   0.16000   0.16000   0.16000
     Eigenvalues ---    0.16000   0.16000   0.16000   0.16000   0.21905
     Eigenvalues ---    0.21931   0.22000   0.22095   0.22296   0.22708
     Eigenvalues ---    0.23519   0.24365   0.24749   0.25000   0.25000
     Eigenvalues ---    0.29441   0.29602   0.30287   0.33976   0.33988
     Eigenvalues ---    0.33996   0.34080   0.34092   0.34166   0.34279
     Eigenvalues ---    0.34280   0.34283   0.34983   0.35028   0.35039
     Eigenvalues ---    0.35056   0.35097   0.35237   0.35444   0.38507
     Eigenvalues ---    0.40896   0.41031   0.41686   0.43592   0.44508
     Eigenvalues ---    0.45496   0.45728   0.45775   0.45891   0.46443
     Eigenvalues ---    0.46701   0.508461000.000001000.000001000.00000
     Eigenvalues --- 1000.000001000.000001000.000001000.000001000.00000
     Eigenvalues --- 1000.000001000.000001000.000001000.000001000.00000
     Eigenvalues --- 1000.000001000.000001000.000001000.000001000.00000
     Eigenvalues --- 1000.000001000.000001000.000001000.000001000.00000
     Eigenvalues --- 1000.000001000.000001000.000001000.000001000.00000
     Eigenvalues --- 1000.000001000.000001000.000001000.000001000.00000
     Eigenvalues --- 1000.000001000.000001000.000001000.000001000.00000
     Eigenvalues --- 1000.000001000.000001000.000001000.000001000.00000
     Eigenvalues --- 1000.000001000.000001000.000001000.000001000.00000
     Eigenvalues --- 1000.000001000.000001000.000001000.000001000.00000
     Eigenvalues --- 1000.000001000.000001000.000001000.000001000.00000
     Eigenvalues --- 1000.000001000.000001000.000001000.000001000.00000
     Eigenvalues --- 1000.000001000.000001000.000001000.000001000.00000
     Eigenvalues --- 1000.000001000.000001000.000001000.000001000.00000
     Eigenvalues --- 1000.000001000.000001000.00000
 RFO step:  Lambda=-8.60695096D-03 EMin= 3.71678446D-03
 Linear search not attempted -- first point.
 Iteration  1 RMS(Cart)=  0.07048653 RMS(Int)=  0.00112628
 Iteration  2 RMS(Cart)=  0.00273157 RMS(Int)=  0.00012026
 Iteration  3 RMS(Cart)=  0.00000209 RMS(Int)=  0.00012025
 Iteration  4 RMS(Cart)=  0.00000000 RMS(Int)=  0.00012025
 Variable       Old X    -DE/DX   Delta X   Delta X   Delta X     New X
                                 (Linear)    (Quad)   (Total)
    R1        2.87395   0.00896   0.00000   0.02877   0.02877   2.90272
    R2        2.06861   0.00106   0.00000   0.00302   0.00302   2.07162
    R3        2.06854   0.00135   0.00000   0.00384   0.00384   2.07238
    R4        2.06862   0.00160   0.00000   0.00456   0.00456   2.07318
    R5        2.89091   0.00413   0.00000   0.01362   0.01362   2.90453
[...]
 Molar volume = 2283.140 bohr**3/mol (203.745 cm**3/mol)
 Recommended a0 for SCRF calculation =  5.26 angstrom (  9.94 bohr)
 Leave Link  604 at Thu Sep 30 12:40:18 2021, MaxMem= 1342177280 cpu:       0.4
 (Enter /sw/target/amd/app/gaussian/Gaussian09RevA.02_gcc-4.9.2/g09/l607.exe)
 ******************************Gaussian NBO Version 3.1******************************
             N A T U R A L   A T O M I C   O R B I T A L   A N D
          N A T U R A L   B O N D   O R B I T A L   A N A L Y S I S
 ******************************Gaussian NBO Version 3.1******************************
       /RESON  / : Allow strongly delocalized NBO set

 Analyzing the CI density

 Job title: CCCCOc1ccc2c(c1)cccc2_conf_0                                    

 Storage needed:    201318 in NPA (1342172165 available)


 NATURAL POPULATIONS:  Natural atomic orbital occupancies 
                                                          
   NAO  Atom  No  lang   Type(AO)    Occupancy
 --------------------------------------------
     1    C    1  S      Cor( 1S)     1.99947
     2    C    1  S      Val( 2S)     1.10206
     3    C    1  S      Ryd( 3S)     0.00032
     4    C    1  S      Ryd( 4S)     0.00001
     5    C    1  px     Val( 2p)     1.10741
     6    C    1  px     Ryd( 3p)     0.00090
     7    C    1  py     Val( 2p)     1.21802
     8    C    1  py     Ryd( 3p)     0.00142
     9    C    1  pz     Val( 2p)     1.23998
    10    C    1  pz     Ryd( 3p)     0.00161
    11    C    1  dxy    Ryd( 3d)     0.00096
    12    C    1  dxz    Ryd( 3d)     0.00026
    13    C    1  dyz    Ryd( 3d)     0.00102
    14    C    1  dx2y2  Ryd( 3d)     0.00035
    15    C    1  dz2    Ryd( 3d)     0.00071

    16    C    2  S      Cor( 1S)     1.99935
    17    C    2  S      Val( 2S)     1.03711
    18    C    2  S      Ryd( 3S)     0.00095
    19    C    2  S      Ryd( 4S)     0.00002
    20    C    2  px     Val( 2p)     1.11050
    21    C    2  px     Ryd( 3p)     0.00259
    22    C    2  py     Val( 2p)     1.15825
    23    C    2  py     Ryd( 3p)     0.00246
    24    C    2  pz     Val( 2p)     1.14556
    25    C    2  pz     Ryd( 3p)     0.00151
    26    C    2  dxy    Ryd( 3d)     0.00104
    27    C    2  dxz    Ryd( 3d)     0.00029
    28    C    2  dyz    Ryd( 3d)     0.00086
    29    C    2  dx2y2  Ryd( 3d)     0.00040
    30    C    2  dz2    Ryd( 3d)     0.00090

    31    C    3  S      Cor( 1S)     1.99932
    32    C    3  S      Val( 2S)     1.04123
    33    C    3  S      Ryd( 3S)     0.00109
    34    C    3  S      Ryd( 4S)     0.00002
    35    C    3  px     Val( 2p)     1.09054
    36    C    3  px     Ryd( 3p)     0.00268
    37    C    3  py     Val( 2p)     1.16502
    38    C    3  py     Ryd( 3p)     0.00305
    39    C    3  pz     Val( 2p)     1.17055
    40    C    3  pz     Ryd( 3p)     0.00162
    41    C    3  dxy    Ryd( 3d)     0.00101
    42    C    3  dxz    Ryd( 3d)     0.00028
    43    C    3  dyz    Ryd( 3d)     0.00078
    44    C    3  dx2y2  Ryd( 3d)     0.00038
    45    C    3  dz2    Ryd( 3d)     0.00103

    46    C    4  S      Cor( 1S)     1.99922
    47    C    4  S      Val( 2S)     1.02762
    48    C    4  S      Ryd( 3S)     0.00231
    49    C    4  S      Ryd( 4S)     0.00004
    50    C    4  px     Val( 2p)     0.89266
    51    C    4  px     Ryd( 3p)     0.00194
    52    C    4  py     Val( 2p)     0.93876
    53    C    4  py     Ryd( 3p)     0.00297
    54    C    4  pz     Val( 2p)     1.23385
    55    C    4  pz     Ryd( 3p)     0.00218
    56    C    4  dxy    Ryd( 3d)     0.00186
    57    C    4  dxz    Ryd( 3d)     0.00079
    58    C    4  dyz    Ryd( 3d)     0.00170
    59    C    4  dx2y2  Ryd( 3d)     0.00110
    60    C    4  dz2    Ryd( 3d)     0.00110

    61    O    5  S      Cor( 1S)     1.99973
    62    O    5  S      Val( 2S)     1.59464
    63    O    5  S      Ryd( 3S)     0.00118
    64    O    5  S      Ryd( 4S)     0.00008
    65    O    5  px     Val( 2p)     1.41912
    66    O    5  px     Ryd( 3p)     0.00113
    67    O    5  py     Val( 2p)     1.70575
    68    O    5  py     Ryd( 3p)     0.00229
    69    O    5  pz     Val( 2p)     1.73246
    70    O    5  pz     Ryd( 3p)     0.00230
    71    O    5  dxy    Ryd( 3d)     0.00127
    72    O    5  dxz    Ryd( 3d)     0.00061
    73    O    5  dyz    Ryd( 3d)     0.00128
    74    O    5  dx2y2  Ryd( 3d)     0.00128
    75    O    5  dz2    Ryd( 3d)     0.00078

    76    C    6  S      Cor( 1S)     1.99880
    77    C    6  S      Val( 2S)     0.84070
    78    C    6  S      Ryd( 3S)     0.00160
    79    C    6  S      Ryd( 4S)     0.00014
    80    C    6  px     Val( 2p)     0.75652
    81    C    6  px     Ryd( 3p)     0.00630
    82    C    6  py     Val( 2p)     1.07741
    83    C    6  py     Ryd( 3p)     0.00631
    84    C    6  pz     Val( 2p)     0.93477
    85    C    6  pz     Ryd( 3p)     0.00129
    86    C    6  dxy    Ryd( 3d)     0.00150
    87    C    6  dxz    Ryd( 3d)     0.00178
    88    C    6  dyz    Ryd( 3d)     0.00122
    89    C    6  dx2y2  Ryd( 3d)     0.00164
    90    C    6  dz2    Ryd( 3d)     0.00056

    91    C    7  S      Cor( 1S)     1.99905
    92    C    7  S      Val( 2S)     0.95068
    93    C    7  S      Ryd( 3S)     0.00068
    94    C    7  S      Ryd( 4S)     0.00005
    95    C    7  px     Val( 2p)     1.13159
    96    C    7  px     Ryd( 3p)     0.00380
    97    C    7  py     Val( 2p)     1.13031
    98    C    7  py     Ryd( 3p)     0.00409
    99    C    7  pz     Val( 2p)     1.15728
   100    C    7  pz     Ryd( 3p)     0.00341
   101    C    7  dxy    Ryd( 3d)     0.00076
   102    C    7  dxz    Ryd( 3d)     0.00057
   103    C    7  dyz    Ryd( 3d)     0.00035
   104    C    7  dx2y2  Ryd( 3d)     0.00055
   105    C    7  dz2    Ryd( 3d)     0.00047

   106    C    8  S      Cor( 1S)     1.99907
   107    C    8  S      Val( 2S)     0.94393
   108    C    8  S      Ryd( 3S)     0.00074
   109    C    8  S      Ryd( 4S)     0.00005
   110    C    8  px     Val( 2p)     1.06928
   111    C    8  px     Ryd( 3p)     0.00427
   112    C    8  py     Val( 2p)     1.16393
   113    C    8  py     Ryd( 3p)     0.00492
   114    C    8  pz     Val( 2p)     1.01560
   115    C    8  pz     Ryd( 3p)     0.00330
   116    C    8  dxy    Ryd( 3d)     0.00073
   117    C    8  dxz    Ryd( 3d)     0.00072
   118    C    8  dyz    Ryd( 3d)     0.00035
   119    C    8  dx2y2  Ryd( 3d)     0.00072
   120    C    8  dz2    Ryd( 3d)     0.00042

   121    C    9  S      Cor( 1S)     1.99902
   122    C    9  S      Val( 2S)     0.87170
   123    C    9  S      Ryd( 3S)     0.00047
   124    C    9  S      Ryd( 4S)     0.00006
   125    C    9  px     Val( 2p)     1.09605
   126    C    9  px     Ryd( 3p)     0.00486
   127    C    9  py     Val( 2p)     1.07588
   128    C    9  py     Ryd( 3p)     0.00535
   129    C    9  pz     Val( 2p)     0.98920
   130    C    9  pz     Ryd( 3p)     0.00102
   131    C    9  dxy    Ryd( 3d)     0.00072
   132    C    9  dxz    Ryd( 3d)     0.00090
   133    C    9  dyz    Ryd( 3d)     0.00058
   134    C    9  dx2y2  Ryd( 3d)     0.00071
   135    C    9  dz2    Ryd( 3d)     0.00035

   136    C   10  S      Cor( 1S)     1.99903
   137    C   10  S      Val( 2S)     0.87122
   138    C   10  S      Ryd( 3S)     0.00050
   139    C   10  S      Ryd( 4S)     0.00007
   140    C   10  px     Val( 2p)     1.08369
   141    C   10  px     Ryd( 3p)     0.00495
   142    C   10  py     Val( 2p)     1.08737
   143    C   10  py     Ryd( 3p)     0.00558
   144    C   10  pz     Val( 2p)     1.00025
   145    C   10  pz     Ryd( 3p)     0.00089
   146    C   10  dxy    Ryd( 3d)     0.00065
   147    C   10  dxz    Ryd( 3d)     0.00083
   148    C   10  dyz    Ryd( 3d)     0.00067
   149    C   10  dx2y2  Ryd( 3d)     0.00076
   150    C   10  dz2    Ryd( 3d)     0.00035

   151    C   11  S      Cor( 1S)     1.99900
   152    C   11  S      Val( 2S)     0.95446
   153    C   11  S      Ryd( 3S)     0.00090
   154    C   11  S      Ryd( 4S)     0.00006
   155    C   11  px     Val( 2p)     1.07182
   156    C   11  px     Ryd( 3p)     0.00467
   157    C   11  py     Val( 2p)     1.16822
   158    C   11  py     Ryd( 3p)     0.00411
   159    C   11  pz     Val( 2p)     1.02309
   160    C   11  pz     Ryd( 3p)     0.00341
   161    C   11  dxy    Ryd( 3d)     0.00084
   162    C   11  dxz    Ryd( 3d)     0.00052
   163    C   11  dyz    Ryd( 3d)     0.00047
   164    C   11  dx2y2  Ryd( 3d)     0.00057
   165    C   11  dz2    Ryd( 3d)     0.00043

   166    C   12  S      Cor( 1S)     1.99906
   167    C   12  S      Val( 2S)     0.94560
   168    C   12  S      Ryd( 3S)     0.00064
   169    C   12  S      Ryd( 4S)     0.00004
   170    C   12  px     Val( 2p)     1.07775
   171    C   12  px     Ryd( 3p)     0.00422
   172    C   12  py     Val( 2p)     1.15385
   173    C   12  py     Ryd( 3p)     0.00455
   174    C   12  pz     Val( 2p)     1.04149
   175    C   12  pz     Ryd( 3p)     0.00325
   176    C   12  dxy    Ryd( 3d)     0.00076
   177    C   12  dxz    Ryd( 3d)     0.00067
   178    C   12  dyz    Ryd( 3d)     0.00032
   179    C   12  dx2y2  Ryd( 3d)     0.00069
   180    C   12  dz2    Ryd( 3d)     0.00041

   181    C   13  S      Cor( 1S)     1.99912
   182    C   13  S      Val( 2S)     0.95635
   183    C   13  S      Ryd( 3S)     0.00061
   184    C   13  S      Ryd( 4S)     0.00003
   185    C   13  px     Val( 2p)     1.11705
   186    C   13  px     Ryd( 3p)     0.00495
   187    C   13  py     Val( 2p)     1.13151
   188    C   13  py     Ryd( 3p)     0.00485
   189    C   13  pz     Val( 2p)     1.07324
   190    C   13  pz     Ryd( 3p)     0.00294
   191    C   13  dxy    Ryd( 3d)     0.00081
   192    C   13  dxz    Ryd( 3d)     0.00060
   193    C   13  dyz    Ryd( 3d)     0.00035
   194    C   13  dx2y2  Ryd( 3d)     0.00063
   195    C   13  dz2    Ryd( 3d)     0.00045

   196    C   14  S      Cor( 1S)     1.99910
   197    C   14  S      Val( 2S)     0.96730
   198    C   14  S      Ryd( 3S)     0.00056
   199    C   14  S      Ryd( 4S)     0.00004
   200    C   14  px     Val( 2p)     1.18685
   201    C   14  px     Ryd( 3p)     0.00495
   202    C   14  py     Val( 2p)     1.06224
   203    C   14  py     Ryd( 3p)     0.00448
   204    C   14  pz     Val( 2p)     0.94295
   205    C   14  pz     Ryd( 3p)     0.00139
   206    C   14  dxy    Ryd( 3d)     0.00067
   207    C   14  dxz    Ryd( 3d)     0.00036
   208    C   14  dyz    Ryd( 3d)     0.00086
   209    C   14  dx2y2  Ryd( 3d)     0.00087
   210    C   14  dz2    Ryd( 3d)     0.00045

   211    C   15  S      Cor( 1S)     1.99906
   212    C   15  S      Val( 2S)     0.94765
   213    C   15  S      Ryd( 3S)     0.00068
   214    C   15  S      Ryd( 4S)     0.00005
   215    C   15  px     Val( 2p)     1.06027
   216    C   15  px     Ryd( 3p)     0.00431
   217    C   15  py     Val( 2p)     1.17642
   218    C   15  py     Ryd( 3p)     0.00457
   219    C   15  pz     Val( 2p)     1.05782
   220    C   15  pz     Ryd( 3p)     0.00321
   221    C   15  dxy    Ryd( 3d)     0.00069
   222    C   15  dxz    Ryd( 3d)     0.00044
   223    C   15  dyz    Ryd( 3d)     0.00043
   224    C   15  dx2y2  Ryd( 3d)     0.00077
   225    C   15  dz2    Ryd( 3d)     0.00040

   226    H   16  S      Val( 1S)     0.76352
   227    H   16  S      Ryd( 2S)     0.00077

   228    H   17  S      Val( 1S)     0.77223
   229    H   17  S      Ryd( 2S)     0.00105

   230    H   18  S      Val( 1S)     0.77462
   231    H   18  S      Ryd( 2S)     0.00107

   232    H   19  S      Val( 1S)     0.75710
   233    H   19  S      Ryd( 2S)     0.00188

   234    H   20  S      Val( 1S)     0.77157
   235    H   20  S      Ryd( 2S)     0.00162

   236    H   21  S      Val( 1S)     0.75892
   237    H   21  S      Ryd( 2S)     0.00136

   238    H   22  S      Val( 1S)     0.75838
   239    H   22  S      Ryd( 2S)     0.00203

   240    H   23  S      Val( 1S)     0.77723
   241    H   23  S      Ryd( 2S)     0.00252

   242    H   24  S      Val( 1S)     0.77093
   243    H   24  S      Ryd( 2S)     0.00222

   244    H   25  S      Val( 1S)     0.76689
   245    H   25  S      Ryd( 2S)     0.00081

   246    H   26  S      Val( 1S)     0.76729
   247    H   26  S      Ryd( 2S)     0.00114

   248    H   27  S      Val( 1S)     0.75665
   249    H   27  S      Ryd( 2S)     0.00167

   250    H   28  S      Val( 1S)     0.77290
   251    H   28  S      Ryd( 2S)     0.00114

   252    H   29  S      Val( 1S)     0.76888
   253    H   29  S      Ryd( 2S)     0.00081

   254    H   30  S      Val( 1S)     0.76751
   255    H   30  S      Ryd( 2S)     0.00087

   256    H   31  S      Val( 1S)     0.77124
   257    H   31  S      Ryd( 2S)     0.00114

 WARNING:  1 low occupancy (<1.9990e) core orbital  found on  C    6
           1 low occupancy (<1.9990e) core orbital  found on  C   11


 Summary of Natural Population Analysis:                  
                                                          
                                       Natural Population 
                Natural  -----------------------------------------------
    Atom  No    Charge         Core      Valence    Rydberg      Total
 -----------------------------------------------------------------------
      C    1   -0.67450      1.99947     4.66747    0.00756     6.67450
      C    2   -0.46180      1.99935     4.45142    0.01102     6.46180
      C    3   -0.47860      1.99932     4.46733    0.01194     6.47860
      C    4   -0.10811      1.99922     4.09289    0.01600     6.10811
      O    5   -0.46391      1.99973     6.45197    0.01220     8.46391
      C    6    0.36947      1.99880     3.60939    0.02233     5.63053
      C    7   -0.38364      1.99905     4.36986    0.01473     6.38364
      C    8   -0.20803      1.99907     4.19274    0.01622     6.20803
      C    9   -0.04687      1.99902     4.03284    0.01501     6.04687
      C   10   -0.05683      1.99903     4.04253    0.01527     6.05683
      C   11   -0.23258      1.99900     4.21759    0.01598     6.23258
      C   12   -0.23332      1.99906     4.21870    0.01556     6.23332
      C   13   -0.29349      1.99912     4.27815    0.01622     6.29349
      C   14   -0.17307      1.99910     4.15934    0.01462     6.17307
      C   15   -0.25676      1.99906     4.24216    0.01554     6.25676
      H   16    0.23570      0.00000     0.76352    0.00077     0.76430
      H   17    0.22672      0.00000     0.77223    0.00105     0.77328
      H   18    0.22431      0.00000     0.77462    0.00107     0.77569
      H   19    0.24102      0.00000     0.75710    0.00188     0.75898
      H   20    0.22681      0.00000     0.77157    0.00162     0.77319
      H   21    0.23972      0.00000     0.75892    0.00136     0.76028
      H   22    0.23959      0.00000     0.75838    0.00203     0.76041
      H   23    0.22025      0.00000     0.77723    0.00252     0.77975
      H   24    0.22685      0.00000     0.77093    0.00222     0.77315
      H   25    0.23230      0.00000     0.76689    0.00081     0.76770
      H   26    0.23157      0.00000     0.76729    0.00114     0.76843
      H   27    0.24168      0.00000     0.75665    0.00167     0.75832
      H   28    0.22595      0.00000     0.77290    0.00114     0.77405
      H   29    0.23031      0.00000     0.76888    0.00081     0.76969
      H   30    0.23162      0.00000     0.76751    0.00087     0.76838
      H   31    0.22763      0.00000     0.77124    0.00114     0.77237
 =======================================================================
   * Total *    0.00000     29.98742    77.77025    0.24233   108.00000

                                 Natural Population      
 --------------------------------------------------------
   Core                      29.98742 ( 99.9581% of  30)
   Valence                   77.77025 ( 99.7055% of  78)
   Natural Minimal Basis    107.75767 ( 99.7756% of 108)
   Natural Rydberg Basis      0.24233 (  0.2244% of 108)
 --------------------------------------------------------

    Atom  No          Natural Electron Configuration
 ----------------------------------------------------------------------------
      C    1      [core]2S( 1.10)2p( 3.57)
      C    2      [core]2S( 1.04)2p( 3.41)3p( 0.01)
      C    3      [core]2S( 1.04)2p( 3.43)3p( 0.01)
      C    4      [core]2S( 1.03)2p( 3.07)3p( 0.01)3d( 0.01)
      O    5      [core]2S( 1.59)2p( 4.86)3p( 0.01)3d( 0.01)
      C    6      [core]2S( 0.84)2p( 2.77)3p( 0.01)3d( 0.01)
      C    7      [core]2S( 0.95)2p( 3.42)3p( 0.01)
      C    8      [core]2S( 0.94)2p( 3.25)3p( 0.01)
      C    9      [core]2S( 0.87)2p( 3.16)3p( 0.01)
      C   10      [core]2S( 0.87)2p( 3.17)3p( 0.01)
      C   11      [core]2S( 0.95)2p( 3.26)3p( 0.01)
      C   12      [core]2S( 0.95)2p( 3.27)3p( 0.01)
      C   13      [core]2S( 0.96)2p( 3.32)3p( 0.01)
      C   14      [core]2S( 0.97)2p( 3.19)3p( 0.01)
      C   15      [core]2S( 0.95)2p( 3.29)3p( 0.01)
      H   16            1S( 0.76)
      H   17            1S( 0.77)
      H   18            1S( 0.77)
      H   19            1S( 0.76)
      H   20            1S( 0.77)
      H   21            1S( 0.76)
      H   22            1S( 0.76)
      H   23            1S( 0.78)
      H   24            1S( 0.77)
      H   25            1S( 0.77)
      H   26            1S( 0.77)
      H   27            1S( 0.76)
      H   28            1S( 0.77)
      H   29            1S( 0.77)
      H   30            1S( 0.77)
      H   31            1S( 0.77)


 NBO analysis skipped by request.
 Leave Link  607 at Thu Sep 30 12:40:45 2021, MaxMem= 1342177280 cpu:      21.2
 (Enter /sw/target/amd/app/gaussian/Gaussian09RevA.02_gcc-4.9.2/g09/l9999.exe)
 1\1\GINC-HERMITE\SP\RTD-B3LYP-FC\6-31G(d)\C14H16O1\JSCHLEINITZ\30-Sep-
 2021\0\\#p TD(NStates=10, Root=1) b3lyp/6-31G* volume pop=NPA density=
 current Geom=AllCheck Guess=Read\\CCCCOc1ccc2c(c1)cccc2_conf_0\\0,1\C,
 0,2.1007684682,0.6041540314,-1.3262763938\C,0,3.571666955,0.6750027252
 ,-1.7471673145\C,0,4.5290581775,0.2013937226,-0.6463956896\C,0,5.99959
 98455,0.2594499187,-1.0394871703\O,0,6.3427680487,1.6272708518,-1.2585
 499759\C,0,7.6144630558,1.9477795563,-1.6417550271\C,0,8.6457671811,0.
 9896188945,-1.8311263548\C,0,9.9030791855,1.4019779443,-2.2165779992\C
 ,0,10.2037988729,2.7695006013,-2.4326047806\C,0,9.1582211774,3.7335463
 807,-2.2400281308\C,0,7.8748865818,3.291415643,-1.8445017632\C,0,9.454
 7025473,5.109323065,-2.4561011108\C,0,10.7137216714,5.5080908087,-2.84
 07089846\C,0,11.7459163957,4.5537856075,-3.0302452608\C,0,11.492974235
 1,3.2164586719,-2.8299428827\H,0,1.4401407199,0.948556742,-2.129818046
 3\H,0,1.9094422747,1.2313176155,-0.4468942588\H,0,1.8072766908,-0.4217
 39931,-1.0706747656\H,0,3.8304852472,1.7029977723,-2.0261413444\H,0,3.
 7268532119,0.0623967529,-2.6469935117\H,0,4.2981393929,-0.8376949143,-
 0.3717576911\H,0,4.385363452,0.8049953501,0.2596140821\H,0,6.177223127
 8,-0.3234379953,-1.9557727603\H,0,6.6289539635,-0.1610843695,-0.241859
 0709\H,0,8.4528515795,-0.0652831064,-1.6749894927\H,0,10.6888144914,0.
 6636047809,-2.3599828388\H,0,7.0721681742,4.0076894219,-1.6939739556\H
 ,0,8.6645878946,5.84237126,-2.3110548863\H,0,10.9231131413,6.562467090
 6,-3.0014742441\H,0,12.735513381,4.884129992,-3.3338716667\H,0,12.2795
 681909,2.4786959658,-2.973333309\\Version=AM64L-G09RevA.02\State=1-A\H
 F=-618.3610272\RMSD=3.813e-09\Dipole=-0.8886835,-0.9295009,0.2941934\Q
 uadrupole=1.6714068,2.8081168,-4.4795236,0.9904857,-1.9768527,-1.30834
 57\PG=C01 [X(C14H16O1)]\\@


 "A LITTLE BIT GOES A LONG WAY"
 R.S. MULLIKEN AS QUOTED BY K. RUEDENBERG
 Job cpu time:  0 days  3 hours 59 minutes 55.5 seconds.
 File lengths (MBytes):  RWF=    217 Int=      0 D2E=      0 Chk=     30 Scr=      1
 Normal termination of Gaussian 09 at Thu Sep 30 12:40:50 2021.
