 Entering Gaussian System, Link 0=g09
 Input=C14H13NO_5f00_conf_0.com
 Output=C14H13NO_5f00_conf_0.log
 Initial command:
 /sw/target/amd/app/gaussian/Gaussian09RevA.02_gcc-4.9.2/g09/l1.exe /home/jschleinitz/gaussian/Gau-3165324.inp -scrdir=/home/jschleinitz/gaussian/
 Entering Link 1 = /sw/target/amd/app/gaussian/Gaussian09RevA.02_gcc-4.9.2/g09/l1.exe PID=   3165329.
  
 Copyright (c) 1988,1990,1992,1993,1995,1998,2003,2009, Gaussian, Inc.
                  All Rights Reserved.
  
 This is part of the Gaussian(R) 09 program.  It is based on
 the Gaussian(R) 03 system (copyright 2003, Gaussian, Inc.),
 the Gaussian(R) 98 system (copyright 1998, Gaussian, Inc.),
 the Gaussian(R) 94 system (copyright 1995, Gaussian, Inc.),
 the Gaussian 92(TM) system (copyright 1992, Gaussian, Inc.),
 the Gaussian 90(TM) system (copyright 1990, Gaussian, Inc.),
 the Gaussian 88(TM) system (copyright 1988, Gaussian, Inc.),
 the Gaussian 86(TM) system (copyright 1986, Carnegie Mellon
 University), and the Gaussian 82(TM) system (copyright 1983,
 Carnegie Mellon University). Gaussian is a federally registered
 trademark of Gaussian, Inc.
  
 This software contains proprietary and confidential information,
 including trade secrets, belonging to Gaussian, Inc.
  
 This software is provided under written license and may be
 used, copied, transmitted, or stored only in accord with that
 written license.
  
 The following legend is applicable only to US Government
 contracts under FAR:
  
                    RESTRICTED RIGHTS LEGEND
  
 Use, reproduction and disclosure by the US Government is
 subject to restrictions as set forth in subparagraphs (a)
 and (c) of the Commercial Computer Software - Restricted
 Rights clause in FAR 52.227-19.
  
 Gaussian, Inc.
 340 Quinnipiac St., Bldg. 40, Wallingford CT 06492
  
  
 ---------------------------------------------------------------
 Warning -- This program may not be used in any manner that
 competes with the business of Gaussian, Inc. or will provide
 assistance to any competitor of Gaussian, Inc.  The licensee
 of this program is prohibited from giving any competitor of
 Gaussian, Inc. access to this program.  By using this program,
 the user acknowledges that Gaussian, Inc. is engaged in the
 business of creating and licensing software in the field of
 computational chemistry and represents and warrants to the
 licensee that it is not a competitor of Gaussian, Inc. and that
 it will not use this program in any manner prohibited above.
 ---------------------------------------------------------------
  

 Cite this work as:
 Gaussian 09, Revision A.02,
 M. J. Frisch, G. W. Trucks, H. B. Schlegel, G. E. Scuseria, 
 M. A. Robb, J. R. Cheeseman, G. Scalmani, V. Barone, B. Mennucci, 
 G. A. Petersson, H. Nakatsuji, M. Caricato, X. Li, H. P. Hratchian, 
 A. F. Izmaylov, J. Bloino, G. Zheng, J. L. Sonnenberg, M. Hada, 
 M. Ehara, K. Toyota, R. Fukuda, J. Hasegawa, M. Ishida, T. Nakajima, 
 Y. Honda, O. Kitao, H. Nakai, T. Vreven, J. A. Montgomery, Jr., 
 J. E. Peralta, F. Ogliaro, M. Bearpark, J. J. Heyd, E. Brothers, 
 K. N. Kudin, V. N. Staroverov, R. Kobayashi, J. Normand, 
 K. Raghavachari, A. Rendell, J. C. Burant, S. S. Iyengar, J. Tomasi, 
 M. Cossi, N. Rega, J. M. Millam, M. Klene, J. E. Knox, J. B. Cross, 
 V. Bakken, C. Adamo, J. Jaramillo, R. Gomperts, R. E. Stratmann, 
 O. Yazyev, A. J. Austin, R. Cammi, C. Pomelli, J. W. Ochterski, 
 R. L. Martin, K. Morokuma, V. G. Zakrzewski, G. A. Voth, 
 P. Salvador, J. J. Dannenberg, S. Dapprich, A. D. Daniels, 
 O. Farkas, J. B. Foresman, J. V. Ortiz, J. Cioslowski, 
 and D. J. Fox, Gaussian, Inc., Wallingford CT, 2009.
 
 ******************************************
 Gaussian 09:  AM64L-G09RevA.02 11-Jun-2009
                28-Sep-2021 
 ******************************************
 %nproc=4
 Will use up to    4 processors via shared memory.
 %mem=8gb
 %chk=C14H13NO_5f00_conf_0.chk
 -----------------------------------
 #p opt b3lyp/6-31G* scf=(xqc,tight)
 -----------------------------------
 1/14=-1,18=20,19=15,26=3,38=1/1,3;
 2/9=110,12=2,17=6,18=5,40=1/2;
 3/5=1,6=6,7=1,11=2,16=1,25=1,30=1,71=1,74=-5/1,2,3;
 4//1;
 5/5=2,8=3,13=1,32=2,38=5/2,8;
 6/7=2,8=2,9=2,10=2,28=1/1;
 7//1,2,3,16;
 1/14=-1,18=20,19=15/3(2);
 2/9=110/2;
 99//99;
 2/9=110/2;
 3/5=1,6=6,7=1,11=2,16=1,25=1,30=1,71=1,74=-5/1,2,3;
 4/5=5,16=3/1;
 5/5=2,8=3,13=1,32=2,38=5/2,8;
 7//1,2,3,16;
 1/14=-1,18=20,19=15/3(-5);
 2/9=110/2;
 6/7=2,8=2,9=2,10=2,19=2,28=1/1;
 99/9=1/99;
 Leave Link    1 at Tue Sep 28 14:42:14 2021, MaxMem= 1073741824 cpu:       0.1
 (Enter /sw/target/amd/app/gaussian/Gaussian09RevA.02_gcc-4.9.2/g09/l101.exe)
 -------------------------------
 COc1ccc2c(c1)c1ccccc1n2C_conf_0
 -------------------------------
 Symbolic Z-matrix:
 Charge =  0 Multiplicity = 1
 C                     3.16509  -0.99242  -0.74012 
 O                     2.55236   0.02254   0.04561 
 C                     3.26116   1.18436   0.20071 
 C                     2.78386   2.02714   1.2025 
 C                     3.4081    3.24402   1.49485 
 C                     4.53299   3.60313   0.73653 
 C                     5.02189   2.79277  -0.28666 
 C                     4.37277   1.56522  -0.55842 
 C                     6.15349   3.45617  -0.85804 
 C                     7.03708   3.13517  -1.91125 
 C                     8.07907   4.009    -2.23471 
 C                     8.25232   5.19099  -1.52363 
 C                     7.39132   5.53312  -0.47635 
 C                     6.3428    4.65192  -0.15948 
 N                     5.35033   4.71582   0.79794 
 C                     5.17116   5.78439   1.75732 
 H                     2.54921  -1.89345  -0.66056 
 H                     4.16409  -1.23863  -0.36408 
 H                     3.19946  -0.7048   -1.79571 
 H                     1.91072   1.72772   1.77854 
 H                     3.02573   3.87942   2.2865 
 H                     4.75731   0.94762  -1.36031 
 H                     6.90932   2.21311  -2.47058 
 H                     8.75737   3.76029  -3.04678 
 H                     9.06866   5.86049  -1.78479 
 H                     7.54339   6.45988   0.06684 
 H                     5.86595   6.60144   1.55879 
 H                     5.35457   5.37994   2.75638 
 H                     4.14669   6.15714   1.67493 
 
 NAtoms=     29 NQM=     29 NQMF=      0 NMic=      0 NMicF=      0 NTot=     29.
                    Isotopes and Nuclear Properties:
 (Nuclear quadrupole moments (NQMom) in fm**2, nuclear magnetic moments (NMagM)
  in nuclear magnetons)

  Atom         1           2           3           4           5           6           7           8           9          10
 IAtWgt=          12          16          12          12          12          12          12          12          12          12
 AtmWgt=  12.0000000  15.9949146  12.0000000  12.0000000  12.0000000  12.0000000  12.0000000  12.0000000  12.0000000  12.0000000
 NucSpn=           0           0           0           0           0           0           0           0           0           0
 AtZEff=   0.0000000   0.0000000   0.0000000   0.0000000   0.0000000   0.0000000   0.0000000   0.0000000   0.0000000   0.0000000
 NQMom=    0.0000000   0.0000000   0.0000000   0.0000000   0.0000000   0.0000000   0.0000000   0.0000000   0.0000000   0.0000000
 NMagM=    0.0000000   0.0000000   0.0000000   0.0000000   0.0000000   0.0000000   0.0000000   0.0000000   0.0000000   0.0000000

  Atom        11          12          13          14          15          16          17          18          19          20
 IAtWgt=          12          12          12          12          14          12           1           1           1           1
 AtmWgt=  12.0000000  12.0000000  12.0000000  12.0000000  14.0030740  12.0000000   1.0078250   1.0078250   1.0078250   1.0078250
 NucSpn=           0           0           0           0           2           0           1           1           1           1
 AtZEff=   0.0000000   0.0000000   0.0000000   0.0000000   0.0000000   0.0000000   0.0000000   0.0000000   0.0000000   0.0000000
 NQMom=    0.0000000   0.0000000   0.0000000   0.0000000   2.0440000   0.0000000   0.0000000   0.0000000   0.0000000   0.0000000
 NMagM=    0.0000000   0.0000000   0.0000000   0.0000000   0.4037610   0.0000000   2.7928460   2.7928460   2.7928460   2.7928460

  Atom        21          22          23          24          25          26          27          28          29
 IAtWgt=           1           1           1           1           1           1           1           1           1
 AtmWgt=   1.0078250   1.0078250   1.0078250   1.0078250   1.0078250   1.0078250   1.0078250   1.0078250   1.0078250
 NucSpn=           1           1           1           1           1           1           1           1           1
 AtZEff=   0.0000000   0.0000000   0.0000000   0.0000000   0.0000000   0.0000000   0.0000000   0.0000000   0.0000000
 NQMom=    0.0000000   0.0000000   0.0000000   0.0000000   0.0000000   0.0000000   0.0000000   0.0000000   0.0000000
 NMagM=    2.7928460   2.7928460   2.7928460   2.7928460   2.7928460   2.7928460   2.7928460   2.7928460   2.7928460
 Leave Link  101 at Tue Sep 28 14:42:14 2021, MaxMem= 1073741824 cpu:       0.2
 (Enter /sw/target/amd/app/gaussian/Gaussian09RevA.02_gcc-4.9.2/g09/l103.exe)

 GradGradGradGradGradGradGradGradGradGradGradGradGradGradGradGradGradGrad
 Berny optimization.
 Initialization pass.
                           ----------------------------
                           !    Initial Parameters    !
                           ! (Angstroms and Degrees)  !
 --------------------------                            --------------------------
 ! Name  Definition              Value          Derivative Info.                !
 --------------------------------------------------------------------------------
 ! R1    R(1,2)                  1.4223         estimate D2E/DX2                !
 ! R2    R(1,17)                 1.0943         estimate D2E/DX2                !
 ! R3    R(1,18)                 1.0955         estimate D2E/DX2                !
 ! R4    R(1,19)                 1.0946         estimate D2E/DX2                !
 ! R5    R(2,3)                  1.3698         estimate D2E/DX2                !
 ! R6    R(3,4)                  1.3934         estimate D2E/DX2                !
 ! R7    R(3,8)                  1.3989         estimate D2E/DX2                !
 ! R8    R(4,5)                  1.3985         estimate D2E/DX2                !
 ! R9    R(4,20)                 1.088          estimate D2E/DX2                !
 ! R10   R(5,6)                  1.4033         estimate D2E/DX2                !
 ! R11   R(5,21)                 1.0847         estimate D2E/DX2                !
 ! R12   R(6,7)                  1.3938         estimate D2E/DX2                !
 ! R13   R(6,15)                 1.382          estimate D2E/DX2                !
 ! R14   R(7,8)                  1.415          estimate D2E/DX2                !
 ! R15   R(7,9)                  1.4308         estimate D2E/DX2                !
 ! R16   R(8,22)                 1.0827         estimate D2E/DX2                !
 ! R17   R(9,10)                 1.4117         estimate D2E/DX2                !
 ! R18   R(9,14)                 1.3977         estimate D2E/DX2                !
 ! R19   R(10,11)                1.3978         estimate D2E/DX2                !
 ! R20   R(10,23)                1.086          estimate D2E/DX2                !
 ! R21   R(11,12)                1.3902         estimate D2E/DX2                !
 ! R22   R(11,24)                1.0869         estimate D2E/DX2                !
 ! R23   R(12,13)                1.3983         estimate D2E/DX2                !
 ! R24   R(12,25)                1.0876         estimate D2E/DX2                !
 ! R25   R(13,14)                1.4058         estimate D2E/DX2                !
 ! R26   R(13,26)                1.0849         estimate D2E/DX2                !
 ! R27   R(14,15)                1.3805         estimate D2E/DX2                !
 ! R28   R(15,16)                1.4472         estimate D2E/DX2                !
 ! R29   R(16,27)                1.0907         estimate D2E/DX2                !
 ! R30   R(16,28)                1.0933         estimate D2E/DX2                !
 ! R31   R(16,29)                1.0933         estimate D2E/DX2                !
 ! A1    A(2,1,17)             107.7551         estimate D2E/DX2                !
 ! A2    A(2,1,18)             111.3222         estimate D2E/DX2                !
 ! A3    A(2,1,19)             111.0246         estimate D2E/DX2                !
 ! A4    A(17,1,18)            107.6519         estimate D2E/DX2                !
 ! A5    A(17,1,19)            107.7067         estimate D2E/DX2                !
 ! A6    A(18,1,19)            111.1891         estimate D2E/DX2                !
 ! A7    A(1,2,3)              116.4168         estimate D2E/DX2                !
 ! A8    A(2,3,4)              114.6553         estimate D2E/DX2                !
 ! A9    A(2,3,8)              125.4964         estimate D2E/DX2                !
 ! A10   A(4,3,8)              119.8445         estimate D2E/DX2                !
 ! A11   A(3,4,5)              121.5778         estimate D2E/DX2                !
 ! A12   A(3,4,20)             119.2787         estimate D2E/DX2                !
 ! A13   A(5,4,20)             119.1405         estimate D2E/DX2                !
 ! A14   A(4,5,6)              117.8705         estimate D2E/DX2                !
 ! A15   A(4,5,21)             120.3246         estimate D2E/DX2                !
 ! A16   A(6,5,21)             121.8047         estimate D2E/DX2                !
 ! A17   A(5,6,7)              121.9431         estimate D2E/DX2                !
 ! A18   A(5,6,15)             131.0025         estimate D2E/DX2                !
 ! A19   A(7,6,15)             107.0544         estimate D2E/DX2                !
 ! A20   A(6,7,8)              118.9789         estimate D2E/DX2                !
 ! A21   A(6,7,9)              107.5186         estimate D2E/DX2                !
 ! A22   A(8,7,9)              133.5025         estimate D2E/DX2                !
 ! A23   A(3,8,7)              119.7686         estimate D2E/DX2                !
 ! A24   A(3,8,22)             121.9254         estimate D2E/DX2                !
 ! A25   A(7,8,22)             118.3055         estimate D2E/DX2                !
 ! A26   A(7,9,10)             133.4343         estimate D2E/DX2                !
 ! A27   A(7,9,14)             107.7101         estimate D2E/DX2                !
 ! A28   A(10,9,14)            118.8552         estimate D2E/DX2                !
 ! A29   A(9,10,11)            119.8051         estimate D2E/DX2                !
 ! A30   A(9,10,23)            120.2427         estimate D2E/DX2                !
 ! A31   A(11,10,23)           119.9522         estimate D2E/DX2                !
 ! A32   A(10,11,12)           120.3998         estimate D2E/DX2                !
 ! A33   A(10,11,24)           119.672          estimate D2E/DX2                !
 ! A34   A(12,11,24)           119.9282         estimate D2E/DX2                !
 ! A35   A(11,12,13)           120.9562         estimate D2E/DX2                !
 ! A36   A(11,12,25)           119.6102         estimate D2E/DX2                !
 ! A37   A(13,12,25)           119.4335         estimate D2E/DX2                !
 ! A38   A(12,13,14)           118.3403         estimate D2E/DX2                !
 ! A39   A(12,13,26)           119.8479         estimate D2E/DX2                !
 ! A40   A(14,13,26)           121.8118         estimate D2E/DX2                !
 ! A41   A(9,14,13)            121.6425         estimate D2E/DX2                !
 ! A42   A(9,14,15)            106.7882         estimate D2E/DX2                !
 ! A43   A(13,14,15)           131.5692         estimate D2E/DX2                !
 ! A44   A(6,15,14)            110.9231         estimate D2E/DX2                !
 ! A45   A(6,15,16)            123.417          estimate D2E/DX2                !
 ! A46   A(14,15,16)           125.658          estimate D2E/DX2                !
 ! A47   A(15,16,27)           110.7067         estimate D2E/DX2                !
 ! A48   A(15,16,28)           108.1717         estimate D2E/DX2                !
 ! A49   A(15,16,29)           108.53           estimate D2E/DX2                !
 ! A50   A(27,16,28)           109.6677         estimate D2E/DX2                !
 ! A51   A(27,16,29)           109.1343         estimate D2E/DX2                !
 ! A52   A(28,16,29)           110.6205         estimate D2E/DX2                !
 ! D1    D(17,1,2,3)           172.5412         estimate D2E/DX2                !
 ! D2    D(18,1,2,3)            54.7158         estimate D2E/DX2                !
 ! D3    D(19,1,2,3)           -69.7354         estimate D2E/DX2                !
 ! D4    D(1,2,3,4)           -166.2876         estimate D2E/DX2                !
 ! D5    D(1,2,3,8)             14.426          estimate D2E/DX2                !
 ! D6    D(2,3,4,5)            179.2363         estimate D2E/DX2                !
 ! D7    D(2,3,4,20)            -0.1319         estimate D2E/DX2                !
 ! D8    D(8,3,4,5)             -1.4335         estimate D2E/DX2                !
 ! D9    D(8,3,4,20)           179.1983         estimate D2E/DX2                !
 ! D10   D(2,3,8,7)           -179.5121         estimate D2E/DX2                !
 ! D11   D(2,3,8,22)             0.7382         estimate D2E/DX2                !
 ! D12   D(4,3,8,7)              1.2356         estimate D2E/DX2                !
 ! D13   D(4,3,8,22)          -178.5141         estimate D2E/DX2                !
 ! D14   D(3,4,5,6)              0.5542         estimate D2E/DX2                !
 ! D15   D(3,4,5,21)          -179.3228         estimate D2E/DX2                !
 ! D16   D(20,4,5,6)           179.9232         estimate D2E/DX2                !
 ! D17   D(20,4,5,21)            0.0462         estimate D2E/DX2                !
 ! D18   D(4,5,6,7)              0.5213         estimate D2E/DX2                !
 ! D19   D(4,5,6,15)          -179.4399         estimate D2E/DX2                !
 ! D20   D(21,5,6,7)          -179.6036         estimate D2E/DX2                !
 ! D21   D(21,5,6,15)            0.4351         estimate D2E/DX2                !
 ! D22   D(5,6,7,8)             -0.6952         estimate D2E/DX2                !
 ! D23   D(5,6,7,9)            179.3013         estimate D2E/DX2                !
 ! D24   D(15,6,7,8)           179.2742         estimate D2E/DX2                !
 ! D25   D(15,6,7,9)            -0.7293         estimate D2E/DX2                !
 ! D26   D(5,6,15,14)         -179.5743         estimate D2E/DX2                !
 ! D27   D(5,6,15,16)            0.9072         estimate D2E/DX2                !
 ! D28   D(7,6,15,14)            0.4601         estimate D2E/DX2                !
 ! D29   D(7,6,15,16)         -179.0584         estimate D2E/DX2                !
 ! D30   D(6,7,8,3)             -0.1943         estimate D2E/DX2                !
 ! D31   D(6,7,8,22)           179.5644         estimate D2E/DX2                !
 ! D32   D(9,7,8,3)            179.8103         estimate D2E/DX2                !
 ! D33   D(9,7,8,22)            -0.4309         estimate D2E/DX2                !
 ! D34   D(6,7,9,10)          -179.5148         estimate D2E/DX2                !
 ! D35   D(6,7,9,14)             0.7434         estimate D2E/DX2                !
 ! D36   D(8,7,9,10)             0.4809         estimate D2E/DX2                !
 ! D37   D(8,7,9,14)          -179.2608         estimate D2E/DX2                !
 ! D38   D(7,9,10,11)         -179.6203         estimate D2E/DX2                !
 ! D39   D(7,9,10,23)            0.4301         estimate D2E/DX2                !
 ! D40   D(14,9,10,11)           0.0988         estimate D2E/DX2                !
 ! D41   D(14,9,10,23)        -179.8508         estimate D2E/DX2                !
 ! D42   D(7,9,14,13)          179.4615         estimate D2E/DX2                !
 ! D43   D(7,9,14,15)           -0.4597         estimate D2E/DX2                !
 ! D44   D(10,9,14,13)          -0.3244         estimate D2E/DX2                !
 ! D45   D(10,9,14,15)         179.7544         estimate D2E/DX2                !
 ! D46   D(9,10,11,12)           0.1382         estimate D2E/DX2                !
 ! D47   D(9,10,11,24)        -179.926          estimate D2E/DX2                !
 ! D48   D(23,10,11,12)       -179.9121         estimate D2E/DX2                !
 ! D49   D(23,10,11,24)          0.0238         estimate D2E/DX2                !
 ! D50   D(10,11,12,13)         -0.1576         estimate D2E/DX2                !
 ! D51   D(10,11,12,25)        179.8683         estimate D2E/DX2                !
 ! D52   D(24,11,12,13)        179.9067         estimate D2E/DX2                !
 ! D53   D(24,11,12,25)         -0.0674         estimate D2E/DX2                !
 ! D54   D(11,12,13,14)         -0.0612         estimate D2E/DX2                !
 ! D55   D(11,12,13,26)        179.9748         estimate D2E/DX2                !
 ! D56   D(25,12,13,14)        179.913          estimate D2E/DX2                !
 ! D57   D(25,12,13,26)         -0.051          estimate D2E/DX2                !
 ! D58   D(12,13,14,9)           0.3056         estimate D2E/DX2                !
 ! D59   D(12,13,14,15)       -179.7952         estimate D2E/DX2                !
 ! D60   D(26,13,14,9)        -179.7311         estimate D2E/DX2                !
 ! D61   D(26,13,14,15)          0.1681         estimate D2E/DX2                !
 ! D62   D(9,14,15,6)            0.0062         estimate D2E/DX2                !
 ! D63   D(9,14,15,16)         179.5116         estimate D2E/DX2                !
 ! D64   D(13,14,15,6)        -179.9041         estimate D2E/DX2                !
 ! D65   D(13,14,15,16)         -0.3987         estimate D2E/DX2                !
 ! D66   D(6,15,16,27)        -174.3887         estimate D2E/DX2                !
 ! D67   D(6,15,16,28)          65.428          estimate D2E/DX2                !
 ! D68   D(6,15,16,29)         -54.6346         estimate D2E/DX2                !
 ! D69   D(14,15,16,27)          6.1648         estimate D2E/DX2                !
 ! D70   D(14,15,16,28)       -114.0185         estimate D2E/DX2                !
 ! D71   D(14,15,16,29)        125.9188         estimate D2E/DX2                !
 --------------------------------------------------------------------------------
 Trust Radius=3.00D-01 FncErr=1.00D-07 GrdErr=1.00D-06
 Number of steps in this run= 164 maximum allowed number of steps= 174.
 GradGradGradGradGradGradGradGradGradGradGradGradGradGradGradGradGradGrad

 Leave Link  103 at Tue Sep 28 14:42:14 2021, MaxMem= 1073741824 cpu:       0.0
 (Enter /sw/target/amd/app/gaussian/Gaussian09RevA.02_gcc-4.9.2/g09/l202.exe)
                          Input orientation:                          
 ---------------------------------------------------------------------
 Center     Atomic      Atomic             Coordinates (Angstroms)
 Number     Number       Type             X           Y           Z
 ---------------------------------------------------------------------
      1          6           0        3.165085   -0.992422   -0.740121
      2          8           0        2.552359    0.022538    0.045613
      3          6           0        3.261163    1.184358    0.200714
      4          6           0        2.783865    2.027140    1.202495
      5          6           0        3.408097    3.244023    1.494848
      6          6           0        4.532989    3.603129    0.736533
      7          6           0        5.021889    2.792767   -0.286655
      8          6           0        4.372766    1.565218   -0.558425
      9          6           0        6.153487    3.456166   -0.858038
     10          6           0        7.037078    3.135172   -1.911247
     11          6           0        8.079073    4.008998   -2.234707
     12          6           0        8.252324    5.190988   -1.523633
     13          6           0        7.391323    5.533122   -0.476351
     14          6           0        6.342804    4.651923   -0.159479
     15          7           0        5.350328    4.715817    0.797936
     16          6           0        5.171162    5.784387    1.757317
     17          1           0        2.549214   -1.893448   -0.660556
     18          1           0        4.164091   -1.238627   -0.364079
     19          1           0        3.199464   -0.704804   -1.795715
     20          1           0        1.910723    1.727723    1.778537
     21          1           0        3.025732    3.879417    2.286500
     22          1           0        4.757310    0.947619   -1.360308
     23          1           0        6.909322    2.213113   -2.470579
     24          1           0        8.757366    3.760292   -3.046778
     25          1           0        9.068656    5.860490   -1.784795
     26          1           0        7.543387    6.459883    0.066839
     27          1           0        5.865954    6.601444    1.558793
     28          1           0        5.354566    5.379943    2.756378
     29          1           0        4.146689    6.157138    1.674931
 ---------------------------------------------------------------------
                    Distance matrix (angstroms):
                    1          2          3          4          5
     1  C    0.000000
     2  O    1.422307   0.000000
     3  C    2.373347   1.369775   0.000000
     4  C    3.610657   2.326027   1.393435   0.000000
     5  C    4.795999   3.634629   2.436922   1.398549   0.000000
     6  C    5.017047   4.149807   2.784797   2.400062   1.403346
     7  C    4.240402   3.726009   2.434063   2.795086   2.445753
     8  C    2.834260   2.461423   1.398930   2.416364   2.822215
     9  C    5.360447   5.057125   3.827219   4.200270   3.621912
    10  C    5.779351   5.799180   4.745902   5.386367   4.978236
    11  C    7.169049   7.185839   6.092792   6.616747   6.026008
    12  C    8.045400   7.852707   6.628586   6.880826   6.030625
    13  C    7.779036   7.352180   6.035594   6.028193   4.999169
    14  C    6.503359   5.986713   4.652983   4.627149   3.651230
    15  N    6.302770   5.515568   4.146383   3.738902   2.534586
    16  C    7.495778   6.556444   5.218369   4.485969   3.103343
    17  H    1.094292   2.041981   3.274377   4.347072   5.637113
    18  H    1.095462   2.087119   2.646720   3.876135   4.911343
    19  H    1.094616   2.082849   2.749266   4.077438   5.144371
    20  H    3.913598   2.514434   2.146732   1.088049   2.149831
    21  H    5.737131   4.485663   3.416032   2.159744   1.084732
    22  H    2.585261   2.773841   2.175153   3.409958   3.904581
    23  H    5.223912   5.487528   4.637155   5.526795   5.389430
    24  H    7.693021   7.876281   6.884031   7.532785   7.036162
    25  H    9.105268   8.938355   7.715921   7.944625   7.045841
    26  H    8.680874   8.145565   6.796068   6.602422   5.429696
    27  H    8.381319   7.520081   6.162316   5.527248   4.161421
    28  H    7.591204   6.625888   5.340102   4.501593   3.153150
    29  H    7.610009   6.544454   5.261750   4.374627   3.010679
                    6          7          8          9         10
     6  C    0.000000
     7  C    1.393780   0.000000
     8  C    2.419849   1.414954   0.000000
     9  C    2.278216   1.430767   2.614655   0.000000
    10  C    3.674260   2.611040   3.375418   1.411743   0.000000
    11  C    4.644104   3.823676   4.745387   2.430786   1.397838
    12  C    4.632829   4.209192   5.397112   2.803166   2.419390
    13  C    3.655959   3.627638   4.986250   2.447789   2.816839
    14  C    2.275574   2.284174   3.683470   1.397733   2.418934
    15  N    1.381987   2.232114   3.566738   2.230255   3.561354
    16  C    2.491415   3.626278   4.878676   3.636710   4.894726
    17  H    6.008292   5.311735   3.911284   6.453538   6.855083
    18  H    4.978960   4.122372   2.818309   5.122771   5.456913
    19  H    5.171929   4.222735   2.839106   5.188368   5.430105
    20  H    3.388097   3.883129   3.398449   5.285839   6.471085
    21  H    2.179577   3.433158   3.906867   4.455347   5.853706
    22  H    3.390987   2.151116   1.082737   2.914514   3.207221
    23  H    4.226662   2.944134   3.241947   2.171809   1.085986
    24  H    5.673051   4.744278   5.498634   3.415151   2.153972
    25  H    5.659068   5.294495   6.481106   3.890740   3.401567
    26  H    4.203812   4.464377   5.865283   3.436501   3.901651
    27  H    3.382721   4.315570   5.663549   3.976999   5.042594
    28  H    2.812798   4.008018   5.148201   4.171714   5.445784
    29  H    2.748232   3.991589   5.111234   4.211700   5.508838
                   11         12         13         14         15
    11  C    0.000000
    12  C    1.390231   0.000000
    13  C    2.426473   1.398277   0.000000
    14  C    2.781106   2.407857   1.405814   0.000000
    15  N    4.140358   3.746606   2.541153   1.380484   0.000000
    16  C    5.248258   4.539859   3.159355   2.515816   1.447188
    17  H    8.239912   9.135623   8.867576   7.581839   7.325014
    18  H    6.809104   7.707021   7.502282   6.283887   6.181655
    19  H    6.798766   7.769543   7.630474   6.422801   6.382505
    20  H    7.704472   7.944460   7.042909   5.652450   4.660598
    21  H    6.781914   6.599591   5.424617   4.193155   2.884291
    22  H    4.601165   5.499817   5.361553   4.204479   4.382808
    23  H    2.156190   3.401191   3.902785   3.407333   4.401952
    24  H    1.086920   2.149867   3.408239   3.868024   5.225205
    25  H    2.147026   1.087582   2.152357   3.395962   4.669769
    26  H    3.404543   2.154597   1.084926   2.182050   2.895821
    27  H    5.099933   4.145540   2.758600   2.642060   2.097704
    28  H    5.849218   5.172157   3.823922   3.163677   2.067988
    29  H    5.946715   5.293440   3.942723   3.233211   2.072503
                   16         17         18         19         20
    16  C    0.000000
    17  H    8.465806   0.000000
    18  H    7.405218   1.767630   0.000000
    19  H    7.656450   1.767565   1.806946   0.000000
    20  H    5.204559   4.412451   4.297407   4.511465   0.000000
    21  H    2.917501   6.499091   5.875016   6.140826   2.476098
    22  H    5.769331   3.665652   2.474683   2.312350   4.308592
    23  H    5.800888   6.257042   4.887550   4.767885   6.578494
    24  H    6.327491   8.729260   7.299606   7.238268   8.619253
    25  H    5.267144  10.192673   8.744750   8.806283   9.000728
    26  H    2.990228   9.759560   8.418575   8.583211   7.553156
    27  H    1.090748   9.385599   8.249879   8.470192   6.280549
    28  H    1.093314   8.511619   7.413499   7.898744   5.114190
    29  H    1.093286   8.533367   7.671715   7.747829   4.962862
                   21         22         23         24         25
    21  H    0.000000
    22  H    4.989289   0.000000
    23  H    6.363068   2.732276   0.000000
    24  H    7.830049   5.172597   2.478111   0.000000
    25  H    7.550962   6.550129   4.293760   2.469885   0.000000
    26  H    5.656404   6.339088   4.987543   4.296062   2.472704
    27  H    4.000731   6.458791   6.048297   6.135445   4.688912
    28  H    2.809952   6.078595   6.306120   6.919460   5.886224
    29  H    2.611240   6.060084   6.353953   7.021235   6.023575
                   26         27         28         29
    26  H    0.000000
    27  H    2.249389   0.000000
    28  H    3.631918   1.785439   0.000000
    29  H    3.770302   1.779541   1.797922   0.000000
 Stoichiometry    C14H13NO
 Framework group  C1[X(C14H13NO)]
 Deg. of freedom    81
 Full point group                 C1      NOp   1
 Largest Abelian subgroup         C1      NOp   1
 Largest concise Abelian subgroup C1      NOp   1
                         Standard orientation:                         
 ---------------------------------------------------------------------
 Center     Atomic      Atomic             Coordinates (Angstroms)
 Number     Number       Type             X           Y           Z
 ---------------------------------------------------------------------
      1          6           0       -4.193210   -1.756712    0.206334
      2          8           0       -3.975949   -0.382648   -0.089812
      3          6           0       -2.675156    0.046214   -0.072495
      4          6           0       -2.519647    1.430935   -0.067417
      5          6           0       -1.254292    2.025678   -0.034288
      6          6           0       -0.133050    1.181918   -0.017986
      7          6           0       -0.254389   -0.206316   -0.044604
      8          6           0       -1.547028   -0.781028   -0.074366
      9          6           0        1.067189   -0.754425   -0.034538
     10          6           0        1.571377   -2.072835   -0.059194
     11          6           0        2.952070   -2.289329   -0.031486
     12          6           0        3.831788   -1.214220    0.023097
     13          6           0        3.358980    0.101457    0.048105
     14          6           0        1.969402    0.311963    0.015344
     15          7           0        1.217927    1.469953    0.024278
     16          6           0        1.744287    2.816819    0.081288
     17          1           0       -5.273188   -1.914262    0.285708
     18          1           0       -3.745739   -2.032634    1.167413
     19          1           0       -3.821963   -2.395913   -0.600997
     20          1           0       -3.403280    2.065682   -0.079278
     21          1           0       -1.157089    3.105949   -0.019880
     22          1           0       -1.628508   -1.860338   -0.102116
     23          1           0        0.890732   -2.918052   -0.100387
     24          1           0        3.337923   -3.305253   -0.051771
     25          1           0        4.903563   -1.397510    0.046318
     26          1           0        4.061606    0.927004    0.091164
     27          1           0        2.832515    2.809052    0.007612
     28          1           0        1.443136    3.260545    1.034047
     29          1           0        1.332473    3.386527   -0.756039
 ---------------------------------------------------------------------
 Rotational constants (GHZ):      1.0282810      0.3661583      0.2713343
 Leave Link  202 at Tue Sep 28 14:42:14 2021, MaxMem= 1073741824 cpu:       0.0
 (Enter /sw/target/amd/app/gaussian/Gaussian09RevA.02_gcc-4.9.2/g09/l301.exe)
 Standard basis: 6-31G(d) (6D, 7F)
 Ernie: Thresh=  0.10000D-02 Tol=  0.10000D-05 Strict=F.
 There are   266 symmetry adapted basis functions of A   symmetry.
 Integral buffers will be    131072 words long.
 Raffenetti 2 integral format.
 Two-electron integral symmetry is turned on.
   266 basis functions,   500 primitive gaussians,   266 cartesian basis functions
    56 alpha electrons       56 beta electrons
       nuclear repulsion energy      1024.4619057316 Hartrees.
 IExCor=  402 DFT=T Ex+Corr=B3LYP ExCW=0 ScaHFX=  0.200000
 ScaDFX=  0.800000  0.720000  1.000000  0.810000 ScalE2=  1.000000  1.000000
 IRadAn=      0 IRanWt=     -1 IRanGd=            0 ICorTp=0
 NAtoms=   29 NActive=   29 NUniq=   29 SFac= 7.50D-01 NAtFMM=   80 NAOKFM=F Big=F
 Leave Link  301 at Tue Sep 28 14:42:14 2021, MaxMem= 1073741824 cpu:       0.1
 (Enter /sw/target/amd/app/gaussian/Gaussian09RevA.02_gcc-4.9.2/g09/l302.exe)
 NPDir=0 NMtPBC=     1 NCelOv=     1 NCel=       1 NClECP=     1 NCelD=      1
         NCelK=      1 NCelE2=     1 NClLst=     1 CellRange=     0.0.
 One-electron integrals computed using PRISM.
 NBasis=   266 RedAO= T  NBF=   266
 NBsUse=   266 1.00D-06 NBFU=   266
 Precomputing XC quadrature grid using
 IXCGrd= 2 IRadAn=           0 IRanWt=          -1 IRanGd=           0 AccXCQ= 1.00D-10.
 NRdTot=    1834 NPtTot=      233606 NUsed=      246834 NTot=      246866
 NSgBfM=   265   265   265   265   265 NAtAll=    29    29.
 Leave Link  302 at Tue Sep 28 14:42:15 2021, MaxMem= 1073741824 cpu:       1.8
 (Enter /sw/target/amd/app/gaussian/Gaussian09RevA.02_gcc-4.9.2/g09/l303.exe)
 DipDrv:  MaxL=1.
 Leave Link  303 at Tue Sep 28 14:42:15 2021, MaxMem= 1073741824 cpu:       0.1
 (Enter /sw/target/amd/app/gaussian/Gaussian09RevA.02_gcc-4.9.2/g09/l401.exe)
 Harris functional with IExCor=  402 diagonalized for initial guess.
 ExpMin= 1.61D-01 ExpMax= 5.48D+03 ExpMxC= 8.25D+02 IAcc=1 IRadAn=         1 AccDes= 0.00D+00
 HarFok:  IExCor=  402 AccDes= 0.00D+00 IRadAn=         1 IDoV= 1
 ScaDFX=  1.000000  1.000000  1.000000  1.000000
 FoFCou: FMM=F IPFlag=           0 FMFlag=      100000 FMFlg1=           0
         NFxFlg=           0 DoJE=T BraDBF=F KetDBF=T FulRan=T
         Omega=  0.000000  0.000000  1.000000  0.000000  0.000000 ICntrl=     500 IOpCl=  0
         NMat0=    1 NMatS0=    1 NMatT0=    0 NMatD0=    1 NMtDS0=    0 NMtDT0=    0
         I1Cent=           4 NGrid=           0.
 Petite list used in FoFCou.
 Harris En= -671.362814938945    
 Initial guess orbital symmetries:
       Occupied  (A) (A) (A) (A) (A) (A) (A) (A) (A) (A) (A) (A)
                 (A) (A) (A) (A) (A) (A) (A) (A) (A) (A) (A) (A)
                 (A) (A) (A) (A) (A) (A) (A) (A) (A) (A) (A) (A)
                 (A) (A) (A) (A) (A) (A) (A) (A) (A) (A) (A) (A)
                 (A) (A) (A) (A) (A) (A) (A) (A)
       Virtual   (A) (A) (A) (A) (A) (A) (A) (A) (A) (A) (A) (A)
                 (A) (A) (A) (A) (A) (A) (A) (A) (A) (A) (A) (A)
                 (A) (A) (A) (A) (A) (A) (A) (A) (A) (A) (A) (A)
                 (A) (A) (A) (A) (A) (A) (A) (A) (A) (A) (A) (A)
                 (A) (A) (A) (A) (A) (A) (A) (A) (A) (A) (A) (A)
                 (A) (A) (A) (A) (A) (A) (A) (A) (A) (A) (A) (A)
                 (A) (A) (A) (A) (A) (A) (A) (A) (A) (A) (A) (A)
                 (A) (A) (A) (A) (A) (A) (A) (A) (A) (A) (A) (A)
                 (A) (A) (A) (A) (A) (A) (A) (A) (A) (A) (A) (A)
                 (A) (A) (A) (A) (A) (A) (A) (A) (A) (A) (A) (A)
                 (A) (A) (A) (A) (A) (A) (A) (A) (A) (A) (A) (A)
                 (A) (A) (A) (A) (A) (A) (A) (A) (A) (A) (A) (A)
                 (A) (A) (A) (A) (A) (A) (A) (A) (A) (A) (A) (A)
                 (A) (A) (A) (A) (A) (A) (A) (A) (A) (A) (A) (A)
                 (A) (A) (A) (A) (A) (A) (A) (A) (A) (A) (A) (A)
                 (A) (A) (A) (A) (A) (A) (A) (A) (A) (A) (A) (A)
                 (A) (A) (A) (A) (A) (A) (A) (A) (A) (A) (A) (A)
                 (A) (A) (A) (A) (A) (A)
 The electronic state of the initial guess is 1-A.
 Leave Link  401 at Tue Sep 28 14:42:17 2021, MaxMem= 1073741824 cpu:       8.2
 (Enter /sw/target/amd/app/gaussian/Gaussian09RevA.02_gcc-4.9.2/g09/l502.exe)
 Closed shell SCF:
 Requested convergence on RMS density matrix=1.00D-08 within  64 cycles.
 Requested convergence on MAX density matrix=1.00D-06.
 Requested convergence on             energy=1.00D-06.
 No special actions if energy rises.
 Using DIIS extrapolation, IDIIS=  1040.
 Integral symmetry usage will be decided dynamically.
       246560 words used for storage of precomputed grid.
 Keep R1 ints in memory in canonical form, NReq=640518250.
 IEnd=      467972 IEndB=      467972 NGot=  1073741824 MDV=   442815755
 LenX=   442815755 LenY=   442744558
 Symmetry not used in FoFDir.
 MinBra= 0 MaxBra= 2 Meth= 1.
 IRaf=       0 NMat=   1 IRICut=       1 DoRegI=T DoRafI=F ISym2E= 0 JSym2E=0.
 Integral accuracy reduced to 1.0D-05 until final iterations.

 Cycle   1  Pass 0  IDiag  1:
 E= -670.954462350152    
 DIIS: error= 3.91D-02 at cycle   1 NSaved=   1.
 NSaved= 1 IEnMin= 1 EnMin= -670.954462350152     IErMin= 1 ErrMin= 3.91D-02
 ErrMax= 3.91D-02 EMaxC= 1.00D-01 BMatC= 3.12D-01 BMatP= 3.12D-01
 IDIUse=3 WtCom= 6.09D-01 WtEn= 3.91D-01
 Coeff-Com:  0.100D+01
 Coeff-En:   0.100D+01
 Coeff:      0.100D+01
 Gap=     0.194 Goal=   None    Shift=    0.000
 GapD=    0.194 DampG=1.000 DampE=0.500 DampFc=0.5000 IDamp=-1.
 Damping current iteration by 5.00D-01
 RMSDP=5.23D-03 MaxDP=1.34D-01              OVMax= 1.71D-01

 Cycle   2  Pass 0  IDiag  1:
 E= -671.120664676575     Delta-E=       -0.166202326422 Rises=F Damp=T
 DIIS: error= 6.61D-03 at cycle   2 NSaved=   2.
 NSaved= 2 IEnMin= 2 EnMin= -671.120664676575     IErMin= 2 ErrMin= 6.61D-03
 ErrMax= 6.61D-03 EMaxC= 1.00D-01 BMatC= 1.73D-02 BMatP= 3.12D-01
 IDIUse=3 WtCom= 9.34D-01 WtEn= 6.61D-02
 Coeff-Com: -0.107D-01 0.101D+01
 Coeff-En:   0.000D+00 0.100D+01
 Coeff:     -0.100D-01 0.101D+01
 Gap=     0.170 Goal=   None    Shift=    0.000
 RMSDP=1.57D-03 MaxDP=5.19D-02 DE=-1.66D-01 OVMax= 1.24D-01

 Cycle   3  Pass 0  IDiag  1:
 E= -671.283755430038     Delta-E=       -0.163090753463 Rises=F Damp=F
 DIIS: error= 8.52D-03 at cycle   3 NSaved=   3.
 NSaved= 3 IEnMin= 3 EnMin= -671.283755430038     IErMin= 2 ErrMin= 6.61D-03
 ErrMax= 8.52D-03 EMaxC= 1.00D-01 BMatC= 1.33D-02 BMatP= 1.73D-02
 IDIUse=3 WtCom= 9.15D-01 WtEn= 8.52D-02
 Coeff-Com: -0.441D-01 0.485D+00 0.559D+00
 Coeff-En:   0.000D+00 0.000D+00 0.100D+01
 Coeff:     -0.404D-01 0.444D+00 0.597D+00
 Gap=     0.167 Goal=   None    Shift=    0.000
 RMSDP=8.04D-04 MaxDP=3.91D-02 DE=-1.63D-01 OVMax= 7.26D-02

 Cycle   4  Pass 0  IDiag  1:
 E= -671.290255385744     Delta-E=       -0.006499955706 Rises=F Damp=F
 DIIS: error= 6.44D-03 at cycle   4 NSaved=   4.
 NSaved= 4 IEnMin= 4 EnMin= -671.290255385744     IErMin= 4 ErrMin= 6.44D-03
 ErrMax= 6.44D-03 EMaxC= 1.00D-01 BMatC= 6.40D-03 BMatP= 1.33D-02
 IDIUse=3 WtCom= 9.36D-01 WtEn= 6.44D-02
 Coeff-Com: -0.215D-01 0.113D+00 0.414D+00 0.494D+00
 Coeff-En:   0.000D+00 0.000D+00 0.369D+00 0.631D+00
 Coeff:     -0.201D-01 0.106D+00 0.411D+00 0.503D+00
 Gap=     0.159 Goal=   None    Shift=    0.000
 RMSDP=4.11D-04 MaxDP=1.71D-02 DE=-6.50D-03 OVMax= 3.57D-02

 Cycle   5  Pass 0  IDiag  1:
 E= -671.296798127566     Delta-E=       -0.006542741822 Rises=F Damp=F
 DIIS: error= 8.44D-04 at cycle   5 NSaved=   5.
 NSaved= 5 IEnMin= 5 EnMin= -671.296798127566     IErMin= 5 ErrMin= 8.44D-04
 ErrMax= 8.44D-04 EMaxC= 1.00D-01 BMatC= 2.28D-04 BMatP= 6.40D-03
 IDIUse=3 WtCom= 9.92D-01 WtEn= 8.44D-03
 Coeff-Com: -0.761D-02 0.301D-01 0.183D+00 0.269D+00 0.526D+00
 Coeff-En:   0.000D+00 0.000D+00 0.000D+00 0.000D+00 0.100D+01
 Coeff:     -0.755D-02 0.298D-01 0.181D+00 0.266D+00 0.530D+00
 Gap=     0.159 Goal=   None    Shift=    0.000
 RMSDP=9.06D-05 MaxDP=4.03D-03 DE=-6.54D-03 OVMax= 7.64D-03

 Cycle   6  Pass 0  IDiag  1:
 E= -671.297007928583     Delta-E=       -0.000209801017 Rises=F Damp=F
 DIIS: error= 3.34D-04 at cycle   6 NSaved=   6.
 NSaved= 6 IEnMin= 6 EnMin= -671.297007928583     IErMin= 6 ErrMin= 3.34D-04
 ErrMax= 3.34D-04 EMaxC= 1.00D-01 BMatC= 3.98D-05 BMatP= 2.28D-04
 IDIUse=3 WtCom= 9.97D-01 WtEn= 3.34D-03
 Coeff-Com: -0.153D-02 0.254D-02 0.543D-01 0.945D-01 0.331D+00 0.519D+00
 Coeff-En:   0.000D+00 0.000D+00 0.000D+00 0.000D+00 0.156D+00 0.844D+00
 Coeff:     -0.153D-02 0.253D-02 0.542D-01 0.942D-01 0.330D+00 0.520D+00
 Gap=     0.159 Goal=   None    Shift=    0.000
 RMSDP=2.90D-05 MaxDP=1.16D-03 DE=-2.10D-04 OVMax= 2.47D-03

 Cycle   7  Pass 0  IDiag  1:
 E= -671.297050095342     Delta-E=       -0.000042166760 Rises=F Damp=F
 DIIS: error= 6.68D-05 at cycle   7 NSaved=   7.
 NSaved= 7 IEnMin= 7 EnMin= -671.297050095342     IErMin= 7 ErrMin= 6.68D-05
 ErrMax= 6.68D-05 EMaxC= 1.00D-01 BMatC= 1.43D-06 BMatP= 3.98D-05
 IDIUse=1 WtCom= 1.00D+00 WtEn= 0.00D+00
 Coeff-Com: -0.469D-03 0.878D-04 0.215D-01 0.384D-01 0.155D+00 0.280D+00
 Coeff-Com:  0.506D+00
 Coeff:     -0.469D-03 0.878D-04 0.215D-01 0.384D-01 0.155D+00 0.280D+00
 Coeff:      0.506D+00
 Gap=     0.159 Goal=   None    Shift=    0.000
 RMSDP=6.22D-06 MaxDP=3.28D-04 DE=-4.22D-05 OVMax= 5.17D-04

 Initial convergence to 1.0D-05 achieved.  Increase integral accuracy.
 Cycle   8  Pass 1  IDiag  1:
 E= -671.297067615624     Delta-E=       -0.000017520282 Rises=F Damp=F
 DIIS: error= 2.55D-05 at cycle   1 NSaved=   1.
 NSaved= 1 IEnMin= 1 EnMin= -671.297067615624     IErMin= 1 ErrMin= 2.55D-05
 ErrMax= 2.55D-05 EMaxC= 1.00D-01 BMatC= 2.61D-07 BMatP= 2.61D-07
 IDIUse=1 WtCom= 1.00D+00 WtEn= 0.00D+00
 Coeff-Com:  0.100D+01
 Coeff:      0.100D+01
 Gap=     0.159 Goal=   None    Shift=    0.000
 RMSDP=6.22D-06 MaxDP=3.28D-04 DE=-1.75D-05 OVMax= 3.96D-04

 Cycle   9  Pass 1  IDiag  1:
 E= -671.297067273018     Delta-E=        0.000000342607 Rises=F Damp=F
 DIIS: error= 5.75D-05 at cycle   2 NSaved=   2.
 NSaved= 2 IEnMin= 1 EnMin= -671.297067615624     IErMin= 1 ErrMin= 2.55D-05
 ErrMax= 5.75D-05 EMaxC= 1.00D-01 BMatC= 5.96D-07 BMatP= 2.61D-07
 IDIUse=1 WtCom= 1.00D+00 WtEn= 0.00D+00
 Coeff-Com:  0.616D+00 0.384D+00
 Coeff:      0.616D+00 0.384D+00
 Gap=     0.159 Goal=   None    Shift=    0.000
 RMSDP=3.90D-06 MaxDP=1.45D-04 DE= 3.43D-07 OVMax= 3.09D-04

 Cycle  10  Pass 1  IDiag  1:
 E= -671.297067877299     Delta-E=       -0.000000604282 Rises=F Damp=F
 DIIS: error= 1.45D-05 at cycle   3 NSaved=   3.
 NSaved= 3 IEnMin= 3 EnMin= -671.297067877299     IErMin= 3 ErrMin= 1.45D-05
 ErrMax= 1.45D-05 EMaxC= 1.00D-01 BMatC= 2.91D-08 BMatP= 2.61D-07
 IDIUse=1 WtCom= 1.00D+00 WtEn= 0.00D+00
 Coeff-Com:  0.111D+00 0.188D+00 0.701D+00
 Coeff:      0.111D+00 0.188D+00 0.701D+00
 Gap=     0.159 Goal=   None    Shift=    0.000
 RMSDP=1.08D-06 MaxDP=4.18D-05 DE=-6.04D-07 OVMax= 9.41D-05

 Cycle  11  Pass 1  IDiag  1:
 E= -671.297067899647     Delta-E=       -0.000000022348 Rises=F Damp=F
 DIIS: error= 4.70D-06 at cycle   4 NSaved=   4.
 NSaved= 4 IEnMin= 4 EnMin= -671.297067899647     IErMin= 4 ErrMin= 4.70D-06
 ErrMax= 4.70D-06 EMaxC= 1.00D-01 BMatC= 9.74D-09 BMatP= 2.91D-08
 IDIUse=1 WtCom= 1.00D+00 WtEn= 0.00D+00
 Coeff-Com: -0.981D-02 0.730D-01 0.458D+00 0.479D+00
 Coeff:     -0.981D-02 0.730D-01 0.458D+00 0.479D+00
 Gap=     0.159 Goal=   None    Shift=    0.000
 RMSDP=4.32D-07 MaxDP=1.85D-05 DE=-2.23D-08 OVMax= 2.63D-05

 Cycle  12  Pass 1  IDiag  1:
 E= -671.297067909188     Delta-E=       -0.000000009541 Rises=F Damp=F
 DIIS: error= 7.01D-07 at cycle   5 NSaved=   5.
 NSaved= 5 IEnMin= 5 EnMin= -671.297067909188     IErMin= 5 ErrMin= 7.01D-07
 ErrMax= 7.01D-07 EMaxC= 1.00D-01 BMatC= 1.40D-10 BMatP= 9.74D-09
 IDIUse=1 WtCom= 1.00D+00 WtEn= 0.00D+00
 Coeff-Com: -0.842D-02 0.290D-01 0.195D+00 0.225D+00 0.558D+00
 Coeff:     -0.842D-02 0.290D-01 0.195D+00 0.225D+00 0.558D+00
 Gap=     0.159 Goal=   None    Shift=    0.000
 RMSDP=7.52D-08 MaxDP=2.38D-06 DE=-9.54D-09 OVMax= 5.35D-06

 Cycle  13  Pass 1  IDiag  1:
 E= -671.297067909266     Delta-E=       -0.000000000078 Rises=F Damp=F
 DIIS: error= 2.64D-07 at cycle   6 NSaved=   6.
 NSaved= 6 IEnMin= 6 EnMin= -671.297067909266     IErMin= 6 ErrMin= 2.64D-07
 ErrMax= 2.64D-07 EMaxC= 1.00D-01 BMatC= 2.85D-11 BMatP= 1.40D-10
 IDIUse=1 WtCom= 1.00D+00 WtEn= 0.00D+00
 Coeff-Com: -0.391D-02 0.973D-02 0.686D-01 0.821D-01 0.339D+00 0.505D+00
 Coeff:     -0.391D-02 0.973D-02 0.686D-01 0.821D-01 0.339D+00 0.505D+00
 Gap=     0.159 Goal=   None    Shift=    0.000
 RMSDP=2.58D-08 MaxDP=8.42D-07 DE=-7.80D-11 OVMax= 2.01D-06

 Cycle  14  Pass 1  IDiag  1:
 E= -671.297067909311     Delta-E=       -0.000000000045 Rises=F Damp=F
 DIIS: error= 6.35D-08 at cycle   7 NSaved=   7.
 NSaved= 7 IEnMin= 7 EnMin= -671.297067909311     IErMin= 7 ErrMin= 6.35D-08
 ErrMax= 6.35D-08 EMaxC= 1.00D-01 BMatC= 1.35D-12 BMatP= 2.85D-11
 IDIUse=1 WtCom= 1.00D+00 WtEn= 0.00D+00
 Coeff-Com: -0.782D-03 0.111D-02 0.929D-02 0.103D-01 0.894D-01 0.224D+00
 Coeff-Com:  0.667D+00
 Coeff:     -0.782D-03 0.111D-02 0.929D-02 0.103D-01 0.894D-01 0.224D+00
 Coeff:      0.667D+00
 Gap=     0.159 Goal=   None    Shift=    0.000
 RMSDP=7.96D-09 MaxDP=2.02D-07 DE=-4.46D-11 OVMax= 6.83D-07

 SCF Done:  E(RB3LYP) =  -671.297067909     A.U. after   14 cycles
             Convg  =    0.7959D-08             -V/T =  2.0093
 KE= 6.650828654324D+02 PE=-3.607070978541D+03 EE= 1.246229139467D+03
 Leave Link  502 at Tue Sep 28 14:44:36 2021, MaxMem= 1073741824 cpu:     302.8
 (Enter /sw/target/amd/app/gaussian/Gaussian09RevA.02_gcc-4.9.2/g09/l508.exe)
 QCSCF skips out because SCF is already converged.
 Leave Link  508 at Tue Sep 28 14:44:37 2021, MaxMem= 1073741824 cpu:       0.0
 (Enter /sw/target/amd/app/gaussian/Gaussian09RevA.02_gcc-4.9.2/g09/l601.exe)
 Copying SCF densities to generalized density rwf, IOpCl= 0 IROHF=0.

 **********************************************************************

            Population analysis using the SCF density.

 **********************************************************************

 Orbital symmetries:
       Occupied  (A) (A) (A) (A) (A) (A) (A) (A) (A) (A) (A) (A)
                 (A) (A) (A) (A) (A) (A) (A) (A) (A) (A) (A) (A)
                 (A) (A) (A) (A) (A) (A) (A) (A) (A) (A) (A) (A)
                 (A) (A) (A) (A) (A) (A) (A) (A) (A) (A) (A) (A)
                 (A) (A) (A) (A) (A) (A) (A) (A)
       Virtual   (A) (A) (A) (A) (A) (A) (A) (A) (A) (A) (A) (A)
                 (A) (A) (A) (A) (A) (A) (A) (A) (A) (A) (A) (A)
                 (A) (A) (A) (A) (A) (A) (A) (A) (A) (A) (A) (A)
                 (A) (A) (A) (A) (A) (A) (A) (A) (A) (A) (A) (A)
                 (A) (A) (A) (A) (A) (A) (A) (A) (A) (A) (A) (A)
                 (A) (A) (A) (A) (A) (A) (A) (A) (A) (A) (A) (A)
                 (A) (A) (A) (A) (A) (A) (A) (A) (A) (A) (A) (A)
                 (A) (A) (A) (A) (A) (A) (A) (A) (A) (A) (A) (A)
                 (A) (A) (A) (A) (A) (A) (A) (A) (A) (A) (A) (A)
                 (A) (A) (A) (A) (A) (A) (A) (A) (A) (A) (A) (A)
                 (A) (A) (A) (A) (A) (A) (A) (A) (A) (A) (A) (A)
                 (A) (A) (A) (A) (A) (A) (A) (A) (A) (A) (A) (A)
                 (A) (A) (A) (A) (A) (A) (A) (A) (A) (A) (A) (A)
                 (A) (A) (A) (A) (A) (A) (A) (A) (A) (A) (A) (A)
                 (A) (A) (A) (A) (A) (A) (A) (A) (A) (A) (A) (A)
                 (A) (A) (A) (A) (A) (A) (A) (A) (A) (A) (A) (A)
                 (A) (A) (A) (A) (A) (A) (A) (A) (A) (A) (A) (A)
                 (A) (A) (A) (A) (A) (A)
 The electronic state is 1-A.
 Alpha  occ. eigenvalues --  -19.16785 -14.37017 -10.23511 -10.23398 -10.22702
 Alpha  occ. eigenvalues --  -10.21656 -10.21139 -10.19003 -10.18631 -10.18453
 Alpha  occ. eigenvalues --  -10.18347 -10.18312 -10.18118 -10.18112 -10.17830
 Alpha  occ. eigenvalues --  -10.17533  -1.05281  -0.98619  -0.84358  -0.83889
 Alpha  occ. eigenvalues --   -0.78565  -0.74644  -0.73931  -0.72223  -0.70196
 Alpha  occ. eigenvalues --   -0.67212  -0.62813  -0.59506  -0.57724  -0.57319
 Alpha  occ. eigenvalues --   -0.52428  -0.51610  -0.50497  -0.47093  -0.46967
 Alpha  occ. eigenvalues --   -0.46264  -0.46227  -0.44612  -0.43638  -0.42391
 Alpha  occ. eigenvalues --   -0.41180  -0.40807  -0.40112  -0.39811  -0.38308
 Alpha  occ. eigenvalues --   -0.36191  -0.36065  -0.34543  -0.33805  -0.32931
 Alpha  occ. eigenvalues --   -0.31889  -0.28991  -0.27050  -0.23433  -0.20723
 Alpha  occ. eigenvalues --   -0.18441
 Alpha virt. eigenvalues --   -0.02517   0.01478   0.04309   0.05109   0.08632
 Alpha virt. eigenvalues --    0.10191   0.10835   0.11628   0.12932   0.13562
 Alpha virt. eigenvalues --    0.15007   0.15518   0.15799   0.16425   0.17187
 Alpha virt. eigenvalues --    0.17595   0.18187   0.18958   0.19589   0.20941
 Alpha virt. eigenvalues --    0.22076   0.23521   0.25380   0.27046   0.28945
 Alpha virt. eigenvalues --    0.29185   0.32066   0.32977   0.36685   0.37890
 Alpha virt. eigenvalues --    0.39251   0.39608   0.44317   0.46828   0.48437
 Alpha virt. eigenvalues --    0.50070   0.51327   0.51833   0.53151   0.53832
 Alpha virt. eigenvalues --    0.54441   0.54706   0.55307   0.56382   0.56738
 Alpha virt. eigenvalues --    0.57707   0.58537   0.59172   0.59359   0.60679
 Alpha virt. eigenvalues --    0.61698   0.62138   0.62393   0.62794   0.63530
 Alpha virt. eigenvalues --    0.63852   0.64761   0.65617   0.66215   0.70180
 Alpha virt. eigenvalues --    0.72418   0.73185   0.74360   0.75797   0.76083
 Alpha virt. eigenvalues --    0.79902   0.82053   0.82119   0.82517   0.83269
 Alpha virt. eigenvalues --    0.84752   0.85076   0.85513   0.86784   0.87646
 Alpha virt. eigenvalues --    0.87842   0.88551   0.89881   0.91564   0.92056
 Alpha virt. eigenvalues --    0.92945   0.93732   0.94653   0.95151   0.96852
 Alpha virt. eigenvalues --    0.98486   0.99504   0.99881   1.00979   1.05167
 Alpha virt. eigenvalues --    1.05649   1.06661   1.10989   1.12553   1.14161
 Alpha virt. eigenvalues --    1.15737   1.18886   1.19050   1.21627   1.22900
 Alpha virt. eigenvalues --    1.25924   1.27794   1.31404   1.32334   1.33246
 Alpha virt. eigenvalues --    1.34550   1.36100   1.37537   1.39230   1.41143
 Alpha virt. eigenvalues --    1.43880   1.44983   1.46139   1.47624   1.48518
 Alpha virt. eigenvalues --    1.49117   1.49426   1.51005   1.53263   1.56652
 Alpha virt. eigenvalues --    1.60802   1.63634   1.68120   1.70734   1.76074
 Alpha virt. eigenvalues --    1.79083   1.79312   1.81082   1.81422   1.81772
 Alpha virt. eigenvalues --    1.84412   1.87536   1.88917   1.89836   1.93045
 Alpha virt. eigenvalues --    1.93899   1.95833   1.97029   1.98407   1.98774
 Alpha virt. eigenvalues --    2.02279   2.03016   2.03941   2.05615   2.06938
 Alpha virt. eigenvalues --    2.07536   2.09611   2.10699   2.12187   2.14243
 Alpha virt. eigenvalues --    2.17188   2.18292   2.19795   2.21103   2.21867
 Alpha virt. eigenvalues --    2.23034   2.24913   2.26376   2.26865   2.27474
 Alpha virt. eigenvalues --    2.31153   2.33322   2.34278   2.36119   2.40481
 Alpha virt. eigenvalues --    2.41287   2.43103   2.48161   2.50981   2.52806
 Alpha virt. eigenvalues --    2.54021   2.57055   2.59717   2.62806   2.65954
 Alpha virt. eigenvalues --    2.66485   2.68169   2.69373   2.70800   2.72346
 Alpha virt. eigenvalues --    2.75383   2.77301   2.80313   2.83555   2.88581
 Alpha virt. eigenvalues --    2.92582   2.96437   2.99645   3.08111   3.11206
 Alpha virt. eigenvalues --    3.23801   3.36185   3.40999   3.52661   4.05751
 Alpha virt. eigenvalues --    4.06990   4.09878   4.11950   4.14020   4.17071
 Alpha virt. eigenvalues --    4.19508   4.24548   4.29580   4.35432   4.39249
 Alpha virt. eigenvalues --    4.44507   4.52294   4.57765   4.77913   4.89216
          Condensed to atoms (all electrons):
              1          2          3          4          5          6
     1  C    4.892932   0.253085  -0.046028   0.004010  -0.000140   0.000003
     2  O    0.253085   8.207061   0.272375  -0.053390   0.003244   0.000365
     3  C   -0.046028   0.272375   4.550835   0.525812  -0.009587  -0.040007
     4  C    0.004010  -0.053390   0.525812   4.989170   0.506984  -0.003812
     5  C   -0.000140   0.003244  -0.009587   0.506984   5.093100   0.465340
     6  C    0.000003   0.000365  -0.040007  -0.003812   0.465340   4.789000
     7  C    0.000598   0.002556   0.023484  -0.033176  -0.051217   0.419142
     8  C   -0.007960  -0.055841   0.426939  -0.062130  -0.061247  -0.087736
     9  C   -0.000011  -0.000042   0.005717  -0.000126   0.016535   0.023198
    10  C   -0.000001   0.000000   0.000018   0.000003  -0.000122   0.016913
    11  C    0.000000   0.000000   0.000001  -0.000000   0.000001  -0.000342
    12  C   -0.000000  -0.000000  -0.000000  -0.000000   0.000003  -0.000042
    13  C   -0.000000   0.000000   0.000000   0.000003  -0.000255   0.003126
    14  C   -0.000000   0.000000  -0.000175   0.000045   0.002152  -0.106842
    15  N   -0.000000   0.000000  -0.000406   0.005466  -0.098696   0.274683
    16  C    0.000000  -0.000000   0.000011  -0.000147  -0.003283  -0.049142
    17  H    0.382922  -0.031480   0.003234  -0.000100   0.000003   0.000000
    18  H    0.360860  -0.036360  -0.002919   0.000407  -0.000021  -0.000008
    19  H    0.366000  -0.037009  -0.005456  -0.000133   0.000006   0.000002
    20  H   -0.000184   0.000179  -0.033345   0.343904  -0.040552   0.003282
    21  H    0.000003  -0.000055   0.003826  -0.039297   0.351217  -0.037649
    22  H    0.005431  -0.006754  -0.049453   0.004505   0.000439   0.005759
    23  H   -0.000002   0.000000   0.000018   0.000003  -0.000003  -0.000254
    24  H   -0.000000   0.000000   0.000000  -0.000000  -0.000000   0.000005
    25  H    0.000000  -0.000000   0.000000   0.000000  -0.000000   0.000001
    26  H    0.000000   0.000000  -0.000000  -0.000000  -0.000000  -0.000118
    27  H    0.000000  -0.000000  -0.000000   0.000002   0.000019   0.001922
    28  H    0.000000   0.000000  -0.000002  -0.000005   0.003113   0.000013
    29  H   -0.000000   0.000000  -0.000002   0.000015   0.003658  -0.001072
              7          8          9         10         11         12
     1  C    0.000598  -0.007960  -0.000011  -0.000001   0.000000  -0.000000
     2  O    0.002556  -0.055841  -0.000042   0.000000   0.000000  -0.000000
     3  C    0.023484   0.426939   0.005717   0.000018   0.000001  -0.000000
     4  C   -0.033176  -0.062130  -0.000126   0.000003  -0.000000  -0.000000
     5  C   -0.051217  -0.061247   0.016535  -0.000122   0.000001   0.000003
     6  C    0.419142  -0.087736   0.023198   0.016913  -0.000342  -0.000042
     7  C    5.021403   0.440057   0.266237  -0.108642   0.008433  -0.000068
     8  C    0.440057   5.413716  -0.101968  -0.018694   0.000116   0.000006
     9  C    0.266237  -0.101968   4.992134   0.500137   0.001797  -0.036891
    10  C   -0.108642  -0.018694   0.500137   5.132742   0.504876  -0.025479
    11  C    0.008433   0.000116   0.001797   0.504876   4.894485   0.530925
    12  C   -0.000068   0.000006  -0.036891  -0.025479   0.530925   4.858988
    13  C    0.015256  -0.000158  -0.051521  -0.058600  -0.027258   0.524529
    14  C    0.013001   0.016058   0.426184  -0.076003  -0.042135   0.001030
    15  N   -0.049439   0.013435  -0.058634   0.011638  -0.000247   0.005075
    16  C    0.007034  -0.000174   0.007553  -0.000166  -0.000004   0.000084
    17  H    0.000008   0.000193  -0.000000   0.000000   0.000000  -0.000000
    18  H   -0.000362   0.006700  -0.000007  -0.000000   0.000000  -0.000000
    19  H   -0.000154   0.003686  -0.000005  -0.000000  -0.000000  -0.000000
    20  H    0.000354   0.007565   0.000003  -0.000000   0.000000   0.000000
    21  H    0.004366   0.000271  -0.000136   0.000003  -0.000000   0.000000
    22  H   -0.028975   0.339586  -0.007452   0.003531  -0.000027   0.000002
    23  H   -0.008229   0.002878  -0.035820   0.348672  -0.047553   0.004780
    24  H   -0.000204  -0.000001   0.002067  -0.037868   0.357860  -0.041729
    25  H    0.000012  -0.000000   0.001076   0.004493  -0.040371   0.357606
    26  H   -0.000234   0.000002   0.004487   0.000636   0.004342  -0.040985
    27  H    0.000116   0.000008  -0.000366  -0.000024   0.000008  -0.000007
    28  H   -0.000287  -0.000013   0.000069   0.000008  -0.000001   0.000002
    29  H   -0.000196  -0.000012   0.000021   0.000008  -0.000000   0.000001
             13         14         15         16         17         18
     1  C   -0.000000  -0.000000  -0.000000   0.000000   0.382922   0.360860
     2  O    0.000000   0.000000   0.000000  -0.000000  -0.031480  -0.036360
     3  C    0.000000  -0.000175  -0.000406   0.000011   0.003234  -0.002919
     4  C    0.000003   0.000045   0.005466  -0.000147  -0.000100   0.000407
     5  C   -0.000255   0.002152  -0.098696  -0.003283   0.000003  -0.000021
     6  C    0.003126  -0.106842   0.274683  -0.049142   0.000000  -0.000008
     7  C    0.015256   0.013001  -0.049439   0.007034   0.000008  -0.000362
     8  C   -0.000158   0.016058   0.013435  -0.000174   0.000193   0.006700
     9  C   -0.051521   0.426184  -0.058634   0.007553  -0.000000  -0.000007
    10  C   -0.058600  -0.076003   0.011638  -0.000166   0.000000  -0.000000
    11  C   -0.027258  -0.042135  -0.000247  -0.000004   0.000000   0.000000
    12  C    0.524529   0.001030   0.005075   0.000084  -0.000000  -0.000000
    13  C    5.088977   0.467668  -0.094343  -0.005261  -0.000000  -0.000000
    14  C    0.467668   4.753231   0.283392  -0.043812  -0.000000   0.000000
    15  N   -0.094343   0.283392   7.189032   0.299035  -0.000000   0.000000
    16  C   -0.005261  -0.043812   0.299035   4.982518   0.000000   0.000000
    17  H   -0.000000  -0.000000  -0.000000   0.000000   0.549953  -0.031982
    18  H   -0.000000   0.000000   0.000000   0.000000  -0.031982   0.598138
    19  H    0.000000   0.000000   0.000000   0.000000  -0.036705  -0.047260
    20  H   -0.000000   0.000003  -0.000084  -0.000001  -0.000032   0.000037
    21  H   -0.000001  -0.000228  -0.007687   0.004350  -0.000000   0.000000
    22  H   -0.000001  -0.000312  -0.000114   0.000003  -0.000149   0.001470
    23  H    0.000464   0.005459  -0.000105   0.000003   0.000000  -0.000001
    24  H    0.004719   0.001063   0.000004  -0.000000   0.000000   0.000000
    25  H   -0.039911   0.002555  -0.000094   0.000000   0.000000  -0.000000
    26  H    0.344958  -0.038303  -0.006490   0.001457   0.000000  -0.000000
    27  H    0.004814  -0.004023  -0.028578   0.376101  -0.000000   0.000000
    28  H    0.000360   0.000768  -0.048414   0.376699  -0.000000  -0.000000
    29  H    0.000168   0.001133  -0.044016   0.373853   0.000000   0.000000
             19         20         21         22         23         24
     1  C    0.366000  -0.000184   0.000003   0.005431  -0.000002  -0.000000
     2  O   -0.037009   0.000179  -0.000055  -0.006754   0.000000   0.000000
     3  C   -0.005456  -0.033345   0.003826  -0.049453   0.000018   0.000000
     4  C   -0.000133   0.343904  -0.039297   0.004505   0.000003  -0.000000
     5  C    0.000006  -0.040552   0.351217   0.000439  -0.000003  -0.000000
     6  C    0.000002   0.003282  -0.037649   0.005759  -0.000254   0.000005
     7  C   -0.000154   0.000354   0.004366  -0.028975  -0.008229  -0.000204
     8  C    0.003686   0.007565   0.000271   0.339586   0.002878  -0.000001
     9  C   -0.000005   0.000003  -0.000136  -0.007452  -0.035820   0.002067
    10  C   -0.000000  -0.000000   0.000003   0.003531   0.348672  -0.037868
    11  C   -0.000000   0.000000  -0.000000  -0.000027  -0.047553   0.357860
    12  C   -0.000000   0.000000   0.000000   0.000002   0.004780  -0.041729
    13  C    0.000000  -0.000000  -0.000001  -0.000001   0.000464   0.004719
    14  C    0.000000   0.000003  -0.000228  -0.000312   0.005459   0.001063
    15  N    0.000000  -0.000084  -0.007687  -0.000114  -0.000105   0.000004
    16  C    0.000000  -0.000001   0.004350   0.000003   0.000003  -0.000000
    17  H   -0.036705  -0.000032  -0.000000  -0.000149   0.000000   0.000000
    18  H   -0.047260   0.000037   0.000000   0.001470  -0.000001   0.000000
    19  H    0.605053   0.000029  -0.000000   0.002531  -0.000004  -0.000000
    20  H    0.000029   0.589374  -0.005887  -0.000164  -0.000000  -0.000000
    21  H   -0.000000  -0.005887   0.596746   0.000016   0.000000   0.000000
    22  H    0.002531  -0.000164   0.000016   0.600052   0.001979   0.000000
    23  H   -0.000004  -0.000000   0.000000   0.001979   0.609386  -0.005068
    24  H   -0.000000  -0.000000   0.000000   0.000000  -0.005068   0.603830
    25  H    0.000000  -0.000000  -0.000000  -0.000000  -0.000198  -0.005497
    26  H   -0.000000  -0.000000  -0.000000   0.000000   0.000018  -0.000188
    27  H   -0.000000  -0.000000  -0.000066  -0.000000   0.000000  -0.000000
    28  H    0.000000  -0.000000   0.000448  -0.000000  -0.000000  -0.000000
    29  H   -0.000000  -0.000000   0.001248  -0.000000  -0.000000  -0.000000
             25         26         27         28         29
     1  C    0.000000   0.000000   0.000000   0.000000  -0.000000
     2  O   -0.000000   0.000000  -0.000000   0.000000   0.000000
     3  C    0.000000  -0.000000  -0.000000  -0.000002  -0.000002
     4  C    0.000000  -0.000000   0.000002  -0.000005   0.000015
     5  C   -0.000000  -0.000000   0.000019   0.003113   0.003658
     6  C    0.000001  -0.000118   0.001922   0.000013  -0.001072
     7  C    0.000012  -0.000234   0.000116  -0.000287  -0.000196
     8  C   -0.000000   0.000002   0.000008  -0.000013  -0.000012
     9  C    0.001076   0.004487  -0.000366   0.000069   0.000021
    10  C    0.004493   0.000636  -0.000024   0.000008   0.000008
    11  C   -0.040371   0.004342   0.000008  -0.000001  -0.000000
    12  C    0.357606  -0.040985  -0.000007   0.000002   0.000001
    13  C   -0.039911   0.344958   0.004814   0.000360   0.000168
    14  C    0.002555  -0.038303  -0.004023   0.000768   0.001133
    15  N   -0.000094  -0.006490  -0.028578  -0.048414  -0.044016
    16  C    0.000000   0.001457   0.376101   0.376699   0.373853
    17  H    0.000000   0.000000  -0.000000  -0.000000   0.000000
    18  H   -0.000000  -0.000000   0.000000  -0.000000   0.000000
    19  H    0.000000  -0.000000  -0.000000   0.000000  -0.000000
    20  H   -0.000000  -0.000000  -0.000000  -0.000000  -0.000000
    21  H   -0.000000  -0.000000  -0.000066   0.000448   0.001248
    22  H   -0.000000   0.000000  -0.000000  -0.000000  -0.000000
    23  H   -0.000198   0.000018   0.000000  -0.000000  -0.000000
    24  H   -0.005497  -0.000188  -0.000000  -0.000000  -0.000000
    25  H    0.600784  -0.005386   0.000001  -0.000000  -0.000000
    26  H   -0.005386   0.607058   0.005472  -0.000116  -0.000103
    27  H    0.000001   0.005472   0.524174  -0.027958  -0.024919
    28  H   -0.000000  -0.000116  -0.027958   0.568118  -0.041629
    29  H   -0.000000  -0.000103  -0.024919  -0.041629   0.563241
 Mulliken atomic charges:
              1
     1  C   -0.211518
     2  O   -0.517934
     3  C    0.375109
     4  C   -0.188013
     5  C   -0.180689
     6  C    0.324272
     7  C    0.059125
     8  C   -0.275280
     9  C    0.045765
    10  C   -0.198079
    11  C   -0.144904
    12  C   -0.137829
    13  C   -0.177733
    14  C    0.338094
    15  N   -0.644411
    16  C   -0.326713
    17  H    0.164137
    18  H    0.151308
    19  H    0.149419
    20  H    0.135521
    21  H    0.128514
    22  H    0.128097
    23  H    0.123577
    24  H    0.121006
    25  H    0.124930
    26  H    0.123495
    27  H    0.173304
    28  H    0.168827
    29  H    0.168604
 Sum of Mulliken atomic charges =  -0.00000
 Mulliken charges with hydrogens summed into heavy atoms:
              1
     1  C    0.253347
     2  O   -0.517934
     3  C    0.375109
     4  C   -0.052493
     5  C   -0.052175
     6  C    0.324272
     7  C    0.059125
     8  C   -0.147183
     9  C    0.045765
    10  C   -0.074502
    11  C   -0.023898
    12  C   -0.012899
    13  C   -0.054239
    14  C    0.338094
    15  N   -0.644411
    16  C    0.184022
 Sum of Mulliken charges with hydrogens summed into heavy atoms =  -0.00000
 Electronic spatial extent (au):  <R**2>=           3923.6236
 Charge=              0.0000 electrons
 Dipole moment (field-independent basis, Debye):
    X=              0.6487    Y=              0.5984    Z=              0.3843  Tot=              0.9626
 Quadrupole moment (field-independent basis, Debye-Ang):
   XX=            -86.5395   YY=            -78.0664   ZZ=            -97.1032
   XY=              8.9084   XZ=             -1.2252   YZ=             -0.0892
 Traceless Quadrupole moment (field-independent basis, Debye-Ang):
   XX=              0.6969   YY=              9.1700   ZZ=             -9.8669
   XY=              8.9084   XZ=             -1.2252   YZ=             -0.0892
 Octapole moment (field-independent basis, Debye-Ang**2):
  XXX=              2.9377  YYY=              9.3817  ZZZ=              1.0212  XYY=             -9.2050
  XXY=            -16.6696  XXZ=              7.4514  XZZ=            -10.6490  YZZ=              2.6278
  YYZ=             -0.1721  XYZ=              2.3588
 Hexadecapole moment (field-independent basis, Debye-Ang**3):
 XXXX=          -3487.2619 YYYY=          -1354.4311 ZZZZ=           -115.0538 XXXY=            127.3184
 XXXZ=            -25.3493 YYYX=             35.3395 YYYZ=              1.5610 ZZZX=             -0.8552
 ZZZY=              0.1172 XXYY=           -742.2765 XXZZ=           -670.4255 YYZZ=           -273.7885
 XXYZ=             -8.1457 YYXZ=             -1.2111 ZZXY=             22.6767
 N-N= 1.024461905732D+03 E-N=-3.607070990328D+03  KE= 6.650828654324D+02
 No NMR shielding tensors so no spin-rotation constants.
 Leave Link  601 at Tue Sep 28 14:44:38 2021, MaxMem= 1073741824 cpu:       0.9
 (Enter /sw/target/amd/app/gaussian/Gaussian09RevA.02_gcc-4.9.2/g09/l701.exe)
 Compute integral first derivatives.
 ... and contract with generalized density number  0.
 Leave Link  701 at Tue Sep 28 14:44:38 2021, MaxMem= 1073741824 cpu:       0.9
 (Enter /sw/target/amd/app/gaussian/Gaussian09RevA.02_gcc-4.9.2/g09/l702.exe)
 L702 exits ... SP integral derivatives will be done elsewhere.
 Leave Link  702 at Tue Sep 28 14:44:38 2021, MaxMem= 1073741824 cpu:       0.1
 (Enter /sw/target/amd/app/gaussian/Gaussian09RevA.02_gcc-4.9.2/g09/l703.exe)
 Compute integral first derivatives, UseDBF=F ICtDFT=           0.
 Integral derivatives from FoFDir, PRISM(SPDF).
 Calling FoFJK, ICntrl=      2127 FMM=F ISym2X=0 I1Cent= 0 IOpClX= 0 NMat=1 NMatS=1 NMatT=0.
 FoFCou: FMM=F IPFlag=           0 FMFlag=      100000 FMFlg1=         800
         NFxFlg=           0 DoJE=F BraDBF=F KetDBF=F FulRan=T
         Omega=  0.000000  0.000000  1.000000  0.000000  0.000000 ICntrl=    2127 IOpCl=  0
         NMat0=    1 NMatS0=    1 NMatT0=    0 NMatD0=    1 NMtDS0=    0 NMtDT0=    0
         I1Cent=           0 NGrid=           0.
 Symmetry not used in FoFCou.
 Leave Link  703 at Tue Sep 28 14:45:06 2021, MaxMem= 1073741824 cpu:     105.9
 (Enter /sw/target/amd/app/gaussian/Gaussian09RevA.02_gcc-4.9.2/g09/l716.exe)
 Dipole        = 2.55226632D-01 2.35435453D-01 1.51200862D-01
 ***** Axes restored to original set *****
 -------------------------------------------------------------------
 Center     Atomic                   Forces (Hartrees/Bohr)
 Number     Number              X              Y              Z
 -------------------------------------------------------------------
      1        6          -0.005866336   -0.002287510    0.001334536
      2        8           0.003485257   -0.007366624   -0.003299724
      3        6           0.006901483   -0.000170230   -0.008270399
      4        6          -0.002087419    0.018169503    0.015020274
      5        6           0.000247162   -0.004168568   -0.003811219
      6        6          -0.000712857    0.005234932    0.005338502
      7        6          -0.014868759   -0.029312356   -0.008356663
      8        6           0.005008531    0.002865665   -0.002062268
      9        6           0.018099700   -0.015237229   -0.026677827
     10        6          -0.001196415    0.002307040    0.002829027
     11        6          -0.006282774   -0.014697149   -0.004910270
     12        6          -0.003172420    0.009992178    0.010103627
     13        6          -0.000096584   -0.000147423   -0.000213271
     14        6           0.001577491    0.006949293    0.003698043
     15        7           0.000950925    0.025548241    0.013770681
     16        6          -0.001321255   -0.006954409   -0.002218285
     17        1          -0.002715660    0.002921251    0.002171438
     18        1           0.002836496    0.002274130   -0.001986296
     19        1           0.003676781    0.000411073   -0.001961650
     20        1           0.001478364   -0.001487700   -0.001878637
     21        1          -0.000188028    0.000210832    0.000392562
     22        1          -0.000920565   -0.002844994   -0.000256493
     23        1          -0.000227643   -0.000803462   -0.000310202
     24        1          -0.000379198   -0.000218004    0.000230778
     25        1          -0.000792599    0.000329966    0.000983099
     26        1          -0.000513208    0.000453257    0.000913989
     27        1          -0.000073173   -0.000724202   -0.000208167
     28        1          -0.001709183    0.005263739    0.005252423
     29        1          -0.001138112    0.003488760    0.004382389
 -------------------------------------------------------------------
 Cartesian Forces:  Max     0.029312356 RMS     0.007565475
 Leave Link  716 at Tue Sep 28 14:45:06 2021, MaxMem= 1073741824 cpu:       0.1
 (Enter /sw/target/amd/app/gaussian/Gaussian09RevA.02_gcc-4.9.2/g09/l103.exe)

 GradGradGradGradGradGradGradGradGradGradGradGradGradGradGradGradGradGrad
 Berny optimization.
 Internal  Forces:  Max     0.024393094 RMS     0.004779827
 Search for a local minimum.
 Step number   1 out of a maximum of  164
 All quantities printed in internal units (Hartrees-Bohrs-Radians)
 RMS Force = .47798D-02 SwitMx=.10000D-02 MixMth= 1
 Mixed Optimization -- RFO/linear search
 Second derivative matrix not updated -- first step.
     Eigenvalues ---    0.01068   0.01397   0.01573   0.01860   0.01914
     Eigenvalues ---    0.01945   0.01985   0.01999   0.02007   0.02017
     Eigenvalues ---    0.02030   0.02054   0.02060   0.02063   0.02075
     Eigenvalues ---    0.02092   0.02121   0.02132   0.02147   0.02151
     Eigenvalues ---    0.02152   0.02179   0.07659   0.07872   0.09979
     Eigenvalues ---    0.10542   0.15999   0.16000   0.16000   0.16000
     Eigenvalues ---    0.16000   0.16000   0.16000   0.16000   0.16000
     Eigenvalues ---    0.16000   0.16000   0.16000   0.16000   0.22000
     Eigenvalues ---    0.22443   0.22596   0.23523   0.24520   0.24637
     Eigenvalues ---    0.24998   0.24998   0.24999   0.25000   0.25000
     Eigenvalues ---    0.34189   0.34285   0.34321   0.34432   0.34436
     Eigenvalues ---    0.34726   0.35039   0.35094   0.35171   0.35281
     Eigenvalues ---    0.35406   0.35429   0.35666   0.38062   0.38280
     Eigenvalues ---    0.38616   0.40725   0.40927   0.41651   0.42115
     Eigenvalues ---    0.43728   0.44453   0.45138   0.45359   0.45475
     Eigenvalues ---    0.45720   0.46314   0.46648   0.47087   0.48328
     Eigenvalues ---    0.510201000.000001000.000001000.000001000.00000
     Eigenvalues --- 1000.000001000.000001000.000001000.000001000.00000
     Eigenvalues --- 1000.000001000.000001000.000001000.000001000.00000
     Eigenvalues --- 1000.000001000.000001000.000001000.000001000.00000
     Eigenvalues --- 1000.000001000.000001000.000001000.000001000.00000
     Eigenvalues --- 1000.000001000.000001000.000001000.000001000.00000
     Eigenvalues --- 1000.000001000.000001000.000001000.000001000.00000
     Eigenvalues --- 1000.000001000.000001000.000001000.000001000.00000
     Eigenvalues --- 1000.000001000.000001000.000001000.000001000.00000
     Eigenvalues --- 1000.000001000.000001000.000001000.000001000.00000
     Eigenvalues --- 1000.000001000.000001000.000001000.000001000.00000
     Eigenvalues --- 1000.000001000.000001000.000001000.000001000.00000
     Eigenvalues --- 1000.000001000.000001000.000001000.000001000.00000
     Eigenvalues --- 1000.000001000.000001000.000001000.000001000.00000
     Eigenvalues --- 1000.000001000.000001000.000001000.00000
 RFO step:  Lambda=-1.07244093D-02 EMin= 1.06757472D-02
 Linear search not attempted -- first point.
 Iteration  1 RMS(Cart)=  0.04596001 RMS(Int)=  0.00091440
 Iteration  2 RMS(Cart)=  0.00120940 RMS(Int)=  0.00019284
 Iteration  3 RMS(Cart)=  0.00000109 RMS(Int)=  0.00019283
 Iteration  4 RMS(Cart)=  0.00000000 RMS(Int)=  0.00019283
 Variable       Old X    -DE/DX   Delta X   Delta X   Delta X     New X
                                 (Linear)    (Quad)   (Total)
    R1        2.68777  -0.00302   0.00000  -0.00698  -0.00698   2.68079
    R2        2.06791  -0.00072   0.00000  -0.00203  -0.00203   2.06588
    R3        2.07012   0.00139   0.00000   0.00395   0.00395   2.07408
    R4        2.06853   0.00211   0.00000   0.00598   0.00598   2.07450
    R5        2.58850   0.00312   0.00000   0.00600   0.00600   2.59450
    R6        2.63321   0.01593   0.00000   0.03279   0.03278   2.66599
    R7        2.64360  -0.00529   0.00000  -0.01139  -0.01142   2.63217
    R8        2.64287  -0.00743   0.00000  -0.01628  -0.01626   2.62661
    R9        2.05612  -0.00177   0.00000  -0.00491  -0.00491   2.05121
   R10        2.65194  -0.00443   0.00000  -0.00948  -0.00945   2.64249
   R11        2.04985   0.00048   0.00000   0.00131   0.00131   2.05115
   R12        2.63386   0.02235   0.00000   0.04747   0.04749   2.68135
   R13        2.61158   0.00874   0.00000   0.01687   0.01685   2.62843
   R14        2.67388  -0.00859   0.00000  -0.01892  -0.01894   2.65494
   R15        2.70376   0.00807   0.00000   0.02010   0.02012   2.72388
   R16        2.04608   0.00149   0.00000   0.00404   0.00404   2.05012
   R17        2.66781  -0.00879   0.00000  -0.01931  -0.01933   2.64848
   R18        2.64133   0.02439   0.00000   0.05290   0.05291   2.69424
   R19        2.64153  -0.00644   0.00000  -0.01412  -0.01414   2.62739
   R20        2.05222   0.00087   0.00000   0.00239   0.00239   2.05461
   R21        2.62716   0.01511   0.00000   0.03054   0.03054   2.65770
   R22        2.05398  -0.00036   0.00000  -0.00099  -0.00099   2.05299
   R23        2.64236  -0.00463   0.00000  -0.01015  -0.01013   2.63223
   R24        2.05523  -0.00063   0.00000  -0.00174  -0.00174   2.05350
   R25        2.65660  -0.00625   0.00000  -0.01321  -0.01319   2.64342
   R26        2.05021   0.00077   0.00000   0.00212   0.00212   2.05233
   R27        2.60874   0.00785   0.00000   0.01513   0.01511   2.62385
   R28        2.73479   0.00610   0.00000   0.01536   0.01536   2.75015
   R29        2.06121  -0.00055   0.00000  -0.00154  -0.00154   2.05968
   R30        2.06606   0.00256   0.00000   0.00722   0.00722   2.07329
   R31        2.06601   0.00193   0.00000   0.00542   0.00542   2.07144
    A1        1.88068  -0.00588   0.00000  -0.03177  -0.03170   1.84898
    A2        1.94294   0.00023   0.00000   0.00007   0.00010   1.94304
    A3        1.93774   0.00273   0.00000   0.01446   0.01453   1.95227
    A4        1.87888   0.00400   0.00000   0.02638   0.02640   1.90528
    A5        1.87984   0.00261   0.00000   0.01777   0.01788   1.89771
    A6        1.94062  -0.00365   0.00000  -0.02609  -0.02605   1.91456
    A7        2.03186   0.00499   0.00000   0.01913   0.01913   2.05099
    A8        2.00111   0.00243   0.00000   0.00958   0.00961   2.01072
    A9        2.19032  -0.00537   0.00000  -0.02031  -0.02028   2.17005
   A10        2.09168   0.00294   0.00000   0.01071   0.01064   2.10232
   A11        2.12193   0.00137   0.00000   0.00464   0.00461   2.12654
   A12        2.08181  -0.00291   0.00000  -0.01532  -0.01533   2.06648
   A13        2.07939   0.00154   0.00000   0.01078   0.01077   2.09017
   A14        2.05723  -0.00032   0.00000  -0.00138  -0.00135   2.05588
   A15        2.10006   0.00009   0.00000   0.00029   0.00027   2.10033
   A16        2.12589   0.00023   0.00000   0.00109   0.00108   2.12697
   A17        2.12831  -0.00451   0.00000  -0.01548  -0.01544   2.11287
   A18        2.28642  -0.00766   0.00000  -0.03025  -0.03025   2.25618
   A19        1.86845   0.01217   0.00000   0.04573   0.04568   1.91414
   A20        2.07657   0.00590   0.00000   0.02385   0.02383   2.10040
   A21        1.87655  -0.00543   0.00000  -0.01961  -0.01959   1.85696
   A22        2.33006  -0.00047   0.00000  -0.00424  -0.00424   2.32582
   A23        2.09036  -0.00538   0.00000  -0.02195  -0.02203   2.06833
   A24        2.12800   0.00010   0.00000  -0.00422  -0.00418   2.12382
   A25        2.06482   0.00529   0.00000   0.02618   0.02622   2.09104
   A26        2.32887   0.00101   0.00000   0.00130   0.00130   2.33017
   A27        1.87990  -0.00549   0.00000  -0.01937  -0.01935   1.86055
   A28        2.07441   0.00448   0.00000   0.01809   0.01806   2.09247
   A29        2.09099  -0.00351   0.00000  -0.01499  -0.01504   2.07595
   A30        2.09863   0.00156   0.00000   0.00634   0.00636   2.10500
[...]
             N A T U R A L   A T O M I C   O R B I T A L   A N D
          N A T U R A L   B O N D   O R B I T A L   A N A L Y S I S
 ******************************Gaussian NBO Version 3.1******************************
       /RESON  / : Allow strongly delocalized NBO set

 Analyzing the CI density

 Job title: COc1ccc2c(c1)c1ccccc1n2C_conf_0                                 

 Storage needed:    215086 in NPA (1073737329 available)


 NATURAL POPULATIONS:  Natural atomic orbital occupancies 
                                                          
   NAO  Atom  No  lang   Type(AO)    Occupancy
 --------------------------------------------
     1    C    1  S      Cor( 1S)     1.99943
     2    C    1  S      Val( 2S)     1.10044
     3    C    1  S      Ryd( 3S)     0.00150
     4    C    1  S      Ryd( 4S)     0.00003
     5    C    1  px     Val( 2p)     1.22253
     6    C    1  px     Ryd( 3p)     0.00263
     7    C    1  py     Val( 2p)     0.75499
     8    C    1  py     Ryd( 3p)     0.00322
     9    C    1  pz     Val( 2p)     1.22977
    10    C    1  pz     Ryd( 3p)     0.00026
    11    C    1  dxy    Ryd( 3d)     0.00109
    12    C    1  dxz    Ryd( 3d)     0.00055
    13    C    1  dyz    Ryd( 3d)     0.00185
    14    C    1  dx2y2  Ryd( 3d)     0.00199
    15    C    1  dz2    Ryd( 3d)     0.00110

    16    O    2  S      Cor( 1S)     1.99975
    17    O    2  S      Val( 2S)     1.59604
    18    O    2  S      Ryd( 3S)     0.00079
    19    O    2  S      Ryd( 4S)     0.00005
    20    O    2  px     Val( 2p)     1.57731
    21    O    2  px     Ryd( 3p)     0.00184
    22    O    2  py     Val( 2p)     1.51512
    23    O    2  py     Ryd( 3p)     0.00131
    24    O    2  pz     Val( 2p)     1.77696
    25    O    2  pz     Ryd( 3p)     0.00220
    26    O    2  dxy    Ryd( 3d)     0.00133
    27    O    2  dxz    Ryd( 3d)     0.00128
    28    O    2  dyz    Ryd( 3d)     0.00077
    29    O    2  dx2y2  Ryd( 3d)     0.00133
    30    O    2  dz2    Ryd( 3d)     0.00076

    31    C    3  S      Cor( 1S)     1.99880
    32    C    3  S      Val( 2S)     0.83864
    33    C    3  S      Ryd( 3S)     0.00137
    34    C    3  S      Ryd( 4S)     0.00013
    35    C    3  px     Val( 2p)     0.78249
    36    C    3  px     Ryd( 3p)     0.00865
    37    C    3  py     Val( 2p)     1.05192
    38    C    3  py     Ryd( 3p)     0.00463
    39    C    3  pz     Val( 2p)     0.94801
    40    C    3  pz     Ryd( 3p)     0.00091
    41    C    3  dxy    Ryd( 3d)     0.00138
    42    C    3  dxz    Ryd( 3d)     0.00183
    43    C    3  dyz    Ryd( 3d)     0.00120
    44    C    3  dx2y2  Ryd( 3d)     0.00171
    45    C    3  dz2    Ryd( 3d)     0.00049

    46    C    4  S      Cor( 1S)     1.99907
    47    C    4  S      Val( 2S)     0.95152
    48    C    4  S      Ryd( 3S)     0.00085
    49    C    4  S      Ryd( 4S)     0.00004
    50    C    4  px     Val( 2p)     1.15023
    51    C    4  px     Ryd( 3p)     0.00500
    52    C    4  py     Val( 2p)     1.08796
    53    C    4  py     Ryd( 3p)     0.00493
    54    C    4  pz     Val( 2p)     1.13160
    55    C    4  pz     Ryd( 3p)     0.00387
    56    C    4  dxy    Ryd( 3d)     0.00062
    57    C    4  dxz    Ryd( 3d)     0.00049
    58    C    4  dyz    Ryd( 3d)     0.00038
    59    C    4  dx2y2  Ryd( 3d)     0.00070
    60    C    4  dz2    Ryd( 3d)     0.00047

    61    C    5  S      Cor( 1S)     1.99903
    62    C    5  S      Val( 2S)     0.94345
    63    C    5  S      Ryd( 3S)     0.00074
    64    C    5  S      Ryd( 4S)     0.00005
    65    C    5  px     Val( 2p)     1.06250
    66    C    5  px     Ryd( 3p)     0.00413
    67    C    5  py     Val( 2p)     1.19070
    68    C    5  py     Ryd( 3p)     0.00392
    69    C    5  pz     Val( 2p)     1.06035
    70    C    5  pz     Ryd( 3p)     0.00294
    71    C    5  dxy    Ryd( 3d)     0.00066
    72    C    5  dxz    Ryd( 3d)     0.00082
    73    C    5  dyz    Ryd( 3d)     0.00033
    74    C    5  dx2y2  Ryd( 3d)     0.00073
    75    C    5  dz2    Ryd( 3d)     0.00044

    76    C    6  S      Cor( 1S)     1.99897
    77    C    6  S      Val( 2S)     0.82206
    78    C    6  S      Ryd( 3S)     0.00154
    79    C    6  S      Ryd( 4S)     0.00008
    80    C    6  px     Val( 2p)     0.89188
    81    C    6  px     Ryd( 3p)     0.00391
    82    C    6  py     Val( 2p)     1.06770
    83    C    6  py     Ryd( 3p)     0.00676
    84    C    6  pz     Val( 2p)     1.03447
    85    C    6  pz     Ryd( 3p)     0.00162
    86    C    6  dxy    Ryd( 3d)     0.00087
    87    C    6  dxz    Ryd( 3d)     0.00132
    88    C    6  dyz    Ryd( 3d)     0.00095
    89    C    6  dx2y2  Ryd( 3d)     0.00112
    90    C    6  dz2    Ryd( 3d)     0.00039

    91    C    7  S      Cor( 1S)     1.99901
    92    C    7  S      Val( 2S)     0.85393
    93    C    7  S      Ryd( 3S)     0.00084
    94    C    7  S      Ryd( 4S)     0.00008
    95    C    7  px     Val( 2p)     1.09354
    96    C    7  px     Ryd( 3p)     0.00428
    97    C    7  py     Val( 2p)     1.05634
    98    C    7  py     Ryd( 3p)     0.00661
    99    C    7  pz     Val( 2p)     1.03884
   100    C    7  pz     Ryd( 3p)     0.00172
   101    C    7  dxy    Ryd( 3d)     0.00056
   102    C    7  dxz    Ryd( 3d)     0.00106
   103    C    7  dyz    Ryd( 3d)     0.00050
   104    C    7  dx2y2  Ryd( 3d)     0.00083
   105    C    7  dz2    Ryd( 3d)     0.00035

   106    C    8  S      Cor( 1S)     1.99897
   107    C    8  S      Val( 2S)     0.94227
   108    C    8  S      Ryd( 3S)     0.00074
   109    C    8  S      Ryd( 4S)     0.00006
   110    C    8  px     Val( 2p)     1.06264
   111    C    8  px     Ryd( 3p)     0.00346
   112    C    8  py     Val( 2p)     1.19947
   113    C    8  py     Ryd( 3p)     0.00330
   114    C    8  pz     Val( 2p)     1.11048
   115    C    8  pz     Ryd( 3p)     0.00371
   116    C    8  dxy    Ryd( 3d)     0.00065
   117    C    8  dxz    Ryd( 3d)     0.00051
   118    C    8  dyz    Ryd( 3d)     0.00039
   119    C    8  dx2y2  Ryd( 3d)     0.00069
   120    C    8  dz2    Ryd( 3d)     0.00044

   121    C    9  S      Cor( 1S)     1.99901
   122    C    9  S      Val( 2S)     0.85392
   123    C    9  S      Ryd( 3S)     0.00070
   124    C    9  S      Ryd( 4S)     0.00007
   125    C    9  px     Val( 2p)     1.04826
   126    C    9  px     Ryd( 3p)     0.00534
   127    C    9  py     Val( 2p)     1.10091
   128    C    9  py     Ryd( 3p)     0.00518
   129    C    9  pz     Val( 2p)     1.07315
   130    C    9  pz     Ryd( 3p)     0.00143
   131    C    9  dxy    Ryd( 3d)     0.00081
   132    C    9  dxz    Ryd( 3d)     0.00064
   133    C    9  dyz    Ryd( 3d)     0.00082
   134    C    9  dx2y2  Ryd( 3d)     0.00057
   135    C    9  dz2    Ryd( 3d)     0.00035

   136    C   10  S      Cor( 1S)     1.99904
   137    C   10  S      Val( 2S)     0.93948
   138    C   10  S      Ryd( 3S)     0.00071
   139    C   10  S      Ryd( 4S)     0.00005
   140    C   10  px     Val( 2p)     1.11601
   141    C   10  px     Ryd( 3p)     0.00379
   142    C   10  py     Val( 2p)     1.12539
   143    C   10  py     Ryd( 3p)     0.00448
   144    C   10  pz     Val( 2p)     1.08036
   145    C   10  pz     Ryd( 3p)     0.00390
   146    C   10  dxy    Ryd( 3d)     0.00085
   147    C   10  dxz    Ryd( 3d)     0.00045
   148    C   10  dyz    Ryd( 3d)     0.00038
   149    C   10  dx2y2  Ryd( 3d)     0.00060
   150    C   10  dz2    Ryd( 3d)     0.00041

   151    C   11  S      Cor( 1S)     1.99912
   152    C   11  S      Val( 2S)     0.96167
   153    C   11  S      Ryd( 3S)     0.00051
   154    C   11  S      Ryd( 4S)     0.00003
   155    C   11  px     Val( 2p)     1.07622
   156    C   11  px     Ryd( 3p)     0.00448
   157    C   11  py     Val( 2p)     1.17495
   158    C   11  py     Ryd( 3p)     0.00505
   159    C   11  pz     Val( 2p)     0.97732
   160    C   11  pz     Ryd( 3p)     0.00089
   161    C   11  dxy    Ryd( 3d)     0.00072
   162    C   11  dxz    Ryd( 3d)     0.00084
   163    C   11  dyz    Ryd( 3d)     0.00034
   164    C   11  dx2y2  Ryd( 3d)     0.00079
   165    C   11  dz2    Ryd( 3d)     0.00044

   166    C   12  S      Cor( 1S)     1.99914
   167    C   12  S      Val( 2S)     0.95099
   168    C   12  S      Ryd( 3S)     0.00060
   169    C   12  S      Ryd( 4S)     0.00003
   170    C   12  px     Val( 2p)     1.18516
   171    C   12  px     Ryd( 3p)     0.00502
   172    C   12  py     Val( 2p)     1.05346
   173    C   12  py     Ryd( 3p)     0.00481
   174    C   12  pz     Val( 2p)     1.08773
   175    C   12  pz     Ryd( 3p)     0.00313
   176    C   12  dxy    Ryd( 3d)     0.00060
   177    C   12  dxz    Ryd( 3d)     0.00029
   178    C   12  dyz    Ryd( 3d)     0.00059
   179    C   12  dx2y2  Ryd( 3d)     0.00083
   180    C   12  dz2    Ryd( 3d)     0.00044

   181    C   13  S      Cor( 1S)     1.99902
   182    C   13  S      Val( 2S)     0.94168
   183    C   13  S      Ryd( 3S)     0.00077
   184    C   13  S      Ryd( 4S)     0.00004
   185    C   13  px     Val( 2p)     1.09589
   186    C   13  px     Ryd( 3p)     0.00418
   187    C   13  py     Val( 2p)     1.15445
   188    C   13  py     Ryd( 3p)     0.00371
   189    C   13  pz     Val( 2p)     1.09299
   190    C   13  pz     Ryd( 3p)     0.00325
   191    C   13  dxy    Ryd( 3d)     0.00075
   192    C   13  dxz    Ryd( 3d)     0.00053
   193    C   13  dyz    Ryd( 3d)     0.00049
   194    C   13  dx2y2  Ryd( 3d)     0.00064
   195    C   13  dz2    Ryd( 3d)     0.00043

   196    C   14  S      Cor( 1S)     1.99899
   197    C   14  S      Val( 2S)     0.82230
   198    C   14  S      Ryd( 3S)     0.00154
   199    C   14  S      Ryd( 4S)     0.00008
   200    C   14  px     Val( 2p)     1.07397
   201    C   14  px     Ryd( 3p)     0.00516
   202    C   14  py     Val( 2p)     0.88687
   203    C   14  py     Ryd( 3p)     0.00589
   204    C   14  pz     Val( 2p)     1.03462
   205    C   14  pz     Ryd( 3p)     0.00142
   206    C   14  dxy    Ryd( 3d)     0.00111
   207    C   14  dxz    Ryd( 3d)     0.00141
   208    C   14  dyz    Ryd( 3d)     0.00087
   209    C   14  dx2y2  Ryd( 3d)     0.00088
   210    C   14  dz2    Ryd( 3d)     0.00040

   211    N   15  S      Cor( 1S)     1.99923
   212    N   15  S      Val( 2S)     1.17430
   213    N   15  S      Ryd( 3S)     0.00047
   214    N   15  S      Ryd( 4S)     0.00002
   215    N   15  px     Val( 2p)     1.31167
   216    N   15  px     Ryd( 3p)     0.00150
   217    N   15  py     Val( 2p)     1.30632
   218    N   15  py     Ryd( 3p)     0.00207
   219    N   15  pz     Val( 2p)     1.47376
   220    N   15  pz     Ryd( 3p)     0.00316
   221    N   15  dxy    Ryd( 3d)     0.00079
   222    N   15  dxz    Ryd( 3d)     0.00082
   223    N   15  dyz    Ryd( 3d)     0.00073
   224    N   15  dx2y2  Ryd( 3d)     0.00080
   225    N   15  dz2    Ryd( 3d)     0.00053

   226    C   16  S      Cor( 1S)     1.99946
   227    C   16  S      Val( 2S)     1.08300
   228    C   16  S      Ryd( 3S)     0.00105
   229    C   16  S      Ryd( 4S)     0.00001
   230    C   16  px     Val( 2p)     1.20406
   231    C   16  px     Ryd( 3p)     0.00288
   232    C   16  py     Val( 2p)     0.92357
   233    C   16  py     Ryd( 3p)     0.00207
   234    C   16  pz     Val( 2p)     1.24891
   235    C   16  pz     Ryd( 3p)     0.00116
   236    C   16  dxy    Ryd( 3d)     0.00091
   237    C   16  dxz    Ryd( 3d)     0.00076
   238    C   16  dyz    Ryd( 3d)     0.00104
   239    C   16  dx2y2  Ryd( 3d)     0.00093
   240    C   16  dz2    Ryd( 3d)     0.00091

   241    H   17  S      Val( 1S)     0.76961
   242    H   17  S      Ryd( 2S)     0.00053

   243    H   18  S      Val( 1S)     0.78821
   244    H   18  S      Ryd( 2S)     0.00179

   245    H   19  S      Val( 1S)     0.78821
   246    H   19  S      Ryd( 2S)     0.00179

   247    H   20  S      Val( 1S)     0.75576
   248    H   20  S      Ryd( 2S)     0.00109

   249    H   21  S      Val( 1S)     0.76549
   250    H   21  S      Ryd( 2S)     0.00089

   251    H   22  S      Val( 1S)     0.76113
   252    H   22  S      Ryd( 2S)     0.00093

   253    H   23  S      Val( 1S)     0.77262
   254    H   23  S      Ryd( 2S)     0.00095

   255    H   24  S      Val( 1S)     0.76884
   256    H   24  S      Ryd( 2S)     0.00081

   257    H   25  S      Val( 1S)     0.77072
   258    H   25  S      Ryd( 2S)     0.00078

   259    H   26  S      Val( 1S)     0.77342
   260    H   26  S      Ryd( 2S)     0.00094

   261    H   27  S      Val( 1S)     0.75116
   262    H   27  S      Ryd( 2S)     0.00107

   263    H   28  S      Val( 1S)     0.75355
   264    H   28  S      Ryd( 2S)     0.00140

   265    H   29  S      Val( 1S)     0.75393
   266    H   29  S      Ryd( 2S)     0.00112

 WARNING:  1 low occupancy (<1.9990e) core orbital  found on  C    3
           1 low occupancy (<1.9990e) core orbital  found on  C    6
           1 low occupancy (<1.9990e) core orbital  found on  C    8
           1 low occupancy (<1.9990e) core orbital  found on  C   14


 Summary of Natural Population Analysis:                  
                                                          
                                       Natural Population 
                Natural  -----------------------------------------------
    Atom  No    Charge         Core      Valence    Rydberg      Total
 -----------------------------------------------------------------------
      C    1   -0.32136      1.99943     4.30773    0.01420     6.32136
      O    2   -0.47685      1.99975     6.46544    0.01166     8.47685
      C    3    0.35784      1.99880     3.62106    0.02230     5.64216
      C    4   -0.33774      1.99907     4.32131    0.01735     6.33774
      C    5   -0.27078      1.99903     4.25699    0.01476     6.27078
      C    6    0.16634      1.99897     3.81613    0.01856     5.83366
      C    7   -0.05849      1.99901     4.04265    0.01683     6.05849
      C    8   -0.32777      1.99897     4.31485    0.01395     6.32777
      C    9   -0.09116      1.99901     4.07623    0.01592     6.09116
      C   10   -0.27591      1.99904     4.26124    0.01563     6.27591
      C   11   -0.20336      1.99912     4.19016    0.01407     6.20336
      C   12   -0.29280      1.99914     4.27733    0.01633     6.29280
      C   13   -0.29881      1.99902     4.28501    0.01479     6.29881
      C   14    0.16448      1.99899     3.81775    0.01877     5.83552
      N   15   -0.27618      1.99923     5.26605    0.01089     7.27618
      C   16   -0.47072      1.99946     4.45954    0.01172     6.47072
      H   17    0.22986      0.00000     0.76961    0.00053     0.77014
      H   18    0.21000      0.00000     0.78821    0.00179     0.79000
      H   19    0.21000      0.00000     0.78821    0.00179     0.79000
      H   20    0.24315      0.00000     0.75576    0.00109     0.75685
      H   21    0.23362      0.00000     0.76549    0.00089     0.76638
      H   22    0.23794      0.00000     0.76113    0.00093     0.76206
      H   23    0.22643      0.00000     0.77262    0.00095     0.77357
      H   24    0.23035      0.00000     0.76884    0.00081     0.76965
      H   25    0.22850      0.00000     0.77072    0.00078     0.77150
      H   26    0.22564      0.00000     0.77342    0.00094     0.77436
      H   27    0.24777      0.00000     0.75116    0.00107     0.75223
      H   28    0.24505      0.00000     0.75355    0.00140     0.75495
      H   29    0.24495      0.00000     0.75393    0.00112     0.75505
 =======================================================================
   * Total *    0.00000     31.98605    79.75214    0.26182   112.00000

                                 Natural Population      
 --------------------------------------------------------
   Core                      31.98605 ( 99.9564% of  32)
   Valence                   79.75214 ( 99.6902% of  80)
   Natural Minimal Basis    111.73818 ( 99.7662% of 112)
   Natural Rydberg Basis      0.26182 (  0.2338% of 112)
 --------------------------------------------------------

    Atom  No          Natural Electron Configuration
 ----------------------------------------------------------------------------
      C    1      [core]2S( 1.10)2p( 3.21)3p( 0.01)3d( 0.01)
      O    2      [core]2S( 1.60)2p( 4.87)3p( 0.01)3d( 0.01)
      C    3      [core]2S( 0.84)2p( 2.78)3p( 0.01)3d( 0.01)
      C    4      [core]2S( 0.95)2p( 3.37)3p( 0.01)
      C    5      [core]2S( 0.94)2p( 3.31)3p( 0.01)
      C    6      [core]2S( 0.82)2p( 2.99)3p( 0.01)
      C    7      [core]2S( 0.85)2p( 3.19)3p( 0.01)
      C    8      [core]2S( 0.94)2p( 3.37)3p( 0.01)
      C    9      [core]2S( 0.85)2p( 3.22)3p( 0.01)
      C   10      [core]2S( 0.94)2p( 3.32)3p( 0.01)
      C   11      [core]2S( 0.96)2p( 3.23)3p( 0.01)
      C   12      [core]2S( 0.95)2p( 3.33)3p( 0.01)
      C   13      [core]2S( 0.94)2p( 3.34)3p( 0.01)
      C   14      [core]2S( 0.82)2p( 3.00)3p( 0.01)
      N   15      [core]2S( 1.17)2p( 4.09)3p( 0.01)
      C   16      [core]2S( 1.08)2p( 3.38)3p( 0.01)
      H   17            1S( 0.77)
      H   18            1S( 0.79)
      H   19            1S( 0.79)
      H   20            1S( 0.76)
      H   21            1S( 0.77)
      H   22            1S( 0.76)
      H   23            1S( 0.77)
      H   24            1S( 0.77)
      H   25            1S( 0.77)
      H   26            1S( 0.77)
      H   27            1S( 0.75)
      H   28            1S( 0.75)
      H   29            1S( 0.75)


 NBO analysis skipped by request.
 Leave Link  607 at Tue Sep 28 23:38:54 2021, MaxMem= 1073741824 cpu:      15.4
 (Enter /sw/target/amd/app/gaussian/Gaussian09RevA.02_gcc-4.9.2/g09/l9999.exe)
 1\1\GINC-HERMITE\SP\RTD-B3LYP-FC\6-31G(d)\C14H13N1O1\JSCHLEINITZ\28-Se
 p-2021\0\\#p TD(NStates=10, Root=1) b3lyp/6-31G* volume pop=NPA densit
 y=current Geom=AllCheck Guess=Read\\COc1ccc2c(c1)c1ccccc1n2C_conf_0\\0
 ,1\C,0,3.0760734269,-0.9577824367,-0.8479813688\O,0,2.6380947664,-0.03
 77579325,0.1343086424\C,0,3.3304874183,1.1392147573,0.2656201495\C,0,2
 .8421393516,2.0048149935,1.2679435145\C,0,3.440465403,3.2324867055,1.5
 175297397\C,0,4.5469508431,3.5979856188,0.7429158528\C,0,5.0516163435,
 2.7354231785,-0.2593767179\C,0,4.4370118158,1.4973293747,-0.5027593036
 \C,0,6.191550049,3.4068980067,-0.8452369108\C,0,7.0955327382,3.0765317
 582,-1.8615290124\C,0,8.1129906506,3.9697801559,-2.184317429\C,0,8.236
 1605967,5.1910734842,-1.4984800398\C,0,7.3508582428,5.5468020597,-0.48
 34453397\C,0,6.3246493495,4.6502570659,-0.1668827193\N,0,5.3122495639,
 4.7625167412,0.7759246718\C,0,5.1448308009,5.8486726653,1.7148266816\H
 ,0,2.3991497261,-1.8122062526,-0.7846007058\H,0,4.1042945067,-1.295930
 7708,-0.6579712856\H,0,3.0233888592,-0.5287314181,-1.8583727927\H,0,1.
 982194053,1.6793694069,1.8446417416\H,0,3.052682026,3.8777473153,2.300
 1252339\H,0,4.8264910523,0.841632534,-1.2732047781\H,0,7.0056832374,2.
 1310742244,-2.390748124\H,0,8.8209284071,3.7223401858,-2.9702103503\H,
 0,9.0410359946,5.8725414867,-1.7609153331\H,0,7.4656499392,6.489191926
 3,0.0439395502\H,0,5.5077344943,6.7781673752,1.2682736959\H,0,5.684944
 6962,5.6750536136,2.6558508822\H,0,4.0824264317,5.9790121173,1.9401035
 55\\Version=AM64L-G09RevA.02\State=1-A\HF=-671.3025691\RMSD=9.027e-09\
 Dipole=-0.4838608,0.0313563,0.4878745\Quadrupole=-7.6666912,9.0342048,
 -1.3675136,0.6377963,0.4456563,10.2658758\PG=C01 [X(C14H13N1O1)]\\@



 WE LOSE BECAUSE WE WIN

 GAMBLERS,

 RECOLLECTING WHICH,

 TOSS THEIR DICE AGAIN....


                          EMILY DICKINSON  BOLTS OF MELODY NO. 533
 Job cpu time:  0 days  3 hours 25 minutes 25.2 seconds.
 File lengths (MBytes):  RWF=    230 Int=      0 D2E=      0 Chk=     32 Scr=      1
 Normal termination of Gaussian 09 at Tue Sep 28 23:38:59 2021.
