 Entering Gaussian System, Link 0=g09
 Input=C14H15NO2_36ed_conf_0.com
 Output=C14H15NO2_36ed_conf_0.log
 Initial command:
 /sw/target/amd/app/gaussian/Gaussian09RevA.02_gcc-4.9.2/g09/l1.exe /home/jschleinitz/gaussian/Gau-1919091.inp -scrdir=/home/jschleinitz/gaussian/
 Entering Link 1 = /sw/target/amd/app/gaussian/Gaussian09RevA.02_gcc-4.9.2/g09/l1.exe PID=   1919093.
  
 Copyright (c) 1988,1990,1992,1993,1995,1998,2003,2009, Gaussian, Inc.
                  All Rights Reserved.
  
 This is part of the Gaussian(R) 09 program.  It is based on
 the Gaussian(R) 03 system (copyright 2003, Gaussian, Inc.),
 the Gaussian(R) 98 system (copyright 1998, Gaussian, Inc.),
 the Gaussian(R) 94 system (copyright 1995, Gaussian, Inc.),
 the Gaussian 92(TM) system (copyright 1992, Gaussian, Inc.),
 the Gaussian 90(TM) system (copyright 1990, Gaussian, Inc.),
 the Gaussian 88(TM) system (copyright 1988, Gaussian, Inc.),
 the Gaussian 86(TM) system (copyright 1986, Carnegie Mellon
 University), and the Gaussian 82(TM) system (copyright 1983,
 Carnegie Mellon University). Gaussian is a federally registered
 trademark of Gaussian, Inc.
  
 This software contains proprietary and confidential information,
 including trade secrets, belonging to Gaussian, Inc.
  
 This software is provided under written license and may be
 used, copied, transmitted, or stored only in accord with that
 written license.
  
 The following legend is applicable only to US Government
 contracts under FAR:
  
                    RESTRICTED RIGHTS LEGEND
  
 Use, reproduction and disclosure by the US Government is
 subject to restrictions as set forth in subparagraphs (a)
 and (c) of the Commercial Computer Software - Restricted
 Rights clause in FAR 52.227-19.
  
 Gaussian, Inc.
 340 Quinnipiac St., Bldg. 40, Wallingford CT 06492
  
  
 ---------------------------------------------------------------
 Warning -- This program may not be used in any manner that
 competes with the business of Gaussian, Inc. or will provide
 assistance to any competitor of Gaussian, Inc.  The licensee
 of this program is prohibited from giving any competitor of
 Gaussian, Inc. access to this program.  By using this program,
 the user acknowledges that Gaussian, Inc. is engaged in the
 business of creating and licensing software in the field of
 computational chemistry and represents and warrants to the
 licensee that it is not a competitor of Gaussian, Inc. and that
 it will not use this program in any manner prohibited above.
 ---------------------------------------------------------------
  

 Cite this work as:
 Gaussian 09, Revision A.02,
 M. J. Frisch, G. W. Trucks, H. B. Schlegel, G. E. Scuseria, 
 M. A. Robb, J. R. Cheeseman, G. Scalmani, V. Barone, B. Mennucci, 
 G. A. Petersson, H. Nakatsuji, M. Caricato, X. Li, H. P. Hratchian, 
 A. F. Izmaylov, J. Bloino, G. Zheng, J. L. Sonnenberg, M. Hada, 
 M. Ehara, K. Toyota, R. Fukuda, J. Hasegawa, M. Ishida, T. Nakajima, 
 Y. Honda, O. Kitao, H. Nakai, T. Vreven, J. A. Montgomery, Jr., 
 J. E. Peralta, F. Ogliaro, M. Bearpark, J. J. Heyd, E. Brothers, 
 K. N. Kudin, V. N. Staroverov, R. Kobayashi, J. Normand, 
 K. Raghavachari, A. Rendell, J. C. Burant, S. S. Iyengar, J. Tomasi, 
 M. Cossi, N. Rega, J. M. Millam, M. Klene, J. E. Knox, J. B. Cross, 
 V. Bakken, C. Adamo, J. Jaramillo, R. Gomperts, R. E. Stratmann, 
 O. Yazyev, A. J. Austin, R. Cammi, C. Pomelli, J. W. Ochterski, 
 R. L. Martin, K. Morokuma, V. G. Zakrzewski, G. A. Voth, 
 P. Salvador, J. J. Dannenberg, S. Dapprich, A. D. Daniels, 
 O. Farkas, J. B. Foresman, J. V. Ortiz, J. Cioslowski, 
 and D. J. Fox, Gaussian, Inc., Wallingford CT, 2009.
 
 ******************************************
 Gaussian 09:  AM64L-G09RevA.02 11-Jun-2009
                30-Sep-2021 
 ******************************************
 %nproc=5
 Will use up to    5 processors via shared memory.
 %mem=10gb
 %chk=C14H15NO2_36ed_conf_0.chk
 -----------------------------------
 #p opt b3lyp/6-31G* scf=(xqc,tight)
 -----------------------------------
 1/14=-1,18=20,19=15,26=3,38=1/1,3;
 2/9=110,12=2,17=6,18=5,40=1/2;
 3/5=1,6=6,7=1,11=2,16=1,25=1,30=1,71=1,74=-5/1,2,3;
 4//1;
 5/5=2,8=3,13=1,32=2,38=5/2,8;
 6/7=2,8=2,9=2,10=2,28=1/1;
 7//1,2,3,16;
 1/14=-1,18=20,19=15/3(2);
 2/9=110/2;
 99//99;
 2/9=110/2;
 3/5=1,6=6,7=1,11=2,16=1,25=1,30=1,71=1,74=-5/1,2,3;
 4/5=5,16=3/1;
 5/5=2,8=3,13=1,32=2,38=5/2,8;
 7//1,2,3,16;
 1/14=-1,18=20,19=15/3(-5);
 2/9=110/2;
 6/7=2,8=2,9=2,10=2,19=2,28=1/1;
 99/9=1/99;
 Leave Link    1 at Thu Sep 30 05:52:40 2021, MaxMem= 1342177280 cpu:       0.1
 (Enter /sw/target/amd/app/gaussian/Gaussian09RevA.02_gcc-4.9.2/g09/l101.exe)
 -------------------------------------
 Cc1ccc2c(c1)ccc(c2)OC(=O)N(C)C_conf_0
 -------------------------------------
 Symbolic Z-matrix:
 Charge =  0 Multiplicity = 1
 C                    -4.18361  -0.79241   0.01974 
 C                    -2.76291  -0.33186  -0.11628 
 C                    -2.44624   1.02738  -0.18352 
 C                    -1.11594   1.43863  -0.30673 
 C                    -0.07502   0.49831  -0.36958 
 C                    -0.38934  -0.87804  -0.31504 
 C                    -1.72928  -1.27554  -0.18572 
 C                     0.64382  -1.82465  -0.39969 
 C                     1.97387  -1.42293  -0.52895 
 C                     2.28196  -0.06673  -0.54628 
 C                     1.26894   0.89377  -0.48551 
 O                     3.59521   0.43357  -0.70062 
 C                     4.73774  -0.26231  -0.29056 
 O                     4.71855  -1.32633   0.31876 
 N                     5.91075   0.37738  -0.66822 
 C                     7.17075  -0.32994  -0.55588 
 C                     5.92625   1.65451  -1.35633 
 H                    -4.87485   0.0527    0.09982 
 H                    -4.29682  -1.40388   0.92095 
 H                    -4.47269  -1.38406  -0.85484 
 H                    -3.23072   1.77874  -0.13836 
 H                    -0.89871   2.50335  -0.35436 
 H                    -1.97522  -2.33522  -0.13773 
 H                     0.41992  -2.88893  -0.3701 
 H                     2.7429   -2.18433  -0.61478 
 H                     1.53086   1.94628  -0.53073 
 H                     7.05553  -1.30963  -0.08446 
 H                     7.86333   0.27108   0.04046 
 H                     7.58302  -0.47317  -1.55955 
 H                     5.04429   2.25189  -1.11169 
 H                     5.95012   1.47062  -2.4341 
 H                     6.81751   2.21523  -1.05887 
 
 NAtoms=     32 NQM=     32 NQMF=      0 NMic=      0 NMicF=      0 NTot=     32.
                    Isotopes and Nuclear Properties:
 (Nuclear quadrupole moments (NQMom) in fm**2, nuclear magnetic moments (NMagM)
  in nuclear magnetons)

  Atom         1           2           3           4           5           6           7           8           9          10
 IAtWgt=          12          12          12          12          12          12          12          12          12          12
 AtmWgt=  12.0000000  12.0000000  12.0000000  12.0000000  12.0000000  12.0000000  12.0000000  12.0000000  12.0000000  12.0000000
 NucSpn=           0           0           0           0           0           0           0           0           0           0
 AtZEff=   0.0000000   0.0000000   0.0000000   0.0000000   0.0000000   0.0000000   0.0000000   0.0000000   0.0000000   0.0000000
 NQMom=    0.0000000   0.0000000   0.0000000   0.0000000   0.0000000   0.0000000   0.0000000   0.0000000   0.0000000   0.0000000
 NMagM=    0.0000000   0.0000000   0.0000000   0.0000000   0.0000000   0.0000000   0.0000000   0.0000000   0.0000000   0.0000000

  Atom        11          12          13          14          15          16          17          18          19          20
 IAtWgt=          12          16          12          16          14          12          12           1           1           1
 AtmWgt=  12.0000000  15.9949146  12.0000000  15.9949146  14.0030740  12.0000000  12.0000000   1.0078250   1.0078250   1.0078250
 NucSpn=           0           0           0           0           2           0           0           1           1           1
 AtZEff=   0.0000000   0.0000000   0.0000000   0.0000000   0.0000000   0.0000000   0.0000000   0.0000000   0.0000000   0.0000000
 NQMom=    0.0000000   0.0000000   0.0000000   0.0000000   2.0440000   0.0000000   0.0000000   0.0000000   0.0000000   0.0000000
 NMagM=    0.0000000   0.0000000   0.0000000   0.0000000   0.4037610   0.0000000   0.0000000   2.7928460   2.7928460   2.7928460

  Atom        21          22          23          24          25          26          27          28          29          30
 IAtWgt=           1           1           1           1           1           1           1           1           1           1
 AtmWgt=   1.0078250   1.0078250   1.0078250   1.0078250   1.0078250   1.0078250   1.0078250   1.0078250   1.0078250   1.0078250
 NucSpn=           1           1           1           1           1           1           1           1           1           1
 AtZEff=   0.0000000   0.0000000   0.0000000   0.0000000   0.0000000   0.0000000   0.0000000   0.0000000   0.0000000   0.0000000
 NQMom=    0.0000000   0.0000000   0.0000000   0.0000000   0.0000000   0.0000000   0.0000000   0.0000000   0.0000000   0.0000000
 NMagM=    2.7928460   2.7928460   2.7928460   2.7928460   2.7928460   2.7928460   2.7928460   2.7928460   2.7928460   2.7928460

  Atom        31          32
 IAtWgt=           1           1
 AtmWgt=   1.0078250   1.0078250
 NucSpn=           1           1
 AtZEff=   0.0000000   0.0000000
 NQMom=    0.0000000   0.0000000
 NMagM=    2.7928460   2.7928460
 Leave Link  101 at Thu Sep 30 05:52:41 2021, MaxMem= 1342177280 cpu:       0.2
 (Enter /sw/target/amd/app/gaussian/Gaussian09RevA.02_gcc-4.9.2/g09/l103.exe)

 GradGradGradGradGradGradGradGradGradGradGradGradGradGradGradGradGradGrad
 Berny optimization.
 Initialization pass.
                           ----------------------------
                           !    Initial Parameters    !
                           ! (Angstroms and Degrees)  !
 --------------------------                            --------------------------
 ! Name  Definition              Value          Derivative Info.                !
 --------------------------------------------------------------------------------
 ! R1    R(1,2)                  1.4997         estimate D2E/DX2                !
 ! R2    R(1,18)                 1.0947         estimate D2E/DX2                !
 ! R3    R(1,19)                 1.0949         estimate D2E/DX2                !
 ! R4    R(1,20)                 1.0948         estimate D2E/DX2                !
 ! R5    R(2,3)                  1.3973         estimate D2E/DX2                !
 ! R6    R(2,7)                  1.4013         estimate D2E/DX2                !
 ! R7    R(3,4)                  1.3979         estimate D2E/DX2                !
 ! R8    R(3,21)                 1.0872         estimate D2E/DX2                !
 ! R9    R(4,5)                  1.4042         estimate D2E/DX2                !
 ! R10   R(4,22)                 1.0877         estimate D2E/DX2                !
 ! R11   R(5,6)                  1.4128         estimate D2E/DX2                !
 ! R12   R(5,11)                 1.4057         estimate D2E/DX2                !
 ! R13   R(6,7)                  1.4036         estimate D2E/DX2                !
 ! R14   R(6,8)                  1.4038         estimate D2E/DX2                !
 ! R15   R(7,23)                 1.0889         estimate D2E/DX2                !
 ! R16   R(8,9)                  1.3954         estimate D2E/DX2                !
 ! R17   R(8,24)                 1.088          estimate D2E/DX2                !
 ! R18   R(9,10)                 1.3909         estimate D2E/DX2                !
 ! R19   R(9,25)                 1.0856         estimate D2E/DX2                !
 ! R20   R(10,11)                1.3973         estimate D2E/DX2                !
 ! R21   R(10,12)                1.4138         estimate D2E/DX2                !
 ! R22   R(11,26)                1.0855         estimate D2E/DX2                !
 ! R23   R(12,13)                1.3992         estimate D2E/DX2                !
 ! R24   R(13,14)                1.2263         estimate D2E/DX2                !
 ! R25   R(13,15)                1.3885         estimate D2E/DX2                !
 ! R26   R(15,16)                1.4493         estimate D2E/DX2                !
 ! R27   R(15,17)                1.4508         estimate D2E/DX2                !
 ! R28   R(16,27)                1.0933         estimate D2E/DX2                !
 ! R29   R(16,28)                1.0938         estimate D2E/DX2                !
 ! R30   R(16,29)                1.0945         estimate D2E/DX2                !
 ! R31   R(17,30)                1.093          estimate D2E/DX2                !
 ! R32   R(17,31)                1.0936         estimate D2E/DX2                !
 ! R33   R(17,32)                1.0942         estimate D2E/DX2                !
 ! A1    A(2,1,18)             111.5761         estimate D2E/DX2                !
 ! A2    A(2,1,19)             110.127          estimate D2E/DX2                !
 ! A3    A(2,1,20)             110.0996         estimate D2E/DX2                !
 ! A4    A(18,1,19)            107.7963         estimate D2E/DX2                !
 ! A5    A(18,1,20)            107.9934         estimate D2E/DX2                !
 ! A6    A(19,1,20)            109.173          estimate D2E/DX2                !
 ! A7    A(1,2,3)              121.1855         estimate D2E/DX2                !
 ! A8    A(1,2,7)              119.7656         estimate D2E/DX2                !
 ! A9    A(3,2,7)              119.0478         estimate D2E/DX2                !
 ! A10   A(2,3,4)              120.4054         estimate D2E/DX2                !
 ! A11   A(2,3,21)             120.4485         estimate D2E/DX2                !
 ! A12   A(4,3,21)             119.1459         estimate D2E/DX2                !
 ! A13   A(3,4,5)              120.825          estimate D2E/DX2                !
 ! A14   A(3,4,22)             118.8097         estimate D2E/DX2                !
 ! A15   A(5,4,22)             120.3653         estimate D2E/DX2                !
 ! A16   A(4,5,6)              119.0597         estimate D2E/DX2                !
 ! A17   A(4,5,11)             121.6035         estimate D2E/DX2                !
 ! A18   A(6,5,11)             119.3368         estimate D2E/DX2                !
 ! A19   A(5,6,7)              119.4599         estimate D2E/DX2                !
 ! A20   A(5,6,8)              119.396          estimate D2E/DX2                !
 ! A21   A(7,6,8)              121.1429         estimate D2E/DX2                !
 ! A22   A(2,7,6)              121.1979         estimate D2E/DX2                !
 ! A23   A(2,7,23)             119.1153         estimate D2E/DX2                !
 ! A24   A(6,7,23)             119.6868         estimate D2E/DX2                !
 ! A25   A(6,8,9)              120.8616         estimate D2E/DX2                !
 ! A26   A(6,8,24)             120.4329         estimate D2E/DX2                !
 ! A27   A(9,8,24)             118.7049         estimate D2E/DX2                !
 ! A28   A(8,9,10)             119.5383         estimate D2E/DX2                !
 ! A29   A(8,9,25)             118.727          estimate D2E/DX2                !
 ! A30   A(10,9,25)            121.7347         estimate D2E/DX2                !
 ! A31   A(9,10,11)            120.606          estimate D2E/DX2                !
 ! A32   A(9,10,12)            123.5163         estimate D2E/DX2                !
 ! A33   A(11,10,12)           115.7811         estimate D2E/DX2                !
 ! A34   A(5,11,10)            120.2208         estimate D2E/DX2                !
 ! A35   A(5,11,26)            120.4562         estimate D2E/DX2                !
 ! A36   A(10,11,26)           119.3229         estimate D2E/DX2                !
 ! A37   A(10,12,13)           123.402          estimate D2E/DX2                !
 ! A38   A(12,13,14)           124.3588         estimate D2E/DX2                !
 ! A39   A(12,13,15)           112.3956         estimate D2E/DX2                !
 ! A40   A(14,13,15)           123.2393         estimate D2E/DX2                !
 ! A41   A(13,15,16)           119.2448         estimate D2E/DX2                !
 ! A42   A(13,15,17)           122.9303         estimate D2E/DX2                !
 ! A43   A(16,15,17)           117.1995         estimate D2E/DX2                !
 ! A44   A(15,16,27)           112.2794         estimate D2E/DX2                !
 ! A45   A(15,16,28)           108.9383         estimate D2E/DX2                !
 ! A46   A(15,16,29)           108.6788         estimate D2E/DX2                !
 ! A47   A(27,16,28)           108.9058         estimate D2E/DX2                !
 ! A48   A(27,16,29)           108.5335         estimate D2E/DX2                !
 ! A49   A(28,16,29)           109.4726         estimate D2E/DX2                !
 ! A50   A(15,17,30)           111.4911         estimate D2E/DX2                !
 ! A51   A(15,17,31)           108.641          estimate D2E/DX2                !
 ! A52   A(15,17,32)           109.3222         estimate D2E/DX2                !
 ! A53   A(30,17,31)           109.2754         estimate D2E/DX2                !
 ! A54   A(30,17,32)           108.4424         estimate D2E/DX2                !
 ! A55   A(31,17,32)           109.6524         estimate D2E/DX2                !
 ! D1    D(18,1,2,3)            -2.5397         estimate D2E/DX2                !
 ! D2    D(18,1,2,7)           177.8374         estimate D2E/DX2                !
 ! D3    D(19,1,2,3)          -122.207          estimate D2E/DX2                !
 ! D4    D(19,1,2,7)            58.1701         estimate D2E/DX2                !
 ! D5    D(20,1,2,3)           117.3568         estimate D2E/DX2                !
 ! D6    D(20,1,2,7)           -62.266          estimate D2E/DX2                !
 ! D7    D(1,2,3,4)            179.8304         estimate D2E/DX2                !
 ! D8    D(1,2,3,21)            -0.0244         estimate D2E/DX2                !
 ! D9    D(7,2,3,4)             -0.5441         estimate D2E/DX2                !
 ! D10   D(7,2,3,21)           179.6011         estimate D2E/DX2                !
 ! D11   D(1,2,7,6)            179.9113         estimate D2E/DX2                !
 ! D12   D(1,2,7,23)            -0.1092         estimate D2E/DX2                !
 ! D13   D(3,2,7,6)              0.2804         estimate D2E/DX2                !
 ! D14   D(3,2,7,23)          -179.7402         estimate D2E/DX2                !
 ! D15   D(2,3,4,5)              0.2073         estimate D2E/DX2                !
 ! D16   D(2,3,4,22)          -179.8522         estimate D2E/DX2                !
 ! D17   D(21,3,4,5)          -179.936          estimate D2E/DX2                !
 ! D18   D(21,3,4,22)            0.0045         estimate D2E/DX2                !
 ! D19   D(3,4,5,6)              0.3964         estimate D2E/DX2                !
 ! D20   D(3,4,5,11)          -179.6184         estimate D2E/DX2                !
 ! D21   D(22,4,5,6)          -179.5431         estimate D2E/DX2                !
 ! D22   D(22,4,5,11)            0.442          estimate D2E/DX2                !
 ! D23   D(4,5,6,7)             -0.6526         estimate D2E/DX2                !
 ! D24   D(4,5,6,8)            178.947          estimate D2E/DX2                !
 ! D25   D(11,5,6,7)           179.3618         estimate D2E/DX2                !
 ! D26   D(11,5,6,8)            -1.0385         estimate D2E/DX2                !
 ! D27   D(4,5,11,10)         -179.972          estimate D2E/DX2                !
 ! D28   D(4,5,11,26)           -0.0948         estimate D2E/DX2                !
 ! D29   D(6,5,11,10)            0.0132         estimate D2E/DX2                !
 ! D30   D(6,5,11,26)          179.8903         estimate D2E/DX2                !
 ! D31   D(5,6,7,2)              0.3201         estimate D2E/DX2                !
 ! D32   D(5,6,7,23)          -179.6593         estimate D2E/DX2                !
 ! D33   D(8,6,7,2)           -179.2724         estimate D2E/DX2                !
 ! D34   D(8,6,7,23)             0.7482         estimate D2E/DX2                !
 ! D35   D(5,6,8,9)              0.3683         estimate D2E/DX2                !
 ! D36   D(5,6,8,24)          -179.3487         estimate D2E/DX2                !
 ! D37   D(7,6,8,9)            179.961          estimate D2E/DX2                !
 ! D38   D(7,6,8,24)             0.244          estimate D2E/DX2                !
 ! D39   D(6,8,9,10)             1.3398         estimate D2E/DX2                !
 ! D40   D(6,8,9,25)          -178.5894         estimate D2E/DX2                !
 ! D41   D(24,8,9,10)         -178.9383         estimate D2E/DX2                !
 ! D42   D(24,8,9,25)            1.1324         estimate D2E/DX2                !
 ! D43   D(8,9,10,11)           -2.3856         estimate D2E/DX2                !
 ! D44   D(8,9,10,12)         -178.6582         estimate D2E/DX2                !
 ! D45   D(25,9,10,11)         177.5415         estimate D2E/DX2                !
 ! D46   D(25,9,10,12)           1.2688         estimate D2E/DX2                !
 ! D47   D(9,10,11,5)            1.7171         estimate D2E/DX2                !
 ! D48   D(9,10,11,26)        -178.1614         estimate D2E/DX2                !
 ! D49   D(12,10,11,5)         178.2664         estimate D2E/DX2                !
 ! D50   D(12,10,11,26)         -1.6122         estimate D2E/DX2                !
 ! D51   D(9,10,12,13)         -28.495          estimate D2E/DX2                !
 ! D52   D(11,10,12,13)        155.0675         estimate D2E/DX2                !
 ! D53   D(10,12,13,14)         -5.0235         estimate D2E/DX2                !
 ! D54   D(10,12,13,15)        174.087          estimate D2E/DX2                !
 ! D55   D(12,13,15,16)       -168.0326         estimate D2E/DX2                !
 ! D56   D(12,13,15,17)          2.6413         estimate D2E/DX2                !
 ! D57   D(14,13,15,16)         11.0894         estimate D2E/DX2                !
 ! D58   D(14,13,15,17)       -178.2367         estimate D2E/DX2                !
 ! D59   D(13,15,16,27)         -4.9513         estimate D2E/DX2                !
 ! D60   D(13,15,16,28)       -125.6667         estimate D2E/DX2                !
 ! D61   D(13,15,16,29)        115.1222         estimate D2E/DX2                !
 ! D62   D(17,15,16,27)       -176.1547         estimate D2E/DX2                !
 ! D63   D(17,15,16,28)         63.1299         estimate D2E/DX2                !
 ! D64   D(17,15,16,29)        -56.0812         estimate D2E/DX2                !
 ! D65   D(13,15,17,30)         27.9376         estimate D2E/DX2                !
 ! D66   D(13,15,17,31)        -92.5423         estimate D2E/DX2                !
 ! D67   D(13,15,17,32)        147.8276         estimate D2E/DX2                !
 ! D68   D(16,15,17,30)       -161.21           estimate D2E/DX2                !
 ! D69   D(16,15,17,31)         78.3102         estimate D2E/DX2                !
 ! D70   D(16,15,17,32)        -41.3199         estimate D2E/DX2                !
 --------------------------------------------------------------------------------
 Trust Radius=3.00D-01 FncErr=1.00D-07 GrdErr=1.00D-06
 Number of steps in this run= 168 maximum allowed number of steps= 192.
 GradGradGradGradGradGradGradGradGradGradGradGradGradGradGradGradGradGrad

 Leave Link  103 at Thu Sep 30 05:52:41 2021, MaxMem= 1342177280 cpu:       0.0
 (Enter /sw/target/amd/app/gaussian/Gaussian09RevA.02_gcc-4.9.2/g09/l202.exe)
                          Input orientation:                          
 ---------------------------------------------------------------------
 Center     Atomic      Atomic             Coordinates (Angstroms)
 Number     Number       Type             X           Y           Z
 ---------------------------------------------------------------------
      1          6           0       -4.183614   -0.792411    0.019745
      2          6           0       -2.762913   -0.331862   -0.116285
      3          6           0       -2.446244    1.027384   -0.183522
      4          6           0       -1.115938    1.438631   -0.306725
      5          6           0       -0.075016    0.498311   -0.369575
      6          6           0       -0.389337   -0.878043   -0.315036
      7          6           0       -1.729284   -1.275541   -0.185724
      8          6           0        0.643822   -1.824653   -0.399685
      9          6           0        1.973875   -1.422933   -0.528946
     10          6           0        2.281963   -0.066727   -0.546283
     11          6           0        1.268939    0.893775   -0.485506
     12          8           0        3.595210    0.433567   -0.700617
     13          6           0        4.737736   -0.262314   -0.290555
     14          8           0        4.718546   -1.326325    0.318758
     15          7           0        5.910747    0.377382   -0.668224
     16          6           0        7.170754   -0.329941   -0.555882
     17          6           0        5.926252    1.654512   -1.356330
     18          1           0       -4.874853    0.052697    0.099815
     19          1           0       -4.296816   -1.403883    0.920951
     20          1           0       -4.472690   -1.384062   -0.854840
     21          1           0       -3.230718    1.778737   -0.138357
     22          1           0       -0.898714    2.503346   -0.354357
     23          1           0       -1.975216   -2.335216   -0.137727
     24          1           0        0.419919   -2.888928   -0.370100
     25          1           0        2.742904   -2.184327   -0.614782
     26          1           0        1.530864    1.946276   -0.530733
     27          1           0        7.055533   -1.309634   -0.084456
     28          1           0        7.863328    0.271084    0.040455
     29          1           0        7.583020   -0.473165   -1.559554
     30          1           0        5.044290    2.251886   -1.111694
     31          1           0        5.950124    1.470620   -2.434096
     32          1           0        6.817507    2.215233   -1.058867
 ---------------------------------------------------------------------
                    Distance matrix (angstroms):
                    1          2          3          4          5
     1  C    0.000000
     2  C    1.499667   0.000000
     3  C    2.524169   1.397265   0.000000
     4  C    3.807199   2.425580   1.397861   0.000000
     5  C    4.324132   2.824559   2.436648   1.404162   0.000000
     6  C    3.809981   2.443702   2.806923   2.427961   1.412842
     7  C    2.509854   1.401335   2.411949   2.785240   2.432479
     8  C    4.954351   3.730226   4.210624   3.708695   2.431830
     9  C    6.213959   4.878307   5.065651   4.217212   2.813278
    10  C    6.530750   5.070105   4.866683   3.724140   2.430194
    11  C    5.729646   4.230170   3.729830   2.452850   1.405719
    12  O    7.907721   6.430634   6.092550   4.833242   3.685694
    13  C    8.942470   7.502995   7.299612   6.095816   4.873127
    14  O    8.923168   7.559791   7.558204   6.486711   5.175069
    15  N   10.185178   8.720094   8.396233   7.115563   5.994429
    16  C   11.378353   9.943389   9.719446   8.476981   7.295334
    17  C   10.492398   8.999166   8.477467   7.123252   6.190776
    18  H    1.094729   2.157517   2.632193   4.026851   4.843278
    19  H    1.094936   2.139613   3.248929   4.439037   4.807015
    20  H    1.094766   2.139141   3.220593   4.419932   4.808154
    21  H    2.746600   2.161933   1.087184   2.148560   3.413415
    22  H    4.668247   3.401517   2.145342   1.087692   2.167689
    23  H    2.698531   2.152755   3.395740   3.874124   3.419560
    24  H    5.073449   4.090651   4.856666   4.592455   3.423208
    25  H    7.093427   5.830450   6.117870   5.302017   3.898378
    26  H    6.360715   4.878340   4.096621   2.704338   2.168277
    27  H   11.251525   9.867063   9.785460   8.624112   7.361704
    28  H   12.093811  10.644487  10.339701   9.061508   7.952174
    29  H   11.876438  10.447072  10.233828   8.994244   7.810591
    30  H    9.782746   8.283659   7.646502   6.265602   5.461965
    31  H   10.669362   9.194466   8.704052   7.379428   6.442821
    32  H   11.455741   9.957942   9.380527   8.006771   7.136513
                    6          7          8          9         10
     6  C    0.000000
     7  C    1.403633   0.000000
     8  C    1.403800   2.445187   0.000000
     9  C    2.434632   3.721950   1.395395   0.000000
    10  C    2.801348   4.204918   2.407343   1.390868   0.000000
    11  C    2.432751   3.712835   2.790696   2.421974   1.397309
    12  O    4.212554   5.615729   3.728379   2.470788   1.413765
    13  C    5.163971   6.546752   4.383257   3.007124   2.476787
    14  O    5.166538   6.467735   4.167477   2.874223   2.876078
    15  N    6.433653   7.831669   5.715030   4.331224   3.657893
    16  C    7.583759   8.957782   6.697716   5.310642   4.895882
    17  C    6.883661   8.280264   6.397173   5.077058   4.110923
    18  H    4.599809   3.426420   5.850618   7.034053   7.186913
    19  H    4.131896   2.798824   5.131377   6.436157   6.871760
    20  H    4.149845   2.825910   5.155578   6.454914   6.888825
    21  H    3.893988   3.403698   5.297619   6.122992   5.827674
    22  H    3.419766   3.872760   4.594894   4.868051   4.093753
    23  H    2.160973   1.088897   2.681167   4.071932   4.841129
    24  H    2.168314   2.693713   1.087975   2.142231   3.385715
    25  H    3.406928   4.583716   2.140508   1.085585   2.168269
    26  H    3.422057   4.596488   3.876071   3.398211   2.148621
    27  H    7.460934   8.785468   6.440082   5.102319   4.954299
    28  H    8.339865   9.719127   7.530412   6.154639   5.622279
    29  H    8.079061   9.447234   7.164097   5.781585   5.412312
    30  H    6.321030   7.692949   6.040633   4.824038   3.650494
    31  H    7.084871   8.459899   6.569208   5.273784   4.402576
    32  H    7.877832   9.273378   7.407401   6.080941   5.103063
                   11         12         13         14         15
    11  C    0.000000
    12  O    2.381092   0.000000
    13  C    3.661570   1.399202   0.000000
    14  O    4.180367   2.323409   1.226275   0.000000
    15  N    4.674016   2.316445   1.388452   2.301759   0.000000
    16  C    6.027757   3.659018   2.448377   2.787670   1.449326
    17  C    4.798710   2.711904   2.494528   3.626274   1.450790
    18  H    6.228660   8.516322   9.625668   9.694480  10.817786
    19  H    6.183444   8.263763   9.186623   9.035784  10.482973
    20  H    6.187992   8.271552   9.295627   9.266039  10.533436
    21  H    4.598976   6.979893   8.227107   8.546412   9.263419
    22  H    2.703080   4.959762   6.278735   6.831770   7.140518
    23  H    4.590411   6.246011   7.027375   6.784739   8.356316
    24  H    3.878530   4.607678   5.054599   4.625413   6.395847
    25  H    3.415260   2.754481   2.789016   2.347515   4.074364
    26  H    1.085546   2.564893   3.901228   4.646814   4.654429
    27  H    6.204879   3.923295   2.551773   2.371576   2.120694
    28  H    6.644573   4.335022   3.188010   3.538195   2.079927
    29  H    6.549025   4.178823   3.122573   3.530035   2.077113
    30  H    4.060770   2.361165   2.662601   3.867286   2.112150
    31  H    5.103258   3.102587   3.011264   4.113136   2.077264
    32  H    5.732504   3.699443   3.324755   4.341213   2.086268
                   16         17         18         19         20
    16  C    0.000000
    17  C    2.475390   0.000000
    18  H   12.069508  11.015900   0.000000
    19  H   11.612043  10.911045   1.769185   0.000000
    20  H   11.694885  10.845387   1.771264   1.784588   0.000000
    21  H   10.621274   9.238451   2.395646   3.519626   3.472627
    22  H    8.554791   6.950154   4.692721   5.332911   5.304312
    23  H    9.372553   8.935106   3.763835   2.716249   2.767006
    24  H    7.221960   7.206608   6.075245   5.110749   5.141714
    25  H    4.800841   5.041854   7.971522   7.247429   7.263804
    26  H    6.081954   4.481760   6.709430   6.876976   6.873052
    27  H    1.093306   3.417470  12.009331  11.397173  11.554175
    28  H    1.093849   2.759918  12.740192  12.306498  12.478718
    29  H    1.094456   2.704291  12.578897  12.171674  12.110594
    30  H    3.390665   1.092959  10.231989  10.234869  10.191123
    31  H    2.873960   1.093602  11.207647  11.158803  10.921461
    32  H    2.618337   1.094179  11.946983  11.855204  11.851797
                   21         22         23         24         25
    21  H    0.000000
    22  H    2.451521   0.000000
    23  H    4.301267   4.961599   0.000000
    24  H    5.930257   5.551186   2.469264   0.000000
    25  H    7.184498   5.941674   4.744576   2.439793   0.000000
    26  H    4.780657   2.498857   5.547813   4.963790   4.305577
    27  H   10.740014   8.825062   9.088954   6.826942   4.432280
    28  H   11.197448   9.050539  10.179464   8.096825   5.716391
    29  H   11.136776   9.069285   9.841173   7.652498   5.219904
    30  H    8.345478   5.996340   8.441776   6.954332   5.022279
    31  H    9.468538   7.231765   9.086732   7.338181   5.191802
    32  H   10.099737   7.753671   9.943192   8.213160   6.012964
                   26         27         28         29         30
    26  H    0.000000
    27  H    6.428226   0.000000
    28  H    6.575153   1.779552   0.000000
    29  H    6.598543   1.775904   1.786759   0.000000
    30  H    3.574224   4.217196   3.632905   3.751218   0.000000
    31  H    4.835173   3.804280   3.350021   2.685046   1.783160
    32  H    5.319762   3.664809   2.466165   2.839751   1.774383
                   31         32
    31  H    0.000000
    32  H    1.788311   0.000000
 Stoichiometry    C14H15NO2
 Framework group  C1[X(C14H15NO2)]
 Deg. of freedom    90
 Full point group                 C1      NOp   1
 Largest Abelian subgroup         C1      NOp   1
 Largest concise Abelian subgroup C1      NOp   1
                         Standard orientation:                         
 ---------------------------------------------------------------------
 Center     Atomic      Atomic             Coordinates (Angstroms)
 Number     Number       Type             X           Y           Z
 ---------------------------------------------------------------------
      1          6           0        5.872087   -0.396111   -0.016812
      2          6           0        4.424827   -0.003333   -0.029744
      3          6           0        4.037997    1.328088   -0.203045
      4          6           0        2.684057    1.675499   -0.215972
      5          6           0        1.688957    0.698577   -0.051447
      6          6           0        2.073542   -0.647782    0.137060
      7          6           0        3.436777   -0.982074    0.142190
      8          6           0        1.085208   -1.626926    0.324483
      9          6           0       -0.268366   -1.287905    0.319104
     10          6           0       -0.643549    0.032957    0.097576
     11          6           0        0.322616    1.028469   -0.069625
     12          8           0       -1.986714    0.474119    0.101516
     13          6           0       -3.067318   -0.344352   -0.245135
     14          8           0       -2.959721   -1.489886   -0.669311
     15          7           0       -4.290711    0.278412   -0.037106
     16          6           0       -5.505430   -0.510073   -0.094475
     17          6           0       -4.409804    1.646844    0.429802
     18          1           0        6.524257    0.463827   -0.200144
     19          1           0        6.068268   -1.137519   -0.798292
     20          1           0        6.137984   -0.820763    0.956575
     21          1           0        4.785700    2.106746   -0.331895
     22          1           0        2.412081    2.719403   -0.355139
     23          1           0        3.737148   -2.019397    0.281605
     24          1           0        1.362759   -2.667090    0.481689
     25          1           0       -1.002570   -2.068982    0.490444
     26          1           0        0.006817    2.057343   -0.211388
     27          1           0       -5.314378   -1.544657   -0.391885
     28          1           0       -6.190493   -0.054768   -0.815511
     29          1           0       -5.968554   -0.513033    0.897161
     30          1           0       -3.545541    2.247268    0.134676
     31          1           0       -4.488042    1.638460    1.520570
     32          1           0       -5.308584    2.099149   -0.000131
 ---------------------------------------------------------------------
 Rotational constants (GHZ):      1.7389111      0.1871764      0.1713943
 Leave Link  202 at Thu Sep 30 05:52:41 2021, MaxMem= 1342177280 cpu:       0.1
 (Enter /sw/target/amd/app/gaussian/Gaussian09RevA.02_gcc-4.9.2/g09/l301.exe)
 Standard basis: 6-31G(d) (6D, 7F)
 Ernie: Thresh=  0.10000D-02 Tol=  0.10000D-05 Strict=F.
 There are   285 symmetry adapted basis functions of A   symmetry.
 Integral buffers will be    131072 words long.
 Raffenetti 2 integral format.
 Two-electron integral symmetry is turned on.
   285 basis functions,   536 primitive gaussians,   285 cartesian basis functions
    61 alpha electrons       61 beta electrons
       nuclear repulsion energy      1117.3246206975 Hartrees.
 IExCor=  402 DFT=T Ex+Corr=B3LYP ExCW=0 ScaHFX=  0.200000
 ScaDFX=  0.800000  0.720000  1.000000  0.810000 ScalE2=  1.000000  1.000000
 IRadAn=      0 IRanWt=     -1 IRanGd=            0 ICorTp=0
 NAtoms=   32 NActive=   32 NUniq=   32 SFac= 7.50D-01 NAtFMM=   80 NAOKFM=F Big=F
 Leave Link  301 at Thu Sep 30 05:52:42 2021, MaxMem= 1342177280 cpu:       0.1
 (Enter /sw/target/amd/app/gaussian/Gaussian09RevA.02_gcc-4.9.2/g09/l302.exe)
 NPDir=0 NMtPBC=     1 NCelOv=     1 NCel=       1 NClECP=     1 NCelD=      1
         NCelK=      1 NCelE2=     1 NClLst=     1 CellRange=     0.0.
 One-electron integrals computed using PRISM.
 NBasis=   285 RedAO= T  NBF=   285
 NBsUse=   285 1.00D-06 NBFU=   285
 Precomputing XC quadrature grid using
 IXCGrd= 2 IRadAn=           0 IRanWt=          -1 IRanGd=           0 AccXCQ= 1.00D-10.
 NRdTot=    2043 NPtTot=      260762 NUsed=      275492 NTot=      275524
 NSgBfM=   282   282   282   282   282 NAtAll=    32    32.
 Leave Link  302 at Thu Sep 30 05:52:46 2021, MaxMem= 1342177280 cpu:       2.7
 (Enter /sw/target/amd/app/gaussian/Gaussian09RevA.02_gcc-4.9.2/g09/l303.exe)
 DipDrv:  MaxL=1.
 Leave Link  303 at Thu Sep 30 05:52:47 2021, MaxMem= 1342177280 cpu:       0.2
 (Enter /sw/target/amd/app/gaussian/Gaussian09RevA.02_gcc-4.9.2/g09/l401.exe)
 Harris functional with IExCor=  402 diagonalized for initial guess.
 ExpMin= 1.61D-01 ExpMax= 5.48D+03 ExpMxC= 8.25D+02 IAcc=1 IRadAn=         1 AccDes= 0.00D+00
 HarFok:  IExCor=  402 AccDes= 0.00D+00 IRadAn=         1 IDoV= 1
 ScaDFX=  1.000000  1.000000  1.000000  1.000000
 FoFCou: FMM=F IPFlag=           0 FMFlag=      100000 FMFlg1=           0
         NFxFlg=           0 DoJE=T BraDBF=F KetDBF=T FulRan=T
         Omega=  0.000000  0.000000  1.000000  0.000000  0.000000 ICntrl=     500 IOpCl=  0
         NMat0=    1 NMatS0=    1 NMatT0=    0 NMatD0=    1 NMtDS0=    0 NMtDT0=    0
         I1Cent=           4 NGrid=           0.
 Petite list used in FoFCou.
 Harris En= -747.857765538677    
 Initial guess orbital symmetries:
       Occupied  (A) (A) (A) (A) (A) (A) (A) (A) (A) (A) (A) (A)
                 (A) (A) (A) (A) (A) (A) (A) (A) (A) (A) (A) (A)
                 (A) (A) (A) (A) (A) (A) (A) (A) (A) (A) (A) (A)
                 (A) (A) (A) (A) (A) (A) (A) (A) (A) (A) (A) (A)
                 (A) (A) (A) (A) (A) (A) (A) (A) (A) (A) (A) (A)
                 (A)
       Virtual   (A) (A) (A) (A) (A) (A) (A) (A) (A) (A) (A) (A)
                 (A) (A) (A) (A) (A) (A) (A) (A) (A) (A) (A) (A)
                 (A) (A) (A) (A) (A) (A) (A) (A) (A) (A) (A) (A)
                 (A) (A) (A) (A) (A) (A) (A) (A) (A) (A) (A) (A)
                 (A) (A) (A) (A) (A) (A) (A) (A) (A) (A) (A) (A)
                 (A) (A) (A) (A) (A) (A) (A) (A) (A) (A) (A) (A)
                 (A) (A) (A) (A) (A) (A) (A) (A) (A) (A) (A) (A)
                 (A) (A) (A) (A) (A) (A) (A) (A) (A) (A) (A) (A)
                 (A) (A) (A) (A) (A) (A) (A) (A) (A) (A) (A) (A)
                 (A) (A) (A) (A) (A) (A) (A) (A) (A) (A) (A) (A)
                 (A) (A) (A) (A) (A) (A) (A) (A) (A) (A) (A) (A)
                 (A) (A) (A) (A) (A) (A) (A) (A) (A) (A) (A) (A)
                 (A) (A) (A) (A) (A) (A) (A) (A) (A) (A) (A) (A)
                 (A) (A) (A) (A) (A) (A) (A) (A) (A) (A) (A) (A)
                 (A) (A) (A) (A) (A) (A) (A) (A) (A) (A) (A) (A)
                 (A) (A) (A) (A) (A) (A) (A) (A) (A) (A) (A) (A)
                 (A) (A) (A) (A) (A) (A) (A) (A) (A) (A) (A) (A)
                 (A) (A) (A) (A) (A) (A) (A) (A) (A) (A) (A) (A)
                 (A) (A) (A) (A) (A) (A) (A) (A)
 The electronic state of the initial guess is 1-A.
 Leave Link  401 at Thu Sep 30 05:53:02 2021, MaxMem= 1342177280 cpu:      11.9
 (Enter /sw/target/amd/app/gaussian/Gaussian09RevA.02_gcc-4.9.2/g09/l502.exe)
 Closed shell SCF:
 Requested convergence on RMS density matrix=1.00D-08 within  64 cycles.
 Requested convergence on MAX density matrix=1.00D-06.
 Requested convergence on             energy=1.00D-06.
 No special actions if energy rises.
 Using DIIS extrapolation, IDIIS=  1040.
 Integral symmetry usage will be decided dynamically.
       275191 words used for storage of precomputed grid.
 Keep R1 ints in memory in canonical form, NReq=842730360.
 IEnd=      528271 IEndB=      528271 NGot=  1342177280 MDV=   511229326
 LenX=   511229326 LenY=   511147660
 Symmetry not used in FoFDir.
 MinBra= 0 MaxBra= 2 Meth= 1.
 IRaf=       0 NMat=   1 IRICut=       1 DoRegI=T DoRafI=F ISym2E= 0 JSym2E=0.
 Integral accuracy reduced to 1.0D-05 until final iterations.

 Cycle   1  Pass 0  IDiag  1:
 E= -747.296228712770    
 DIIS: error= 4.19D-02 at cycle   1 NSaved=   1.
 NSaved= 1 IEnMin= 1 EnMin= -747.296228712770     IErMin= 1 ErrMin= 4.19D-02
 ErrMax= 4.19D-02 EMaxC= 1.00D-01 BMatC= 4.54D-01 BMatP= 4.54D-01
 IDIUse=3 WtCom= 5.81D-01 WtEn= 4.19D-01
 Coeff-Com:  0.100D+01
 Coeff-En:   0.100D+01
 Coeff:      0.100D+01
 Gap=     0.195 Goal=   None    Shift=    0.000
 GapD=    0.195 DampG=1.000 DampE=0.500 DampFc=0.5000 IDamp=-1.
 Damping current iteration by 5.00D-01
 RMSDP=5.51D-03 MaxDP=2.21D-01              OVMax= 2.42D-01

 Cycle   2  Pass 0  IDiag  1:
 E= -747.454233495016     Delta-E=       -0.158004782246 Rises=F Damp=T
 DIIS: error= 1.37D-02 at cycle   2 NSaved=   2.
 NSaved= 2 IEnMin= 2 EnMin= -747.454233495016     IErMin= 2 ErrMin= 1.37D-02
 ErrMax= 1.37D-02 EMaxC= 1.00D-01 BMatC= 5.92D-02 BMatP= 4.54D-01
 IDIUse=3 WtCom= 8.63D-01 WtEn= 1.37D-01
 Coeff-Com:  0.171D+00 0.829D+00
 Coeff-En:   0.254D+00 0.746D+00
 Coeff:      0.182D+00 0.818D+00
 Gap=     0.175 Goal=   None    Shift=    0.000
 RMSDP=1.98D-03 MaxDP=7.52D-02 DE=-1.58D-01 OVMax= 1.56D-01

 Cycle   3  Pass 0  IDiag  1:
 E= -747.680968988778     Delta-E=       -0.226735493762 Rises=F Damp=F
 DIIS: error= 1.91D-02 at cycle   3 NSaved=   3.
 NSaved= 3 IEnMin= 3 EnMin= -747.680968988778     IErMin= 2 ErrMin= 1.37D-02
 ErrMax= 1.91D-02 EMaxC= 1.00D-01 BMatC= 7.77D-02 BMatP= 5.92D-02
 IDIUse=2 WtCom= 0.00D+00 WtEn= 1.00D+00
 Coeff-En:   0.000D+00 0.000D+00 0.100D+01
 Coeff:      0.000D+00 0.000D+00 0.100D+01
 Gap=     0.178 Goal=   None    Shift=    0.000
 RMSDP=2.88D-03 MaxDP=1.69D-01 DE=-2.27D-01 OVMax= 2.85D-01

 Cycle   4  Pass 0  IDiag  1:
 E= -747.370891266524     Delta-E=        0.310077722254 Rises=F Damp=F
 DIIS: error= 4.50D-02 at cycle   4 NSaved=   4.
 NSaved= 4 IEnMin= 3 EnMin= -747.680968988778     IErMin= 2 ErrMin= 1.37D-02
 ErrMax= 4.50D-02 EMaxC= 1.00D-01 BMatC= 4.70D-01 BMatP= 5.92D-02
 IDIUse=2 WtCom= 0.00D+00 WtEn= 1.00D+00
 Coeff-En:   0.000D+00 0.000D+00 0.798D+00 0.202D+00
 Coeff:      0.000D+00 0.000D+00 0.798D+00 0.202D+00
 Gap=     0.200 Goal=   None    Shift=    0.000
 RMSDP=1.55D-03 MaxDP=9.09D-02 DE= 3.10D-01 OVMax= 1.39D-01

 Cycle   5  Pass 0  IDiag  1:
 E= -747.720604277411     Delta-E=       -0.349713010887 Rises=F Damp=F
 DIIS: error= 1.17D-02 at cycle   5 NSaved=   5.
 NSaved= 5 IEnMin= 5 EnMin= -747.720604277411     IErMin= 5 ErrMin= 1.17D-02
 ErrMax= 1.17D-02 EMaxC= 1.00D-01 BMatC= 3.18D-02 BMatP= 5.92D-02
 IDIUse=3 WtCom= 8.83D-01 WtEn= 1.17D-01
 Coeff-Com: -0.323D-02 0.411D-01 0.329D+00-0.600D-01 0.693D+00
 Coeff-En:   0.000D+00 0.000D+00 0.329D+00 0.000D+00 0.671D+00
 Coeff:     -0.285D-02 0.363D-01 0.329D+00-0.530D-01 0.690D+00
 Gap=     0.161 Goal=   None    Shift=    0.000
 RMSDP=5.84D-04 MaxDP=2.87D-02 DE=-3.50D-01 OVMax= 3.62D-02

 Cycle   6  Pass 0  IDiag  1:
 E= -747.746424343057     Delta-E=       -0.025820065646 Rises=F Damp=F
 DIIS: error= 1.16D-03 at cycle   6 NSaved=   6.
 NSaved= 6 IEnMin= 6 EnMin= -747.746424343057     IErMin= 6 ErrMin= 1.16D-03
 ErrMax= 1.16D-03 EMaxC= 1.00D-01 BMatC= 5.28D-04 BMatP= 3.18D-02
 IDIUse=3 WtCom= 9.88D-01 WtEn= 1.16D-02
 Coeff-Com: -0.679D-02 0.228D-01 0.164D+00-0.610D-01 0.469D+00 0.412D+00
 Coeff-En:   0.000D+00 0.000D+00 0.000D+00 0.000D+00 0.000D+00 0.100D+01
 Coeff:     -0.671D-02 0.225D-01 0.162D+00-0.603D-01 0.463D+00 0.419D+00
 Gap=     0.160 Goal=   None    Shift=    0.000
 RMSDP=9.21D-05 MaxDP=3.97D-03 DE=-2.58D-02 OVMax= 8.78D-03

 Cycle   7  Pass 0  IDiag  1:
 E= -747.746950155322     Delta-E=       -0.000525812265 Rises=F Damp=F
 DIIS: error= 1.74D-04 at cycle   7 NSaved=   7.
 NSaved= 7 IEnMin= 7 EnMin= -747.746950155322     IErMin= 7 ErrMin= 1.74D-04
 ErrMax= 1.74D-04 EMaxC= 1.00D-01 BMatC= 1.10D-05 BMatP= 5.28D-04
 IDIUse=3 WtCom= 9.98D-01 WtEn= 1.74D-03
 Coeff-Com: -0.134D-02 0.352D-02 0.342D-01-0.156D-01 0.102D+00 0.144D+00
 Coeff-Com:  0.733D+00
 Coeff-En:   0.000D+00 0.000D+00 0.000D+00 0.000D+00 0.000D+00 0.000D+00
 Coeff-En:   0.100D+01
 Coeff:     -0.134D-02 0.351D-02 0.341D-01-0.156D-01 0.102D+00 0.143D+00
 Coeff:      0.734D+00
 Gap=     0.160 Goal=   None    Shift=    0.000
 RMSDP=1.37D-05 MaxDP=5.36D-04 DE=-5.26D-04 OVMax= 1.16D-03

 Cycle   8  Pass 0  IDiag  1:
 E= -747.746959898143     Delta-E=       -0.000009742821 Rises=F Damp=F
 DIIS: error= 5.20D-05 at cycle   8 NSaved=   8.
 NSaved= 8 IEnMin= 8 EnMin= -747.746959898143     IErMin= 8 ErrMin= 5.20D-05
 ErrMax= 5.20D-05 EMaxC= 1.00D-01 BMatC= 1.37D-06 BMatP= 1.10D-05
 IDIUse=1 WtCom= 1.00D+00 WtEn= 0.00D+00
 Coeff-Com: -0.864D-04-0.379D-03 0.857D-02-0.363D-02 0.228D-01 0.508D-01
 Coeff-Com:  0.404D+00 0.517D+00
 Coeff:     -0.864D-04-0.379D-03 0.857D-02-0.363D-02 0.228D-01 0.508D-01
 Coeff:      0.404D+00 0.517D+00
 Gap=     0.160 Goal=   None    Shift=    0.000
 RMSDP=4.42D-06 MaxDP=1.81D-04 DE=-9.74D-06 OVMax= 3.56D-04

 Initial convergence to 1.0D-05 achieved.  Increase integral accuracy.
 Cycle   9  Pass 1  IDiag  1:
 E= -747.746912191674     Delta-E=        0.000047706468 Rises=F Damp=F
 DIIS: error= 3.01D-05 at cycle   1 NSaved=   1.
 NSaved= 1 IEnMin= 1 EnMin= -747.746912191674     IErMin= 1 ErrMin= 3.01D-05
 ErrMax= 3.01D-05 EMaxC= 1.00D-01 BMatC= 1.66D-07 BMatP= 1.66D-07
 IDIUse=1 WtCom= 1.00D+00 WtEn= 0.00D+00
 Coeff-Com:  0.100D+01
 Coeff:      0.100D+01
 Gap=     0.160 Goal=   None    Shift=    0.000
 RMSDP=4.42D-06 MaxDP=1.81D-04 DE= 4.77D-05 OVMax= 3.75D-04

 Cycle  10  Pass 1  IDiag  1:
 E= -747.746912085831     Delta-E=        0.000000105843 Rises=F Damp=F
 DIIS: error= 3.06D-05 at cycle   2 NSaved=   2.
 NSaved= 2 IEnMin= 1 EnMin= -747.746912191674     IErMin= 1 ErrMin= 3.01D-05
 ErrMax= 3.06D-05 EMaxC= 1.00D-01 BMatC= 2.92D-07 BMatP= 1.66D-07
 IDIUse=1 WtCom= 1.00D+00 WtEn= 0.00D+00
 Coeff-Com:  0.586D+00 0.414D+00
 Coeff:      0.586D+00 0.414D+00
 Gap=     0.160 Goal=   None    Shift=    0.000
 RMSDP=2.66D-06 MaxDP=1.11D-04 DE= 1.06D-07 OVMax= 3.21D-04

 Cycle  11  Pass 1  IDiag  1:
 E= -747.746912378109     Delta-E=       -0.000000292277 Rises=F Damp=F
 DIIS: error= 1.09D-05 at cycle   3 NSaved=   3.
 NSaved= 3 IEnMin= 3 EnMin= -747.746912378109     IErMin= 3 ErrMin= 1.09D-05
 ErrMax= 1.09D-05 EMaxC= 1.00D-01 BMatC= 2.45D-08 BMatP= 1.66D-07
 IDIUse=1 WtCom= 1.00D+00 WtEn= 0.00D+00
 Coeff-Com:  0.348D-01 0.221D+00 0.744D+00
 Coeff:      0.348D-01 0.221D+00 0.744D+00
 Gap=     0.160 Goal=   None    Shift=    0.000
 RMSDP=8.65D-07 MaxDP=2.69D-05 DE=-2.92D-07 OVMax= 1.05D-04

 Cycle  12  Pass 1  IDiag  1:
 E= -747.746912401000     Delta-E=       -0.000000022891 Rises=F Damp=F
 DIIS: error= 3.99D-06 at cycle   4 NSaved=   4.
 NSaved= 4 IEnMin= 4 EnMin= -747.746912401000     IErMin= 4 ErrMin= 3.99D-06
 ErrMax= 3.99D-06 EMaxC= 1.00D-01 BMatC= 5.68D-09 BMatP= 2.45D-08
 IDIUse=1 WtCom= 1.00D+00 WtEn= 0.00D+00
 Coeff-Com: -0.113D-01 0.118D+00 0.482D+00 0.411D+00
 Coeff:     -0.113D-01 0.118D+00 0.482D+00 0.411D+00
 Gap=     0.160 Goal=   None    Shift=    0.000
 RMSDP=3.00D-07 MaxDP=1.03D-05 DE=-2.29D-08 OVMax= 2.88D-05

 Cycle  13  Pass 1  IDiag  1:
 E= -747.746912406451     Delta-E=       -0.000000005451 Rises=F Damp=F
 DIIS: error= 4.73D-07 at cycle   5 NSaved=   5.
 NSaved= 5 IEnMin= 5 EnMin= -747.746912406451     IErMin= 5 ErrMin= 4.73D-07
 ErrMax= 4.73D-07 EMaxC= 1.00D-01 BMatC= 1.57D-10 BMatP= 5.68D-09
 IDIUse=1 WtCom= 1.00D+00 WtEn= 0.00D+00
 Coeff-Com: -0.809D-02 0.469D-01 0.202D+00 0.210D+00 0.549D+00
 Coeff:     -0.809D-02 0.469D-01 0.202D+00 0.210D+00 0.549D+00
 Gap=     0.160 Goal=   None    Shift=    0.000
 RMSDP=6.10D-08 MaxDP=1.66D-06 DE=-5.45D-09 OVMax= 4.57D-06

 Cycle  14  Pass 1  IDiag  1:
 E= -747.746912406564     Delta-E=       -0.000000000113 Rises=F Damp=F
 DIIS: error= 2.41D-07 at cycle   6 NSaved=   6.
 NSaved= 6 IEnMin= 6 EnMin= -747.746912406564     IErMin= 6 ErrMin= 2.41D-07
 ErrMax= 2.41D-07 EMaxC= 1.00D-01 BMatC= 2.30D-11 BMatP= 1.57D-10
 IDIUse=1 WtCom= 1.00D+00 WtEn= 0.00D+00
 Coeff-Com: -0.391D-02 0.175D-01 0.785D-01 0.884D-01 0.327D+00 0.492D+00
 Coeff:     -0.391D-02 0.175D-01 0.785D-01 0.884D-01 0.327D+00 0.492D+00
 Gap=     0.160 Goal=   None    Shift=    0.000
 RMSDP=1.94D-08 MaxDP=7.49D-07 DE=-1.13D-10 OVMax= 1.54D-06

 Cycle  15  Pass 1  IDiag  1:
 E= -747.746912406599     Delta-E=       -0.000000000035 Rises=F Damp=F
 DIIS: error= 6.37D-08 at cycle   7 NSaved=   7.
 NSaved= 7 IEnMin= 7 EnMin= -747.746912406599     IErMin= 7 ErrMin= 6.37D-08
 ErrMax= 6.37D-08 EMaxC= 1.00D-01 BMatC= 1.90D-12 BMatP= 2.30D-11
 IDIUse=1 WtCom= 1.00D+00 WtEn= 0.00D+00
 Coeff-Com: -0.121D-02 0.427D-02 0.207D-01 0.240D-01 0.113D+00 0.266D+00
 Coeff-Com:  0.574D+00
 Coeff:     -0.121D-02 0.427D-02 0.207D-01 0.240D-01 0.113D+00 0.266D+00
 Coeff:      0.574D+00
 Gap=     0.160 Goal=   None    Shift=    0.000
 RMSDP=6.57D-09 MaxDP=3.49D-07 DE=-3.50D-11 OVMax= 6.36D-07

 SCF Done:  E(RB3LYP) =  -747.746912407     A.U. after   15 cycles
             Convg  =    0.6573D-08             -V/T =  2.0096
 KE= 7.406322457057D+02 PE=-3.972822349950D+03 EE= 1.367118571140D+03
 Leave Link  502 at Thu Sep 30 06:05:28 2021, MaxMem= 1342177280 cpu:     349.3
 (Enter /sw/target/amd/app/gaussian/Gaussian09RevA.02_gcc-4.9.2/g09/l508.exe)
 QCSCF skips out because SCF is already converged.
 Leave Link  508 at Thu Sep 30 06:05:31 2021, MaxMem= 1342177280 cpu:       0.0
 (Enter /sw/target/amd/app/gaussian/Gaussian09RevA.02_gcc-4.9.2/g09/l601.exe)
 Copying SCF densities to generalized density rwf, IOpCl= 0 IROHF=0.

 **********************************************************************

            Population analysis using the SCF density.

 **********************************************************************

 Orbital symmetries:
       Occupied  (A) (A) (A) (A) (A) (A) (A) (A) (A) (A) (A) (A)
                 (A) (A) (A) (A) (A) (A) (A) (A) (A) (A) (A) (A)
                 (A) (A) (A) (A) (A) (A) (A) (A) (A) (A) (A) (A)
                 (A) (A) (A) (A) (A) (A) (A) (A) (A) (A) (A) (A)
                 (A) (A) (A) (A) (A) (A) (A) (A) (A) (A) (A) (A)
                 (A)
       Virtual   (A) (A) (A) (A) (A) (A) (A) (A) (A) (A) (A) (A)
                 (A) (A) (A) (A) (A) (A) (A) (A) (A) (A) (A) (A)
                 (A) (A) (A) (A) (A) (A) (A) (A) (A) (A) (A) (A)
                 (A) (A) (A) (A) (A) (A) (A) (A) (A) (A) (A) (A)
                 (A) (A) (A) (A) (A) (A) (A) (A) (A) (A) (A) (A)
                 (A) (A) (A) (A) (A) (A) (A) (A) (A) (A) (A) (A)
                 (A) (A) (A) (A) (A) (A) (A) (A) (A) (A) (A) (A)
                 (A) (A) (A) (A) (A) (A) (A) (A) (A) (A) (A) (A)
                 (A) (A) (A) (A) (A) (A) (A) (A) (A) (A) (A) (A)
                 (A) (A) (A) (A) (A) (A) (A) (A) (A) (A) (A) (A)
                 (A) (A) (A) (A) (A) (A) (A) (A) (A) (A) (A) (A)
                 (A) (A) (A) (A) (A) (A) (A) (A) (A) (A) (A) (A)
                 (A) (A) (A) (A) (A) (A) (A) (A) (A) (A) (A) (A)
                 (A) (A) (A) (A) (A) (A) (A) (A) (A) (A) (A) (A)
                 (A) (A) (A) (A) (A) (A) (A) (A) (A) (A) (A) (A)
                 (A) (A) (A) (A) (A) (A) (A) (A) (A) (A) (A) (A)
                 (A) (A) (A) (A) (A) (A) (A) (A) (A) (A) (A) (A)
                 (A) (A) (A) (A) (A) (A) (A) (A) (A) (A) (A) (A)
                 (A) (A) (A) (A) (A) (A) (A) (A)
 The electronic state is 1-A.
 Alpha  occ. eigenvalues --  -19.19548 -19.11691 -14.36987 -10.33701 -10.25175
 Alpha  occ. eigenvalues --  -10.22233 -10.21881 -10.19196 -10.19156 -10.18822
 Alpha  occ. eigenvalues --  -10.18763 -10.18756 -10.18623 -10.18509 -10.18499
 Alpha  occ. eigenvalues --  -10.18185 -10.18021  -1.09147  -1.00825  -0.93829
 Alpha  occ. eigenvalues --   -0.87320  -0.82271  -0.77295  -0.76159  -0.72818
 Alpha  occ. eigenvalues --   -0.71985  -0.70734  -0.67456  -0.62512  -0.61307
 Alpha  occ. eigenvalues --   -0.59734  -0.56025  -0.53247  -0.50280  -0.49463
 Alpha  occ. eigenvalues --   -0.48434  -0.47936  -0.46891  -0.44624  -0.43887
 Alpha  occ. eigenvalues --   -0.43333  -0.42292  -0.42087  -0.41649  -0.41150
 Alpha  occ. eigenvalues --   -0.40499  -0.40105  -0.39516  -0.38744  -0.38327
 Alpha  occ. eigenvalues --   -0.37383  -0.35960  -0.33855  -0.33581  -0.32891
 Alpha  occ. eigenvalues --   -0.29835  -0.27522  -0.26699  -0.24180  -0.23177
 Alpha  occ. eigenvalues --   -0.19947
 Alpha virt. eigenvalues --   -0.03899   0.00232   0.03395   0.04710   0.08911
 Alpha virt. eigenvalues --    0.09669   0.10682   0.11104   0.11892   0.12580
 Alpha virt. eigenvalues --    0.13500   0.14475   0.15083   0.15956   0.16038
 Alpha virt. eigenvalues --    0.17115   0.17673   0.17910   0.18524   0.19136
 Alpha virt. eigenvalues --    0.20007   0.20509   0.22149   0.22734   0.23653
 Alpha virt. eigenvalues --    0.25284   0.27973   0.29736   0.31937   0.33184
 Alpha virt. eigenvalues --    0.33961   0.35845   0.36768   0.37906   0.40190
 Alpha virt. eigenvalues --    0.47393   0.47952   0.49006   0.49483   0.50083
 Alpha virt. eigenvalues --    0.51248   0.51507   0.52856   0.53612   0.54075
 Alpha virt. eigenvalues --    0.55192   0.56195   0.56603   0.56802   0.57533
 Alpha virt. eigenvalues --    0.58412   0.59256   0.60488   0.61414   0.61900
 Alpha virt. eigenvalues --    0.61983   0.62414   0.63573   0.64165   0.66455
 Alpha virt. eigenvalues --    0.67611   0.67964   0.69065   0.70005   0.70523
 Alpha virt. eigenvalues --    0.71897   0.72523   0.75284   0.76109   0.78191
 Alpha virt. eigenvalues --    0.80243   0.80685   0.81995   0.82420   0.83686
 Alpha virt. eigenvalues --    0.84265   0.84801   0.85139   0.86111   0.86216
 Alpha virt. eigenvalues --    0.87166   0.88139   0.88573   0.89739   0.91181
 Alpha virt. eigenvalues --    0.91517   0.92563   0.93461   0.94923   0.95483
 Alpha virt. eigenvalues --    0.96214   0.97299   0.99047   0.99837   1.02497
 Alpha virt. eigenvalues --    1.03483   1.04165   1.06621   1.08224   1.09906
 Alpha virt. eigenvalues --    1.11360   1.13595   1.15594   1.17695   1.19609
 Alpha virt. eigenvalues --    1.21329   1.23358   1.24877   1.26208   1.27486
 Alpha virt. eigenvalues --    1.28790   1.33022   1.33910   1.36433   1.38820
 Alpha virt. eigenvalues --    1.39138   1.39600   1.40719   1.42081   1.42417
 Alpha virt. eigenvalues --    1.44099   1.46961   1.48892   1.49378   1.49919
 Alpha virt. eigenvalues --    1.50312   1.51296   1.53503   1.54305   1.60510
 Alpha virt. eigenvalues --    1.66466   1.72405   1.76810   1.77614   1.78720
 Alpha virt. eigenvalues --    1.80004   1.80705   1.81837   1.85977   1.86996
 Alpha virt. eigenvalues --    1.87447   1.88517   1.90339   1.90387   1.90665
 Alpha virt. eigenvalues --    1.92861   1.92936   1.93940   1.95087   1.96475
 Alpha virt. eigenvalues --    1.97052   1.98026   1.99552   2.01753   2.03737
 Alpha virt. eigenvalues --    2.05193   2.06296   2.07153   2.08320   2.10602
 Alpha virt. eigenvalues --    2.11706   2.14491   2.16067   2.16684   2.19869
 Alpha virt. eigenvalues --    2.20327   2.21136   2.25350   2.29275   2.30044
 Alpha virt. eigenvalues --    2.30362   2.31562   2.33246   2.33947   2.33968
 Alpha virt. eigenvalues --    2.35081   2.35962   2.37195   2.39749   2.42945
 Alpha virt. eigenvalues --    2.44037   2.46049   2.50885   2.54256   2.59517
 Alpha virt. eigenvalues --    2.61394   2.62748   2.64786   2.66749   2.67794
 Alpha virt. eigenvalues --    2.69044   2.74166   2.75499   2.78896   2.81305
 Alpha virt. eigenvalues --    2.83027   2.85624   2.89185   2.92464   2.94100
 Alpha virt. eigenvalues --    2.97506   2.99867   3.10701   3.19187   3.25727
 Alpha virt. eigenvalues --    3.40940   3.50446   3.98256   4.08457   4.09852
 Alpha virt. eigenvalues --    4.10995   4.12904   4.13934   4.17300   4.22497
 Alpha virt. eigenvalues --    4.24324   4.28942   4.29503   4.35917   4.41728
 Alpha virt. eigenvalues --    4.45449   4.50332   4.62762   4.85610
          Condensed to atoms (all electrons):
              1          2          3          4          5          6
     1  C    5.216263   0.343599  -0.056019   0.007638   0.000888   0.004712
     2  C    0.343599   4.663338   0.524887  -0.014561  -0.030532   0.002886
     3  C   -0.056019   0.524887   4.981698   0.484128  -0.010148  -0.044390
     4  C    0.007638  -0.014561   0.484128   5.154391   0.452094  -0.022138
     5  C    0.000888  -0.030532  -0.010148   0.452094   4.681487   0.488631
     6  C    0.004712   0.002886  -0.044390  -0.022138   0.488631   4.686368
     7  C   -0.064309   0.505745  -0.018361  -0.085016  -0.034589   0.427076
     8  C   -0.000262   0.007515  -0.000297   0.017075  -0.024145   0.434548
     9  C    0.000003  -0.000286   0.000049  -0.000702  -0.039115  -0.006329
    10  C   -0.000000   0.000029  -0.000291   0.007594   0.009225  -0.034841
    11  C    0.000002  -0.000445   0.008318  -0.095485   0.410018  -0.035044
    12  O    0.000000  -0.000000   0.000000  -0.000077   0.002079   0.000335
    13  C   -0.000000  -0.000000  -0.000000   0.000001   0.000015   0.000001
    14  O    0.000000   0.000000  -0.000000  -0.000000   0.000001   0.000001
    15  N    0.000000  -0.000000   0.000000  -0.000000   0.000000   0.000000
    16  C   -0.000000   0.000000  -0.000000   0.000000  -0.000000  -0.000000
    17  C   -0.000000  -0.000000   0.000000   0.000000  -0.000001   0.000000
    18  H    0.365468  -0.030094  -0.002968   0.000229  -0.000030  -0.000062
    19  H    0.364698  -0.027685   0.001205  -0.000216   0.000026  -0.000077
    20  H    0.364272  -0.027606   0.000842  -0.000215   0.000028  -0.000101
    21  H   -0.010052  -0.039049   0.351131  -0.040501   0.002666   0.000825
    22  H   -0.000216   0.003472  -0.040585   0.349999  -0.039854   0.004319
    23  H   -0.007581  -0.051219   0.005578   0.000369   0.004798  -0.042774
    24  H   -0.000010   0.000154   0.000015  -0.000207   0.004423  -0.038965
    25  H   -0.000000   0.000003  -0.000000   0.000006   0.000591   0.002827
    26  H    0.000000   0.000013   0.000197  -0.008909  -0.040304   0.004791
    27  H   -0.000000  -0.000000   0.000000   0.000000  -0.000000   0.000000
    28  H    0.000000  -0.000000   0.000000  -0.000000   0.000000   0.000000
    29  H    0.000000   0.000000   0.000000   0.000000  -0.000000  -0.000000
    30  H   -0.000000   0.000000  -0.000000  -0.000000   0.000003   0.000000
    31  H    0.000000  -0.000000   0.000000   0.000000  -0.000000  -0.000000
    32  H   -0.000000   0.000000  -0.000000  -0.000000   0.000000  -0.000000
              7          8          9         10         11         12
     1  C   -0.064309  -0.000262   0.000003  -0.000000   0.000002   0.000000
     2  C    0.505745   0.007515  -0.000286   0.000029  -0.000445  -0.000000
     3  C   -0.018361  -0.000297   0.000049  -0.000291   0.008318   0.000000
     4  C   -0.085016   0.017075  -0.000702   0.007594  -0.095485  -0.000077
     5  C   -0.034589  -0.024145  -0.039115   0.009225   0.410018   0.002079
     6  C    0.427076   0.434548  -0.006329  -0.034841  -0.035044   0.000335
     7  C    5.250019  -0.096319   0.008851  -0.000793   0.017353   0.000001
     8  C   -0.096319   5.178221   0.459034   0.001934  -0.075541   0.003237
     9  C    0.008851   0.459034   5.058549   0.465842  -0.057259  -0.046345
    10  C   -0.000793   0.001934   0.465842   4.574734   0.491761   0.203688
    11  C    0.017353  -0.075541  -0.057259   0.491761   5.302994  -0.042370
    12  O    0.000001   0.003237  -0.046345   0.203688  -0.042370   8.344638
    13  C   -0.000000   0.000369  -0.000912  -0.012089   0.000800   0.258964
    14  O    0.000000   0.000236  -0.002625  -0.002457   0.000222  -0.069904
    15  N    0.000000  -0.000001   0.000212   0.002063  -0.000252  -0.088071
    16  C   -0.000000  -0.000000  -0.000003  -0.000017   0.000002   0.002250
    17  C    0.000000  -0.000000  -0.000030   0.000090   0.000013  -0.001141
    18  H    0.003470   0.000003  -0.000000   0.000000  -0.000000  -0.000000
    19  H   -0.003683   0.000005  -0.000000  -0.000000   0.000000   0.000000
    20  H   -0.003648   0.000006  -0.000000  -0.000000   0.000000  -0.000000
    21  H    0.005778   0.000012  -0.000001   0.000003  -0.000197  -0.000000
    22  H    0.000961  -0.000206   0.000011   0.000157  -0.008135  -0.000002
    23  H    0.353872  -0.008247   0.000195   0.000011  -0.000194   0.000000
    24  H   -0.008424   0.355010  -0.040672   0.003101   0.000666  -0.000047
    25  H   -0.000161  -0.034472   0.346683  -0.030761   0.005124  -0.006302
    26  H   -0.000157   0.000029   0.006778  -0.039863   0.343601  -0.000205
    27  H   -0.000000  -0.000000  -0.000001  -0.000004   0.000000   0.000297
    28  H    0.000000  -0.000000  -0.000000   0.000001  -0.000000  -0.000046
    29  H   -0.000000   0.000000   0.000000  -0.000001  -0.000000   0.000018
    30  H   -0.000000  -0.000001   0.000025   0.000203  -0.000009   0.009077
    31  H   -0.000000   0.000000   0.000006  -0.000009  -0.000004   0.000651
    32  H   -0.000000  -0.000000   0.000000   0.000003  -0.000001   0.000355
             13         14         15         16         17         18
     1  C   -0.000000   0.000000   0.000000  -0.000000  -0.000000   0.365468
     2  C   -0.000000   0.000000  -0.000000   0.000000  -0.000000  -0.030094
     3  C   -0.000000  -0.000000   0.000000  -0.000000   0.000000  -0.002968
     4  C    0.000001  -0.000000  -0.000000   0.000000   0.000000   0.000229
     5  C    0.000015   0.000001   0.000000  -0.000000  -0.000001  -0.000030
     6  C    0.000001   0.000001   0.000000  -0.000000   0.000000  -0.000062
     7  C   -0.000000   0.000000   0.000000  -0.000000   0.000000   0.003470
     8  C    0.000369   0.000236  -0.000001  -0.000000  -0.000000   0.000003
     9  C   -0.000912  -0.002625   0.000212  -0.000003  -0.000030  -0.000000
    10  C   -0.012089  -0.002457   0.002063  -0.000017   0.000090   0.000000
    11  C    0.000800   0.000222  -0.000252   0.000002   0.000013  -0.000000
    12  O    0.258964  -0.069904  -0.088071   0.002250  -0.001141  -0.000000
    13  C    4.152918   0.547260   0.332282  -0.030603  -0.026921   0.000000
    14  O    0.547260   8.095709  -0.086072  -0.007782   0.002660  -0.000000
    15  N    0.332282  -0.086072   6.934094   0.303666   0.286207  -0.000000
    16  C   -0.030603  -0.007782   0.303666   4.967856  -0.051005   0.000000
    17  C   -0.026921   0.002660   0.286207  -0.051005   4.968163   0.000000
    18  H    0.000000  -0.000000  -0.000000   0.000000   0.000000   0.560482
    19  H    0.000000  -0.000000  -0.000000   0.000000  -0.000000  -0.027849
    20  H   -0.000000  -0.000000  -0.000000  -0.000000   0.000000  -0.027828
    21  H    0.000000  -0.000000  -0.000000   0.000000   0.000000   0.006799
    22  H    0.000000  -0.000000  -0.000000   0.000000  -0.000000  -0.000007
    23  H    0.000000   0.000000   0.000000   0.000000  -0.000000  -0.000009
    24  H   -0.000011  -0.000005  -0.000000   0.000000   0.000000   0.000000
    25  H    0.000639   0.014334  -0.000138   0.000016  -0.000010   0.000000
    26  H    0.000046   0.000012  -0.000014   0.000000  -0.000027   0.000000
    27  H   -0.001952   0.016614  -0.027974   0.371860   0.004173   0.000000
    28  H    0.001342   0.000358  -0.047415   0.379816  -0.002391  -0.000000
    29  H    0.001644   0.000688  -0.054783   0.378553  -0.000260  -0.000000
    30  H   -0.005717   0.000094  -0.026693   0.003825   0.376339   0.000000
    31  H   -0.000650  -0.000003  -0.054061   0.000347   0.378310  -0.000000
    32  H    0.002110  -0.000052  -0.039935  -0.003522   0.373101  -0.000000
             19         20         21         22         23         24
     1  C    0.364698   0.364272  -0.010052  -0.000216  -0.007581  -0.000010
     2  C   -0.027685  -0.027606  -0.039049   0.003472  -0.051219   0.000154
     3  C    0.001205   0.000842   0.351131  -0.040585   0.005578   0.000015
     4  C   -0.000216  -0.000215  -0.040501   0.349999   0.000369  -0.000207
     5  C    0.000026   0.000028   0.002666  -0.039854   0.004798   0.004423
     6  C   -0.000077  -0.000101   0.000825   0.004319  -0.042774  -0.038965
     7  C   -0.003683  -0.003648   0.005778   0.000961   0.353872  -0.008424
     8  C    0.000005   0.000006   0.000012  -0.000206  -0.008247   0.355010
     9  C   -0.000000  -0.000000  -0.000001   0.000011   0.000195  -0.040672
    10  C   -0.000000  -0.000000   0.000003   0.000157   0.000011   0.003101
    11  C    0.000000   0.000000  -0.000197  -0.008135  -0.000194   0.000666
    12  O    0.000000  -0.000000  -0.000000  -0.000002   0.000000  -0.000047
    13  C    0.000000  -0.000000   0.000000   0.000000   0.000000  -0.000011
    14  O   -0.000000  -0.000000  -0.000000  -0.000000   0.000000  -0.000005
    15  N   -0.000000  -0.000000  -0.000000  -0.000000   0.000000  -0.000000
    16  C    0.000000  -0.000000   0.000000   0.000000   0.000000   0.000000
    17  C   -0.000000   0.000000   0.000000  -0.000000  -0.000000   0.000000
    18  H   -0.027849  -0.027828   0.006799  -0.000007  -0.000009   0.000000
    19  H    0.555847  -0.028940   0.000114   0.000003   0.002489   0.000000
    20  H   -0.028940   0.556574   0.000150   0.000003   0.002103  -0.000000
    21  H    0.000114   0.000150   0.604552  -0.004895  -0.000184  -0.000000
    22  H    0.000003   0.000003  -0.004895   0.601717   0.000023   0.000002
    23  H    0.002489   0.002103  -0.000184   0.000023   0.612869   0.006419
    24  H    0.000000  -0.000000  -0.000000   0.000002   0.006419   0.588430
    25  H    0.000000  -0.000000   0.000000  -0.000000  -0.000011  -0.005147
    26  H    0.000000   0.000000  -0.000013   0.005920   0.000003   0.000019
    27  H    0.000000  -0.000000   0.000000   0.000000   0.000000   0.000000
    28  H    0.000000  -0.000000  -0.000000   0.000000  -0.000000  -0.000000
    29  H   -0.000000   0.000000  -0.000000  -0.000000   0.000000  -0.000000
    30  H    0.000000  -0.000000   0.000000   0.000000   0.000000   0.000000
    31  H   -0.000000   0.000000   0.000000  -0.000000   0.000000  -0.000000
    32  H   -0.000000   0.000000  -0.000000   0.000000   0.000000   0.000000
             25         26         27         28         29         30
     1  C   -0.000000   0.000000  -0.000000   0.000000   0.000000  -0.000000
     2  C    0.000003   0.000013  -0.000000  -0.000000   0.000000   0.000000
     3  C   -0.000000   0.000197   0.000000   0.000000   0.000000  -0.000000
     4  C    0.000006  -0.008909   0.000000  -0.000000   0.000000  -0.000000
     5  C    0.000591  -0.040304  -0.000000   0.000000  -0.000000   0.000003
     6  C    0.002827   0.004791   0.000000   0.000000  -0.000000   0.000000
     7  C   -0.000161  -0.000157  -0.000000   0.000000  -0.000000  -0.000000
     8  C   -0.034472   0.000029  -0.000000  -0.000000   0.000000  -0.000001
     9  C    0.346683   0.006778  -0.000001  -0.000000   0.000000   0.000025
    10  C   -0.030761  -0.039863  -0.000004   0.000001  -0.000001   0.000203
    11  C    0.005124   0.343601   0.000000  -0.000000  -0.000000  -0.000009
    12  O   -0.006302  -0.000205   0.000297  -0.000046   0.000018   0.009077
    13  C    0.000639   0.000046  -0.001952   0.001342   0.001644  -0.005717
    14  O    0.014334   0.000012   0.016614   0.000358   0.000688   0.000094
    15  N   -0.000138  -0.000014  -0.027974  -0.047415  -0.054783  -0.026693
    16  C    0.000016   0.000000   0.371860   0.379816   0.378553   0.003825
    17  C   -0.000010  -0.000027   0.004173  -0.002391  -0.000260   0.376339
    18  H    0.000000   0.000000   0.000000  -0.000000  -0.000000   0.000000
    19  H    0.000000   0.000000   0.000000   0.000000  -0.000000   0.000000
    20  H   -0.000000   0.000000  -0.000000  -0.000000   0.000000  -0.000000
    21  H    0.000000  -0.000013   0.000000  -0.000000  -0.000000   0.000000
    22  H   -0.000000   0.005920   0.000000   0.000000  -0.000000   0.000000
    23  H   -0.000011   0.000003   0.000000  -0.000000   0.000000   0.000000
    24  H   -0.005147   0.000019   0.000000  -0.000000  -0.000000   0.000000
    25  H    0.538702  -0.000147   0.000004  -0.000001   0.000003  -0.000002
    26  H   -0.000147   0.593751  -0.000000  -0.000000  -0.000000   0.000380
    27  H    0.000004  -0.000000   0.481485  -0.024000  -0.024964  -0.000180
    28  H   -0.000001  -0.000000  -0.024000   0.573763  -0.043648   0.000154
    29  H    0.000003  -0.000000  -0.024964  -0.043648   0.585779  -0.000161
    30  H   -0.000002   0.000380  -0.000180   0.000154  -0.000161   0.507458
    31  H    0.000005  -0.000000  -0.000145  -0.001219   0.006045  -0.030275
    32  H   -0.000000   0.000001   0.000010   0.006477  -0.002567  -0.023491
             31         32
     1  C    0.000000  -0.000000
     2  C   -0.000000   0.000000
     3  C    0.000000  -0.000000
     4  C    0.000000  -0.000000
     5  C   -0.000000   0.000000
     6  C   -0.000000  -0.000000
     7  C   -0.000000  -0.000000
     8  C    0.000000  -0.000000
     9  C    0.000006   0.000000
    10  C   -0.000009   0.000003
    11  C   -0.000004  -0.000001
    12  O    0.000651   0.000355
    13  C   -0.000650   0.002110
    14  O   -0.000003  -0.000052
    15  N   -0.054061  -0.039935
    16  C    0.000347  -0.003522
    17  C    0.378310   0.373101
    18  H   -0.000000  -0.000000
    19  H   -0.000000  -0.000000
    20  H    0.000000   0.000000
    21  H    0.000000  -0.000000
    22  H   -0.000000   0.000000
    23  H    0.000000   0.000000
    24  H   -0.000000   0.000000
    25  H    0.000005  -0.000000
    26  H   -0.000000   0.000001
    27  H   -0.000145   0.000010
    28  H   -0.001219   0.006477
    29  H    0.006045  -0.002567
    30  H   -0.030275  -0.023491
    31  H    0.583842  -0.041027
    32  H   -0.041027   0.572209
 Mulliken atomic charges:
              1
     1  C   -0.529094
     2  C    0.169838
     3  C   -0.184989
     4  C   -0.205500
     5  C    0.161743
     6  C    0.167403
     7  C   -0.257665
     8  C   -0.217744
     9  C   -0.151960
    10  C    0.360690
    11  C   -0.265939
    12  O   -0.571080
    13  C    0.780463
    14  O   -0.509290
    15  N   -0.433118
    16  C   -0.315262
    17  C   -0.307271
    18  H    0.152396
    19  H    0.164063
    20  H    0.164359
    21  H    0.122861
    22  H    0.127313
    23  H    0.121492
    24  H    0.135248
    25  H    0.168218
    26  H    0.134101
    27  H    0.204775
    28  H    0.156808
    29  H    0.153653
    30  H    0.188970
    31  H    0.158187
    32  H    0.156331
 Sum of Mulliken atomic charges =  -0.00000
 Mulliken charges with hydrogens summed into heavy atoms:
              1
     1  C   -0.048277
     2  C    0.169838
     3  C   -0.062128
     4  C   -0.078187
     5  C    0.161743
     6  C    0.167403
     7  C   -0.136173
     8  C   -0.082497
     9  C    0.016257
    10  C    0.360690
    11  C   -0.131838
    12  O   -0.571080
    13  C    0.780463
    14  O   -0.509290
    15  N   -0.433118
    16  C    0.199975
    17  C    0.196216
 Sum of Mulliken charges with hydrogens summed into heavy atoms =  -0.00000
 Electronic spatial extent (au):  <R**2>=           6178.1754
 Charge=             -0.0000 electrons
 Dipole moment (field-independent basis, Debye):
    X=             -0.8275    Y=              1.8166    Z=              1.0974  Tot=              2.2779
 Quadrupole moment (field-independent basis, Debye-Ang):
   XX=            -74.5452   YY=            -93.7703   ZZ=           -102.6219
   XY=             -7.2049   XZ=             -3.5900   YZ=             -3.4081
 Traceless Quadrupole moment (field-independent basis, Debye-Ang):
   XX=             15.7673   YY=             -3.4578   ZZ=            -12.3094
   XY=             -7.2049   XZ=             -3.5900   YZ=             -3.4081
 Octapole moment (field-independent basis, Debye-Ang**2):
  XXX=            -94.3009  YYY=              5.8025  ZZZ=             -0.8301  XYY=              1.0215
  XXY=             19.1965  XXZ=              7.7883  XZZ=            -18.0807  YZZ=             -0.6075
  YYZ=              2.8998  XYZ=              1.9746
 Hexadecapole moment (field-independent basis, Debye-Ang**3):
 XXXX=          -6401.7038 YYYY=           -798.6405 ZZZZ=           -161.7103 XXXY=            -41.6865
 XXXZ=            -22.1248 YYYX=            -15.3783 YYYZ=            -13.2167 ZZZX=              2.9023
 ZZZY=              6.3600 XXYY=          -1297.9747 XXZZ=          -1264.6388 YYZZ=           -177.0716
 XXYZ=            -20.9453 YYXZ=            -10.5407 ZZXY=             -8.9258
 N-N= 1.117324620697D+03 E-N=-3.972822363064D+03  KE= 7.406322457057D+02
 No NMR shielding tensors so no spin-rotation constants.
 Leave Link  601 at Thu Sep 30 06:05:33 2021, MaxMem= 1342177280 cpu:       1.8
 (Enter /sw/target/amd/app/gaussian/Gaussian09RevA.02_gcc-4.9.2/g09/l701.exe)
 Compute integral first derivatives.
 ... and contract with generalized density number  0.
 Leave Link  701 at Thu Sep 30 06:05:36 2021, MaxMem= 1342177280 cpu:       1.6
 (Enter /sw/target/amd/app/gaussian/Gaussian09RevA.02_gcc-4.9.2/g09/l702.exe)
 L702 exits ... SP integral derivatives will be done elsewhere.
 Leave Link  702 at Thu Sep 30 06:05:36 2021, MaxMem= 1342177280 cpu:       0.1
 (Enter /sw/target/amd/app/gaussian/Gaussian09RevA.02_gcc-4.9.2/g09/l703.exe)
 Compute integral first derivatives, UseDBF=F ICtDFT=           0.
 Integral derivatives from FoFDir, PRISM(SPDF).
 Calling FoFJK, ICntrl=      2127 FMM=F ISym2X=0 I1Cent= 0 IOpClX= 0 NMat=1 NMatS=1 NMatT=0.
 FoFCou: FMM=F IPFlag=           0 FMFlag=      100000 FMFlg1=         800
         NFxFlg=           0 DoJE=F BraDBF=F KetDBF=F FulRan=T
         Omega=  0.000000  0.000000  1.000000  0.000000  0.000000 ICntrl=    2127 IOpCl=  0
         NMat0=    1 NMatS0=    1 NMatT0=    0 NMatD0=    1 NMtDS0=    0 NMtDT0=    0
         I1Cent=           0 NGrid=           0.
 Symmetry not used in FoFCou.
 Leave Link  703 at Thu Sep 30 06:07:37 2021, MaxMem= 1342177280 cpu:     125.3
 (Enter /sw/target/amd/app/gaussian/Gaussian09RevA.02_gcc-4.9.2/g09/l716.exe)
 Dipole        =-3.25552648D-01 7.14692649D-01 4.31746759D-01
 ***** Axes restored to original set *****
 -------------------------------------------------------------------
 Center     Atomic                   Forces (Hartrees/Bohr)
 Number     Number              X              Y              Z
 -------------------------------------------------------------------
      1        6          -0.003010589    0.001598140    0.000765159
      2        6           0.008875382   -0.021711021   -0.000521559
      3        6           0.022865417    0.016346817   -0.002052235
      4        6          -0.026132278    0.004565014    0.001770322
      5        6           0.005995358    0.011847781   -0.001655502
      6        6          -0.007207026   -0.014707588    0.001491144
      7        6          -0.021227317    0.011442611    0.001946424
      8        6           0.025977355    0.001005439   -0.002891729
      9        6          -0.014087046   -0.028640310    0.000202409
     10        6           0.005730460    0.026838955    0.002170606
     11        6           0.024579688   -0.007434005   -0.000937002
     12        8           0.007269783   -0.003146616    0.001006386
     13        6           0.003409958   -0.010777458    0.002798952
     14        8          -0.002967080    0.013542213   -0.008216566
     15        7          -0.031959320   -0.004934763    0.011623237
     16        6           0.001364752   -0.000252242    0.000645743
     17        6          -0.001855916   -0.001504898   -0.002343025
     18        1          -0.000487482   -0.000304804   -0.000191011
     19        1          -0.002984968   -0.002482466   -0.000940781
     20        1          -0.003111244   -0.002430268    0.001172419
     21        1          -0.000783739   -0.000891493    0.000194745
     22        1           0.002338994   -0.000807147   -0.000050702
     23        1           0.001295907    0.000298181   -0.000141972
     24        1          -0.001362189    0.001476908   -0.000333515
     25        1           0.000284519    0.004834298    0.001804510
     26        1           0.000226632    0.000138479    0.000679073
     27        1          -0.005284397    0.004225183   -0.000353199
     28        1           0.004025077   -0.000348373   -0.000087932
     29        1           0.004566292   -0.000511393   -0.001586688
     30        1           0.001131519   -0.003363130   -0.000214805
     31        1           0.001357707    0.006194229   -0.005093984
     32        1           0.001165793   -0.000106271   -0.000658924
 -------------------------------------------------------------------
 Cartesian Forces:  Max     0.031959320 RMS     0.009193353
 Leave Link  716 at Thu Sep 30 06:07:37 2021, MaxMem= 1342177280 cpu:       0.0
 (Enter /sw/target/amd/app/gaussian/Gaussian09RevA.02_gcc-4.9.2/g09/l103.exe)

 GradGradGradGradGradGradGradGradGradGradGradGradGradGradGradGradGradGrad
 Berny optimization.
 Internal  Forces:  Max     0.022536060 RMS     0.005720670
 Search for a local minimum.
 Step number   1 out of a maximum of  168
 All quantities printed in internal units (Hartrees-Bohrs-Radians)
 RMS Force = .57207D-02 SwitMx=.10000D-02 MixMth= 1
 Mixed Optimization -- RFO/linear search
 Second derivative matrix not updated -- first step.
     Eigenvalues ---    0.00770   0.01020   0.01039   0.01283   0.01510
     Eigenvalues ---    0.01560   0.01702   0.01797   0.01845   0.01991
     Eigenvalues ---    0.02002   0.02009   0.02045   0.02056   0.02064
     Eigenvalues ---    0.02069   0.02073   0.02088   0.02095   0.02106
     Eigenvalues ---    0.02121   0.02164   0.02183   0.07262   0.07372
     Eigenvalues ---    0.07401   0.07480   0.07736   0.07773   0.16000
     Eigenvalues ---    0.16000   0.16000   0.16000   0.16000   0.16000
[...]
    13    C    1  dyz    Ryd( 3d)     0.00052
    14    C    1  dx2y2  Ryd( 3d)     0.00084
    15    C    1  dz2    Ryd( 3d)     0.00068

    16    C    2  S      Cor( 1S)     1.99904
    17    C    2  S      Val( 2S)     0.89361
    18    C    2  S      Ryd( 3S)     0.00048
    19    C    2  S      Ryd( 4S)     0.00006
    20    C    2  px     Val( 2p)     1.05848
    21    C    2  px     Ryd( 3p)     0.00459
    22    C    2  py     Val( 2p)     1.07619
    23    C    2  py     Ryd( 3p)     0.00415
    24    C    2  pz     Val( 2p)     0.91259
    25    C    2  pz     Ryd( 3p)     0.00212
    26    C    2  dxy    Ryd( 3d)     0.00084
    27    C    2  dxz    Ryd( 3d)     0.00063
    28    C    2  dyz    Ryd( 3d)     0.00080
    29    C    2  dx2y2  Ryd( 3d)     0.00071
    30    C    2  dz2    Ryd( 3d)     0.00044

    31    C    3  S      Cor( 1S)     1.99906
    32    C    3  S      Val( 2S)     0.94608
    33    C    3  S      Ryd( 3S)     0.00067
    34    C    3  S      Ryd( 4S)     0.00004
    35    C    3  px     Val( 2p)     1.12830
    36    C    3  px     Ryd( 3p)     0.00437
    37    C    3  py     Val( 2p)     1.11247
    38    C    3  py     Ryd( 3p)     0.00452
    39    C    3  pz     Val( 2p)     1.09863
    40    C    3  pz     Ryd( 3p)     0.00340
    41    C    3  dxy    Ryd( 3d)     0.00080
    42    C    3  dxz    Ryd( 3d)     0.00058
    43    C    3  dyz    Ryd( 3d)     0.00037
    44    C    3  dx2y2  Ryd( 3d)     0.00062
    45    C    3  dz2    Ryd( 3d)     0.00040

    46    C    4  S      Cor( 1S)     1.99907
    47    C    4  S      Val( 2S)     0.94617
    48    C    4  S      Ryd( 3S)     0.00067
    49    C    4  S      Ryd( 4S)     0.00004
    50    C    4  px     Val( 2p)     1.06924
    51    C    4  px     Ryd( 3p)     0.00426
    52    C    4  py     Val( 2p)     1.16335
    53    C    4  py     Ryd( 3p)     0.00467
    54    C    4  pz     Val( 2p)     1.01831
    55    C    4  pz     Ryd( 3p)     0.00294
    56    C    4  dxy    Ryd( 3d)     0.00074
    57    C    4  dxz    Ryd( 3d)     0.00075
    58    C    4  dyz    Ryd( 3d)     0.00034
    59    C    4  dx2y2  Ryd( 3d)     0.00072
    60    C    4  dz2    Ryd( 3d)     0.00041

    61    C    5  S      Cor( 1S)     1.99903
    62    C    5  S      Val( 2S)     0.87037
    63    C    5  S      Ryd( 3S)     0.00048
    64    C    5  S      Ryd( 4S)     0.00007
    65    C    5  px     Val( 2p)     1.08379
    66    C    5  px     Ryd( 3p)     0.00474
    67    C    5  py     Val( 2p)     1.07926
    68    C    5  py     Ryd( 3p)     0.00532
    69    C    5  pz     Val( 2p)     1.00171
    70    C    5  pz     Ryd( 3p)     0.00143
    71    C    5  dxy    Ryd( 3d)     0.00068
    72    C    5  dxz    Ryd( 3d)     0.00084
    73    C    5  dyz    Ryd( 3d)     0.00057
    74    C    5  dx2y2  Ryd( 3d)     0.00074
    75    C    5  dz2    Ryd( 3d)     0.00041

    76    C    6  S      Cor( 1S)     1.99903
    77    C    6  S      Val( 2S)     0.87080
    78    C    6  S      Ryd( 3S)     0.00047
    79    C    6  S      Ryd( 4S)     0.00006
    80    C    6  px     Val( 2p)     1.09167
    81    C    6  px     Ryd( 3p)     0.00475
    82    C    6  py     Val( 2p)     1.07541
    83    C    6  py     Ryd( 3p)     0.00538
    84    C    6  pz     Val( 2p)     0.99680
    85    C    6  pz     Ryd( 3p)     0.00146
    86    C    6  dxy    Ryd( 3d)     0.00070
    87    C    6  dxz    Ryd( 3d)     0.00081
    88    C    6  dyz    Ryd( 3d)     0.00056
    89    C    6  dx2y2  Ryd( 3d)     0.00073
    90    C    6  dz2    Ryd( 3d)     0.00041

    91    C    7  S      Cor( 1S)     1.99899
    92    C    7  S      Val( 2S)     0.94316
    93    C    7  S      Ryd( 3S)     0.00061
    94    C    7  S      Ryd( 4S)     0.00005
    95    C    7  px     Val( 2p)     1.05973
    96    C    7  px     Ryd( 3p)     0.00335
    97    C    7  py     Val( 2p)     1.17499
    98    C    7  py     Ryd( 3p)     0.00451
    99    C    7  pz     Val( 2p)     1.02786
   100    C    7  pz     Ryd( 3p)     0.00280
   101    C    7  dxy    Ryd( 3d)     0.00070
   102    C    7  dxz    Ryd( 3d)     0.00051
   103    C    7  dyz    Ryd( 3d)     0.00041
   104    C    7  dx2y2  Ryd( 3d)     0.00079
   105    C    7  dz2    Ryd( 3d)     0.00042

   106    C    8  S      Cor( 1S)     1.99908
   107    C    8  S      Val( 2S)     0.94668
   108    C    8  S      Ryd( 3S)     0.00065
   109    C    8  S      Ryd( 4S)     0.00005
   110    C    8  px     Val( 2p)     1.06472
   111    C    8  px     Ryd( 3p)     0.00422
   112    C    8  py     Val( 2p)     1.16441
   113    C    8  py     Ryd( 3p)     0.00459
   114    C    8  pz     Val( 2p)     1.01999
   115    C    8  pz     Ryd( 3p)     0.00286
   116    C    8  dxy    Ryd( 3d)     0.00073
   117    C    8  dxz    Ryd( 3d)     0.00076
   118    C    8  dyz    Ryd( 3d)     0.00036
   119    C    8  dx2y2  Ryd( 3d)     0.00072
   120    C    8  dz2    Ryd( 3d)     0.00041

   121    C    9  S      Cor( 1S)     1.99902
   122    C    9  S      Val( 2S)     0.95728
   123    C    9  S      Ryd( 3S)     0.00078
   124    C    9  S      Ryd( 4S)     0.00005
   125    C    9  px     Val( 2p)     1.13944
   126    C    9  px     Ryd( 3p)     0.00427
   127    C    9  py     Val( 2p)     1.11767
   128    C    9  py     Ryd( 3p)     0.00452
   129    C    9  pz     Val( 2p)     1.09511
   130    C    9  pz     Ryd( 3p)     0.00349
   131    C    9  dxy    Ryd( 3d)     0.00068
   132    C    9  dxz    Ryd( 3d)     0.00064
   133    C    9  dyz    Ryd( 3d)     0.00044
   134    C    9  dx2y2  Ryd( 3d)     0.00064
   135    C    9  dz2    Ryd( 3d)     0.00043

   136    C   10  S      Cor( 1S)     1.99871
   137    C   10  S      Val( 2S)     0.84501
   138    C   10  S      Ryd( 3S)     0.00139
   139    C   10  S      Ryd( 4S)     0.00012
   140    C   10  px     Val( 2p)     0.74900
   141    C   10  px     Ryd( 3p)     0.00619
   142    C   10  py     Val( 2p)     1.06376
   143    C   10  py     Ryd( 3p)     0.00615
   144    C   10  pz     Val( 2p)     0.95482
   145    C   10  pz     Ryd( 3p)     0.00230
   146    C   10  dxy    Ryd( 3d)     0.00151
   147    C   10  dxz    Ryd( 3d)     0.00136
   148    C   10  dyz    Ryd( 3d)     0.00105
   149    C   10  dx2y2  Ryd( 3d)     0.00158
   150    C   10  dz2    Ryd( 3d)     0.00066

   151    C   11  S      Cor( 1S)     1.99896
   152    C   11  S      Val( 2S)     0.95357
   153    C   11  S      Ryd( 3S)     0.00081
   154    C   11  S      Ryd( 4S)     0.00006
   155    C   11  px     Val( 2p)     1.06563
   156    C   11  px     Ryd( 3p)     0.00445
   157    C   11  py     Val( 2p)     1.17976
   158    C   11  py     Ryd( 3p)     0.00413
   159    C   11  pz     Val( 2p)     1.03862
   160    C   11  pz     Ryd( 3p)     0.00323
   161    C   11  dxy    Ryd( 3d)     0.00079
   162    C   11  dxz    Ryd( 3d)     0.00054
   163    C   11  dyz    Ryd( 3d)     0.00046
   164    C   11  dx2y2  Ryd( 3d)     0.00059
   165    C   11  dz2    Ryd( 3d)     0.00046

   166    O   12  S      Cor( 1S)     1.99969
   167    O   12  S      Val( 2S)     1.59651
   168    O   12  S      Ryd( 3S)     0.00089
   169    O   12  S      Ryd( 4S)     0.00012
   170    O   12  px     Val( 2p)     1.42163
   171    O   12  px     Ryd( 3p)     0.00075
   172    O   12  py     Val( 2p)     1.78434
   173    O   12  py     Ryd( 3p)     0.00207
   174    O   12  pz     Val( 2p)     1.72889
   175    O   12  pz     Ryd( 3p)     0.00128
   176    O   12  dxy    Ryd( 3d)     0.00101
   177    O   12  dxz    Ryd( 3d)     0.00073
   178    O   12  dyz    Ryd( 3d)     0.00116
   179    O   12  dx2y2  Ryd( 3d)     0.00107
   180    O   12  dz2    Ryd( 3d)     0.00118

   181    C   13  S      Cor( 1S)     1.99937
   182    C   13  S      Val( 2S)     0.69382
   183    C   13  S      Ryd( 3S)     0.00252
   184    C   13  S      Ryd( 4S)     0.00045
   185    C   13  px     Val( 2p)     0.76917
   186    C   13  px     Ryd( 3p)     0.00576
   187    C   13  py     Val( 2p)     0.76566
   188    C   13  py     Ryd( 3p)     0.01541
   189    C   13  pz     Val( 2p)     0.78649
   190    C   13  pz     Ryd( 3p)     0.00899
   191    C   13  dxy    Ryd( 3d)     0.00340
   192    C   13  dxz    Ryd( 3d)     0.00303
   193    C   13  dyz    Ryd( 3d)     0.00112
   194    C   13  dx2y2  Ryd( 3d)     0.00202
   195    C   13  dz2    Ryd( 3d)     0.00211

   196    O   14  S      Cor( 1S)     1.99978
   197    O   14  S      Val( 2S)     1.70451
   198    O   14  S      Ryd( 3S)     0.00044
   199    O   14  S      Ryd( 4S)     0.00012
   200    O   14  px     Val( 2p)     1.80195
   201    O   14  px     Ryd( 3p)     0.00089
   202    O   14  py     Val( 2p)     1.55682
   203    O   14  py     Ryd( 3p)     0.00056
   204    O   14  pz     Val( 2p)     1.55347
   205    O   14  pz     Ryd( 3p)     0.00073
   206    O   14  dxy    Ryd( 3d)     0.00336
   207    O   14  dxz    Ryd( 3d)     0.00189
   208    O   14  dyz    Ryd( 3d)     0.00434
   209    O   14  dx2y2  Ryd( 3d)     0.00332
   210    O   14  dz2    Ryd( 3d)     0.00346

   211    N   15  S      Cor( 1S)     1.99932
   212    N   15  S      Val( 2S)     1.20573
   213    N   15  S      Ryd( 3S)     0.00116
   214    N   15  S      Ryd( 4S)     0.00004
   215    N   15  px     Val( 2p)     1.29999
   216    N   15  px     Ryd( 3p)     0.00103
   217    N   15  py     Val( 2p)     1.42466
   218    N   15  py     Ryd( 3p)     0.00240
   219    N   15  pz     Val( 2p)     1.54129
   220    N   15  pz     Ryd( 3p)     0.00338
   221    N   15  dxy    Ryd( 3d)     0.00067
   222    N   15  dxz    Ryd( 3d)     0.00067
   223    N   15  dyz    Ryd( 3d)     0.00056
   224    N   15  dx2y2  Ryd( 3d)     0.00062
   225    N   15  dz2    Ryd( 3d)     0.00043

   226    C   16  S      Cor( 1S)     1.99947
   227    C   16  S      Val( 2S)     1.08704
   228    C   16  S      Ryd( 3S)     0.00092
   229    C   16  S      Ryd( 4S)     0.00002
   230    C   16  px     Val( 2p)     1.00287
   231    C   16  px     Ryd( 3p)     0.00227
   232    C   16  py     Val( 2p)     1.19029
   233    C   16  py     Ryd( 3p)     0.00237
   234    C   16  pz     Val( 2p)     1.17805
   235    C   16  pz     Ryd( 3p)     0.00167
   236    C   16  dxy    Ryd( 3d)     0.00114
   237    C   16  dxz    Ryd( 3d)     0.00151
   238    C   16  dyz    Ryd( 3d)     0.00098
   239    C   16  dx2y2  Ryd( 3d)     0.00061
   240    C   16  dz2    Ryd( 3d)     0.00040

   241    C   17  S      Cor( 1S)     1.99946
   242    C   17  S      Val( 2S)     1.08561
   243    C   17  S      Ryd( 3S)     0.00099
   244    C   17  S      Ryd( 4S)     0.00002
   245    C   17  px     Val( 2p)     1.25479
   246    C   17  px     Ryd( 3p)     0.00311
   247    C   17  py     Val( 2p)     0.99786
   248    C   17  py     Ryd( 3p)     0.00146
   249    C   17  pz     Val( 2p)     1.12206
   250    C   17  pz     Ryd( 3p)     0.00125
   251    C   17  dxy    Ryd( 3d)     0.00074
   252    C   17  dxz    Ryd( 3d)     0.00109
   253    C   17  dyz    Ryd( 3d)     0.00124
   254    C   17  dx2y2  Ryd( 3d)     0.00091
   255    C   17  dz2    Ryd( 3d)     0.00066

   256    H   18  S      Val( 1S)     0.74795
   257    H   18  S      Ryd( 2S)     0.00115

   258    H   19  S      Val( 1S)     0.76110
   259    H   19  S      Ryd( 2S)     0.00088

   260    H   20  S      Val( 1S)     0.74864
   261    H   20  S      Ryd( 2S)     0.00116

   262    H   21  S      Val( 1S)     0.77083
   263    H   21  S      Ryd( 2S)     0.00094

   264    H   22  S      Val( 1S)     0.76988
   265    H   22  S      Ryd( 2S)     0.00112

   266    H   23  S      Val( 1S)     0.77048
   267    H   23  S      Ryd( 2S)     0.00132

   268    H   24  S      Val( 1S)     0.76674
   269    H   24  S      Ryd( 2S)     0.00109

   270    H   25  S      Val( 1S)     0.74805
   271    H   25  S      Ryd( 2S)     0.00101

   272    H   26  S      Val( 1S)     0.75739
   273    H   26  S      Ryd( 2S)     0.00151

   274    H   27  S      Val( 1S)     0.73392
   275    H   27  S      Ryd( 2S)     0.00151

   276    H   28  S      Val( 1S)     0.77768
   277    H   28  S      Ryd( 2S)     0.00134

   278    H   29  S      Val( 1S)     0.77735
   279    H   29  S      Ryd( 2S)     0.00131

   280    H   30  S      Val( 1S)     0.74170
   281    H   30  S      Ryd( 2S)     0.00084

   282    H   31  S      Val( 1S)     0.77510
   283    H   31  S      Ryd( 2S)     0.00150

   284    H   32  S      Val( 1S)     0.77643
   285    H   32  S      Ryd( 2S)     0.00155

 WARNING:  1 low occupancy (<1.9990e) core orbital  found on  C    7
           1 low occupancy (<1.9990e) core orbital  found on  C   10
           1 low occupancy (<1.9990e) core orbital  found on  C   11


 Summary of Natural Population Analysis:                  
                                                          
                                       Natural Population 
                Natural  -----------------------------------------------
    Atom  No    Charge         Core      Valence    Rydberg      Total
 -----------------------------------------------------------------------
      C    1   -0.69506      1.99939     4.68819    0.00749     6.69506
      C    2    0.04526      1.99904     3.94088    0.01482     5.95474
      C    3   -0.30029      1.99906     4.28547    0.01576     6.30029
      C    4   -0.21168      1.99907     4.19708    0.01554     6.21168
      C    5   -0.04944      1.99903     4.03513    0.01527     6.04944
      C    6   -0.04905      1.99903     4.03469    0.01533     6.04905
      C    7   -0.21889      1.99899     4.20575    0.01415     6.21889
      C    8   -0.21023      1.99908     4.19581    0.01535     6.21023
      C    9   -0.32446      1.99902     4.30949    0.01595     6.32446
      C   10    0.36639      1.99871     3.61260    0.02230     5.63361
      C   11   -0.25206      1.99896     4.23758    0.01552     6.25206
      O   12   -0.54130      1.99969     6.53137    0.01025     8.54130
      C   13    0.94068      1.99937     3.01514    0.04481     5.05932
      O   14   -0.63562      1.99978     6.61674    0.01911     8.63562
      N   15   -0.48194      1.99932     5.47167    0.01095     7.48194
      C   16   -0.46960      1.99947     4.45824    0.01189     6.46960
      C   17   -0.47126      1.99946     4.46032    0.01148     6.47126
      H   18    0.25091      0.00000     0.74795    0.00115     0.74909
      H   19    0.23802      0.00000     0.76110    0.00088     0.76198
      H   20    0.25020      0.00000     0.74864    0.00116     0.74980
      H   21    0.22823      0.00000     0.77083    0.00094     0.77177
      H   22    0.22900      0.00000     0.76988    0.00112     0.77100
      H   23    0.22819      0.00000     0.77048    0.00132     0.77181
      H   24    0.23218      0.00000     0.76674    0.00109     0.76782
      H   25    0.25093      0.00000     0.74805    0.00101     0.74907
      H   26    0.24110      0.00000     0.75739    0.00151     0.75890
      H   27    0.26457      0.00000     0.73392    0.00151     0.73543
      H   28    0.22098      0.00000     0.77768    0.00134     0.77902
      H   29    0.22134      0.00000     0.77735    0.00131     0.77866
      H   30    0.25746      0.00000     0.74170    0.00084     0.74254
      H   31    0.22340      0.00000     0.77510    0.00150     0.77660
      H   32    0.22202      0.00000     0.77643    0.00155     0.77798
 =======================================================================
   * Total *   -0.00000     33.98646    87.71936    0.29418   122.00000

                                 Natural Population      
 --------------------------------------------------------
   Core                      33.98646 ( 99.9602% of  34)
   Valence                   87.71936 ( 99.6811% of  88)
   Natural Minimal Basis    121.70582 ( 99.7589% of 122)
   Natural Rydberg Basis      0.29418 (  0.2411% of 122)
 --------------------------------------------------------

    Atom  No          Natural Electron Configuration
 ----------------------------------------------------------------------------
      C    1      [core]2S( 1.10)2p( 3.59)
      C    2      [core]2S( 0.89)2p( 3.05)3p( 0.01)
      C    3      [core]2S( 0.95)2p( 3.34)3p( 0.01)
      C    4      [core]2S( 0.95)2p( 3.25)3p( 0.01)
      C    5      [core]2S( 0.87)2p( 3.16)3p( 0.01)
      C    6      [core]2S( 0.87)2p( 3.16)3p( 0.01)
      C    7      [core]2S( 0.94)2p( 3.26)3p( 0.01)
      C    8      [core]2S( 0.95)2p( 3.25)3p( 0.01)
      C    9      [core]2S( 0.96)2p( 3.35)3p( 0.01)
      C   10      [core]2S( 0.85)2p( 2.77)3p( 0.01)3d( 0.01)
      C   11      [core]2S( 0.95)2p( 3.28)3p( 0.01)
      O   12      [core]2S( 1.60)2p( 4.93)3d( 0.01)
      C   13      [core]2S( 0.69)2p( 2.32)3p( 0.03)3d( 0.01)
      O   14      [core]2S( 1.70)2p( 4.91)3d( 0.02)
      N   15      [core]2S( 1.21)2p( 4.27)3p( 0.01)
      C   16      [core]2S( 1.09)2p( 3.37)3p( 0.01)
      C   17      [core]2S( 1.09)2p( 3.37)3p( 0.01)
      H   18            1S( 0.75)
      H   19            1S( 0.76)
      H   20            1S( 0.75)
      H   21            1S( 0.77)
      H   22            1S( 0.77)
      H   23            1S( 0.77)
      H   24            1S( 0.77)
      H   25            1S( 0.75)
      H   26            1S( 0.76)
      H   27            1S( 0.73)
      H   28            1S( 0.78)
      H   29            1S( 0.78)
      H   30            1S( 0.74)
      H   31            1S( 0.78)
      H   32            1S( 0.78)


 NBO analysis skipped by request.
 Leave Link  607 at Thu Sep 30 19:06:21 2021, MaxMem= 1342177280 cpu:      21.4
 (Enter /sw/target/amd/app/gaussian/Gaussian09RevA.02_gcc-4.9.2/g09/l9999.exe)
 1\1\GINC-HERMITE\SP\RTD-B3LYP-FC\6-31G(d)\C14H15N1O2\JSCHLEINITZ\30-Se
 p-2021\0\\#p TD(NStates=10, Root=1) b3lyp/6-31G* volume pop=NPA densit
 y=current Geom=AllCheck Guess=Read\\Cc1ccc2c(c1)ccc(c2)OC(=O)N(C)C_con
 f_0\\0,1\C,0,-4.1677180976,-0.7542219357,0.143567701\C,0,-2.7247899628
 ,-0.3484471045,-0.0379035864\C,0,-2.3640394787,1.0279241828,0.01099901
 49\C,0,-1.0603022083,1.4328362391,-0.1493365341\C,0,-0.0241714577,0.48
 50176642,-0.3688402717\C,0,-0.371414053,-0.9023465516,-0.4208840314\C,
 0,-1.7303007836,-1.2803863706,-0.2515379447\C,0,0.660695154,-1.8528456
 119,-0.6443183108\C,0,1.9704285273,-1.4663034165,-0.8092880034\C,0,2.2
 972770431,-0.0907396112,-0.7464399318\C,0,1.3326310356,0.8647118762,-0
 .5339285824\O,0,3.5891019437,0.3647907478,-1.0015953578\C,0,4.64996303
 13,-0.2005896691,-0.3261933873\O,0,4.5307676821,-1.0692865739,0.516927
 274\N,0,5.8311836753,0.3488439319,-0.7348100792\C,0,7.0635140511,-0.11
 41641962,-0.1171648475\C,0,5.9616268366,1.3991048553,-1.7327327811\H,0
 ,-4.5509297858,-0.4395347124,1.1227974317\H,0,-4.2906396415,-1.8391785
 176,0.0694093986\H,0,-4.8119215864,-0.2909681371,-0.6147809537\H,0,-3.
 1415512065,1.7701419583,0.1791110302\H,0,-0.8052903787,2.4893138998,-0
 .1081418157\H,0,-1.981106639,-2.3387119665,-0.293123532\H,0,0.40117784
 33,-2.9078631503,-0.6864552555\H,0,2.7531738202,-2.1965403646,-0.97116
 73806\H,0,1.6153172885,1.9128039418,-0.4980031345\H,0,6.8252756985,-0.
 8992522917,0.5986620432\H,0,7.5673543816,0.7119364323,0.4023578361\H,0
 ,7.7474826935,-0.5092710458,-0.8798641008\H,0,4.9848987721,1.668280004
 3,-2.1265806893\H,0,6.5987956977,1.0585632837,-2.5599970548\H,0,6.4274
 914815,2.2898565933,-1.2894786253\\Version=AM64L-G09RevA.02\State=1-A\
 HF=-747.7565623\RMSD=6.300e-09\Dipole=0.5426344,0.6153659,-0.5980298\Q
 uadrupole=13.3834149,-3.2549763,-10.1284386,6.3937414,-5.2323214,0.975
 9517\PG=C01 [X(C14H15N1O2)]\\@


 MEMORIES ARE LIKE AN ENGLISH GRAMMER LESSON -
 PRESENT TENSE, AND PAST PERFECT.
 Job cpu time:  0 days  4 hours 34 minutes 10.5 seconds.
 File lengths (MBytes):  RWF=    268 Int=      0 D2E=      0 Chk=     37 Scr=      1
 Normal termination of Gaussian 09 at Thu Sep 30 19:06:31 2021.
