 Entering Gaussian System, Link 0=g09
 Input=C14H21NO_f080_conf_0.com
 Output=C14H21NO_f080_conf_0.log
 Initial command:
 /sw/target/amd/app/gaussian/Gaussian09RevA.02_gcc-4.9.2/g09/l1.exe /home/jschleinitz/gaussian/Gau-2507269.inp -scrdir=/home/jschleinitz/gaussian/
 Entering Link 1 = /sw/target/amd/app/gaussian/Gaussian09RevA.02_gcc-4.9.2/g09/l1.exe PID=   2507271.
  
 Copyright (c) 1988,1990,1992,1993,1995,1998,2003,2009, Gaussian, Inc.
                  All Rights Reserved.
  
 This is part of the Gaussian(R) 09 program.  It is based on
 the Gaussian(R) 03 system (copyright 2003, Gaussian, Inc.),
 the Gaussian(R) 98 system (copyright 1998, Gaussian, Inc.),
 the Gaussian(R) 94 system (copyright 1995, Gaussian, Inc.),
 the Gaussian 92(TM) system (copyright 1992, Gaussian, Inc.),
 the Gaussian 90(TM) system (copyright 1990, Gaussian, Inc.),
 the Gaussian 88(TM) system (copyright 1988, Gaussian, Inc.),
 the Gaussian 86(TM) system (copyright 1986, Carnegie Mellon
 University), and the Gaussian 82(TM) system (copyright 1983,
 Carnegie Mellon University). Gaussian is a federally registered
 trademark of Gaussian, Inc.
  
 This software contains proprietary and confidential information,
 including trade secrets, belonging to Gaussian, Inc.
  
 This software is provided under written license and may be
 used, copied, transmitted, or stored only in accord with that
 written license.
  
 The following legend is applicable only to US Government
 contracts under FAR:
  
                    RESTRICTED RIGHTS LEGEND
  
 Use, reproduction and disclosure by the US Government is
 subject to restrictions as set forth in subparagraphs (a)
 and (c) of the Commercial Computer Software - Restricted
 Rights clause in FAR 52.227-19.
  
 Gaussian, Inc.
 340 Quinnipiac St., Bldg. 40, Wallingford CT 06492
  
  
 ---------------------------------------------------------------
 Warning -- This program may not be used in any manner that
 competes with the business of Gaussian, Inc. or will provide
 assistance to any competitor of Gaussian, Inc.  The licensee
 of this program is prohibited from giving any competitor of
 Gaussian, Inc. access to this program.  By using this program,
 the user acknowledges that Gaussian, Inc. is engaged in the
 business of creating and licensing software in the field of
 computational chemistry and represents and warrants to the
 licensee that it is not a competitor of Gaussian, Inc. and that
 it will not use this program in any manner prohibited above.
 ---------------------------------------------------------------
  

 Cite this work as:
 Gaussian 09, Revision A.02,
 M. J. Frisch, G. W. Trucks, H. B. Schlegel, G. E. Scuseria, 
 M. A. Robb, J. R. Cheeseman, G. Scalmani, V. Barone, B. Mennucci, 
 G. A. Petersson, H. Nakatsuji, M. Caricato, X. Li, H. P. Hratchian, 
 A. F. Izmaylov, J. Bloino, G. Zheng, J. L. Sonnenberg, M. Hada, 
 M. Ehara, K. Toyota, R. Fukuda, J. Hasegawa, M. Ishida, T. Nakajima, 
 Y. Honda, O. Kitao, H. Nakai, T. Vreven, J. A. Montgomery, Jr., 
 J. E. Peralta, F. Ogliaro, M. Bearpark, J. J. Heyd, E. Brothers, 
 K. N. Kudin, V. N. Staroverov, R. Kobayashi, J. Normand, 
 K. Raghavachari, A. Rendell, J. C. Burant, S. S. Iyengar, J. Tomasi, 
 M. Cossi, N. Rega, J. M. Millam, M. Klene, J. E. Knox, J. B. Cross, 
 V. Bakken, C. Adamo, J. Jaramillo, R. Gomperts, R. E. Stratmann, 
 O. Yazyev, A. J. Austin, R. Cammi, C. Pomelli, J. W. Ochterski, 
 R. L. Martin, K. Morokuma, V. G. Zakrzewski, G. A. Voth, 
 P. Salvador, J. J. Dannenberg, S. Dapprich, A. D. Daniels, 
 O. Farkas, J. B. Foresman, J. V. Ortiz, J. Cioslowski, 
 and D. J. Fox, Gaussian, Inc., Wallingford CT, 2009.
 
 ******************************************
 Gaussian 09:  AM64L-G09RevA.02 11-Jun-2009
                30-Sep-2021 
 ******************************************
 %nproc=6
 Will use up to    6 processors via shared memory.
 %mem=12gb
 %chk=C14H21NO_f080_conf_0.chk
 -----------------------------------
 #p opt b3lyp/6-31G* scf=(xqc,tight)
 -----------------------------------
 1/14=-1,18=20,19=15,26=3,38=1/1,3;
 2/9=110,12=2,17=6,18=5,40=1/2;
 3/5=1,6=6,7=1,11=2,16=1,25=1,30=1,71=1,74=-5/1,2,3;
 4//1;
 5/5=2,8=3,13=1,32=2,38=5/2,8;
 6/7=2,8=2,9=2,10=2,28=1/1;
 7//1,2,3,16;
 1/14=-1,18=20,19=15/3(2);
 2/9=110/2;
 99//99;
 2/9=110/2;
 3/5=1,6=6,7=1,11=2,16=1,25=1,30=1,71=1,74=-5/1,2,3;
 4/5=5,16=3/1;
 5/5=2,8=3,13=1,32=2,38=5/2,8;
 7//1,2,3,16;
 1/14=-1,18=20,19=15/3(-5);
 2/9=110/2;
 6/7=2,8=2,9=2,10=2,19=2,28=1/1;
 99/9=1/99;
 Leave Link    1 at Thu Sep 30 08:48:44 2021, MaxMem= 1610612736 cpu:       0.1
 (Enter /sw/target/amd/app/gaussian/Gaussian09RevA.02_gcc-4.9.2/g09/l101.exe)
 -------------------------------
 CN(CCOc1ccc2c(c1)CCCC2)C_conf_0
 -------------------------------
 Symbolic Z-matrix:
 Charge =  0 Multiplicity = 1
 C                     5.96042  -0.74786  -2.65842 
 N                     5.18016   0.17883  -3.48073 
 C                     3.86764  -0.38253  -3.86678 
 C                     3.95145  -1.66039  -4.71893 
 O                     2.62964  -2.06442  -5.0959 
 C                     2.53716  -3.21753  -5.83149 
 C                     3.61152  -3.96209  -6.31785 
 C                     3.38563  -5.12224  -7.06066 
 C                     2.08319  -5.56606  -7.32223 
 C                     0.99339  -4.81504  -6.84903 
 C                     1.23534  -3.64996  -6.10132 
 C                    -0.42999  -5.26972  -7.06457 
 C                    -0.57728  -6.36243  -8.1246 
 C                     0.50212  -7.42557  -7.96507 
 C                     1.88254  -6.8046   -8.15788 
 C                     4.98895   1.43929  -2.75678 
 H                     6.24441  -1.63758  -3.22876 
 H                     5.41646  -1.06357  -1.76126 
 H                     6.90313  -0.28486  -2.34374 
 H                     3.31866   0.36483  -4.45411 
 H                     3.24793  -0.58025  -2.98112 
 H                     4.41334  -2.46448  -4.13519 
 H                     4.54678  -1.45119  -5.61571 
 H                     4.64027  -3.66836  -6.14087 
 H                     4.23849  -5.68278  -7.43637 
 H                     0.39801  -3.07005  -5.71647 
 H                    -1.05341  -4.41455  -7.353 
 H                    -0.8109   -5.64858  -6.10727 
 H                    -0.50551  -5.91913  -9.12599 
 H                    -1.57127  -6.81767  -8.04825 
 H                     0.3539   -8.22748  -8.69634 
 H                     0.42996  -7.87877  -6.96833 
 H                     2.01736  -6.52995  -9.21197 
 H                     2.64474  -7.55311  -7.91103 
 H                     5.95404   1.87913  -2.48437 
 H                     4.40287   1.3025   -1.83919 
 H                     4.4776    2.17371  -3.38844 
 
 NAtoms=     37 NQM=     37 NQMF=      0 NMic=      0 NMicF=      0 NTot=     37.
                    Isotopes and Nuclear Properties:
 (Nuclear quadrupole moments (NQMom) in fm**2, nuclear magnetic moments (NMagM)
  in nuclear magnetons)

  Atom         1           2           3           4           5           6           7           8           9          10
 IAtWgt=          12          14          12          12          16          12          12          12          12          12
 AtmWgt=  12.0000000  14.0030740  12.0000000  12.0000000  15.9949146  12.0000000  12.0000000  12.0000000  12.0000000  12.0000000
 NucSpn=           0           2           0           0           0           0           0           0           0           0
 AtZEff=   0.0000000   0.0000000   0.0000000   0.0000000   0.0000000   0.0000000   0.0000000   0.0000000   0.0000000   0.0000000
 NQMom=    0.0000000   2.0440000   0.0000000   0.0000000   0.0000000   0.0000000   0.0000000   0.0000000   0.0000000   0.0000000
 NMagM=    0.0000000   0.4037610   0.0000000   0.0000000   0.0000000   0.0000000   0.0000000   0.0000000   0.0000000   0.0000000

  Atom        11          12          13          14          15          16          17          18          19          20
 IAtWgt=          12          12          12          12          12          12           1           1           1           1
 AtmWgt=  12.0000000  12.0000000  12.0000000  12.0000000  12.0000000  12.0000000   1.0078250   1.0078250   1.0078250   1.0078250
 NucSpn=           0           0           0           0           0           0           1           1           1           1
 AtZEff=   0.0000000   0.0000000   0.0000000   0.0000000   0.0000000   0.0000000   0.0000000   0.0000000   0.0000000   0.0000000
 NQMom=    0.0000000   0.0000000   0.0000000   0.0000000   0.0000000   0.0000000   0.0000000   0.0000000   0.0000000   0.0000000
 NMagM=    0.0000000   0.0000000   0.0000000   0.0000000   0.0000000   0.0000000   2.7928460   2.7928460   2.7928460   2.7928460

  Atom        21          22          23          24          25          26          27          28          29          30
 IAtWgt=           1           1           1           1           1           1           1           1           1           1
 AtmWgt=   1.0078250   1.0078250   1.0078250   1.0078250   1.0078250   1.0078250   1.0078250   1.0078250   1.0078250   1.0078250
 NucSpn=           1           1           1           1           1           1           1           1           1           1
 AtZEff=   0.0000000   0.0000000   0.0000000   0.0000000   0.0000000   0.0000000   0.0000000   0.0000000   0.0000000   0.0000000
 NQMom=    0.0000000   0.0000000   0.0000000   0.0000000   0.0000000   0.0000000   0.0000000   0.0000000   0.0000000   0.0000000
 NMagM=    2.7928460   2.7928460   2.7928460   2.7928460   2.7928460   2.7928460   2.7928460   2.7928460   2.7928460   2.7928460

  Atom        31          32          33          34          35          36          37
 IAtWgt=           1           1           1           1           1           1           1
 AtmWgt=   1.0078250   1.0078250   1.0078250   1.0078250   1.0078250   1.0078250   1.0078250
 NucSpn=           1           1           1           1           1           1           1
 AtZEff=   0.0000000   0.0000000   0.0000000   0.0000000   0.0000000   0.0000000   0.0000000
 NQMom=    0.0000000   0.0000000   0.0000000   0.0000000   0.0000000   0.0000000   0.0000000
 NMagM=    2.7928460   2.7928460   2.7928460   2.7928460   2.7928460   2.7928460   2.7928460
 Leave Link  101 at Thu Sep 30 08:48:45 2021, MaxMem= 1610612736 cpu:       0.2
 (Enter /sw/target/amd/app/gaussian/Gaussian09RevA.02_gcc-4.9.2/g09/l103.exe)

 GradGradGradGradGradGradGradGradGradGradGradGradGradGradGradGradGradGrad
 Berny optimization.
 Initialization pass.
                           ----------------------------
                           !    Initial Parameters    !
                           ! (Angstroms and Degrees)  !
 --------------------------                            --------------------------
 ! Name  Definition              Value          Derivative Info.                !
 --------------------------------------------------------------------------------
 ! R1    R(1,2)                  1.4642         estimate D2E/DX2                !
 ! R2    R(1,17)                 1.0943         estimate D2E/DX2                !
 ! R3    R(1,18)                 1.0957         estimate D2E/DX2                !
 ! R4    R(1,19)                 1.0964         estimate D2E/DX2                !
 ! R5    R(2,3)                  1.4788         estimate D2E/DX2                !
 ! R6    R(2,16)                 1.4661         estimate D2E/DX2                !
 ! R7    R(3,4)                  1.5382         estimate D2E/DX2                !
 ! R8    R(3,20)                 1.0977         estimate D2E/DX2                !
 ! R9    R(3,21)                 1.0989         estimate D2E/DX2                !
 ! R10   R(4,5)                  1.4327         estimate D2E/DX2                !
 ! R11   R(4,22)                 1.0958         estimate D2E/DX2                !
 ! R12   R(4,23)                 1.0965         estimate D2E/DX2                !
 ! R13   R(5,6)                  1.3709         estimate D2E/DX2                !
 ! R14   R(6,7)                  1.3947         estimate D2E/DX2                !
 ! R15   R(6,11)                 1.398          estimate D2E/DX2                !
 ! R16   R(7,8)                  1.396          estimate D2E/DX2                !
 ! R17   R(7,24)                 1.0844         estimate D2E/DX2                !
 ! R18   R(8,9)                  1.4006         estimate D2E/DX2                !
 ! R19   R(8,25)                 1.0875         estimate D2E/DX2                !
 ! R20   R(9,10)                 1.4056         estimate D2E/DX2                !
 ! R21   R(9,15)                 1.5075         estimate D2E/DX2                !
 ! R22   R(10,11)                1.4054         estimate D2E/DX2                !
 ! R23   R(10,12)                1.5097         estimate D2E/DX2                !
 ! R24   R(11,26)                1.0888         estimate D2E/DX2                !
 ! R25   R(12,13)                1.5295         estimate D2E/DX2                !
 ! R26   R(12,27)                1.0969         estimate D2E/DX2                !
 ! R27   R(12,28)                1.0977         estimate D2E/DX2                !
 ! R28   R(13,14)                1.5234         estimate D2E/DX2                !
 ! R29   R(13,29)                1.0975         estimate D2E/DX2                !
 ! R30   R(13,30)                1.0959         estimate D2E/DX2                !
 ! R31   R(14,15)                1.5259         estimate D2E/DX2                !
 ! R32   R(14,31)                1.0953         estimate D2E/DX2                !
 ! R33   R(14,32)                1.0973         estimate D2E/DX2                !
 ! R34   R(15,33)                1.0976         estimate D2E/DX2                !
 ! R35   R(15,34)                1.0964         estimate D2E/DX2                !
 ! R36   R(16,35)                1.095          estimate D2E/DX2                !
 ! R37   R(16,36)                1.0973         estimate D2E/DX2                !
 ! R38   R(16,37)                1.0954         estimate D2E/DX2                !
 ! A1    A(2,1,17)             111.1106         estimate D2E/DX2                !
 ! A2    A(2,1,18)             112.1901         estimate D2E/DX2                !
 ! A3    A(2,1,19)             110.6171         estimate D2E/DX2                !
 ! A4    A(17,1,18)            108.7433         estimate D2E/DX2                !
 ! A5    A(17,1,19)            105.6513         estimate D2E/DX2                !
 ! A6    A(18,1,19)            108.2732         estimate D2E/DX2                !
 ! A7    A(1,2,3)              112.2928         estimate D2E/DX2                !
 ! A8    A(1,2,16)             109.6529         estimate D2E/DX2                !
 ! A9    A(3,2,16)             109.8472         estimate D2E/DX2                !
 ! A10   A(2,3,4)              114.3065         estimate D2E/DX2                !
 ! A11   A(2,3,20)             108.9733         estimate D2E/DX2                !
 ! A12   A(2,3,21)             111.0043         estimate D2E/DX2                !
 ! A13   A(4,3,20)             107.2438         estimate D2E/DX2                !
 ! A14   A(4,3,21)             109.132          estimate D2E/DX2                !
 ! A15   A(20,3,21)            105.7657         estimate D2E/DX2                !
 ! A16   A(3,4,5)              109.2554         estimate D2E/DX2                !
 ! A17   A(3,4,22)             109.722          estimate D2E/DX2                !
 ! A18   A(3,4,23)             108.9142         estimate D2E/DX2                !
 ! A19   A(5,4,22)             108.7919         estimate D2E/DX2                !
 ! A20   A(5,4,23)             109.8484         estimate D2E/DX2                !
 ! A21   A(22,4,23)            110.2937         estimate D2E/DX2                !
 ! A22   A(4,5,6)              116.1451         estimate D2E/DX2                !
 ! A23   A(5,6,7)              125.7465         estimate D2E/DX2                !
 ! A24   A(5,6,11)             115.2493         estimate D2E/DX2                !
 ! A25   A(7,6,11)             119.0038         estimate D2E/DX2                !
 ! A26   A(6,7,8)              120.3036         estimate D2E/DX2                !
 ! A27   A(6,7,24)             121.9565         estimate D2E/DX2                !
 ! A28   A(8,7,24)             117.7396         estimate D2E/DX2                !
 ! A29   A(7,8,9)              120.8763         estimate D2E/DX2                !
 ! A30   A(7,8,25)             119.0311         estimate D2E/DX2                !
 ! A31   A(9,8,25)             120.0926         estimate D2E/DX2                !
 ! A32   A(8,9,10)             119.2623         estimate D2E/DX2                !
 ! A33   A(8,9,15)             119.1855         estimate D2E/DX2                !
 ! A34   A(10,9,15)            121.4939         estimate D2E/DX2                !
 ! A35   A(9,10,11)            119.2484         estimate D2E/DX2                !
 ! A36   A(9,10,12)            121.4681         estimate D2E/DX2                !
 ! A37   A(11,10,12)           119.2068         estimate D2E/DX2                !
 ! A38   A(6,11,10)            121.294          estimate D2E/DX2                !
 ! A39   A(6,11,26)            118.8905         estimate D2E/DX2                !
 ! A40   A(10,11,26)           119.8147         estimate D2E/DX2                !
 ! A41   A(10,12,13)           113.8853         estimate D2E/DX2                !
 ! A42   A(10,12,27)           109.7912         estimate D2E/DX2                !
 ! A43   A(10,12,28)           107.8534         estimate D2E/DX2                !
 ! A44   A(13,12,27)           108.6642         estimate D2E/DX2                !
 ! A45   A(13,12,28)           108.93           estimate D2E/DX2                !
 ! A46   A(27,12,28)           107.5273         estimate D2E/DX2                !
 ! A47   A(12,13,14)           110.9633         estimate D2E/DX2                !
 ! A48   A(12,13,29)           109.7249         estimate D2E/DX2                !
 ! A49   A(12,13,30)           109.6227         estimate D2E/DX2                !
 ! A50   A(14,13,29)           109.3357         estimate D2E/DX2                !
 ! A51   A(14,13,30)           110.2088         estimate D2E/DX2                !
 ! A52   A(29,13,30)           106.8971         estimate D2E/DX2                !
 ! A53   A(13,14,15)           110.1055         estimate D2E/DX2                !
 ! A54   A(13,14,31)           110.1892         estimate D2E/DX2                !
 ! A55   A(13,14,32)           109.6787         estimate D2E/DX2                !
 ! A56   A(15,14,31)           109.6334         estimate D2E/DX2                !
 ! A57   A(15,14,32)           110.0199         estimate D2E/DX2                !
 ! A58   A(31,14,32)           107.1675         estimate D2E/DX2                !
 ! A59   A(9,15,14)            112.6267         estimate D2E/DX2                !
 ! A60   A(9,15,33)            108.0852         estimate D2E/DX2                !
 ! A61   A(9,15,34)            110.0933         estimate D2E/DX2                !
 ! A62   A(14,15,33)           109.5299         estimate D2E/DX2                !
 ! A63   A(14,15,34)           108.8216         estimate D2E/DX2                !
 ! A64   A(33,15,34)           107.5567         estimate D2E/DX2                !
 ! A65   A(2,16,35)            110.6851         estimate D2E/DX2                !
 ! A66   A(2,16,36)            112.049          estimate D2E/DX2                !
 ! A67   A(2,16,37)            110.6445         estimate D2E/DX2                !
 ! A68   A(35,16,36)           108.2256         estimate D2E/DX2                !
 ! A69   A(35,16,37)           106.5934         estimate D2E/DX2                !
 ! A70   A(36,16,37)           108.4483         estimate D2E/DX2                !
 ! D1    D(17,1,2,3)            66.0072         estimate D2E/DX2                !
 ! D2    D(17,1,2,16)         -171.5776         estimate D2E/DX2                !
 ! D3    D(18,1,2,3)           -55.9629         estimate D2E/DX2                !
 ! D4    D(18,1,2,16)           66.4524         estimate D2E/DX2                !
 ! D5    D(19,1,2,3)          -176.9775         estimate D2E/DX2                !
 ! D6    D(19,1,2,16)          -54.5622         estimate D2E/DX2                !
 ! D7    D(1,2,3,4)            -61.695          estimate D2E/DX2                !
 ! D8    D(1,2,3,20)           178.3553         estimate D2E/DX2                !
 ! D9    D(1,2,3,21)            62.2663         estimate D2E/DX2                !
 ! D10   D(16,2,3,4)           175.9999         estimate D2E/DX2                !
 ! D11   D(16,2,3,20)           56.0502         estimate D2E/DX2                !
 ! D12   D(16,2,3,21)          -60.0388         estimate D2E/DX2                !
 ! D13   D(1,2,16,35)           57.4549         estimate D2E/DX2                !
 ! D14   D(1,2,16,36)          -63.45           estimate D2E/DX2                !
 ! D15   D(1,2,16,37)          175.3891         estimate D2E/DX2                !
 ! D16   D(3,2,16,35)         -178.6864         estimate D2E/DX2                !
 ! D17   D(3,2,16,36)           60.4087         estimate D2E/DX2                !
 ! D18   D(3,2,16,37)          -60.7522         estimate D2E/DX2                !
 ! D19   D(2,3,4,5)           -176.6214         estimate D2E/DX2                !
 ! D20   D(2,3,4,22)            64.1883         estimate D2E/DX2                !
 ! D21   D(2,3,4,23)           -56.6295         estimate D2E/DX2                !
 ! D22   D(20,3,4,5)           -55.7089         estimate D2E/DX2                !
 ! D23   D(20,3,4,22)         -174.8991         estimate D2E/DX2                !
 ! D24   D(20,3,4,23)           64.283          estimate D2E/DX2                !
 ! D25   D(21,3,4,5)            58.4205         estimate D2E/DX2                !
 ! D26   D(21,3,4,22)          -60.7697         estimate D2E/DX2                !
 ! D27   D(21,3,4,23)          178.4124         estimate D2E/DX2                !
 ! D28   D(3,4,5,6)           -178.1964         estimate D2E/DX2                !
 ! D29   D(22,4,5,6)           -58.4313         estimate D2E/DX2                !
 ! D30   D(23,4,5,6)            62.3878         estimate D2E/DX2                !
 ! D31   D(4,5,6,7)             -4.9679         estimate D2E/DX2                !
 ! D32   D(4,5,6,11)           175.2873         estimate D2E/DX2                !
 ! D33   D(5,6,7,8)           -179.8378         estimate D2E/DX2                !
 ! D34   D(5,6,7,24)            -0.0165         estimate D2E/DX2                !
 ! D35   D(11,6,7,8)            -0.1017         estimate D2E/DX2                !
 ! D36   D(11,6,7,24)          179.7196         estimate D2E/DX2                !
 ! D37   D(5,6,11,10)          179.7915         estimate D2E/DX2                !
 ! D38   D(5,6,11,26)           -0.5423         estimate D2E/DX2                !
 ! D39   D(7,6,11,10)            0.0283         estimate D2E/DX2                !
 ! D40   D(7,6,11,26)          179.6945         estimate D2E/DX2                !
 ! D41   D(6,7,8,9)             -0.5207         estimate D2E/DX2                !
 ! D42   D(6,7,8,25)           179.5327         estimate D2E/DX2                !
 ! D43   D(24,7,8,9)           179.6506         estimate D2E/DX2                !
 ! D44   D(24,7,8,25)           -0.296          estimate D2E/DX2                !
 ! D45   D(7,8,9,10)             1.203          estimate D2E/DX2                !
 ! D46   D(7,8,9,15)           178.4661         estimate D2E/DX2                !
 ! D47   D(25,8,9,10)         -178.8509         estimate D2E/DX2                !
 ! D48   D(25,8,9,15)           -1.5878         estimate D2E/DX2                !
 ! D49   D(8,9,10,11)           -1.2557         estimate D2E/DX2                !
 ! D50   D(8,9,10,12)         -178.0451         estimate D2E/DX2                !
 ! D51   D(15,9,10,11)        -178.4534         estimate D2E/DX2                !
 ! D52   D(15,9,10,12)           4.7572         estimate D2E/DX2                !
 ! D53   D(8,9,15,14)          160.3666         estimate D2E/DX2                !
 ! D54   D(8,9,15,33)          -78.4948         estimate D2E/DX2                !
 ! D55   D(8,9,15,34)           38.7217         estimate D2E/DX2                !
 ! D56   D(10,9,15,14)         -22.4336         estimate D2E/DX2                !
 ! D57   D(10,9,15,33)          98.7051         estimate D2E/DX2                !
 ! D58   D(10,9,15,34)        -144.0784         estimate D2E/DX2                !
 ! D59   D(9,10,11,6)            0.6561         estimate D2E/DX2                !
 ! D60   D(9,10,11,26)        -179.007          estimate D2E/DX2                !
 ! D61   D(12,10,11,6)         177.5189         estimate D2E/DX2                !
 ! D62   D(12,10,11,26)         -2.1443         estimate D2E/DX2                !
 ! D63   D(9,10,12,13)         -15.4338         estimate D2E/DX2                !
 ! D64   D(9,10,12,27)        -137.5284         estimate D2E/DX2                !
 ! D65   D(9,10,12,28)         105.5891         estimate D2E/DX2                !
 ! D66   D(11,10,12,13)        167.7755         estimate D2E/DX2                !
 ! D67   D(11,10,12,27)         45.6809         estimate D2E/DX2                !
 ! D68   D(11,10,12,28)        -71.2016         estimate D2E/DX2                !
 ! D69   D(10,12,13,14)         43.6653         estimate D2E/DX2                !
 ! D70   D(10,12,13,29)        -77.2681         estimate D2E/DX2                !
 ! D71   D(10,12,13,30)        165.6258         estimate D2E/DX2                !
 ! D72   D(27,12,13,14)        166.3791         estimate D2E/DX2                !
 ! D73   D(27,12,13,29)         45.4458         estimate D2E/DX2                !
 ! D74   D(27,12,13,30)        -71.6604         estimate D2E/DX2                !
 ! D75   D(28,12,13,14)        -76.7553         estimate D2E/DX2                !
 ! D76   D(28,12,13,29)        162.3113         estimate D2E/DX2                !
 ! D77   D(28,12,13,30)         45.2052         estimate D2E/DX2                !
 ! D78   D(12,13,14,15)        -61.8823         estimate D2E/DX2                !
 ! D79   D(12,13,14,31)        177.0646         estimate D2E/DX2                !
 ! D80   D(12,13,14,32)         59.3218         estimate D2E/DX2                !
 ! D81   D(29,13,14,15)         59.2804         estimate D2E/DX2                !
 ! D82   D(29,13,14,31)        -61.7727         estimate D2E/DX2                !
 ! D83   D(29,13,14,32)       -179.5155         estimate D2E/DX2                !
 ! D84   D(30,13,14,15)        176.4998         estimate D2E/DX2                !
 ! D85   D(30,13,14,31)         55.4467         estimate D2E/DX2                !
 ! D86   D(30,13,14,32)        -62.296          estimate D2E/DX2                !
 ! D87   D(13,14,15,9)          50.3364         estimate D2E/DX2                !
 ! D88   D(13,14,15,33)        -69.9744         estimate D2E/DX2                !
 ! D89   D(13,14,15,34)        172.7001         estimate D2E/DX2                !
 ! D90   D(31,14,15,9)         171.7217         estimate D2E/DX2                !
 ! D91   D(31,14,15,33)         51.4109         estimate D2E/DX2                !
 ! D92   D(31,14,15,34)        -65.9146         estimate D2E/DX2                !
 ! D93   D(32,14,15,9)         -70.6635         estimate D2E/DX2                !
 ! D94   D(32,14,15,33)        169.0257         estimate D2E/DX2                !
 ! D95   D(32,14,15,34)         51.7002         estimate D2E/DX2                !
 --------------------------------------------------------------------------------
 Trust Radius=3.00D-01 FncErr=1.00D-07 GrdErr=1.00D-06
 Number of steps in this run= 213 maximum allowed number of steps= 222.
 GradGradGradGradGradGradGradGradGradGradGradGradGradGradGradGradGradGrad

 Leave Link  103 at Thu Sep 30 08:48:45 2021, MaxMem= 1610612736 cpu:       0.0
 (Enter /sw/target/amd/app/gaussian/Gaussian09RevA.02_gcc-4.9.2/g09/l202.exe)
                          Input orientation:                          
 ---------------------------------------------------------------------
 Center     Atomic      Atomic             Coordinates (Angstroms)
 Number     Number       Type             X           Y           Z
 ---------------------------------------------------------------------
      1          6           0        5.960419   -0.747859   -2.658419
      2          7           0        5.180161    0.178834   -3.480727
      3          6           0        3.867643   -0.382527   -3.866779
      4          6           0        3.951449   -1.660390   -4.718935
      5          8           0        2.629643   -2.064423   -5.095896
      6          6           0        2.537160   -3.217526   -5.831491
      7          6           0        3.611518   -3.962088   -6.317846
      8          6           0        3.385635   -5.122241   -7.060655
      9          6           0        2.083194   -5.566064   -7.322230
     10          6           0        0.993389   -4.815038   -6.849033
     11          6           0        1.235343   -3.649957   -6.101319
     12          6           0       -0.429990   -5.269723   -7.064575
     13          6           0       -0.577277   -6.362428   -8.124596
     14          6           0        0.502120   -7.425573   -7.965074
     15          6           0        1.882539   -6.804595   -8.157880
     16          6           0        4.988951    1.439286   -2.756781
     17          1           0        6.244414   -1.637578   -3.228764
     18          1           0        5.416455   -1.063574   -1.761260
     19          1           0        6.903129   -0.284859   -2.343741
     20          1           0        3.318657    0.364827   -4.454113
     21          1           0        3.247929   -0.580249   -2.981122
     22          1           0        4.413338   -2.464485   -4.135186
     23          1           0        4.546784   -1.451189   -5.615706
     24          1           0        4.640270   -3.668362   -6.140871
     25          1           0        4.238495   -5.682776   -7.436367
     26          1           0        0.398010   -3.070051   -5.716469
     27          1           0       -1.053412   -4.414553   -7.352997
     28          1           0       -0.810895   -5.648576   -6.107270
     29          1           0       -0.505512   -5.919126   -9.125988
     30          1           0       -1.571271   -6.817670   -8.048255
     31          1           0        0.353897   -8.227478   -8.696344
     32          1           0        0.429958   -7.878773   -6.968329
     33          1           0        2.017355   -6.529950   -9.211972
     34          1           0        2.644745   -7.553109   -7.911034
     35          1           0        5.954043    1.879127   -2.484366
     36          1           0        4.402874    1.302505   -1.839193
     37          1           0        4.477604    2.173715   -3.388444
 ---------------------------------------------------------------------
                    Distance matrix (angstroms):
                    1          2          3          4          5
     1  C    0.000000
     2  N    1.464155   0.000000
     3  C    2.444036   1.478806   0.000000
     4  C    3.019006   2.534884   1.538222   0.000000
     5  O    4.332286   3.761132   2.423251   1.432660   0.000000
     6  C    5.280752   4.903754   3.696958   2.379636   1.370875
     7  C    5.407404   5.259004   4.345870   2.823099   2.461376
     8  C    6.718959   6.643613   5.735683   4.217607   3.712419
     9  C    7.745909   7.573124   6.480236   5.051912   4.185291
    10  C    7.666458   7.335755   6.066492   4.820710   3.649205
    11  C    6.527027   6.090052   4.753764   3.639587   2.338561
    12  C    8.983250   8.602589   7.251223   6.142176   4.848814
    13  C   10.205094   9.874296   8.581698   7.363223   6.158751
    14  C   10.126475   9.991018   8.816307   7.461410   6.442086
    15  C    9.140965   9.028752   7.974782   6.524537   5.692376
    16  C    2.395210   1.466084   2.410069   3.812408   4.828434
    17  H    1.094325   2.120252   2.762472   2.734742   4.090837
    18  H    1.095658   2.134474   2.701083   3.354142   4.459576
    19  H    1.096400   2.115742   3.397552   4.030638   5.385526
    20  H    3.382528   2.108856   1.097673   2.138238   2.605356
    21  H    2.736756   2.135260   1.098876   2.163709   2.656561
    22  H    2.742463   2.829040   2.168956   1.095752   2.065086
    23  H    3.352400   2.759760   2.159170   1.096534   2.078867
    24  H    4.732823   4.708372   4.070032   2.555059   2.776187
    25  H    7.081470   7.133883   6.400948   4.862759   4.599858
    26  H    6.759041   6.198610   4.762614   3.950842   2.525190
    27  H    9.202040   8.657431   7.254498   6.290655   4.917572
    28  H    9.042251   8.760719   7.391873   6.364985   5.070141
    29  H   10.506175  10.068812   8.799869   7.577827   6.397623
    30  H   11.073360  10.742216   9.406253   8.257260   6.996961
    31  H   11.128088  11.007342   9.859735   8.478727   7.491695
    32  H   10.000563   9.982626   8.810845   7.491927   6.492403
    33  H    9.587982   9.373276   8.353770   6.902226   6.103926
    34  H    9.213853   9.264928   8.322783   6.827965   6.168542
    35  H    2.632753   2.117221   3.373308   4.640243   5.781289
    36  H    2.702049   2.135754   2.690150   4.156374   5.008659
    37  H    3.356675   2.116992   2.671185   4.092359   4.928708
                    6          7          8          9         10
     6  C    0.000000
     7  C    1.394689   0.000000
     8  C    2.420474   1.395974   0.000000
     9  C    2.818514   2.432550   1.400626   0.000000
    10  C    2.443495   2.804332   2.421156   1.405571   0.000000
    11  C    1.398046   2.406349   2.776995   2.425066   1.405358
    12  C    3.812609   4.312922   3.818476   2.543678   1.509704
    13  C    4.984823   5.154801   4.286572   2.890690   2.547247
    14  C    5.138213   4.937352   3.799733   2.524048   2.881283
    15  C    4.325238   3.801965   2.508688   1.507492   2.542048
    16  C    6.095164   6.614632   8.009220   8.852214   8.475117
    17  H    4.797307   4.677384   5.915985   7.035995   7.125718
    18  H    5.431080   5.694002   6.977148   7.893506   7.715078
    19  H    6.310834   6.336421   7.617238   8.712535   8.703172
    20  H    3.916779   4.720325   6.075069   6.702831   6.162265
    21  H    3.947787   4.764741   6.106655   6.712688   6.162558
    22  H    2.639046   2.765816   4.083896   5.020619   4.958439
    23  H    2.684231   2.769898   4.112513   5.090550   5.046106
    24  H    2.173025   1.084401   2.129289   3.396398   3.887942
    25  H    3.398180   2.145916   1.087534   2.161475   3.410080
    26  H    2.147311   3.388808   3.865776   3.412975   2.163829
    27  H    4.079223   4.799774   4.504600   3.341440   2.145638
    28  H    4.146750   4.737755   4.335532   3.139855   2.121424
    29  H    5.235476   5.354025   4.476790   3.174837   2.941129
    30  H    5.895277   6.165222   5.331112   3.930489   3.467874
    31  H    6.170385   5.870511   4.637824   3.458581   3.932716
    32  H    5.240222   5.087816   4.042650   2.864796   3.117396
    33  H    4.761303   4.184643   2.912387   2.122389   3.094012
    34  H    4.809715   4.045779   2.679773   2.147179   3.369251
    35  H    6.989578   7.369043   8.749760   9.686035   9.405862
    36  H    6.312686   6.957048   8.341211   9.089656   8.610889
    37  H    6.228906   6.854165   8.240661   9.006223   8.541551
                   11         12         13         14         15
    11  C    0.000000
    12  C    2.514923   0.000000
    13  C    3.838846   1.529491   0.000000
    14  C    4.273930   2.515436   1.523424   0.000000
    15  C    3.821001   2.983109   2.499462   1.525891   0.000000
    16  C    7.153734   9.640167  10.984675  11.218008  10.333598
    17  H    6.114902   8.511967   9.634772   9.429075   8.367808
    18  H    6.557986   8.944146  10.222266  10.154459   9.293258
    19  H    7.587297  10.045386  11.238844  11.115849  10.075590
    20  H    4.813728   7.253621   8.596901   8.997226   8.196398
    21  H    4.817596   7.224461   8.632561   8.901556   8.210091
    22  H    3.920545   6.317318   7.484356   7.387697   6.436114
    23  H    4.004503   6.438066   7.528001   7.587628   6.497677
    24  H    3.405206   5.396769   6.198060   5.879509   4.637819
    25  H    3.864406   4.701446   4.911949   4.156605   2.707321
    26  H    1.088819   2.709526   4.194045   4.902820   4.702248
    27  H    2.718401   1.096886   2.148555   3.443917   3.870393
    28  H    2.860350   1.097748   2.152619   2.886723   3.577146
    29  H    4.162731   2.162603   1.097475   2.152307   2.724715
    30  H    4.658546   2.160159   1.095946   2.162271   3.455574
    31  H    5.335242   3.467775   2.161571   1.095343   2.156684
    32  H    4.391268   2.748803   2.156566   1.097314   2.163072
    33  H    4.310693   3.491273   2.818255   2.157042   1.097595
    34  H    4.527259   3.922287   3.441620   2.147097   1.096432
    35  H    8.119067  10.622629  11.932877  12.097069  11.143291
    36  H    7.261257   9.687898  11.093214  11.354367  10.583145
    37  H    7.196325   9.643815  10.993120  11.353253  10.492470
                   16         17         18         19         20
    16  C    0.000000
    17  H    3.356494   0.000000
    18  H    2.727294   1.780046   0.000000
    19  H    2.609091   1.745572   1.776480   0.000000
    20  H    2.612524   3.751154   3.700344   4.210012   0.000000
    21  H    2.675820   3.187192   2.534595   3.722096   1.751535
    22  H    4.179804   2.204136   2.933312   3.762859   3.050417
    23  H    4.089476   2.934992   3.970305   4.197433   2.481030
    24  H    6.136915   3.895861   5.154452   5.566581   4.567103
    25  H    8.554852   6.171812   7.411576   7.884962   6.805398
    26  H    7.083122   6.513148   6.697344   7.838952   4.682105
    27  H    9.586594   8.830580   9.184540  10.269059   7.096548
    28  H    9.752014   8.611114   8.870735  10.121254   7.479782
    29  H   11.175963   9.933298  10.624749  11.516588   8.714284
    30  H   11.798879  10.542570  11.021082  12.125781   9.403059
    31  H   12.255957  10.393239  11.182415  12.096827  10.030655
    32  H   11.195883   9.313687   9.920971  10.998013   9.089709
    33  H   10.677482   8.809206   9.846231  10.490212   8.477533
    34  H   10.626608   8.359113   9.360351  10.097329   8.665920
    35  H    1.095021   3.606336   3.077559   2.367145   3.621915
    36  H    1.097343   3.737146   2.575219   3.004258   2.982041
    37  H    1.095381   4.203935   3.742888   3.608207   2.398100
                   21         22         23         24         25
    21  H    0.000000
    22  H    2.498076   0.000000
    23  H    3.063755   1.799032   0.000000
    24  H    4.632393   2.350232   2.280437   0.000000
    25  H    6.845890   4.613650   4.616945   2.428497   0.000000
    26  H    4.669397   4.357754   4.454570   4.305213   4.953152
    27  H    7.233029   6.636447   6.569771   5.868906   5.442391
    28  H    7.206579   6.428076   6.823812   5.799791   5.221495
    29  H    8.963889   7.812665   7.603304   6.360497   5.041456
    30  H    9.370482   8.371253   8.493939   7.220768   5.951115
    31  H    9.975936   8.396149   8.543344   6.759362   4.811773
    32  H    8.781072   7.294418   7.751882   6.011570   4.421133
    33  H    8.702686   6.931270   6.717511   4.949750   2.967144
    34  H    8.560878   6.578681   6.791149   4.712415   2.502697
    35  H    3.690305   4.895502   4.782957   6.772789   9.200424
    36  H    2.486496   4.411565   4.676066   6.578017   8.952627
    37  H    3.043407   4.698366   4.255045   6.460045   8.841227
                   26         27         28         29         30
    26  H    0.000000
    27  H    2.567594   0.000000
    28  H    2.874538   1.770159   0.000000
    29  H    4.534137   2.389023   3.046164   0.000000
    30  H    4.833212   2.554708   2.390058   1.762024   0.000000
    31  H    5.956564   4.280595   3.835464   2.500333   2.472620
    32  H    4.969103   3.788031   2.693496   3.061178   2.509402
    33  H    5.178004   4.166570   4.291270   2.597183   3.783551
    34  H    5.473732   4.882448   4.338463   3.751017   4.281879
    35  H    8.112358  10.602754  10.749704  12.109903  12.775816
    36  H    7.084592   9.636278   9.680774  11.372844  11.839768
    37  H    7.039876   9.471805   9.825908  11.101573  11.796089
                   31         32         33         34         35
    31  H    0.000000
    32  H    1.764488   0.000000
    33  H    2.431988   3.061549   0.000000
    34  H    2.513856   2.428997   1.770003   0.000000
    35  H   13.118452  12.076343  11.466071  11.373973   0.000000
    36  H   12.419151  11.242240  11.017982  10.880265   1.776194
    37  H   12.384005  11.412779  10.757327  10.882292   1.756135
                   36         37
    36  H    0.000000
    37  H    1.778980   0.000000
 Stoichiometry    C14H21NO
 Framework group  C1[X(C14H21NO)]
 Deg. of freedom   105
 Full point group                 C1      NOp   1
 Largest Abelian subgroup         C1      NOp   1
 Largest concise Abelian subgroup C1      NOp   1
                         Standard orientation:                         
 ---------------------------------------------------------------------
 Center     Atomic      Atomic             Coordinates (Angstroms)
 Number     Number       Type             X           Y           Z
 ---------------------------------------------------------------------
      1          6           0       -5.015510    1.129923    0.841957
      2          7           0       -4.885192    0.140889   -0.229761
      3          6           0       -3.655913   -0.670497   -0.097879
      4          6           0       -2.350896    0.140112   -0.175149
      5          8           0       -1.234211   -0.755392   -0.115155
      6          6           0        0.007470   -0.174749   -0.134690
      7          6           0        0.268642    1.184683   -0.304668
      8          6           0        1.583286    1.654185   -0.309325
      9          6           0        2.660595    0.776538   -0.133560
     10          6           0        2.408914   -0.597317    0.023951
     11          6           0        1.080519   -1.055989    0.028143
     12          6           0        3.528916   -1.581716    0.260086
     13          6           0        4.918280   -1.027157   -0.058470
     14          6           0        5.077353    0.388156    0.482278
     15          6           0        4.066173    1.319428   -0.179982
     16          6           0       -6.061030   -0.734744   -0.238291
     17          1           0       -4.227237    1.886305    0.778250
     18          1           0       -4.982546    0.669912    1.835822
     19          1           0       -5.960141    1.678542    0.748232
     20          1           0       -3.627928   -1.410273   -0.908333
     21          1           0       -3.664967   -1.250375    0.835495
     22          1           0       -2.294545    0.831893    0.672752
     23          1           0       -2.332669    0.695131   -1.120669
     24          1           0       -0.526639    1.909452   -0.439438
     25          1           0        1.763537    2.717260   -0.451138
     26          1           0        0.874309   -2.116212    0.165735
     27          1           0        3.364175   -2.483297   -0.342550
     28          1           0        3.497969   -1.879744    1.316151
     29          1           0        5.074438   -1.020802   -1.144760
     30          1           0        5.683862   -1.684248    0.369562
     31          1           0        6.092655    0.753152    0.293288
     32          1           0        4.930817    0.386872    1.569763
     33          1           0        4.339227    1.468598   -1.232553
     34          1           0        4.108890    2.297073    0.314536
     35          1           0       -6.978465   -0.149215   -0.358877
     36          1           0       -6.146036   -1.319323    0.686481
     37          1           0       -6.019468   -1.428926   -1.084602
 ---------------------------------------------------------------------
 Rotational constants (GHZ):      1.9067088      0.1722446      0.1614964
 Leave Link  202 at Thu Sep 30 08:48:46 2021, MaxMem= 1610612736 cpu:       0.1
 (Enter /sw/target/amd/app/gaussian/Gaussian09RevA.02_gcc-4.9.2/g09/l301.exe)
 Standard basis: 6-31G(d) (6D, 7F)
 Ernie: Thresh=  0.10000D-02 Tol=  0.10000D-05 Strict=F.
 There are   282 symmetry adapted basis functions of A   symmetry.
 Integral buffers will be    131072 words long.
 Raffenetti 2 integral format.
 Two-electron integral symmetry is turned on.
   282 basis functions,   532 primitive gaussians,   282 cartesian basis functions
    60 alpha electrons       60 beta electrons
       nuclear repulsion energy      1060.3383805314 Hartrees.
 IExCor=  402 DFT=T Ex+Corr=B3LYP ExCW=0 ScaHFX=  0.200000
 ScaDFX=  0.800000  0.720000  1.000000  0.810000 ScalE2=  1.000000  1.000000
 IRadAn=      0 IRanWt=     -1 IRanGd=            0 ICorTp=0
 NAtoms=   37 NActive=   37 NUniq=   37 SFac= 7.50D-01 NAtFMM=   80 NAOKFM=F Big=F
 Leave Link  301 at Thu Sep 30 08:48:46 2021, MaxMem= 1610612736 cpu:       0.1
 (Enter /sw/target/amd/app/gaussian/Gaussian09RevA.02_gcc-4.9.2/g09/l302.exe)
 NPDir=0 NMtPBC=     1 NCelOv=     1 NCel=       1 NClECP=     1 NCelD=      1
         NCelK=      1 NCelE2=     1 NClLst=     1 CellRange=     0.0.
 One-electron integrals computed using PRISM.
 NBasis=   282 RedAO= T  NBF=   282
 NBsUse=   282 1.00D-06 NBFU=   282
 Precomputing XC quadrature grid using
 IXCGrd= 2 IRadAn=           0 IRanWt=          -1 IRanGd=           0 AccXCQ= 1.00D-10.
 NRdTot=    2368 NPtTot=      302454 NUsed=      319524 NTot=      319556
 NSgBfM=   277   277   277   277   278 NAtAll=    37    37.
 Leave Link  302 at Thu Sep 30 08:48:50 2021, MaxMem= 1610612736 cpu:       3.5
 (Enter /sw/target/amd/app/gaussian/Gaussian09RevA.02_gcc-4.9.2/g09/l303.exe)
 DipDrv:  MaxL=1.
 Leave Link  303 at Thu Sep 30 08:48:51 2021, MaxMem= 1610612736 cpu:       0.3
 (Enter /sw/target/amd/app/gaussian/Gaussian09RevA.02_gcc-4.9.2/g09/l401.exe)
 Harris functional with IExCor=  402 diagonalized for initial guess.
 ExpMin= 1.61D-01 ExpMax= 5.48D+03 ExpMxC= 8.25D+02 IAcc=1 IRadAn=         1 AccDes= 0.00D+00
 HarFok:  IExCor=  402 AccDes= 0.00D+00 IRadAn=         1 IDoV= 1
 ScaDFX=  1.000000  1.000000  1.000000  1.000000
 FoFCou: FMM=F IPFlag=           0 FMFlag=      100000 FMFlg1=           0
         NFxFlg=           0 DoJE=T BraDBF=F KetDBF=T FulRan=T
         Omega=  0.000000  0.000000  1.000000  0.000000  0.000000 ICntrl=     500 IOpCl=  0
         NMat0=    1 NMatS0=    1 NMatT0=    0 NMatD0=    1 NMtDS0=    0 NMtDT0=    0
         I1Cent=           4 NGrid=           0.
 Petite list used in FoFCou.
 Harris En= -676.195150584554    
 Initial guess orbital symmetries:
       Occupied  (A) (A) (A) (A) (A) (A) (A) (A) (A) (A) (A) (A)
                 (A) (A) (A) (A) (A) (A) (A) (A) (A) (A) (A) (A)
                 (A) (A) (A) (A) (A) (A) (A) (A) (A) (A) (A) (A)
                 (A) (A) (A) (A) (A) (A) (A) (A) (A) (A) (A) (A)
                 (A) (A) (A) (A) (A) (A) (A) (A) (A) (A) (A) (A)
       Virtual   (A) (A) (A) (A) (A) (A) (A) (A) (A) (A) (A) (A)
                 (A) (A) (A) (A) (A) (A) (A) (A) (A) (A) (A) (A)
                 (A) (A) (A) (A) (A) (A) (A) (A) (A) (A) (A) (A)
                 (A) (A) (A) (A) (A) (A) (A) (A) (A) (A) (A) (A)
                 (A) (A) (A) (A) (A) (A) (A) (A) (A) (A) (A) (A)
                 (A) (A) (A) (A) (A) (A) (A) (A) (A) (A) (A) (A)
                 (A) (A) (A) (A) (A) (A) (A) (A) (A) (A) (A) (A)
                 (A) (A) (A) (A) (A) (A) (A) (A) (A) (A) (A) (A)
                 (A) (A) (A) (A) (A) (A) (A) (A) (A) (A) (A) (A)
                 (A) (A) (A) (A) (A) (A) (A) (A) (A) (A) (A) (A)
                 (A) (A) (A) (A) (A) (A) (A) (A) (A) (A) (A) (A)
                 (A) (A) (A) (A) (A) (A) (A) (A) (A) (A) (A) (A)
                 (A) (A) (A) (A) (A) (A) (A) (A) (A) (A) (A) (A)
                 (A) (A) (A) (A) (A) (A) (A) (A) (A) (A) (A) (A)
                 (A) (A) (A) (A) (A) (A) (A) (A) (A) (A) (A) (A)
                 (A) (A) (A) (A) (A) (A) (A) (A) (A) (A) (A) (A)
                 (A) (A) (A) (A) (A) (A) (A) (A) (A) (A) (A) (A)
                 (A) (A) (A) (A) (A) (A) (A) (A) (A) (A) (A) (A)
                 (A) (A) (A) (A) (A) (A)
 The electronic state of the initial guess is 1-A.
 Leave Link  401 at Thu Sep 30 08:49:05 2021, MaxMem= 1610612736 cpu:      14.1
 (Enter /sw/target/amd/app/gaussian/Gaussian09RevA.02_gcc-4.9.2/g09/l502.exe)
 Closed shell SCF:
 Requested convergence on RMS density matrix=1.00D-08 within  64 cycles.
 Requested convergence on MAX density matrix=1.00D-06.
 Requested convergence on             energy=1.00D-06.
 No special actions if energy rises.
 Using DIIS extrapolation, IDIIS=  1040.
 Integral symmetry usage will be decided dynamically.
       319178 words used for storage of precomputed grid.
 Keep R1 ints in memory in canonical form, NReq=808044256.
 IEnd=      567134 IEndB=      567134 NGot=  1610612736 MDV=   813984949
 LenX=   813984949 LenY=   813904984
 Symmetry not used in FoFDir.
 MinBra= 0 MaxBra= 2 Meth= 1.
 IRaf=       0 NMat=   1 IRICut=       1 DoRegI=T DoRafI=F ISym2E= 0 JSym2E=0.
 Integral accuracy reduced to 1.0D-05 until final iterations.

 Cycle   1  Pass 0  IDiag  1:
 E= -675.661968743053    
 DIIS: error= 3.21D-02 at cycle   1 NSaved=   1.
 NSaved= 1 IEnMin= 1 EnMin= -675.661968743053     IErMin= 1 ErrMin= 3.21D-02
 ErrMax= 3.21D-02 EMaxC= 1.00D-01 BMatC= 3.95D-01 BMatP= 3.95D-01
 IDIUse=3 WtCom= 6.79D-01 WtEn= 3.21D-01
 Coeff-Com:  0.100D+01
 Coeff-En:   0.100D+01
 Coeff:      0.100D+01
 Gap=     0.233 Goal=   None    Shift=    0.000
 GapD=    0.233 DampG=1.000 DampE=0.500 DampFc=0.5000 IDamp=-1.
 Damping current iteration by 5.00D-01
 RMSDP=5.53D-03 MaxDP=1.50D-01              OVMax= 1.78D-01

 Cycle   2  Pass 0  IDiag  1:
 E= -675.859976637624     Delta-E=       -0.198007894570 Rises=F Damp=T
 DIIS: error= 6.68D-03 at cycle   2 NSaved=   2.
 NSaved= 2 IEnMin= 2 EnMin= -675.859976637624     IErMin= 2 ErrMin= 6.68D-03
 ErrMax= 6.68D-03 EMaxC= 1.00D-01 BMatC= 2.24D-02 BMatP= 3.95D-01
 IDIUse=3 WtCom= 9.33D-01 WtEn= 6.68D-02
 Coeff-Com:  0.503D-01 0.950D+00
 Coeff-En:   0.834D-01 0.917D+00
 Coeff:      0.525D-01 0.947D+00
 Gap=     0.219 Goal=   None    Shift=    0.000
 RMSDP=1.61D-03 MaxDP=3.74D-02 DE=-1.98D-01 OVMax= 1.49D-01

 Cycle   3  Pass 0  IDiag  1:
 E= -676.082767666495     Delta-E=       -0.222791028871 Rises=F Damp=F
 DIIS: error= 5.86D-03 at cycle   3 NSaved=   3.
 NSaved= 3 IEnMin= 3 EnMin= -676.082767666495     IErMin= 3 ErrMin= 5.86D-03
 ErrMax= 5.86D-03 EMaxC= 1.00D-01 BMatC= 1.65D-02 BMatP= 2.24D-02
 IDIUse=3 WtCom= 9.41D-01 WtEn= 5.86D-02
 Coeff-Com: -0.108D-01 0.455D+00 0.556D+00
 Coeff-En:   0.000D+00 0.000D+00 0.100D+01
 Coeff:     -0.101D-01 0.429D+00 0.582D+00
 Gap=     0.214 Goal=   None    Shift=    0.000
 RMSDP=8.96D-04 MaxDP=3.11D-02 DE=-2.23D-01 OVMax= 8.25D-02

 Cycle   4  Pass 0  IDiag  1:
 E= -676.092785034141     Delta-E=       -0.010017367647 Rises=F Damp=F
 DIIS: error= 4.58D-03 at cycle   4 NSaved=   4.
 NSaved= 4 IEnMin= 4 EnMin= -676.092785034141     IErMin= 4 ErrMin= 4.58D-03
 ErrMax= 4.58D-03 EMaxC= 1.00D-01 BMatC= 6.80D-03 BMatP= 1.65D-02
 IDIUse=3 WtCom= 9.54D-01 WtEn= 4.58D-02
 Coeff-Com: -0.129D-01 0.112D+00 0.392D+00 0.509D+00
 Coeff-En:   0.000D+00 0.000D+00 0.331D+00 0.669D+00
 Coeff:     -0.124D-01 0.106D+00 0.390D+00 0.516D+00
 Gap=     0.209 Goal=   None    Shift=    0.000
 RMSDP=3.70D-04 MaxDP=1.42D-02 DE=-1.00D-02 OVMax= 3.81D-02

 Cycle   5  Pass 0  IDiag  1:
 E= -676.099879097065     Delta-E=       -0.007094062924 Rises=F Damp=F
 DIIS: error= 6.58D-04 at cycle   5 NSaved=   5.
 NSaved= 5 IEnMin= 5 EnMin= -676.099879097065     IErMin= 5 ErrMin= 6.58D-04
 ErrMax= 6.58D-04 EMaxC= 1.00D-01 BMatC= 2.39D-04 BMatP= 6.80D-03
 IDIUse=3 WtCom= 9.93D-01 WtEn= 6.58D-03
 Coeff-Com: -0.432D-02 0.209D-01 0.147D+00 0.255D+00 0.582D+00
 Coeff-En:   0.000D+00 0.000D+00 0.000D+00 0.000D+00 0.100D+01
 Coeff:     -0.429D-02 0.208D-01 0.146D+00 0.253D+00 0.585D+00
 Gap=     0.208 Goal=   None    Shift=    0.000
 RMSDP=7.32D-05 MaxDP=2.32D-03 DE=-7.09D-03 OVMax= 6.54D-03

 Cycle   6  Pass 0  IDiag  1:
 E= -676.100097090310     Delta-E=       -0.000217993245 Rises=F Damp=F
 DIIS: error= 2.30D-04 at cycle   6 NSaved=   6.
 NSaved= 6 IEnMin= 6 EnMin= -676.100097090310     IErMin= 6 ErrMin= 2.30D-04
 ErrMax= 2.30D-04 EMaxC= 1.00D-01 BMatC= 2.80D-05 BMatP= 2.39D-04
 IDIUse=3 WtCom= 9.98D-01 WtEn= 2.30D-03
 Coeff-Com: -0.986D-03 0.866D-03 0.441D-01 0.925D-01 0.325D+00 0.539D+00
 Coeff-En:   0.000D+00 0.000D+00 0.000D+00 0.000D+00 0.312D-01 0.969D+00
 Coeff:     -0.984D-03 0.864D-03 0.440D-01 0.923D-01 0.324D+00 0.540D+00
 Gap=     0.208 Goal=   None    Shift=    0.000
 RMSDP=2.14D-05 MaxDP=1.02D-03 DE=-2.18D-04 OVMax= 1.25D-03

 Cycle   7  Pass 0  IDiag  1:
 E= -676.100121881937     Delta-E=       -0.000024791627 Rises=F Damp=F
 DIIS: error= 4.68D-05 at cycle   7 NSaved=   7.
 NSaved= 7 IEnMin= 7 EnMin= -676.100121881937     IErMin= 7 ErrMin= 4.68D-05
 ErrMax= 4.68D-05 EMaxC= 1.00D-01 BMatC= 7.31D-07 BMatP= 2.80D-05
 IDIUse=1 WtCom= 1.00D+00 WtEn= 0.00D+00
 Coeff-Com: -0.203D-03-0.447D-03 0.133D-01 0.297D-01 0.119D+00 0.239D+00
 Coeff-Com:  0.599D+00
 Coeff:     -0.203D-03-0.447D-03 0.133D-01 0.297D-01 0.119D+00 0.239D+00
 Coeff:      0.599D+00
 Gap=     0.208 Goal=   None    Shift=    0.000
 RMSDP=4.49D-06 MaxDP=1.80D-04 DE=-2.48D-05 OVMax= 2.24D-04

 Initial convergence to 1.0D-05 achieved.  Increase integral accuracy.
 Cycle   8  Pass 1  IDiag  1:
 E= -676.100224734080     Delta-E=       -0.000102852143 Rises=F Damp=F
 DIIS: error= 1.91D-05 at cycle   1 NSaved=   1.
 NSaved= 1 IEnMin= 1 EnMin= -676.100224734080     IErMin= 1 ErrMin= 1.91D-05
 ErrMax= 1.91D-05 EMaxC= 1.00D-01 BMatC= 2.42D-07 BMatP= 2.42D-07
 IDIUse=1 WtCom= 1.00D+00 WtEn= 0.00D+00
 Coeff-Com:  0.100D+01
 Coeff:      0.100D+01
 Gap=     0.208 Goal=   None    Shift=    0.000
 RMSDP=4.49D-06 MaxDP=1.80D-04 DE=-1.03D-04 OVMax= 1.91D-04

 Cycle   9  Pass 1  IDiag  1:
 E= -676.100224808544     Delta-E=       -0.000000074464 Rises=F Damp=F
 DIIS: error= 1.67D-05 at cycle   2 NSaved=   2.
 NSaved= 2 IEnMin= 2 EnMin= -676.100224808544     IErMin= 2 ErrMin= 1.67D-05
 ErrMax= 1.67D-05 EMaxC= 1.00D-01 BMatC= 2.24D-07 BMatP= 2.42D-07
 IDIUse=1 WtCom= 1.00D+00 WtEn= 0.00D+00
 Coeff-Com:  0.488D+00 0.512D+00
 Coeff:      0.488D+00 0.512D+00
 Gap=     0.208 Goal=   None    Shift=    0.000
 RMSDP=2.33D-06 MaxDP=7.44D-05 DE=-7.45D-08 OVMax= 1.74D-04

 Cycle  10  Pass 1  IDiag  1:
 E= -676.100224990074     Delta-E=       -0.000000181530 Rises=F Damp=F
 DIIS: error= 8.11D-06 at cycle   3 NSaved=   3.
 NSaved= 3 IEnMin= 3 EnMin= -676.100224990074     IErMin= 3 ErrMin= 8.11D-06
 ErrMax= 8.11D-06 EMaxC= 1.00D-01 BMatC= 3.23D-08 BMatP= 2.24D-07
 IDIUse=1 WtCom= 1.00D+00 WtEn= 0.00D+00
 Coeff-Com:  0.275D-01 0.271D+00 0.702D+00
 Coeff:      0.275D-01 0.271D+00 0.702D+00
 Gap=     0.208 Goal=   None    Shift=    0.000
 RMSDP=8.68D-07 MaxDP=3.23D-05 DE=-1.82D-07 OVMax= 9.14D-05

 Cycle  11  Pass 1  IDiag  1:
 E= -676.100225015389     Delta-E=       -0.000000025315 Rises=F Damp=F
 DIIS: error= 3.50D-06 at cycle   4 NSaved=   4.
 NSaved= 4 IEnMin= 4 EnMin= -676.100225015389     IErMin= 4 ErrMin= 3.50D-06
 ErrMax= 3.50D-06 EMaxC= 1.00D-01 BMatC= 5.98D-09 BMatP= 3.23D-08
 IDIUse=1 WtCom= 1.00D+00 WtEn= 0.00D+00
 Coeff-Com: -0.159D-01 0.136D+00 0.437D+00 0.444D+00
 Coeff:     -0.159D-01 0.136D+00 0.437D+00 0.444D+00
 Gap=     0.208 Goal=   None    Shift=    0.000
 RMSDP=3.41D-07 MaxDP=1.19D-05 DE=-2.53D-08 OVMax= 3.40D-05

 Cycle  12  Pass 1  IDiag  1:
 E= -676.100225021518     Delta-E=       -0.000000006128 Rises=F Damp=F
 DIIS: error= 8.55D-07 at cycle   5 NSaved=   5.
 NSaved= 5 IEnMin= 5 EnMin= -676.100225021518     IErMin= 5 ErrMin= 8.55D-07
 ErrMax= 8.55D-07 EMaxC= 1.00D-01 BMatC= 1.82D-10 BMatP= 5.98D-09
 IDIUse=1 WtCom= 1.00D+00 WtEn= 0.00D+00
 Coeff-Com: -0.995D-02 0.661D-01 0.218D+00 0.252D+00 0.473D+00
 Coeff:     -0.995D-02 0.661D-01 0.218D+00 0.252D+00 0.473D+00
 Gap=     0.208 Goal=   None    Shift=    0.000
 RMSDP=6.69D-08 MaxDP=2.64D-06 DE=-6.13D-09 OVMax= 6.03D-06

 Cycle  13  Pass 1  IDiag  1:
 E= -676.100225021715     Delta-E=       -0.000000000197 Rises=F Damp=F
 DIIS: error= 3.35D-07 at cycle   6 NSaved=   6.
 NSaved= 6 IEnMin= 6 EnMin= -676.100225021715     IErMin= 6 ErrMin= 3.35D-07
 ErrMax= 3.35D-07 EMaxC= 1.00D-01 BMatC= 1.44D-11 BMatP= 1.82D-10
 IDIUse=1 WtCom= 1.00D+00 WtEn= 0.00D+00
 Coeff-Com: -0.310D-02 0.165D-01 0.549D-01 0.739D-01 0.249D+00 0.608D+00
 Coeff:     -0.310D-02 0.165D-01 0.549D-01 0.739D-01 0.249D+00 0.608D+00
 Gap=     0.208 Goal=   None    Shift=    0.000
 RMSDP=1.83D-08 MaxDP=8.22D-07 DE=-1.97D-10 OVMax= 1.65D-06

 Cycle  14  Pass 1  IDiag  1:
 E= -676.100225021756     Delta-E=       -0.000000000041 Rises=F Damp=F
 DIIS: error= 6.90D-08 at cycle   7 NSaved=   7.
 NSaved= 7 IEnMin= 7 EnMin= -676.100225021756     IErMin= 7 ErrMin= 6.90D-08
 ErrMax= 6.90D-08 EMaxC= 1.00D-01 BMatC= 1.16D-12 BMatP= 1.44D-11
 IDIUse=1 WtCom= 1.00D+00 WtEn= 0.00D+00
 Coeff-Com: -0.509D-03 0.144D-02 0.502D-02 0.107D-01 0.707D-01 0.290D+00
 Coeff-Com:  0.623D+00
 Coeff:     -0.509D-03 0.144D-02 0.502D-02 0.107D-01 0.707D-01 0.290D+00
 Coeff:      0.623D+00
 Gap=     0.208 Goal=   None    Shift=    0.000
 RMSDP=5.72D-09 MaxDP=1.61D-07 DE=-4.07D-11 OVMax= 4.07D-07

 SCF Done:  E(RB3LYP) =  -676.100225022     A.U. after   14 cycles
             Convg  =    0.5719D-08             -V/T =  2.0097
 KE= 6.696363587300D+02 PE=-3.688710750639D+03 EE= 1.282635786356D+03
 Leave Link  502 at Thu Sep 30 09:00:02 2021, MaxMem= 1610612736 cpu:     352.8
 (Enter /sw/target/amd/app/gaussian/Gaussian09RevA.02_gcc-4.9.2/g09/l508.exe)
 QCSCF skips out because SCF is already converged.
 Leave Link  508 at Thu Sep 30 09:00:05 2021, MaxMem= 1610612736 cpu:       0.0
 (Enter /sw/target/amd/app/gaussian/Gaussian09RevA.02_gcc-4.9.2/g09/l601.exe)
 Copying SCF densities to generalized density rwf, IOpCl= 0 IROHF=0.

 **********************************************************************

            Population analysis using the SCF density.

 **********************************************************************

 Orbital symmetries:
       Occupied  (A) (A) (A) (A) (A) (A) (A) (A) (A) (A) (A) (A)
                 (A) (A) (A) (A) (A) (A) (A) (A) (A) (A) (A) (A)
                 (A) (A) (A) (A) (A) (A) (A) (A) (A) (A) (A) (A)
                 (A) (A) (A) (A) (A) (A) (A) (A) (A) (A) (A) (A)
                 (A) (A) (A) (A) (A) (A) (A) (A) (A) (A) (A) (A)
       Virtual   (A) (A) (A) (A) (A) (A) (A) (A) (A) (A) (A) (A)
                 (A) (A) (A) (A) (A) (A) (A) (A) (A) (A) (A) (A)
                 (A) (A) (A) (A) (A) (A) (A) (A) (A) (A) (A) (A)
                 (A) (A) (A) (A) (A) (A) (A) (A) (A) (A) (A) (A)
                 (A) (A) (A) (A) (A) (A) (A) (A) (A) (A) (A) (A)
                 (A) (A) (A) (A) (A) (A) (A) (A) (A) (A) (A) (A)
                 (A) (A) (A) (A) (A) (A) (A) (A) (A) (A) (A) (A)
                 (A) (A) (A) (A) (A) (A) (A) (A) (A) (A) (A) (A)
                 (A) (A) (A) (A) (A) (A) (A) (A) (A) (A) (A) (A)
                 (A) (A) (A) (A) (A) (A) (A) (A) (A) (A) (A) (A)
                 (A) (A) (A) (A) (A) (A) (A) (A) (A) (A) (A) (A)
                 (A) (A) (A) (A) (A) (A) (A) (A) (A) (A) (A) (A)
                 (A) (A) (A) (A) (A) (A) (A) (A) (A) (A) (A) (A)
                 (A) (A) (A) (A) (A) (A) (A) (A) (A) (A) (A) (A)
                 (A) (A) (A) (A) (A) (A) (A) (A) (A) (A) (A) (A)
                 (A) (A) (A) (A) (A) (A) (A) (A) (A) (A) (A) (A)
                 (A) (A) (A) (A) (A) (A) (A) (A) (A) (A) (A) (A)
                 (A) (A) (A) (A) (A) (A) (A) (A) (A) (A) (A) (A)
                 (A) (A) (A) (A) (A) (A)
 The electronic state is 1-A.
 Alpha  occ. eigenvalues --  -19.16962 -14.32999 -10.23692 -10.23613 -10.20989
 Alpha  occ. eigenvalues --  -10.20283 -10.20194 -10.18502 -10.17939 -10.17922
 Alpha  occ. eigenvalues --  -10.17709 -10.17704 -10.17679 -10.17592 -10.17507
 Alpha  occ. eigenvalues --  -10.17202  -1.05321  -0.91701  -0.85310  -0.80415
 Alpha  occ. eigenvalues --   -0.76538  -0.75188  -0.72402  -0.70492  -0.70333
 Alpha  occ. eigenvalues --   -0.65074  -0.62615  -0.59749  -0.59109  -0.57817
 Alpha  occ. eigenvalues --   -0.54133  -0.51485  -0.49069  -0.48106  -0.47118
 Alpha  occ. eigenvalues --   -0.45878  -0.45106  -0.44938  -0.43852  -0.43363
 Alpha  occ. eigenvalues --   -0.42621  -0.40599  -0.39750  -0.39384  -0.38388
 Alpha  occ. eigenvalues --   -0.38285  -0.37399  -0.36783  -0.36609  -0.36262
 Alpha  occ. eigenvalues --   -0.34978  -0.34123  -0.32840  -0.32151  -0.30682
 Alpha  occ. eigenvalues --   -0.30195  -0.29621  -0.23140  -0.21710  -0.20446
 Alpha virt. eigenvalues --    0.00369   0.02432   0.08002   0.09633   0.10631
 Alpha virt. eigenvalues --    0.11085   0.12732   0.13307   0.13345   0.13629
 Alpha virt. eigenvalues --    0.14438   0.14610   0.15114   0.16071   0.16268
 Alpha virt. eigenvalues --    0.17049   0.17305   0.17778   0.18555   0.18625
 Alpha virt. eigenvalues --    0.19505   0.19866   0.20523   0.21226   0.21986
 Alpha virt. eigenvalues --    0.22219   0.22606   0.23510   0.25032   0.25411
 Alpha virt. eigenvalues --    0.26491   0.26657   0.27998   0.28669   0.30262
 Alpha virt. eigenvalues --    0.34753   0.35212   0.38465   0.40263   0.48232
 Alpha virt. eigenvalues --    0.50395   0.50971   0.52071   0.52685   0.53234
 Alpha virt. eigenvalues --    0.54121   0.54598   0.55228   0.55719   0.55863
 Alpha virt. eigenvalues --    0.56424   0.57117   0.58141   0.58797   0.60191
 Alpha virt. eigenvalues --    0.60764   0.60899   0.61939   0.64109   0.64869
 Alpha virt. eigenvalues --    0.66055   0.66571   0.67924   0.69041   0.71088
 Alpha virt. eigenvalues --    0.72257   0.73110   0.73159   0.74426   0.75254
 Alpha virt. eigenvalues --    0.78069   0.79146   0.79912   0.80258   0.81095
 Alpha virt. eigenvalues --    0.81665   0.82761   0.84182   0.84851   0.85224
 Alpha virt. eigenvalues --    0.85938   0.86407   0.87138   0.88622   0.88895
 Alpha virt. eigenvalues --    0.90055   0.90351   0.91847   0.92078   0.92611
 Alpha virt. eigenvalues --    0.92829   0.93671   0.94633   0.95926   0.96306
 Alpha virt. eigenvalues --    0.96832   0.97179   0.97545   0.97771   0.99227
 Alpha virt. eigenvalues --    1.01637   1.03138   1.04632   1.05691   1.08596
 Alpha virt. eigenvalues --    1.11098   1.12819   1.14706   1.18393   1.18777
 Alpha virt. eigenvalues --    1.20710   1.22633   1.24000   1.28376   1.29615
 Alpha virt. eigenvalues --    1.33314   1.35585   1.37969   1.38578   1.39226
 Alpha virt. eigenvalues --    1.43015   1.43371   1.45834   1.47204   1.47813
 Alpha virt. eigenvalues --    1.48695   1.50088   1.50732   1.58418   1.62396
 Alpha virt. eigenvalues --    1.67559   1.69306   1.69858   1.70156   1.71976
 Alpha virt. eigenvalues --    1.73814   1.77736   1.79589   1.83410   1.83927
 Alpha virt. eigenvalues --    1.85271   1.87399   1.87943   1.89585   1.90453
 Alpha virt. eigenvalues --    1.91532   1.91918   1.93442   1.94705   1.95766
 Alpha virt. eigenvalues --    1.96599   1.98309   1.98817   1.98830   2.00342
 Alpha virt. eigenvalues --    2.01753   2.01856   2.04214   2.04878   2.08576
 Alpha virt. eigenvalues --    2.10753   2.11654   2.13188   2.13772   2.15762
 Alpha virt. eigenvalues --    2.18108   2.19026   2.21245   2.22528   2.23049
 Alpha virt. eigenvalues --    2.24760   2.26164   2.27634   2.28175   2.28756
 Alpha virt. eigenvalues --    2.30975   2.32169   2.36424   2.37213   2.39157
 Alpha virt. eigenvalues --    2.40107   2.43634   2.45989   2.48472   2.50750
 Alpha virt. eigenvalues --    2.55461   2.57588   2.57930   2.59745   2.60807
 Alpha virt. eigenvalues --    2.61289   2.68761   2.70272   2.73716   2.74769
 Alpha virt. eigenvalues --    2.75469   2.76793   2.82077   2.82716   2.83973
 Alpha virt. eigenvalues --    2.86591   2.97897   3.03049   3.05643   3.22890
 Alpha virt. eigenvalues --    3.44503   4.00311   4.10465   4.12726   4.13338
 Alpha virt. eigenvalues --    4.19542   4.23285   4.26058   4.26688   4.30555
 Alpha virt. eigenvalues --    4.34017   4.35391   4.46911   4.50243   4.51675
 Alpha virt. eigenvalues --    4.58939   4.81531
          Condensed to atoms (all electrons):
              1          2          3          4          5          6
     1  C    5.003947   0.322117  -0.052595  -0.004608  -0.000005   0.000008
     2  N    0.322117   6.788923   0.300717  -0.037720   0.001271  -0.000021
     3  C   -0.052595   0.300717   4.974690   0.374584  -0.032893   0.002340
     4  C   -0.004608  -0.037720   0.374584   4.885019   0.218537  -0.036136
     5  O   -0.000005   0.001271  -0.032893   0.218537   8.259387   0.266944
     6  C    0.000008  -0.000021   0.002340  -0.036136   0.266944   4.530690
     7  C   -0.000006   0.000001   0.000575  -0.007304  -0.060940   0.457223
     8  C    0.000000  -0.000000  -0.000007   0.000567   0.003379   0.003474
     9  C    0.000000  -0.000000  -0.000000  -0.000021   0.000328  -0.037644
    10  C   -0.000000  -0.000000   0.000002  -0.000068   0.002560  -0.004314
    11  C    0.000000   0.000001  -0.000132   0.003093  -0.049098   0.510782
    12  C   -0.000000   0.000000  -0.000000   0.000002  -0.000065   0.006171
    13  C    0.000000  -0.000000   0.000000  -0.000000   0.000000  -0.000169
    14  C   -0.000000   0.000000   0.000000   0.000000  -0.000000   0.000001
    15  C    0.000000  -0.000000  -0.000000  -0.000000   0.000001  -0.000023
    16  C   -0.063773   0.328892  -0.051454   0.004432  -0.000037   0.000001
    17  H    0.380786  -0.037193  -0.004285   0.001812  -0.000019   0.000003
    18  H    0.347527  -0.051305  -0.009061  -0.001213   0.000008   0.000001
    19  H    0.378951  -0.033948   0.005623   0.000192  -0.000001  -0.000000
    20  H    0.006103  -0.036097   0.370601  -0.030718   0.003203   0.000136
    21  H   -0.009413  -0.049711   0.340577  -0.046940   0.004548   0.000123
    22  H    0.003226  -0.001791  -0.038615   0.358768  -0.038056  -0.003391
    23  H   -0.000816   0.007324  -0.039089   0.352501  -0.035807  -0.004764
    24  H   -0.000001   0.000007  -0.000011   0.005889  -0.007132  -0.046339
    25  H   -0.000000   0.000000   0.000000  -0.000009  -0.000047   0.003050
    26  H    0.000000   0.000000  -0.000011  -0.000311   0.000534  -0.040472
    27  H    0.000000   0.000000  -0.000000   0.000000  -0.000001   0.000023
    28  H   -0.000000   0.000000   0.000000  -0.000000   0.000000  -0.000160
    29  H   -0.000000  -0.000000   0.000000   0.000000  -0.000000   0.000004
    30  H   -0.000000   0.000000  -0.000000   0.000000  -0.000000   0.000002
    31  H    0.000000  -0.000000  -0.000000  -0.000000   0.000000  -0.000000
    32  H    0.000000   0.000000  -0.000000   0.000000   0.000000  -0.000002
    33  H    0.000000   0.000000   0.000000  -0.000000  -0.000000   0.000056
    34  H   -0.000000   0.000000   0.000000  -0.000000  -0.000000   0.000016
    35  H   -0.003580  -0.034903   0.005358  -0.000152   0.000000  -0.000000
    36  H   -0.007484  -0.050547  -0.010440  -0.000178   0.000003   0.000000
    37  H    0.006115  -0.036428  -0.002112   0.000080  -0.000003  -0.000000
              7          8          9         10         11         12
     1  C   -0.000006   0.000000   0.000000  -0.000000   0.000000  -0.000000
     2  N    0.000001  -0.000000  -0.000000  -0.000000   0.000001   0.000000
     3  C    0.000575  -0.000007  -0.000000   0.000002  -0.000132  -0.000000
     4  C   -0.007304   0.000567  -0.000021  -0.000068   0.003093   0.000002
     5  O   -0.060940   0.003379   0.000328   0.002560  -0.049098  -0.000065
     6  C    0.457223   0.003474  -0.037644  -0.004314   0.510782   0.006171
     7  C    5.127685   0.470352  -0.020997  -0.044101  -0.058819  -0.000087
     8  C    0.470352   5.035957   0.508272  -0.014370  -0.059204   0.010463
     9  C   -0.020997   0.508272   4.730835   0.569213  -0.023659  -0.050141
    10  C   -0.044101  -0.014370   0.569213   4.734047   0.482193   0.347675
    11  C   -0.058819  -0.059204  -0.023659   0.482193   5.163056  -0.070819
    12  C   -0.000087   0.010463  -0.050141   0.347675  -0.070819   5.165607
    13  C    0.000012   0.000157  -0.011326  -0.030857   0.003594   0.359069
    14  C   -0.000215   0.003355  -0.032632  -0.009177   0.000193  -0.044333
    15  C    0.007706  -0.073758   0.349731  -0.052698   0.010134  -0.030682
    16  C    0.000000   0.000000  -0.000000   0.000000  -0.000000  -0.000000
    17  H   -0.000008  -0.000000   0.000000  -0.000000  -0.000000  -0.000000
    18  H    0.000000  -0.000000  -0.000000  -0.000000   0.000000   0.000000
    19  H    0.000000  -0.000000  -0.000000   0.000000  -0.000000   0.000000
    20  H    0.000019  -0.000000   0.000000  -0.000000  -0.000022  -0.000000
    21  H    0.000018  -0.000000   0.000000  -0.000000  -0.000013  -0.000000
    22  H    0.005833  -0.000177   0.000002  -0.000024   0.000334  -0.000000
    23  H    0.004528  -0.000063  -0.000009   0.000011   0.000045  -0.000000
    24  H    0.350294  -0.037355   0.003428   0.001015   0.004297   0.000009
    25  H   -0.042303   0.352640  -0.041011   0.004695   0.000817  -0.000199
    26  H    0.007766   0.000073   0.005209  -0.047381   0.343077  -0.008777
    27  H    0.000023  -0.000178   0.002280  -0.032484  -0.003688   0.362738
    28  H    0.000057  -0.000294  -0.001825  -0.031747  -0.003517   0.359088
    29  H   -0.000003  -0.000144  -0.000923  -0.001633  -0.000001  -0.039280
    30  H   -0.000000   0.000006   0.000441   0.003660  -0.000125  -0.030296
    31  H    0.000003  -0.000129   0.003970   0.000421   0.000006   0.004891
    32  H   -0.000005   0.000113  -0.001250  -0.001013  -0.000232  -0.002736
    33  H   -0.000193  -0.002991  -0.032345  -0.002750  -0.000310   0.001047
    34  H    0.000182  -0.004498  -0.034188   0.002888  -0.000152   0.000062
    35  H   -0.000000  -0.000000  -0.000000  -0.000000   0.000000   0.000000
    36  H   -0.000000  -0.000000   0.000000  -0.000000   0.000000   0.000000
    37  H    0.000000   0.000000  -0.000000   0.000000  -0.000000  -0.000000
             13         14         15         16         17         18
     1  C    0.000000  -0.000000   0.000000  -0.063773   0.380786   0.347527
     2  N   -0.000000   0.000000  -0.000000   0.328892  -0.037193  -0.051305
     3  C    0.000000   0.000000  -0.000000  -0.051454  -0.004285  -0.009061
     4  C   -0.000000   0.000000  -0.000000   0.004432   0.001812  -0.001213
     5  O    0.000000  -0.000000   0.000001  -0.000037  -0.000019   0.000008
     6  C   -0.000169   0.000001  -0.000023   0.000001   0.000003   0.000001
     7  C    0.000012  -0.000215   0.007706   0.000000  -0.000008   0.000000
     8  C    0.000157   0.003355  -0.073758   0.000000  -0.000000  -0.000000
     9  C   -0.011326  -0.032632   0.349731  -0.000000   0.000000  -0.000000
    10  C   -0.030857  -0.009177  -0.052698   0.000000  -0.000000  -0.000000
    11  C    0.003594   0.000193   0.010134  -0.000000  -0.000000   0.000000
    12  C    0.359069  -0.044333  -0.030682  -0.000000  -0.000000   0.000000
    13  C    5.016816   0.377185  -0.042960   0.000000   0.000000   0.000000
    14  C    0.377185   5.012545   0.361008  -0.000000   0.000000  -0.000000
    15  C   -0.042960   0.361008   5.166686  -0.000000  -0.000000   0.000000
    16  C    0.000000  -0.000000  -0.000000   4.984515   0.005921  -0.006661
    17  H    0.000000   0.000000  -0.000000   0.005921   0.569780  -0.043049
    18  H    0.000000  -0.000000   0.000000  -0.006661  -0.043049   0.652431
    19  H    0.000000   0.000000   0.000000  -0.004768  -0.027795  -0.039950
    20  H    0.000000  -0.000000   0.000000  -0.004340   0.000030  -0.000366
    21  H   -0.000000  -0.000000   0.000000  -0.006900  -0.001104   0.015155
    22  H    0.000000  -0.000000   0.000000  -0.000072   0.002350   0.000179
    23  H   -0.000000   0.000000  -0.000000  -0.000022  -0.000083   0.000327
    24  H   -0.000000   0.000002  -0.000193  -0.000000   0.000072  -0.000002
    25  H    0.000011   0.000150  -0.008616  -0.000000  -0.000000   0.000000
    26  H    0.000163   0.000011  -0.000159  -0.000000   0.000000   0.000000
    27  H   -0.034575   0.005504   0.000075  -0.000000   0.000000  -0.000000
    28  H   -0.034885  -0.004867   0.000783   0.000000  -0.000000   0.000000
    29  H    0.376196  -0.043427  -0.003869   0.000000  -0.000000  -0.000000
    30  H    0.367921  -0.034593   0.004901  -0.000000  -0.000000   0.000000
    31  H   -0.034552   0.366742  -0.030904  -0.000000   0.000000  -0.000000
    32  H   -0.044136   0.376167  -0.040332   0.000000  -0.000000  -0.000000
    33  H   -0.006750  -0.035487   0.357396  -0.000000   0.000000  -0.000000
    34  H    0.005711  -0.033750   0.362867   0.000000  -0.000000   0.000000
    35  H   -0.000000   0.000000  -0.000000   0.378899   0.000170  -0.001384
    36  H    0.000000  -0.000000   0.000000   0.350890  -0.000413   0.013761
    37  H   -0.000000   0.000000  -0.000000   0.379565  -0.000215  -0.000415
             19         20         21         22         23         24
     1  C    0.378951   0.006103  -0.009413   0.003226  -0.000816  -0.000001
     2  N   -0.033948  -0.036097  -0.049711  -0.001791   0.007324   0.000007
     3  C    0.005623   0.370601   0.340577  -0.038615  -0.039089  -0.000011
     4  C    0.000192  -0.030718  -0.046940   0.358768   0.352501   0.005889
     5  O   -0.000001   0.003203   0.004548  -0.038056  -0.035807  -0.007132
     6  C   -0.000000   0.000136   0.000123  -0.003391  -0.004764  -0.046339
     7  C    0.000000   0.000019   0.000018   0.005833   0.004528   0.350294
     8  C   -0.000000  -0.000000  -0.000000  -0.000177  -0.000063  -0.037355
     9  C   -0.000000   0.000000   0.000000   0.000002  -0.000009   0.003428
    10  C    0.000000  -0.000000  -0.000000  -0.000024   0.000011   0.001015
    11  C   -0.000000  -0.000022  -0.000013   0.000334   0.000045   0.004297
    12  C    0.000000  -0.000000  -0.000000  -0.000000  -0.000000   0.000009
    13  C    0.000000   0.000000  -0.000000   0.000000  -0.000000  -0.000000
    14  C    0.000000  -0.000000  -0.000000  -0.000000   0.000000   0.000002
    15  C    0.000000   0.000000   0.000000   0.000000  -0.000000  -0.000193
    16  C   -0.004768  -0.004340  -0.006900  -0.000072  -0.000022  -0.000000
    17  H   -0.027795   0.000030  -0.001104   0.002350  -0.000083   0.000072
    18  H   -0.039950  -0.000366   0.015155   0.000179   0.000327  -0.000002
    19  H    0.566474  -0.000161  -0.000343  -0.000018  -0.000080  -0.000000
    20  H   -0.000161   0.583913  -0.047881   0.006036  -0.008266   0.000008
    21  H   -0.000343  -0.047881   0.664423  -0.007585   0.007323   0.000003
    22  H   -0.000018   0.006036  -0.007585   0.624587  -0.055116   0.001776
    23  H   -0.000080  -0.008266   0.007323  -0.055116   0.618714   0.002121
    24  H   -0.000000   0.000008   0.000003   0.001776   0.002121   0.599870
    25  H    0.000000   0.000000   0.000000  -0.000000   0.000002  -0.005665
    26  H    0.000000   0.000010   0.000013   0.000036   0.000028  -0.000175
    27  H    0.000000  -0.000000  -0.000000  -0.000000   0.000000  -0.000000
    28  H   -0.000000  -0.000000   0.000000   0.000000  -0.000000  -0.000000
    29  H   -0.000000  -0.000000   0.000000  -0.000000   0.000000  -0.000000
    30  H    0.000000  -0.000000  -0.000000   0.000000  -0.000000   0.000000
    31  H   -0.000000   0.000000   0.000000  -0.000000   0.000000  -0.000000
    32  H   -0.000000  -0.000000   0.000000  -0.000000   0.000000   0.000000
    33  H   -0.000000  -0.000000   0.000000  -0.000000   0.000000   0.000002
    34  H    0.000000   0.000000  -0.000000   0.000000  -0.000000  -0.000009
    35  H    0.005620   0.000150  -0.000365   0.000008  -0.000001   0.000000
    36  H   -0.001412  -0.001705   0.015257  -0.000008   0.000041  -0.000000
    37  H    0.000164   0.005701  -0.001594  -0.000002  -0.000035  -0.000000
             25         26         27         28         29         30
     1  C   -0.000000   0.000000   0.000000  -0.000000  -0.000000  -0.000000
     2  N    0.000000   0.000000   0.000000   0.000000  -0.000000   0.000000
     3  C    0.000000  -0.000011  -0.000000   0.000000   0.000000  -0.000000
     4  C   -0.000009  -0.000311   0.000000  -0.000000   0.000000   0.000000
     5  O   -0.000047   0.000534  -0.000001   0.000000  -0.000000  -0.000000
     6  C    0.003050  -0.040472   0.000023  -0.000160   0.000004   0.000002
     7  C   -0.042303   0.007766   0.000023   0.000057  -0.000003  -0.000000
     8  C    0.352640   0.000073  -0.000178  -0.000294  -0.000144   0.000006
     9  C   -0.041011   0.005209   0.002280  -0.001825  -0.000923   0.000441
    10  C    0.004695  -0.047381  -0.032484  -0.031747  -0.001633   0.003660
    11  C    0.000817   0.343077  -0.003688  -0.003517  -0.000001  -0.000125
    12  C   -0.000199  -0.008777   0.362738   0.359088  -0.039280  -0.030296
    13  C    0.000011   0.000163  -0.034575  -0.034885   0.376196   0.367921
    14  C    0.000150   0.000011   0.005504  -0.004867  -0.043427  -0.034593
    15  C   -0.008616  -0.000159   0.000075   0.000783  -0.003869   0.004901
    16  C   -0.000000  -0.000000  -0.000000   0.000000   0.000000  -0.000000
    17  H   -0.000000   0.000000   0.000000  -0.000000  -0.000000  -0.000000
    18  H    0.000000   0.000000  -0.000000   0.000000  -0.000000   0.000000
    19  H    0.000000   0.000000   0.000000  -0.000000  -0.000000   0.000000
    20  H    0.000000   0.000010  -0.000000  -0.000000  -0.000000  -0.000000
    21  H    0.000000   0.000013  -0.000000   0.000000   0.000000  -0.000000
    22  H   -0.000000   0.000036  -0.000000   0.000000  -0.000000   0.000000
    23  H    0.000002   0.000028   0.000000  -0.000000   0.000000  -0.000000
    24  H   -0.005665  -0.000175  -0.000000  -0.000000  -0.000000   0.000000
    25  H    0.609727   0.000020   0.000003   0.000003   0.000000  -0.000000
    26  H    0.000020   0.610438   0.003963   0.001366  -0.000003  -0.000007
    27  H    0.000003   0.003963   0.591566  -0.034168  -0.006041  -0.000995
    28  H    0.000003   0.001366  -0.034168   0.595825   0.005808  -0.006398
    29  H    0.000000  -0.000003  -0.006041   0.005808   0.607356  -0.036503
    30  H   -0.000000  -0.000007  -0.000995  -0.006398  -0.036503   0.608102
    31  H   -0.000006  -0.000000  -0.000158  -0.000127  -0.003727  -0.003550
    32  H    0.000000  -0.000000   0.000081   0.003662   0.006112  -0.003561
    33  H    0.001040   0.000002   0.000096  -0.000033   0.004728  -0.000078
    34  H    0.004902   0.000003   0.000003   0.000064   0.000093  -0.000177
    35  H    0.000000   0.000000   0.000000  -0.000000   0.000000   0.000000
    36  H    0.000000   0.000000  -0.000000   0.000000  -0.000000   0.000000
    37  H   -0.000000  -0.000000   0.000000  -0.000000   0.000000  -0.000000
             31         32         33         34         35         36
     1  C    0.000000   0.000000   0.000000  -0.000000  -0.003580  -0.007484
     2  N   -0.000000   0.000000   0.000000   0.000000  -0.034903  -0.050547
     3  C   -0.000000  -0.000000   0.000000   0.000000   0.005358  -0.010440
     4  C   -0.000000   0.000000  -0.000000  -0.000000  -0.000152  -0.000178
     5  O    0.000000   0.000000  -0.000000  -0.000000   0.000000   0.000003
     6  C   -0.000000  -0.000002   0.000056   0.000016  -0.000000   0.000000
     7  C    0.000003  -0.000005  -0.000193   0.000182  -0.000000  -0.000000
[...]
    28    N    2  dyz    Ryd( 3d)     0.00111
    29    N    2  dx2y2  Ryd( 3d)     0.00053
    30    N    2  dz2    Ryd( 3d)     0.00110

    31    C    3  S      Cor( 1S)     1.99933
    32    C    3  S      Val( 2S)     1.02062
    33    C    3  S      Ryd( 3S)     0.00218
    34    C    3  S      Ryd( 4S)     0.00004
    35    C    3  px     Val( 2p)     0.90549
    36    C    3  px     Ryd( 3p)     0.00304
    37    C    3  py     Val( 2p)     1.08955
    38    C    3  py     Ryd( 3p)     0.00229
    39    C    3  pz     Val( 2p)     1.24475
    40    C    3  pz     Ryd( 3p)     0.00519
    41    C    3  dxy    Ryd( 3d)     0.00127
    42    C    3  dxz    Ryd( 3d)     0.00065
    43    C    3  dyz    Ryd( 3d)     0.00159
    44    C    3  dx2y2  Ryd( 3d)     0.00087
    45    C    3  dz2    Ryd( 3d)     0.00081

    46    C    4  S      Cor( 1S)     1.99924
    47    C    4  S      Val( 2S)     1.03122
    48    C    4  S      Ryd( 3S)     0.00258
    49    C    4  S      Ryd( 4S)     0.00004
    50    C    4  px     Val( 2p)     0.81623
    51    C    4  px     Ryd( 3p)     0.00303
    52    C    4  py     Val( 2p)     1.01327
    53    C    4  py     Ryd( 3p)     0.00318
    54    C    4  pz     Val( 2p)     1.23488
    55    C    4  pz     Ryd( 3p)     0.00181
    56    C    4  dxy    Ryd( 3d)     0.00173
    57    C    4  dxz    Ryd( 3d)     0.00090
    58    C    4  dyz    Ryd( 3d)     0.00170
    59    C    4  dx2y2  Ryd( 3d)     0.00109
    60    C    4  dz2    Ryd( 3d)     0.00105

    61    O    5  S      Cor( 1S)     1.99974
    62    O    5  S      Val( 2S)     1.59505
    63    O    5  S      Ryd( 3S)     0.00097
    64    O    5  S      Ryd( 4S)     0.00009
    65    O    5  px     Val( 2p)     1.38842
    66    O    5  px     Ryd( 3p)     0.00083
    67    O    5  py     Val( 2p)     1.73193
    68    O    5  py     Ryd( 3p)     0.00246
    69    O    5  pz     Val( 2p)     1.72022
    70    O    5  pz     Ryd( 3p)     0.00243
    71    O    5  dxy    Ryd( 3d)     0.00132
    72    O    5  dxz    Ryd( 3d)     0.00043
    73    O    5  dyz    Ryd( 3d)     0.00149
    74    O    5  dx2y2  Ryd( 3d)     0.00129
    75    O    5  dz2    Ryd( 3d)     0.00076

    76    C    6  S      Cor( 1S)     1.99879
    77    C    6  S      Val( 2S)     0.83811
    78    C    6  S      Ryd( 3S)     0.00153
    79    C    6  S      Ryd( 4S)     0.00013
    80    C    6  px     Val( 2p)     0.78501
    81    C    6  px     Ryd( 3p)     0.00545
    82    C    6  py     Val( 2p)     1.04192
    83    C    6  py     Ryd( 3p)     0.00734
    84    C    6  pz     Val( 2p)     0.97315
    85    C    6  pz     Ryd( 3p)     0.00195
    86    C    6  dxy    Ryd( 3d)     0.00165
    87    C    6  dxz    Ryd( 3d)     0.00165
    88    C    6  dyz    Ryd( 3d)     0.00131
    89    C    6  dx2y2  Ryd( 3d)     0.00148
    90    C    6  dz2    Ryd( 3d)     0.00055

    91    C    7  S      Cor( 1S)     1.99905
    92    C    7  S      Val( 2S)     0.95678
    93    C    7  S      Ryd( 3S)     0.00065
    94    C    7  S      Ryd( 4S)     0.00005
    95    C    7  px     Val( 2p)     1.14362
    96    C    7  px     Ryd( 3p)     0.00354
    97    C    7  py     Val( 2p)     1.11175
    98    C    7  py     Ryd( 3p)     0.00430
    99    C    7  pz     Val( 2p)     1.10029
   100    C    7  pz     Ryd( 3p)     0.00536
   101    C    7  dxy    Ryd( 3d)     0.00073
   102    C    7  dxz    Ryd( 3d)     0.00056
   103    C    7  dyz    Ryd( 3d)     0.00052
   104    C    7  dx2y2  Ryd( 3d)     0.00064
   105    C    7  dz2    Ryd( 3d)     0.00046

   106    C    8  S      Cor( 1S)     1.99908
   107    C    8  S      Val( 2S)     0.94218
   108    C    8  S      Ryd( 3S)     0.00082
   109    C    8  S      Ryd( 4S)     0.00005
   110    C    8  px     Val( 2p)     1.05400
   111    C    8  px     Ryd( 3p)     0.00455
   112    C    8  py     Val( 2p)     1.17883
   113    C    8  py     Ryd( 3p)     0.00510
   114    C    8  pz     Val( 2p)     1.09409
   115    C    8  pz     Ryd( 3p)     0.00643
   116    C    8  dxy    Ryd( 3d)     0.00066
   117    C    8  dxz    Ryd( 3d)     0.00061
   118    C    8  dyz    Ryd( 3d)     0.00037
   119    C    8  dx2y2  Ryd( 3d)     0.00079
   120    C    8  dz2    Ryd( 3d)     0.00043

   121    C    9  S      Cor( 1S)     1.99899
   122    C    9  S      Val( 2S)     0.88222
   123    C    9  S      Ryd( 3S)     0.00071
   124    C    9  S      Ryd( 4S)     0.00005
   125    C    9  px     Val( 2p)     1.06084
   126    C    9  px     Ryd( 3p)     0.00429
   127    C    9  py     Val( 2p)     1.07813
   128    C    9  py     Ryd( 3p)     0.00398
   129    C    9  pz     Val( 2p)     0.92085
   130    C    9  pz     Ryd( 3p)     0.00292
   131    C    9  dxy    Ryd( 3d)     0.00079
   132    C    9  dxz    Ryd( 3d)     0.00060
   133    C    9  dyz    Ryd( 3d)     0.00098
   134    C    9  dx2y2  Ryd( 3d)     0.00077
   135    C    9  dz2    Ryd( 3d)     0.00039

   136    C   10  S      Cor( 1S)     1.99901
   137    C   10  S      Val( 2S)     0.86896
   138    C   10  S      Ryd( 3S)     0.00072
   139    C   10  S      Ryd( 4S)     0.00005
   140    C   10  px     Val( 2p)     1.06766
   141    C   10  px     Ryd( 3p)     0.00443
   142    C   10  py     Val( 2p)     1.06613
   143    C   10  py     Ryd( 3p)     0.00427
   144    C   10  pz     Val( 2p)     1.04707
   145    C   10  pz     Ryd( 3p)     0.00412
   146    C   10  dxy    Ryd( 3d)     0.00062
   147    C   10  dxz    Ryd( 3d)     0.00072
   148    C   10  dyz    Ryd( 3d)     0.00058
   149    C   10  dx2y2  Ryd( 3d)     0.00080
   150    C   10  dz2    Ryd( 3d)     0.00037

   151    C   11  S      Cor( 1S)     1.99900
   152    C   11  S      Val( 2S)     0.94469
   153    C   11  S      Ryd( 3S)     0.00095
   154    C   11  S      Ryd( 4S)     0.00005
   155    C   11  px     Val( 2p)     1.06050
   156    C   11  px     Ryd( 3p)     0.00476
   157    C   11  py     Val( 2p)     1.17877
   158    C   11  py     Ryd( 3p)     0.00440
   159    C   11  pz     Val( 2p)     1.12038
   160    C   11  pz     Ryd( 3p)     0.00770
   161    C   11  dxy    Ryd( 3d)     0.00076
   162    C   11  dxz    Ryd( 3d)     0.00058
   163    C   11  dyz    Ryd( 3d)     0.00041
   164    C   11  dx2y2  Ryd( 3d)     0.00061
   165    C   11  dz2    Ryd( 3d)     0.00045

   166    C   12  S      Cor( 1S)     1.99929
   167    C   12  S      Val( 2S)     1.02625
   168    C   12  S      Ryd( 3S)     0.00068
   169    C   12  S      Ryd( 4S)     0.00002
   170    C   12  px     Val( 2p)     1.04445
   171    C   12  px     Ryd( 3p)     0.00241
   172    C   12  py     Val( 2p)     1.16396
   173    C   12  py     Ryd( 3p)     0.00306
   174    C   12  pz     Val( 2p)     1.22142
   175    C   12  pz     Ryd( 3p)     0.00172
   176    C   12  dxy    Ryd( 3d)     0.00075
   177    C   12  dxz    Ryd( 3d)     0.00047
   178    C   12  dyz    Ryd( 3d)     0.00074
   179    C   12  dx2y2  Ryd( 3d)     0.00068
   180    C   12  dz2    Ryd( 3d)     0.00110

   181    C   13  S      Cor( 1S)     1.99934
   182    C   13  S      Val( 2S)     1.03147
   183    C   13  S      Ryd( 3S)     0.00061
   184    C   13  S      Ryd( 4S)     0.00002
   185    C   13  px     Val( 2p)     1.11040
   186    C   13  px     Ryd( 3p)     0.00273
   187    C   13  py     Val( 2p)     1.09563
   188    C   13  py     Ryd( 3p)     0.00287
   189    C   13  pz     Val( 2p)     1.20522
   190    C   13  pz     Ryd( 3p)     0.00244
   191    C   13  dxy    Ryd( 3d)     0.00094
   192    C   13  dxz    Ryd( 3d)     0.00038
   193    C   13  dyz    Ryd( 3d)     0.00041
   194    C   13  dx2y2  Ryd( 3d)     0.00055
   195    C   13  dz2    Ryd( 3d)     0.00126

   196    C   14  S      Cor( 1S)     1.99933
   197    C   14  S      Val( 2S)     1.03197
   198    C   14  S      Ryd( 3S)     0.00067
   199    C   14  S      Ryd( 4S)     0.00002
   200    C   14  px     Val( 2p)     1.16887
   201    C   14  px     Ryd( 3p)     0.00401
   202    C   14  py     Val( 2p)     1.04560
   203    C   14  py     Ryd( 3p)     0.00191
   204    C   14  pz     Val( 2p)     1.19687
   205    C   14  pz     Ryd( 3p)     0.00216
   206    C   14  dxy    Ryd( 3d)     0.00071
   207    C   14  dxz    Ryd( 3d)     0.00029
   208    C   14  dyz    Ryd( 3d)     0.00043
   209    C   14  dx2y2  Ryd( 3d)     0.00080
   210    C   14  dz2    Ryd( 3d)     0.00130

   211    C   15  S      Cor( 1S)     1.99927
   212    C   15  S      Val( 2S)     1.03086
   213    C   15  S      Ryd( 3S)     0.00071
   214    C   15  S      Ryd( 4S)     0.00002
   215    C   15  px     Val( 2p)     1.04651
   216    C   15  px     Ryd( 3p)     0.00186
   217    C   15  py     Val( 2p)     1.17635
   218    C   15  py     Ryd( 3p)     0.00403
   219    C   15  pz     Val( 2p)     1.21261
   220    C   15  pz     Ryd( 3p)     0.00159
   221    C   15  dxy    Ryd( 3d)     0.00054
   222    C   15  dxz    Ryd( 3d)     0.00052
   223    C   15  dyz    Ryd( 3d)     0.00062
   224    C   15  dx2y2  Ryd( 3d)     0.00093
   225    C   15  dz2    Ryd( 3d)     0.00103

   226    C   16  S      Cor( 1S)     1.99949
   227    C   16  S      Val( 2S)     1.08426
   228    C   16  S      Ryd( 3S)     0.00105
   229    C   16  S      Ryd( 4S)     0.00003
   230    C   16  px     Val( 2p)     1.04028
   231    C   16  px     Ryd( 3p)     0.00219
   232    C   16  py     Val( 2p)     1.12819
   233    C   16  py     Ryd( 3p)     0.00246
   234    C   16  pz     Val( 2p)     1.20405
   235    C   16  pz     Ryd( 3p)     0.00198
   236    C   16  dxy    Ryd( 3d)     0.00155
   237    C   16  dxz    Ryd( 3d)     0.00077
   238    C   16  dyz    Ryd( 3d)     0.00128
   239    C   16  dx2y2  Ryd( 3d)     0.00067
   240    C   16  dz2    Ryd( 3d)     0.00089

   241    H   17  S      Val( 1S)     0.77642
   242    H   17  S      Ryd( 2S)     0.00082

   243    H   18  S      Val( 1S)     0.80369
   244    H   18  S      Ryd( 2S)     0.00338

   245    H   19  S      Val( 1S)     0.76907
   246    H   19  S      Ryd( 2S)     0.00085

   247    H   20  S      Val( 1S)     0.75867
   248    H   20  S      Ryd( 2S)     0.00180

   249    H   21  S      Val( 1S)     0.78832
   250    H   21  S      Ryd( 2S)     0.00392

   251    H   22  S      Val( 1S)     0.78199
   252    H   22  S      Ryd( 2S)     0.00232

   253    H   23  S      Val( 1S)     0.77039
   254    H   23  S      Ryd( 2S)     0.00317

   255    H   24  S      Val( 1S)     0.77138
   256    H   24  S      Ryd( 2S)     0.00094

   257    H   25  S      Val( 1S)     0.77475
   258    H   25  S      Ryd( 2S)     0.00109

   259    H   26  S      Val( 1S)     0.76616
   260    H   26  S      Ryd( 2S)     0.00149

   261    H   27  S      Val( 1S)     0.76068
   262    H   27  S      Ryd( 2S)     0.00279

   263    H   28  S      Val( 1S)     0.76769
   264    H   28  S      Ryd( 2S)     0.00422

   265    H   29  S      Val( 1S)     0.77164
   266    H   29  S      Ryd( 2S)     0.00200

   267    H   30  S      Val( 1S)     0.76220
   268    H   30  S      Ryd( 2S)     0.00175

   269    H   31  S      Val( 1S)     0.76171
   270    H   31  S      Ryd( 2S)     0.00137

   271    H   32  S      Val( 1S)     0.76947
   272    H   32  S      Ryd( 2S)     0.00201

   273    H   33  S      Val( 1S)     0.74819
   274    H   33  S      Ryd( 2S)     0.00214

   275    H   34  S      Val( 1S)     0.75145
   276    H   34  S      Ryd( 2S)     0.00241

   277    H   35  S      Val( 1S)     0.77111
   278    H   35  S      Ryd( 2S)     0.00087

   279    H   36  S      Val( 1S)     0.80392
   280    H   36  S      Ryd( 2S)     0.00325

   281    H   37  S      Val( 1S)     0.77157
   282    H   37  S      Ryd( 2S)     0.00079

 WARNING:  1 low occupancy (<1.9990e) core orbital  found on  C    6
           1 low occupancy (<1.9990e) core orbital  found on  C    9


 Summary of Natural Population Analysis:                  
                                                          
                                       Natural Population 
                Natural  -----------------------------------------------
    Atom  No    Charge         Core      Valence    Rydberg      Total
 -----------------------------------------------------------------------
      C    1   -0.47298      1.99948     4.46046    0.01304     6.47298
      N    2   -0.50096      1.99948     5.48696    0.01453     7.50096
      C    3   -0.27768      1.99933     4.26041    0.01794     6.27768
      C    4   -0.11195      1.99924     4.09560    0.01712     6.11195
      O    5   -0.44742      1.99974     6.43562    0.01206     8.44742
      C    6    0.33997      1.99879     3.63820    0.02304     5.66003
      C    7   -0.32831      1.99905     4.31245    0.01682     6.32831
      C    8   -0.28796      1.99908     4.26910    0.01979     6.28796
      C    9    0.04351      1.99899     3.94204    0.01546     5.95649
      C   10   -0.06554      1.99901     4.04982    0.01671     6.06554
      C   11   -0.32401      1.99900     4.30434    0.02067     6.32401
      C   12   -0.46700      1.99929     4.45609    0.01162     6.46700
      C   13   -0.45428      1.99934     4.44272    0.01222     6.45428
      C   14   -0.45495      1.99933     4.44332    0.01230     6.45495
      C   15   -0.47746      1.99927     4.46633    0.01186     6.47746
      C   16   -0.46914      1.99949     4.45677    0.01288     6.46914
      H   17    0.22277      0.00000     0.77642    0.00082     0.77723
      H   18    0.19293      0.00000     0.80369    0.00338     0.80707
      H   19    0.23008      0.00000     0.76907    0.00085     0.76992
      H   20    0.23952      0.00000     0.75867    0.00180     0.76048
      H   21    0.20777      0.00000     0.78832    0.00392     0.79223
      H   22    0.21570      0.00000     0.78199    0.00232     0.78430
      H   23    0.22644      0.00000     0.77039    0.00317     0.77356
      H   24    0.22768      0.00000     0.77138    0.00094     0.77232
      H   25    0.22416      0.00000     0.77475    0.00109     0.77584
      H   26    0.23235      0.00000     0.76616    0.00149     0.76765
      H   27    0.23653      0.00000     0.76068    0.00279     0.76347
      H   28    0.22809      0.00000     0.76769    0.00422     0.77191
      H   29    0.22637      0.00000     0.77164    0.00200     0.77363
      H   30    0.23606      0.00000     0.76220    0.00175     0.76394
      H   31    0.23692      0.00000     0.76171    0.00137     0.76308
      H   32    0.22853      0.00000     0.76947    0.00201     0.77147
      H   33    0.24967      0.00000     0.74819    0.00214     0.75033
      H   34    0.24615      0.00000     0.75145    0.00241     0.75385
      H   35    0.22802      0.00000     0.77111    0.00087     0.77198
      H   36    0.19283      0.00000     0.80392    0.00325     0.80717
      H   37    0.22763      0.00000     0.77157    0.00079     0.77237
 =======================================================================
   * Total *    0.00000     31.98791    87.72068    0.29141   120.00000

                                 Natural Population      
 --------------------------------------------------------
   Core                      31.98791 ( 99.9622% of  32)
   Valence                   87.72068 ( 99.6826% of  88)
   Natural Minimal Basis    119.70859 ( 99.7572% of 120)
   Natural Rydberg Basis      0.29141 (  0.2428% of 120)
 --------------------------------------------------------

    Atom  No          Natural Electron Configuration
 ----------------------------------------------------------------------------
      C    1      [core]2S( 1.08)2p( 3.38)3p( 0.01)3d( 0.01)
      N    2      [core]2S( 1.28)2p( 4.21)3p( 0.01)
      C    3      [core]2S( 1.02)2p( 3.24)3p( 0.01)3d( 0.01)
      C    4      [core]2S( 1.03)2p( 3.06)3p( 0.01)3d( 0.01)
      O    5      [core]2S( 1.60)2p( 4.84)3p( 0.01)3d( 0.01)
      C    6      [core]2S( 0.84)2p( 2.80)3p( 0.01)3d( 0.01)
      C    7      [core]2S( 0.96)2p( 3.36)3p( 0.01)
      C    8      [core]2S( 0.94)2p( 3.33)3p( 0.02)
      C    9      [core]2S( 0.88)2p( 3.06)3p( 0.01)
      C   10      [core]2S( 0.87)2p( 3.18)3p( 0.01)
      C   11      [core]2S( 0.94)2p( 3.36)3p( 0.02)
      C   12      [core]2S( 1.03)2p( 3.43)3p( 0.01)
      C   13      [core]2S( 1.03)2p( 3.41)3p( 0.01)
      C   14      [core]2S( 1.03)2p( 3.41)3p( 0.01)
      C   15      [core]2S( 1.03)2p( 3.44)3p( 0.01)
      C   16      [core]2S( 1.08)2p( 3.37)3p( 0.01)3d( 0.01)
      H   17            1S( 0.78)
      H   18            1S( 0.80)
      H   19            1S( 0.77)
      H   20            1S( 0.76)
      H   21            1S( 0.79)
      H   22            1S( 0.78)
      H   23            1S( 0.77)
      H   24            1S( 0.77)
      H   25            1S( 0.77)
      H   26            1S( 0.77)
      H   27            1S( 0.76)
      H   28            1S( 0.77)
      H   29            1S( 0.77)
      H   30            1S( 0.76)
      H   31            1S( 0.76)
      H   32            1S( 0.77)
      H   33            1S( 0.75)
      H   34            1S( 0.75)
      H   35            1S( 0.77)
      H   36            1S( 0.80)
      H   37            1S( 0.77)


 NBO analysis skipped by request.
 Leave Link  607 at Thu Sep 30 17:35:23 2021, MaxMem= 1610612736 cpu:      26.2
 (Enter /sw/target/amd/app/gaussian/Gaussian09RevA.02_gcc-4.9.2/g09/l9999.exe)
 1\1\GINC-HERMITE\SP\RTD-B3LYP-FC\6-31G(d)\C14H21N1O1\JSCHLEINITZ\30-Se
 p-2021\0\\#p TD(NStates=10, Root=1) b3lyp/6-31G* volume pop=NPA densit
 y=current Geom=AllCheck Guess=Read\\CN(CCOc1ccc2c(c1)CCCC2)C_conf_0\\0
 ,1\C,0,5.8717432961,-0.6364285321,-2.4009156965\N,0,5.1543469136,0.103
 8333183,-3.4329272709\C,0,3.8723828611,-0.5085021116,-3.7756203463\C,0
 ,4.0442243409,-1.7374804589,-4.6666255451\O,0,2.734990134,-2.210926903
 8,-4.9626576564\C,0,2.6016008356,-3.3185344516,-5.7549723805\C,0,3.667
 1223063,-4.0200706928,-6.3306992981\C,0,3.3908658892,-5.1338046468,-7.
 1241227805\C,0,2.0870272507,-5.5764782624,-7.365877335\C,0,1.020619443
 5,-4.8674121577,-6.7767775327\C,0,1.2918017034,-3.7506935536,-5.984092
 4115\C,0,-0.4210253388,-5.3169717167,-6.9543773976\C,0,-0.6183052366,-
 6.2763075089,-8.1351309705\C,0,0.4458677768,-7.3792911943,-8.110267393
 4\C,0,1.845001831,-6.7714032733,-8.2734495451\C,0,4.9977360765,1.50107
 5508,-3.0474877785\H,0,6.0473201304,-1.6686211616,-2.7177084112\H,0,5.
 3309309533,-0.6634015715,-1.4338811656\H,0,6.8487533686,-0.1714817705,
 -2.2309234913\H,0,3.2772719791,0.2210677535,-4.3351084128\H,0,3.280723
 5367,-0.785859214,-2.8820699517\H,0,4.6217219792,-2.526300495,-4.16544
 86297\H,0,4.5773018653,-1.4562883779,-5.5846540261\H,0,4.6948399848,-3
 .7135782018,-6.1725689825\H,0,4.2225497837,-5.6750341302,-7.5717615711
 \H,0,0.4806008318,-3.1922032158,-5.5237923988\H,0,-1.0704370937,-4.438
 7777968,-7.061247695\H,0,-0.7482330637,-5.8200040633,-6.0313469469\H,0
 ,-0.5428168318,-5.7221663781,-9.0816347763\H,0,-1.6271270211,-6.705453
 6765,-8.1001562716\H,0,0.2641185132,-8.1150244505,-8.9032543486\H,0,0.
 3842694032,-7.9204594184,-7.1552571649\H,0,1.9713948069,-6.4584095676,
 -9.3218237054\H,0,2.6148136351,-7.5335715433,-8.0955500338\H,0,5.98361
 9616,1.9413356762,-2.8616217635\H,0,4.3869773133,1.6384673179,-2.13328
 70691\H,0,4.5241678347,2.0606621054,-3.8609291236\\Version=AM64L-G09Re
 vA.02\State=1-A\HF=-676.1042456\RMSD=6.861e-09\Dipole=0.5693317,0.4989
 818,0.4946289\Quadrupole=-1.3391888,1.8649419,-0.5257532,2.3349194,3.3
 617551,5.3116344\PG=C01 [X(C14H21N1O1)]\\@


 ALL PAPERS THAT YOU SAVE WILL NEVER BE NEEDED UNTIL
 SUCH TIME AS THEY ARE DISPOSED OF, WHEN THEY BECOME
 ESSENTIAL.

           -- JOHN CORCORAN IN
              PAUL DICKSON'S "THE OFFICIAL RULES"
 Job cpu time:  0 days  5 hours 15 minutes 19.6 seconds.
 File lengths (MBytes):  RWF=    266 Int=      0 D2E=      0 Chk=     37 Scr=      1
 Normal termination of Gaussian 09 at Thu Sep 30 17:35:30 2021.
