 Entering Gaussian System, Link 0=g09
 Input=C14H14O2_7e93_conf_0.com
 Output=C14H14O2_7e93_conf_0.log
 Initial command:
 /sw/target/amd/app/gaussian/Gaussian09RevA.02_gcc-4.9.2/g09/l1.exe /home/jschleinitz/gaussian/Gau-2737677.inp -scrdir=/home/jschleinitz/gaussian/
 Entering Link 1 = /sw/target/amd/app/gaussian/Gaussian09RevA.02_gcc-4.9.2/g09/l1.exe PID=   2737679.
  
 Copyright (c) 1988,1990,1992,1993,1995,1998,2003,2009, Gaussian, Inc.
                  All Rights Reserved.
  
 This is part of the Gaussian(R) 09 program.  It is based on
 the Gaussian(R) 03 system (copyright 2003, Gaussian, Inc.),
 the Gaussian(R) 98 system (copyright 1998, Gaussian, Inc.),
 the Gaussian(R) 94 system (copyright 1995, Gaussian, Inc.),
 the Gaussian 92(TM) system (copyright 1992, Gaussian, Inc.),
 the Gaussian 90(TM) system (copyright 1990, Gaussian, Inc.),
 the Gaussian 88(TM) system (copyright 1988, Gaussian, Inc.),
 the Gaussian 86(TM) system (copyright 1986, Carnegie Mellon
 University), and the Gaussian 82(TM) system (copyright 1983,
 Carnegie Mellon University). Gaussian is a federally registered
 trademark of Gaussian, Inc.
  
 This software contains proprietary and confidential information,
 including trade secrets, belonging to Gaussian, Inc.
  
 This software is provided under written license and may be
 used, copied, transmitted, or stored only in accord with that
 written license.
  
 The following legend is applicable only to US Government
 contracts under FAR:
  
                    RESTRICTED RIGHTS LEGEND
  
 Use, reproduction and disclosure by the US Government is
 subject to restrictions as set forth in subparagraphs (a)
 and (c) of the Commercial Computer Software - Restricted
 Rights clause in FAR 52.227-19.
  
 Gaussian, Inc.
 340 Quinnipiac St., Bldg. 40, Wallingford CT 06492
  
  
 ---------------------------------------------------------------
 Warning -- This program may not be used in any manner that
 competes with the business of Gaussian, Inc. or will provide
 assistance to any competitor of Gaussian, Inc.  The licensee
 of this program is prohibited from giving any competitor of
 Gaussian, Inc. access to this program.  By using this program,
 the user acknowledges that Gaussian, Inc. is engaged in the
 business of creating and licensing software in the field of
 computational chemistry and represents and warrants to the
 licensee that it is not a competitor of Gaussian, Inc. and that
 it will not use this program in any manner prohibited above.
 ---------------------------------------------------------------
  

 Cite this work as:
 Gaussian 09, Revision A.02,
 M. J. Frisch, G. W. Trucks, H. B. Schlegel, G. E. Scuseria, 
 M. A. Robb, J. R. Cheeseman, G. Scalmani, V. Barone, B. Mennucci, 
 G. A. Petersson, H. Nakatsuji, M. Caricato, X. Li, H. P. Hratchian, 
 A. F. Izmaylov, J. Bloino, G. Zheng, J. L. Sonnenberg, M. Hada, 
 M. Ehara, K. Toyota, R. Fukuda, J. Hasegawa, M. Ishida, T. Nakajima, 
 Y. Honda, O. Kitao, H. Nakai, T. Vreven, J. A. Montgomery, Jr., 
 J. E. Peralta, F. Ogliaro, M. Bearpark, J. J. Heyd, E. Brothers, 
 K. N. Kudin, V. N. Staroverov, R. Kobayashi, J. Normand, 
 K. Raghavachari, A. Rendell, J. C. Burant, S. S. Iyengar, J. Tomasi, 
 M. Cossi, N. Rega, J. M. Millam, M. Klene, J. E. Knox, J. B. Cross, 
 V. Bakken, C. Adamo, J. Jaramillo, R. Gomperts, R. E. Stratmann, 
 O. Yazyev, A. J. Austin, R. Cammi, C. Pomelli, J. W. Ochterski, 
 R. L. Martin, K. Morokuma, V. G. Zakrzewski, G. A. Voth, 
 P. Salvador, J. J. Dannenberg, S. Dapprich, A. D. Daniels, 
 O. Farkas, J. B. Foresman, J. V. Ortiz, J. Cioslowski, 
 and D. J. Fox, Gaussian, Inc., Wallingford CT, 2009.
 
 ******************************************
 Gaussian 09:  AM64L-G09RevA.02 11-Jun-2009
                30-Sep-2021 
 ******************************************
 %nproc=5
 Will use up to    5 processors via shared memory.
 %mem=10gb
 %chk=C14H14O2_7e93_conf_0.chk
 -----------------------------------
 #p opt b3lyp/6-31G* scf=(xqc,tight)
 -----------------------------------
 1/14=-1,18=20,19=15,26=3,38=1/1,3;
 2/9=110,12=2,17=6,18=5,40=1/2;
 3/5=1,6=6,7=1,11=2,16=1,25=1,30=1,71=1,74=-5/1,2,3;
 4//1;
 5/5=2,8=3,13=1,32=2,38=5/2,8;
 6/7=2,8=2,9=2,10=2,28=1/1;
 7//1,2,3,16;
 1/14=-1,18=20,19=15/3(2);
 2/9=110/2;
 99//99;
 2/9=110/2;
 3/5=1,6=6,7=1,11=2,16=1,25=1,30=1,71=1,74=-5/1,2,3;
 4/5=5,16=3/1;
 5/5=2,8=3,13=1,32=2,38=5/2,8;
 7//1,2,3,16;
 1/14=-1,18=20,19=15/3(-5);
 2/9=110/2;
 6/7=2,8=2,9=2,10=2,19=2,28=1/1;
 99/9=1/99;
 Leave Link    1 at Thu Sep 30 09:54:17 2021, MaxMem= 1342177280 cpu:       0.1
 (Enter /sw/target/amd/app/gaussian/Gaussian09RevA.02_gcc-4.9.2/g09/l101.exe)
 -------------------------------
 COc1ccc(cc1)C(c1ccccc1)O_conf_0
 -------------------------------
 Symbolic Z-matrix:
 Charge =  0 Multiplicity = 1
 C                     1.16822  -0.38336   0.22911 
 O                     2.45121   0.11539  -0.12558 
 C                     3.11507   0.84486   0.82162 
 C                     2.6575    1.13777   2.10499 
 C                     3.44079   1.90879   2.97408 
 C                     4.69842   2.39733   2.58014 
 C                     5.14591   2.09302   1.28686 
 C                     4.36227   1.32475   0.42071 
 C                     5.51131   3.26302   3.53049 
 C                     5.86553   2.5966    4.84888 
 C                     6.62224   1.41352   4.88089 
 C                     6.97582   0.82909   6.09799 
 C                     6.58071   1.41944   7.29681 
 C                     5.83108   2.59401   7.28055 
 C                     5.47689   3.18127   6.06479 
 O                     6.71619   3.72848   2.91498 
 H                     0.77135  -0.92782  -0.63337 
 H                     0.47405   0.43305   0.45452 
 H                     1.23649  -1.08753   1.06474 
 H                     1.69556   0.78683   2.46289 
 H                     3.05808   2.12677   3.96948 
 H                     6.10858   2.46005   0.93626 
 H                     4.72754   1.10555  -0.57953 
 H                     4.91505   4.16358   3.72459 
 H                     6.94038   0.94397   3.95122 
 H                     7.56137  -0.08666   6.11012 
 H                     6.85812   0.96434   8.24404 
 H                     5.52542   3.05501   8.21655 
 H                     4.89812   4.10253   6.07383 
 H                     7.38523   3.80059   3.61609 
 
 NAtoms=     30 NQM=     30 NQMF=      0 NMic=      0 NMicF=      0 NTot=     30.
                    Isotopes and Nuclear Properties:
 (Nuclear quadrupole moments (NQMom) in fm**2, nuclear magnetic moments (NMagM)
  in nuclear magnetons)

  Atom         1           2           3           4           5           6           7           8           9          10
 IAtWgt=          12          16          12          12          12          12          12          12          12          12
 AtmWgt=  12.0000000  15.9949146  12.0000000  12.0000000  12.0000000  12.0000000  12.0000000  12.0000000  12.0000000  12.0000000
 NucSpn=           0           0           0           0           0           0           0           0           0           0
 AtZEff=   0.0000000   0.0000000   0.0000000   0.0000000   0.0000000   0.0000000   0.0000000   0.0000000   0.0000000   0.0000000
 NQMom=    0.0000000   0.0000000   0.0000000   0.0000000   0.0000000   0.0000000   0.0000000   0.0000000   0.0000000   0.0000000
 NMagM=    0.0000000   0.0000000   0.0000000   0.0000000   0.0000000   0.0000000   0.0000000   0.0000000   0.0000000   0.0000000

  Atom        11          12          13          14          15          16          17          18          19          20
 IAtWgt=          12          12          12          12          12          16           1           1           1           1
 AtmWgt=  12.0000000  12.0000000  12.0000000  12.0000000  12.0000000  15.9949146   1.0078250   1.0078250   1.0078250   1.0078250
 NucSpn=           0           0           0           0           0           0           1           1           1           1
 AtZEff=   0.0000000   0.0000000   0.0000000   0.0000000   0.0000000   0.0000000   0.0000000   0.0000000   0.0000000   0.0000000
 NQMom=    0.0000000   0.0000000   0.0000000   0.0000000   0.0000000   0.0000000   0.0000000   0.0000000   0.0000000   0.0000000
 NMagM=    0.0000000   0.0000000   0.0000000   0.0000000   0.0000000   0.0000000   2.7928460   2.7928460   2.7928460   2.7928460

  Atom        21          22          23          24          25          26          27          28          29          30
 IAtWgt=           1           1           1           1           1           1           1           1           1           1
 AtmWgt=   1.0078250   1.0078250   1.0078250   1.0078250   1.0078250   1.0078250   1.0078250   1.0078250   1.0078250   1.0078250
 NucSpn=           1           1           1           1           1           1           1           1           1           1
 AtZEff=   0.0000000   0.0000000   0.0000000   0.0000000   0.0000000   0.0000000   0.0000000   0.0000000   0.0000000   0.0000000
 NQMom=    0.0000000   0.0000000   0.0000000   0.0000000   0.0000000   0.0000000   0.0000000   0.0000000   0.0000000   0.0000000
 NMagM=    2.7928460   2.7928460   2.7928460   2.7928460   2.7928460   2.7928460   2.7928460   2.7928460   2.7928460   2.7928460
 Leave Link  101 at Thu Sep 30 09:54:18 2021, MaxMem= 1342177280 cpu:       0.2
 (Enter /sw/target/amd/app/gaussian/Gaussian09RevA.02_gcc-4.9.2/g09/l103.exe)

 GradGradGradGradGradGradGradGradGradGradGradGradGradGradGradGradGradGrad
 Berny optimization.
 Initialization pass.
                           ----------------------------
                           !    Initial Parameters    !
                           ! (Angstroms and Degrees)  !
 --------------------------                            --------------------------
 ! Name  Definition              Value          Derivative Info.                !
 --------------------------------------------------------------------------------
 ! R1    R(1,2)                  1.4215         estimate D2E/DX2                !
 ! R2    R(1,17)                 1.0944         estimate D2E/DX2                !
 ! R3    R(1,18)                 1.0951         estimate D2E/DX2                !
 ! R4    R(1,19)                 1.0949         estimate D2E/DX2                !
 ! R5    R(2,3)                  1.3675         estimate D2E/DX2                !
 ! R6    R(3,4)                  1.3936         estimate D2E/DX2                !
 ! R7    R(3,8)                  1.3952         estimate D2E/DX2                !
 ! R8    R(4,5)                  1.4012         estimate D2E/DX2                !
 ! R9    R(4,20)                 1.0847         estimate D2E/DX2                !
 ! R10   R(5,6)                  1.4055         estimate D2E/DX2                !
 ! R11   R(5,21)                 1.0885         estimate D2E/DX2                !
 ! R12   R(6,7)                  1.4019         estimate D2E/DX2                !
 ! R13   R(6,9)                  1.521          estimate D2E/DX2                !
 ! R14   R(7,8)                  1.398          estimate D2E/DX2                !
 ! R15   R(7,22)                 1.0883         estimate D2E/DX2                !
 ! R16   R(8,23)                 1.0872         estimate D2E/DX2                !
 ! R17   R(9,10)                 1.5191         estimate D2E/DX2                !
 ! R18   R(9,16)                 1.4308         estimate D2E/DX2                !
 ! R19   R(9,24)                 1.0974         estimate D2E/DX2                !
 ! R20   R(10,11)                1.4047         estimate D2E/DX2                !
 ! R21   R(10,15)                1.404          estimate D2E/DX2                !
 ! R22   R(11,12)                1.3957         estimate D2E/DX2                !
 ! R23   R(11,25)                1.089          estimate D2E/DX2                !
 ! R24   R(12,13)                1.3935         estimate D2E/DX2                !
 ! R25   R(12,26)                1.087          estimate D2E/DX2                !
 ! R26   R(13,14)                1.3935         estimate D2E/DX2                !
 ! R27   R(13,27)                1.0869         estimate D2E/DX2                !
 ! R28   R(14,15)                1.3958         estimate D2E/DX2                !
 ! R29   R(14,28)                1.0872         estimate D2E/DX2                !
 ! R30   R(15,29)                1.088          estimate D2E/DX2                !
 ! R31   R(16,30)                0.9718         estimate D2E/DX2                !
 ! A1    A(2,1,17)             107.7707         estimate D2E/DX2                !
 ! A2    A(2,1,18)             111.2181         estimate D2E/DX2                !
 ! A3    A(2,1,19)             111.0881         estimate D2E/DX2                !
 ! A4    A(17,1,18)            107.6518         estimate D2E/DX2                !
 ! A5    A(17,1,19)            107.7044         estimate D2E/DX2                !
 ! A6    A(18,1,19)            111.2174         estimate D2E/DX2                !
 ! A7    A(1,2,3)              116.9041         estimate D2E/DX2                !
 ! A8    A(2,3,4)              126.1978         estimate D2E/DX2                !
 ! A9    A(2,3,8)              114.7348         estimate D2E/DX2                !
 ! A10   A(4,3,8)              119.0671         estimate D2E/DX2                !
 ! A11   A(3,4,5)              120.2175         estimate D2E/DX2                !
 ! A12   A(3,4,20)             121.8046         estimate D2E/DX2                !
 ! A13   A(5,4,20)             117.9775         estimate D2E/DX2                !
 ! A14   A(4,5,6)              121.1723         estimate D2E/DX2                !
 ! A15   A(4,5,21)             118.7409         estimate D2E/DX2                !
 ! A16   A(6,5,21)             120.0868         estimate D2E/DX2                !
 ! A17   A(5,6,7)              117.9513         estimate D2E/DX2                !
 ! A18   A(5,6,9)              120.0608         estimate D2E/DX2                !
 ! A19   A(7,6,9)              121.9618         estimate D2E/DX2                !
 ! A20   A(6,7,8)              120.7896         estimate D2E/DX2                !
 ! A21   A(6,7,22)             120.4198         estimate D2E/DX2                !
 ! A22   A(8,7,22)             118.7883         estimate D2E/DX2                !
 ! A23   A(3,8,7)              120.8016         estimate D2E/DX2                !
 ! A24   A(3,8,23)             119.6938         estimate D2E/DX2                !
 ! A25   A(7,8,23)             119.5031         estimate D2E/DX2                !
 ! A26   A(6,9,10)             114.6578         estimate D2E/DX2                !
 ! A27   A(6,9,16)             111.4951         estimate D2E/DX2                !
 ! A28   A(6,9,24)             106.6913         estimate D2E/DX2                !
 ! A29   A(10,9,16)            108.6443         estimate D2E/DX2                !
 ! A30   A(10,9,24)            109.4633         estimate D2E/DX2                !
 ! A31   A(16,9,24)            105.4666         estimate D2E/DX2                !
 ! A32   A(9,10,11)            120.9871         estimate D2E/DX2                !
 ! A33   A(9,10,15)            120.2886         estimate D2E/DX2                !
 ! A34   A(11,10,15)           118.6909         estimate D2E/DX2                !
 ! A35   A(10,11,12)           120.5976         estimate D2E/DX2                !
 ! A36   A(10,11,25)           120.0689         estimate D2E/DX2                !
 ! A37   A(12,11,25)           119.3334         estimate D2E/DX2                !
 ! A38   A(11,12,13)           120.0659         estimate D2E/DX2                !
 ! A39   A(11,12,26)           119.9312         estimate D2E/DX2                !
 ! A40   A(13,12,26)           120.0028         estimate D2E/DX2                !
 ! A41   A(12,13,14)           119.9727         estimate D2E/DX2                !
 ! A42   A(12,13,27)           120.0003         estimate D2E/DX2                !
 ! A43   A(14,13,27)           120.027          estimate D2E/DX2                !
 ! A44   A(13,14,15)           120.0853         estimate D2E/DX2                !
 ! A45   A(13,14,28)           119.9071         estimate D2E/DX2                !
 ! A46   A(15,14,28)           120.0072         estimate D2E/DX2                !
 ! A47   A(10,15,14)           120.587          estimate D2E/DX2                !
 ! A48   A(10,15,29)           120.4671         estimate D2E/DX2                !
 ! A49   A(14,15,29)           118.9454         estimate D2E/DX2                !
 ! A50   A(9,16,30)            107.0693         estimate D2E/DX2                !
 ! D1    D(17,1,2,3)           179.3042         estimate D2E/DX2                !
 ! D2    D(18,1,2,3)            61.5285         estimate D2E/DX2                !
 ! D3    D(19,1,2,3)           -62.93           estimate D2E/DX2                !
 ! D4    D(1,2,3,4)              0.4912         estimate D2E/DX2                !
 ! D5    D(1,2,3,8)           -179.3017         estimate D2E/DX2                !
 ! D6    D(2,3,4,5)           -179.508          estimate D2E/DX2                !
 ! D7    D(2,3,4,20)             0.2624         estimate D2E/DX2                !
 ! D8    D(8,3,4,5)              0.2767         estimate D2E/DX2                !
 ! D9    D(8,3,4,20)          -179.9529         estimate D2E/DX2                !
 ! D10   D(2,3,8,7)            179.5981         estimate D2E/DX2                !
 ! D11   D(2,3,8,23)             0.0425         estimate D2E/DX2                !
 ! D12   D(4,3,8,7)             -0.2106         estimate D2E/DX2                !
 ! D13   D(4,3,8,23)          -179.7662         estimate D2E/DX2                !
 ! D14   D(3,4,5,6)             -0.269          estimate D2E/DX2                !
 ! D15   D(3,4,5,21)           179.7319         estimate D2E/DX2                !
 ! D16   D(20,4,5,6)           179.9519         estimate D2E/DX2                !
 ! D17   D(20,4,5,21)           -0.0472         estimate D2E/DX2                !
 ! D18   D(4,5,6,7)              0.1842         estimate D2E/DX2                !
 ! D19   D(4,5,6,9)            178.361          estimate D2E/DX2                !
 ! D20   D(21,5,6,7)          -179.8167         estimate D2E/DX2                !
 ! D21   D(21,5,6,9)            -1.6399         estimate D2E/DX2                !
 ! D22   D(5,6,7,8)             -0.1157         estimate D2E/DX2                !
 ! D23   D(5,6,7,22)           179.3176         estimate D2E/DX2                !
 ! D24   D(9,6,7,8)           -178.2558         estimate D2E/DX2                !
 ! D25   D(9,6,7,22)             1.1775         estimate D2E/DX2                !
 ! D26   D(5,6,9,10)            59.7657         estimate D2E/DX2                !
 ! D27   D(5,6,9,16)          -176.2584         estimate D2E/DX2                !
 ! D28   D(5,6,9,24)           -61.594          estimate D2E/DX2                !
 ! D29   D(7,6,9,10)          -122.1326         estimate D2E/DX2                !
 ! D30   D(7,6,9,16)             1.8434         estimate D2E/DX2                !
 ! D31   D(7,6,9,24)           116.5077         estimate D2E/DX2                !
 ! D32   D(6,7,8,3)              0.1325         estimate D2E/DX2                !
 ! D33   D(6,7,8,23)           179.689          estimate D2E/DX2                !
 ! D34   D(22,7,8,3)          -179.3099         estimate D2E/DX2                !
 ! D35   D(22,7,8,23)            0.2466         estimate D2E/DX2                !
 ! D36   D(6,9,10,11)           59.7914         estimate D2E/DX2                !
 ! D37   D(6,9,10,15)         -122.3376         estimate D2E/DX2                !
 ! D38   D(16,9,10,11)         -65.6874         estimate D2E/DX2                !
 ! D39   D(16,9,10,15)         112.1836         estimate D2E/DX2                !
 ! D40   D(24,9,10,11)         179.6206         estimate D2E/DX2                !
 ! D41   D(24,9,10,15)          -2.5084         estimate D2E/DX2                !
 ! D42   D(6,9,16,30)         -147.8927         estimate D2E/DX2                !
 ! D43   D(10,9,16,30)         -20.5855         estimate D2E/DX2                !
 ! D44   D(24,9,16,30)          96.6874         estimate D2E/DX2                !
 ! D45   D(9,10,11,12)         178.1424         estimate D2E/DX2                !
 ! D46   D(9,10,11,25)          -1.7588         estimate D2E/DX2                !
 ! D47   D(15,10,11,12)          0.2381         estimate D2E/DX2                !
 ! D48   D(15,10,11,25)       -179.6631         estimate D2E/DX2                !
 ! D49   D(9,10,15,14)        -178.2066         estimate D2E/DX2                !
 ! D50   D(9,10,15,29)           1.5204         estimate D2E/DX2                !
 ! D51   D(11,10,15,14)         -0.2872         estimate D2E/DX2                !
 ! D52   D(11,10,15,29)        179.4398         estimate D2E/DX2                !
 ! D53   D(10,11,12,13)         -0.118          estimate D2E/DX2                !
 ! D54   D(10,11,12,26)        179.98           estimate D2E/DX2                !
 ! D55   D(25,11,12,13)        179.7839         estimate D2E/DX2                !
 ! D56   D(25,11,12,26)         -0.1181         estimate D2E/DX2                !
 ! D57   D(11,12,13,14)          0.0423         estimate D2E/DX2                !
 ! D58   D(11,12,13,27)       -179.8936         estimate D2E/DX2                !
 ! D59   D(26,12,13,14)        179.9441         estimate D2E/DX2                !
 ! D60   D(26,12,13,27)          0.0083         estimate D2E/DX2                !
 ! D61   D(12,13,14,15)         -0.0912         estimate D2E/DX2                !
 ! D62   D(12,13,14,28)       -179.8523         estimate D2E/DX2                !
 ! D63   D(27,13,14,15)        179.8446         estimate D2E/DX2                !
 ! D64   D(27,13,14,28)          0.0835         estimate D2E/DX2                !
 ! D65   D(13,14,15,10)          0.2166         estimate D2E/DX2                !
 ! D66   D(13,14,15,29)       -179.5146         estimate D2E/DX2                !
 ! D67   D(28,14,15,10)        179.9774         estimate D2E/DX2                !
 ! D68   D(28,14,15,29)          0.2463         estimate D2E/DX2                !
 --------------------------------------------------------------------------------
 Trust Radius=3.00D-01 FncErr=1.00D-07 GrdErr=1.00D-06
 Number of steps in this run= 159 maximum allowed number of steps= 180.
 GradGradGradGradGradGradGradGradGradGradGradGradGradGradGradGradGradGrad

 Leave Link  103 at Thu Sep 30 09:54:18 2021, MaxMem= 1342177280 cpu:       0.0
 (Enter /sw/target/amd/app/gaussian/Gaussian09RevA.02_gcc-4.9.2/g09/l202.exe)
                          Input orientation:                          
 ---------------------------------------------------------------------
 Center     Atomic      Atomic             Coordinates (Angstroms)
 Number     Number       Type             X           Y           Z
 ---------------------------------------------------------------------
      1          6           0        1.168216   -0.383357    0.229108
      2          8           0        2.451214    0.115393   -0.125577
      3          6           0        3.115074    0.844862    0.821619
      4          6           0        2.657496    1.137768    2.104988
      5          6           0        3.440792    1.908788    2.974083
      6          6           0        4.698423    2.397325    2.580139
      7          6           0        5.145915    2.093015    1.286860
      8          6           0        4.362271    1.324752    0.420715
      9          6           0        5.511307    3.263018    3.530488
     10          6           0        5.865529    2.596599    4.848877
     11          6           0        6.622243    1.413523    4.880886
     12          6           0        6.975820    0.829090    6.097991
     13          6           0        6.580712    1.419442    7.296807
     14          6           0        5.831077    2.594007    7.280546
     15          6           0        5.476894    3.181273    6.064788
     16          8           0        6.716188    3.728478    2.914977
     17          1           0        0.771349   -0.927818   -0.633366
     18          1           0        0.474048    0.433055    0.454520
     19          1           0        1.236493   -1.087530    1.064738
     20          1           0        1.695563    0.786828    2.462889
     21          1           0        3.058076    2.126771    3.969476
     22          1           0        6.108584    2.460050    0.936264
     23          1           0        4.727538    1.105553   -0.579528
     24          1           0        4.915046    4.163581    3.724588
     25          1           0        6.940377    0.943971    3.951217
     26          1           0        7.561369   -0.086657    6.110116
     27          1           0        6.858124    0.964344    8.244040
     28          1           0        5.525421    3.055013    8.216551
     29          1           0        4.898124    4.102534    6.073834
     30          1           0        7.385235    3.800595    3.616095
 ---------------------------------------------------------------------
                    Distance matrix (angstroms):
                    1          2          3          4          5
     1  C    0.000000
     2  O    1.421491   0.000000
     3  C    2.376941   1.367485   0.000000
     4  C    2.837376   2.462361   1.393631   0.000000
     5  C    4.237147   3.715295   2.423041   1.401195   0.000000
     6  C    5.071676   4.192620   2.830111   2.444920   1.405524
     7  C    4.803472   3.628688   2.428713   2.788200   2.405848
     8  C    3.627166   2.326612   1.395177   2.403747   2.776673
     9  C    6.561830   5.713014   4.350561   3.833142   2.535855
    10  C    7.230986   6.523735   5.181929   4.466384   3.141224
    11  C    7.390144   6.644343   5.394558   4.847769   3.742034
    12  C    8.345184   7.727498   6.538020   5.889591   4.839523
    13  C    9.082817   8.593315   7.366738   6.513520   5.365119
    14  C    8.962686   8.509856   7.221766   6.243288   4.972787
    15  C    8.082478   7.541550   6.207079   5.273038   3.913744
    16  O    7.409526   6.363124   5.066104   4.882708   3.747397
    17  H    1.094442   2.041589   3.279090   3.914433   5.309044
    18  H    1.095084   2.084852   2.698031   2.826325   4.162638
    19  H    1.094898   2.083127   2.705977   2.837838   4.181202
    20  H    2.576278   2.778847   2.170748   1.084697   2.136805
    21  H    4.884943   4.602541   3.399344   2.148233   1.088483
    22  H    5.743890   4.472279   3.403392   3.876126   3.402016
    23  H    3.942019   2.523517   2.152025   3.390094   3.863813
    24  H    6.850676   6.105904   4.762460   4.107941   2.796565
    25  H    6.995266   6.120406   4.943394   4.667889   3.759357
    26  H    8.691760   8.064637   6.971762   6.448894   5.549384
    27  H    9.921214   9.496950   8.313665   7.440652   6.351581
    28  H    9.726607   9.363931   8.085763   7.017978   5.756995
    29  H    8.258102   7.766424   6.432530   5.437093   4.067529
    30  H    8.223652   7.205927   5.897433   5.632548   4.421509
                    6          7          8          9         10
     6  C    0.000000
     7  C    1.401936   0.000000
     8  C    2.434445   1.398046   0.000000
     9  C    1.520977   2.556617   3.840293   0.000000
    10  C    2.559105   3.668706   4.846236   1.519123   0.000000
    11  C    3.156325   3.944399   5.000848   2.545267   1.404746
    12  C    4.474504   5.300287   6.269592   3.828952   2.432513
    13  C    5.171675   6.215449   7.225724   4.327534   2.808834
    14  C    4.838948   6.053487   7.129213   3.822664   2.431914
    15  C    3.655594   4.911461   6.045214   2.535851   1.404037
    16  O    2.440381   2.791283   4.188098   1.430820   2.396818
    17  H    6.066721   5.652392   4.368053   7.574167   8.272073
    18  H    5.120738   5.027385   3.989304   6.545553   7.284186
    19  H    5.140585   5.044679   4.000545   6.578847   7.022855
    20  H    3.409489   3.872222   3.401643   4.672386   5.133890
    21  H    2.166609   3.399506   3.864954   2.738998   2.979241
    22  H    2.166752   1.088285   2.145764   2.780557   3.922532
    23  H    3.413652   2.152562   1.087177   4.707567   5.743328
    24  H    2.115738   3.206721   4.390910   1.097367   2.150087
    25  H    3.003074   3.411626   4.388174   2.756308   2.166165
    26  H    5.179514   5.818006   6.677993   4.698676   3.415620
    27  H    6.228766   7.253131   8.219708   5.414368   3.895720
    28  H    5.734599   7.006432   8.069807   4.690698   3.415706
    29  H    3.892752   5.197565   6.321469   2.747615   2.168924
    30  H    3.203331   3.654548   5.047629   1.951389   2.297577
                   11         12         13         14         15
    11  C    0.000000
    12  C    1.395680   0.000000
    13  C    2.416285   1.393479   0.000000
    14  C    2.788880   2.413256   1.393492   0.000000
    15  C    2.416275   2.789381   2.416678   1.395849   0.000000
    16  O    3.038527   4.313402   4.954840   4.596590   3.428789
    17  H    8.373877   9.321661  10.106729  10.031655   9.159261
    18  H    7.639001   8.618507   9.223946   8.942153   8.003517
    19  H    7.058650   7.870638   8.583953   8.561552   7.823310
    20  H    5.523733   6.410684   6.901568   6.601378   5.745042
    21  H    3.747355   4.643627   4.896979   4.344079   3.369419
    22  H    4.113285   5.482295   6.462374   6.351761   5.217370
    23  H    5.787994   7.051274   8.097495   8.075522   7.001220
    24  H    3.437203   4.582430   4.802654   3.993433   2.599450
    25  H    1.089024   2.150138   3.398294   3.877834   3.408003
    26  H    2.154879   1.087018   2.153661   3.398496   3.876397
    27  H    3.401206   2.153525   1.086886   2.153822   3.401721
    28  H    3.876102   3.398041   2.152826   1.087225   2.156011
    29  H    3.409764   3.877221   3.394959   2.145276   1.088016
    30  H    2.807128   3.893234   4.456993   4.159262   3.165663
                   16         17         18         19         20
    16  O    0.000000
    17  H    8.343437   0.000000
    18  H    7.475157   1.767445   0.000000
    19  H    7.526246   1.767888   1.807171   0.000000
    20  H    5.836469   3.658002   2.377141   2.383021   0.000000
    21  H    4.130281   5.978779   4.679828   4.699723   2.433453
    22  H    2.427631   6.513638   6.007394   6.028192   4.960344
    23  H    4.800628   4.448475   4.428735   4.438538   4.307060
    24  H    2.022102   7.879362   6.658276   6.941233   4.833158
    25  H    2.979519   7.910683   7.368944   6.707686   5.454163
    26  H    5.047623   9.606585   9.082179   8.152401   6.962250
    27  H    6.004956  10.928744  10.085401   9.346405   7.752758
    28  H    5.475233  10.806720   9.624976   9.311498   7.274414
    29  H    3.663831   9.344584   8.038296   8.089211   5.855700
    30  H    0.971798   9.173838   8.312664   8.258947   6.541028
                   21         22         23         24         25
    21  H    0.000000
    22  H    4.314748   0.000000
    23  H    4.952113   2.457555   0.000000
    24  H    2.767111   3.478692   5.283191   0.000000
    25  H    4.058523   3.475675   5.044840   3.810409   0.000000
    26  H    5.455387   5.946852   7.362289   5.546016   2.471573
    27  H    5.836394   7.496835   9.078254   5.868229   4.293660
    28  H    4.998707   7.327799   9.044778   4.666821   4.965045
    29  H    3.423118   5.527892   7.299193   2.350100   4.318891
    30  H    4.653049   3.257052   5.650651   2.499072   2.910413
                   26         27         28         29         30
    26  H    0.000000
    27  H    2.480482   0.000000
    28  H    4.295607   2.479465   0.000000
    29  H    4.964223   4.289479   2.466179   0.000000
    30  H    4.621893   5.453443   5.017868   3.509611   0.000000
 Stoichiometry    C14H14O2
 Framework group  C1[X(C14H14O2)]
 Deg. of freedom    84
 Full point group                 C1      NOp   1
 Largest Abelian subgroup         C1      NOp   1
 Largest concise Abelian subgroup C1      NOp   1
                         Standard orientation:                         
 ---------------------------------------------------------------------
 Center     Atomic      Atomic             Coordinates (Angstroms)
 Number     Number       Type             X           Y           Z
 ---------------------------------------------------------------------
      1          6           0        4.908743   -1.567656   -0.069727
      2          8           0        4.371040   -0.358679    0.449776
      3          6           0        3.069660   -0.076306    0.138825
      4          6           0        2.217467   -0.865769   -0.631061
      5          6           0        0.903374   -0.448519   -0.880877
      6          6           0        0.413473    0.762371   -0.361994
      7          6           0        1.281926    1.544824    0.411945
      8          6           0        2.593161    1.127437    0.658893
      9          6           0       -1.005335    1.208875   -0.679782
     10          6           0       -2.089331    0.246074   -0.226242
     11          6           0       -2.233226   -0.094662    1.128935
     12          6           0       -3.256045   -0.949878    1.541695
     13          6           0       -4.148274   -1.472855    0.607776
     14          6           0       -4.018741   -1.142410   -0.739758
     15          6           0       -2.997376   -0.286521   -1.155283
     16          8           0       -1.283233    2.501321   -0.132424
     17          1           0        5.951023   -1.637157    0.256810
     18          1           0        4.903277   -1.565530   -1.164795
     19          1           0        4.376618   -2.438207    0.327496
     20          1           0        2.541195   -1.809659   -1.056316
     21          1           0        0.259823   -1.081715   -1.488908
     22          1           0        0.947950    2.495006    0.824227
     23          1           0        3.250395    1.753093    1.257685
     24          1           0       -1.059866    1.334295   -1.768594
     25          1           0       -1.544782    0.310001    1.869385
     26          1           0       -3.357189   -1.206599    2.593109
     27          1           0       -4.945454   -2.137381    0.930626
     28          1           0       -4.716933   -1.549146   -1.467186
     29          1           0       -2.918255   -0.034589   -2.210768
     30          1           0       -2.227113    2.516431    0.098342
 ---------------------------------------------------------------------
 Rotational constants (GHZ):      1.1492666      0.2564986      0.2355402
 Leave Link  202 at Thu Sep 30 09:54:18 2021, MaxMem= 1342177280 cpu:       0.1
 (Enter /sw/target/amd/app/gaussian/Gaussian09RevA.02_gcc-4.9.2/g09/l301.exe)
 Standard basis: 6-31G(d) (6D, 7F)
 Ernie: Thresh=  0.10000D-02 Tol=  0.10000D-05 Strict=F.
 There are   268 symmetry adapted basis functions of A   symmetry.
 Integral buffers will be    131072 words long.
 Raffenetti 2 integral format.
 Two-electron integral symmetry is turned on.
   268 basis functions,   504 primitive gaussians,   268 cartesian basis functions
    57 alpha electrons       57 beta electrons
       nuclear repulsion energy      1009.4399479935 Hartrees.
 IExCor=  402 DFT=T Ex+Corr=B3LYP ExCW=0 ScaHFX=  0.200000
 ScaDFX=  0.800000  0.720000  1.000000  0.810000 ScalE2=  1.000000  1.000000
 IRadAn=      0 IRanWt=     -1 IRanGd=            0 ICorTp=0
 NAtoms=   30 NActive=   30 NUniq=   30 SFac= 7.50D-01 NAtFMM=   80 NAOKFM=F Big=F
 Leave Link  301 at Thu Sep 30 09:54:19 2021, MaxMem= 1342177280 cpu:       0.1
 (Enter /sw/target/amd/app/gaussian/Gaussian09RevA.02_gcc-4.9.2/g09/l302.exe)
 NPDir=0 NMtPBC=     1 NCelOv=     1 NCel=       1 NClECP=     1 NCelD=      1
         NCelK=      1 NCelE2=     1 NClLst=     1 CellRange=     0.0.
 One-electron integrals computed using PRISM.
 NBasis=   268 RedAO= T  NBF=   268
 NBsUse=   268 1.00D-06 NBFU=   268
 Precomputing XC quadrature grid using
 IXCGrd= 2 IRadAn=           0 IRanWt=          -1 IRanGd=           0 AccXCQ= 1.00D-10.
 NRdTot=    1906 NPtTot=      242504 NUsed=      256249 NTot=      256281
 NSgBfM=   267   267   267   267   267 NAtAll=    30    30.
 Leave Link  302 at Thu Sep 30 09:54:22 2021, MaxMem= 1342177280 cpu:       2.7
 (Enter /sw/target/amd/app/gaussian/Gaussian09RevA.02_gcc-4.9.2/g09/l303.exe)
 DipDrv:  MaxL=1.
 Leave Link  303 at Thu Sep 30 09:54:23 2021, MaxMem= 1342177280 cpu:       0.2
 (Enter /sw/target/amd/app/gaussian/Gaussian09RevA.02_gcc-4.9.2/g09/l401.exe)
 Harris functional with IExCor=  402 diagonalized for initial guess.
 ExpMin= 1.61D-01 ExpMax= 5.48D+03 ExpMxC= 8.25D+02 IAcc=1 IRadAn=         1 AccDes= 0.00D+00
 HarFok:  IExCor=  402 AccDes= 0.00D+00 IRadAn=         1 IDoV= 1
 ScaDFX=  1.000000  1.000000  1.000000  1.000000
 FoFCou: FMM=F IPFlag=           0 FMFlag=      100000 FMFlg1=           0
         NFxFlg=           0 DoJE=T BraDBF=F KetDBF=T FulRan=T
         Omega=  0.000000  0.000000  1.000000  0.000000  0.000000 ICntrl=     500 IOpCl=  0
         NMat0=    1 NMatS0=    1 NMatT0=    0 NMatD0=    1 NMtDS0=    0 NMtDT0=    0
         I1Cent=           4 NGrid=           0.
 Petite list used in FoFCou.
 Harris En= -692.424881253342    
 Initial guess orbital symmetries:
       Occupied  (A) (A) (A) (A) (A) (A) (A) (A) (A) (A) (A) (A)
                 (A) (A) (A) (A) (A) (A) (A) (A) (A) (A) (A) (A)
                 (A) (A) (A) (A) (A) (A) (A) (A) (A) (A) (A) (A)
                 (A) (A) (A) (A) (A) (A) (A) (A) (A) (A) (A) (A)
                 (A) (A) (A) (A) (A) (A) (A) (A) (A)
       Virtual   (A) (A) (A) (A) (A) (A) (A) (A) (A) (A) (A) (A)
                 (A) (A) (A) (A) (A) (A) (A) (A) (A) (A) (A) (A)
                 (A) (A) (A) (A) (A) (A) (A) (A) (A) (A) (A) (A)
                 (A) (A) (A) (A) (A) (A) (A) (A) (A) (A) (A) (A)
                 (A) (A) (A) (A) (A) (A) (A) (A) (A) (A) (A) (A)
                 (A) (A) (A) (A) (A) (A) (A) (A) (A) (A) (A) (A)
                 (A) (A) (A) (A) (A) (A) (A) (A) (A) (A) (A) (A)
                 (A) (A) (A) (A) (A) (A) (A) (A) (A) (A) (A) (A)
                 (A) (A) (A) (A) (A) (A) (A) (A) (A) (A) (A) (A)
                 (A) (A) (A) (A) (A) (A) (A) (A) (A) (A) (A) (A)
                 (A) (A) (A) (A) (A) (A) (A) (A) (A) (A) (A) (A)
                 (A) (A) (A) (A) (A) (A) (A) (A) (A) (A) (A) (A)
                 (A) (A) (A) (A) (A) (A) (A) (A) (A) (A) (A) (A)
                 (A) (A) (A) (A) (A) (A) (A) (A) (A) (A) (A) (A)
                 (A) (A) (A) (A) (A) (A) (A) (A) (A) (A) (A) (A)
                 (A) (A) (A) (A) (A) (A) (A) (A) (A) (A) (A) (A)
                 (A) (A) (A) (A) (A) (A) (A) (A) (A) (A) (A) (A)
                 (A) (A) (A) (A) (A) (A) (A)
 The electronic state of the initial guess is 1-A.
 Leave Link  401 at Thu Sep 30 09:54:37 2021, MaxMem= 1342177280 cpu:      11.2
 (Enter /sw/target/amd/app/gaussian/Gaussian09RevA.02_gcc-4.9.2/g09/l502.exe)
 Closed shell SCF:
 Requested convergence on RMS density matrix=1.00D-08 within  64 cycles.
 Requested convergence on MAX density matrix=1.00D-06.
 Requested convergence on             energy=1.00D-06.
 No special actions if energy rises.
 Using DIIS extrapolation, IDIIS=  1040.
 Integral symmetry usage will be decided dynamically.
       255966 words used for storage of precomputed grid.
 Keep R1 ints in memory in canonical form, NReq=659888127.
 IEnd=      480612 IEndB=      480612 NGot=  1342177280 MDV=   692097876
 LenX=   692097876 LenY=   692025611
 Symmetry not used in FoFDir.
 MinBra= 0 MaxBra= 2 Meth= 1.
 IRaf=       0 NMat=   1 IRICut=       1 DoRegI=T DoRafI=F ISym2E= 0 JSym2E=0.
 Integral accuracy reduced to 1.0D-05 until final iterations.

 Cycle   1  Pass 0  IDiag  1:
 E= -691.975717749728    
 DIIS: error= 2.57D-02 at cycle   1 NSaved=   1.
 NSaved= 1 IEnMin= 1 EnMin= -691.975717749728     IErMin= 1 ErrMin= 2.57D-02
 ErrMax= 2.57D-02 EMaxC= 1.00D-01 BMatC= 3.49D-01 BMatP= 3.49D-01
 IDIUse=3 WtCom= 7.43D-01 WtEn= 2.57D-01
 Coeff-Com:  0.100D+01
 Coeff-En:   0.100D+01
 Coeff:      0.100D+01
 Gap=     0.216 Goal=   None    Shift=    0.000
 GapD=    0.216 DampG=1.000 DampE=0.500 DampFc=0.5000 IDamp=-1.
 Damping current iteration by 5.00D-01
 RMSDP=5.05D-03 MaxDP=1.27D-01              OVMax= 1.59D-01

 Cycle   2  Pass 0  IDiag  1:
 E= -692.147258342643     Delta-E=       -0.171540592914 Rises=F Damp=T
 DIIS: error= 5.89D-03 at cycle   2 NSaved=   2.
 NSaved= 2 IEnMin= 2 EnMin= -692.147258342643     IErMin= 2 ErrMin= 5.89D-03
 ErrMax= 5.89D-03 EMaxC= 1.00D-01 BMatC= 1.91D-02 BMatP= 3.49D-01
 IDIUse=3 WtCom= 9.41D-01 WtEn= 5.89D-02
 Coeff-Com:  0.313D-01 0.969D+00
 Coeff-En:   0.270D-01 0.973D+00
 Coeff:      0.310D-01 0.969D+00
 Gap=     0.202 Goal=   None    Shift=    0.000
 RMSDP=1.18D-03 MaxDP=3.88D-02 DE=-1.72D-01 OVMax= 1.04D-01

 Cycle   3  Pass 0  IDiag  1:
 E= -692.331786745124     Delta-E=       -0.184528402481 Rises=F Damp=F
 DIIS: error= 5.00D-03 at cycle   3 NSaved=   3.
 NSaved= 3 IEnMin= 3 EnMin= -692.331786745124     IErMin= 3 ErrMin= 5.00D-03
 ErrMax= 5.00D-03 EMaxC= 1.00D-01 BMatC= 1.10D-02 BMatP= 1.91D-02
 IDIUse=3 WtCom= 9.50D-01 WtEn= 5.00D-02
 Coeff-Com: -0.296D-01 0.422D+00 0.608D+00
 Coeff-En:   0.000D+00 0.000D+00 0.100D+01
 Coeff:     -0.281D-01 0.400D+00 0.628D+00
 Gap=     0.201 Goal=   None    Shift=    0.000
 RMSDP=6.22D-04 MaxDP=2.19D-02 DE=-1.85D-01 OVMax= 3.42D-02

 Cycle   4  Pass 0  IDiag  1:
 E= -692.338065196633     Delta-E=       -0.006278451510 Rises=F Damp=F
 DIIS: error= 2.04D-03 at cycle   4 NSaved=   4.
 NSaved= 4 IEnMin= 4 EnMin= -692.338065196633     IErMin= 4 ErrMin= 2.04D-03
 ErrMax= 2.04D-03 EMaxC= 1.00D-01 BMatC= 3.60D-03 BMatP= 1.10D-02
 IDIUse=3 WtCom= 9.80D-01 WtEn= 2.04D-02
 Coeff-Com: -0.174D-01 0.104D+00 0.383D+00 0.531D+00
 Coeff-En:   0.000D+00 0.000D+00 0.288D+00 0.712D+00
 Coeff:     -0.170D-01 0.102D+00 0.381D+00 0.534D+00
 Gap=     0.198 Goal=   None    Shift=    0.000
 RMSDP=2.91D-04 MaxDP=7.23D-03 DE=-6.28D-03 OVMax= 1.74D-02

 Cycle   5  Pass 0  IDiag  1:
 E= -692.341472560505     Delta-E=       -0.003407363872 Rises=F Damp=F
 DIIS: error= 5.63D-04 at cycle   5 NSaved=   5.
 NSaved= 5 IEnMin= 5 EnMin= -692.341472560505     IErMin= 5 ErrMin= 5.63D-04
 ErrMax= 5.63D-04 EMaxC= 1.00D-01 BMatC= 1.65D-04 BMatP= 3.60D-03
 IDIUse=3 WtCom= 9.94D-01 WtEn= 5.63D-03
 Coeff-Com: -0.630D-02 0.243D-01 0.149D+00 0.270D+00 0.563D+00
 Coeff-En:   0.000D+00 0.000D+00 0.000D+00 0.000D+00 0.100D+01
 Coeff:     -0.626D-02 0.242D-01 0.148D+00 0.268D+00 0.566D+00
 Gap=     0.198 Goal=   None    Shift=    0.000
 RMSDP=6.72D-05 MaxDP=1.61D-03 DE=-3.41D-03 OVMax= 5.50D-03

 Cycle   6  Pass 0  IDiag  1:
 E= -692.341622535707     Delta-E=       -0.000149975202 Rises=F Damp=F
 DIIS: error= 1.82D-04 at cycle   6 NSaved=   6.
 NSaved= 6 IEnMin= 6 EnMin= -692.341622535707     IErMin= 6 ErrMin= 1.82D-04
 ErrMax= 1.82D-04 EMaxC= 1.00D-01 BMatC= 2.63D-05 BMatP= 1.65D-04
 IDIUse=3 WtCom= 9.98D-01 WtEn= 1.82D-03
 Coeff-Com: -0.196D-02 0.386D-02 0.485D-01 0.104D+00 0.337D+00 0.508D+00
 Coeff-En:   0.000D+00 0.000D+00 0.000D+00 0.000D+00 0.116D+00 0.884D+00
 Coeff:     -0.196D-02 0.386D-02 0.485D-01 0.104D+00 0.337D+00 0.509D+00
 Gap=     0.198 Goal=   None    Shift=    0.000
 RMSDP=2.23D-05 MaxDP=5.68D-04 DE=-1.50D-04 OVMax= 1.71D-03

 Cycle   7  Pass 0  IDiag  1:
 E= -692.341648554121     Delta-E=       -0.000026018414 Rises=F Damp=F
 DIIS: error= 3.25D-05 at cycle   7 NSaved=   7.
 NSaved= 7 IEnMin= 7 EnMin= -692.341648554121     IErMin= 7 ErrMin= 3.25D-05
 ErrMax= 3.25D-05 EMaxC= 1.00D-01 BMatC= 7.45D-07 BMatP= 2.63D-05
 IDIUse=1 WtCom= 1.00D+00 WtEn= 0.00D+00
 Coeff-Com: -0.739D-03 0.887D-03 0.190D-01 0.430D-01 0.151D+00 0.257D+00
 Coeff-Com:  0.529D+00
 Coeff:     -0.739D-03 0.887D-03 0.190D-01 0.430D-01 0.151D+00 0.257D+00
 Coeff:      0.529D+00
 Gap=     0.198 Goal=   None    Shift=    0.000
 RMSDP=4.58D-06 MaxDP=1.22D-04 DE=-2.60D-05 OVMax= 3.11D-04

 Initial convergence to 1.0D-05 achieved.  Increase integral accuracy.
 Cycle   8  Pass 1  IDiag  1:
 E= -692.341593789176     Delta-E=        0.000054764945 Rises=F Damp=F
 DIIS: error= 3.24D-05 at cycle   1 NSaved=   1.
 NSaved= 1 IEnMin= 1 EnMin= -692.341593789176     IErMin= 1 ErrMin= 3.24D-05
 ErrMax= 3.24D-05 EMaxC= 1.00D-01 BMatC= 2.07D-07 BMatP= 2.07D-07
 IDIUse=1 WtCom= 1.00D+00 WtEn= 0.00D+00
 Coeff-Com:  0.100D+01
 Coeff:      0.100D+01
 Gap=     0.198 Goal=   None    Shift=    0.000
 RMSDP=4.58D-06 MaxDP=1.22D-04 DE= 5.48D-05 OVMax= 3.47D-04

 Cycle   9  Pass 1  IDiag  1:
 E= -692.341593646089     Delta-E=        0.000000143087 Rises=F Damp=F
 DIIS: error= 3.85D-05 at cycle   2 NSaved=   2.
 NSaved= 2 IEnMin= 1 EnMin= -692.341593789176     IErMin= 1 ErrMin= 3.24D-05
 ErrMax= 3.85D-05 EMaxC= 1.00D-01 BMatC= 3.76D-07 BMatP= 2.07D-07
 IDIUse=1 WtCom= 1.00D+00 WtEn= 0.00D+00
 Coeff-Com:  0.588D+00 0.412D+00
 Coeff:      0.588D+00 0.412D+00
 Gap=     0.198 Goal=   None    Shift=    0.000
 RMSDP=3.19D-06 MaxDP=8.47D-05 DE= 1.43D-07 OVMax= 2.86D-04

 Cycle  10  Pass 1  IDiag  1:
 E= -692.341594016260     Delta-E=       -0.000000370171 Rises=F Damp=F
 DIIS: error= 1.16D-05 at cycle   3 NSaved=   3.
 NSaved= 3 IEnMin= 3 EnMin= -692.341594016260     IErMin= 3 ErrMin= 1.16D-05
 ErrMax= 1.16D-05 EMaxC= 1.00D-01 BMatC= 2.88D-08 BMatP= 2.07D-07
 IDIUse=1 WtCom= 1.00D+00 WtEn= 0.00D+00
 Coeff-Com:  0.415D-01 0.215D+00 0.743D+00
 Coeff:      0.415D-01 0.215D+00 0.743D+00
 Gap=     0.198 Goal=   None    Shift=    0.000
 RMSDP=9.23D-07 MaxDP=2.66D-05 DE=-3.70D-07 OVMax= 8.67D-05

 Cycle  11  Pass 1  IDiag  1:
 E= -692.341594043534     Delta-E=       -0.000000027274 Rises=F Damp=F
 DIIS: error= 2.92D-06 at cycle   4 NSaved=   4.
 NSaved= 4 IEnMin= 4 EnMin= -692.341594043534     IErMin= 4 ErrMin= 2.92D-06
 ErrMax= 2.92D-06 EMaxC= 1.00D-01 BMatC= 5.12D-09 BMatP= 2.88D-08
 IDIUse=1 WtCom= 1.00D+00 WtEn= 0.00D+00
 Coeff-Com: -0.146D-01 0.103D+00 0.453D+00 0.459D+00
 Coeff:     -0.146D-01 0.103D+00 0.453D+00 0.459D+00
 Gap=     0.198 Goal=   None    Shift=    0.000
 RMSDP=3.00D-07 MaxDP=9.53D-06 DE=-2.73D-08 OVMax= 2.21D-05

 Cycle  12  Pass 1  IDiag  1:
 E= -692.341594048441     Delta-E=       -0.000000004907 Rises=F Damp=F
 DIIS: error= 6.15D-07 at cycle   5 NSaved=   5.
 NSaved= 5 IEnMin= 5 EnMin= -692.341594048441     IErMin= 5 ErrMin= 6.15D-07
 ErrMax= 6.15D-07 EMaxC= 1.00D-01 BMatC= 2.04D-10 BMatP= 5.12D-09
 IDIUse=1 WtCom= 1.00D+00 WtEn= 0.00D+00
 Coeff-Com: -0.997D-02 0.457D-01 0.211D+00 0.253D+00 0.501D+00
 Coeff:     -0.997D-02 0.457D-01 0.211D+00 0.253D+00 0.501D+00
 Gap=     0.198 Goal=   None    Shift=    0.000
 RMSDP=7.53D-08 MaxDP=2.00D-06 DE=-4.91D-09 OVMax= 6.58D-06

 Cycle  13  Pass 1  IDiag  1:
 E= -692.341594048647     Delta-E=       -0.000000000206 Rises=F Damp=F
 DIIS: error= 2.14D-07 at cycle   6 NSaved=   6.
 NSaved= 6 IEnMin= 6 EnMin= -692.341594048647     IErMin= 6 ErrMin= 2.14D-07
 ErrMax= 2.14D-07 EMaxC= 1.00D-01 BMatC= 2.34D-11 BMatP= 2.04D-10
 IDIUse=1 WtCom= 1.00D+00 WtEn= 0.00D+00
 Coeff-Com: -0.423D-02 0.162D-01 0.766D-01 0.996D-01 0.296D+00 0.516D+00
 Coeff:     -0.423D-02 0.162D-01 0.766D-01 0.996D-01 0.296D+00 0.516D+00
 Gap=     0.198 Goal=   None    Shift=    0.000
 RMSDP=2.22D-08 MaxDP=5.13D-07 DE=-2.06D-10 OVMax= 1.95D-06

 Cycle  14  Pass 1  IDiag  1:
 E= -692.341594048622     Delta-E=        0.000000000025 Rises=F Damp=F
 DIIS: error= 2.65D-08 at cycle   7 NSaved=   7.
 NSaved= 7 IEnMin= 6 EnMin= -692.341594048647     IErMin= 7 ErrMin= 2.65D-08
 ErrMax= 2.65D-08 EMaxC= 1.00D-01 BMatC= 7.11D-13 BMatP= 2.34D-11
 IDIUse=1 WtCom= 1.00D+00 WtEn= 0.00D+00
 Coeff-Com: -0.795D-03 0.239D-02 0.115D-01 0.166D-01 0.697D-01 0.191D+00
 Coeff-Com:  0.709D+00
 Coeff:     -0.795D-03 0.239D-02 0.115D-01 0.166D-01 0.697D-01 0.191D+00
 Coeff:      0.709D+00
 Gap=     0.198 Goal=   None    Shift=    0.000
 RMSDP=4.86D-09 MaxDP=1.31D-07 DE= 2.50D-11 OVMax= 4.16D-07

 SCF Done:  E(RB3LYP) =  -692.341594049     A.U. after   14 cycles
             Convg  =    0.4856D-08             -V/T =  2.0095
 KE= 6.858024579297D+02 PE=-3.628322821422D+03 EE= 1.240738821450D+03
 Leave Link  502 at Thu Sep 30 10:04:47 2021, MaxMem= 1342177280 cpu:     310.6
 (Enter /sw/target/amd/app/gaussian/Gaussian09RevA.02_gcc-4.9.2/g09/l508.exe)
 QCSCF skips out because SCF is already converged.
 Leave Link  508 at Thu Sep 30 10:04:50 2021, MaxMem= 1342177280 cpu:       0.0
 (Enter /sw/target/amd/app/gaussian/Gaussian09RevA.02_gcc-4.9.2/g09/l601.exe)
 Copying SCF densities to generalized density rwf, IOpCl= 0 IROHF=0.

 **********************************************************************

            Population analysis using the SCF density.

 **********************************************************************

 Orbital symmetries:
       Occupied  (A) (A) (A) (A) (A) (A) (A) (A) (A) (A) (A) (A)
                 (A) (A) (A) (A) (A) (A) (A) (A) (A) (A) (A) (A)
                 (A) (A) (A) (A) (A) (A) (A) (A) (A) (A) (A) (A)
                 (A) (A) (A) (A) (A) (A) (A) (A) (A) (A) (A) (A)
                 (A) (A) (A) (A) (A) (A) (A) (A) (A)
       Virtual   (A) (A) (A) (A) (A) (A) (A) (A) (A) (A) (A) (A)
                 (A) (A) (A) (A) (A) (A) (A) (A) (A) (A) (A) (A)
                 (A) (A) (A) (A) (A) (A) (A) (A) (A) (A) (A) (A)
                 (A) (A) (A) (A) (A) (A) (A) (A) (A) (A) (A) (A)
                 (A) (A) (A) (A) (A) (A) (A) (A) (A) (A) (A) (A)
                 (A) (A) (A) (A) (A) (A) (A) (A) (A) (A) (A) (A)
                 (A) (A) (A) (A) (A) (A) (A) (A) (A) (A) (A) (A)
                 (A) (A) (A) (A) (A) (A) (A) (A) (A) (A) (A) (A)
                 (A) (A) (A) (A) (A) (A) (A) (A) (A) (A) (A) (A)
                 (A) (A) (A) (A) (A) (A) (A) (A) (A) (A) (A) (A)
                 (A) (A) (A) (A) (A) (A) (A) (A) (A) (A) (A) (A)
                 (A) (A) (A) (A) (A) (A) (A) (A) (A) (A) (A) (A)
                 (A) (A) (A) (A) (A) (A) (A) (A) (A) (A) (A) (A)
                 (A) (A) (A) (A) (A) (A) (A) (A) (A) (A) (A) (A)
                 (A) (A) (A) (A) (A) (A) (A) (A) (A) (A) (A) (A)
                 (A) (A) (A) (A) (A) (A) (A) (A) (A) (A) (A) (A)
                 (A) (A) (A) (A) (A) (A) (A) (A) (A) (A) (A) (A)
                 (A) (A) (A) (A) (A) (A) (A)
 The electronic state is 1-A.
 Alpha  occ. eigenvalues --  -19.17249 -19.14084 -10.24039 -10.23873 -10.23691
 Alpha  occ. eigenvalues --  -10.19890 -10.19470 -10.19385 -10.19364 -10.19303
 Alpha  occ. eigenvalues --  -10.19281 -10.18615 -10.18419 -10.18293 -10.17910
 Alpha  occ. eigenvalues --  -10.17534  -1.05739  -1.01629  -0.85724  -0.84294
 Alpha  occ. eigenvalues --   -0.77504  -0.74800  -0.74602  -0.73724  -0.70181
 Alpha  occ. eigenvalues --   -0.65614  -0.60964  -0.60537  -0.59306  -0.56722
 Alpha  occ. eigenvalues --   -0.52844  -0.52284  -0.49305  -0.47392  -0.46951
 Alpha  occ. eigenvalues --   -0.46611  -0.45897  -0.44131  -0.43898  -0.42536
 Alpha  occ. eigenvalues --   -0.41860  -0.41369  -0.40032  -0.38452  -0.37033
 Alpha  occ. eigenvalues --   -0.36719  -0.35915  -0.34851  -0.34554  -0.32559
 Alpha  occ. eigenvalues --   -0.31754  -0.30767  -0.27079  -0.25415  -0.24694
 Alpha  occ. eigenvalues --   -0.24175  -0.20826
 Alpha virt. eigenvalues --   -0.01027  -0.00551   0.00344   0.02223   0.09253
 Alpha virt. eigenvalues --    0.09393   0.10393   0.11284   0.12335   0.14216
 Alpha virt. eigenvalues --    0.14803   0.15010   0.15314   0.15822   0.16240
 Alpha virt. eigenvalues --    0.17153   0.17876   0.17995   0.18872   0.19246
 Alpha virt. eigenvalues --    0.20387   0.23800   0.25806   0.26065   0.26346
 Alpha virt. eigenvalues --    0.30226   0.30720   0.32718   0.33703   0.33967
 Alpha virt. eigenvalues --    0.35630   0.36119   0.38463   0.45274   0.48757
 Alpha virt. eigenvalues --    0.50853   0.52177   0.52712   0.52999   0.53558
 Alpha virt. eigenvalues --    0.54061   0.54215   0.55043   0.56084   0.56789
 Alpha virt. eigenvalues --    0.58736   0.58950   0.59197   0.60006   0.60295
 Alpha virt. eigenvalues --    0.60598   0.61108   0.61236   0.61759   0.63068
 Alpha virt. eigenvalues --    0.63605   0.64821   0.65904   0.67200   0.67437
 Alpha virt. eigenvalues --    0.67949   0.70206   0.72064   0.74419   0.75324
 Alpha virt. eigenvalues --    0.76392   0.81309   0.82240   0.82904   0.83267
 Alpha virt. eigenvalues --    0.83558   0.84067   0.84569   0.85071   0.85750
 Alpha virt. eigenvalues --    0.86601   0.87429   0.88498   0.89938   0.90628
 Alpha virt. eigenvalues --    0.92086   0.93477   0.94260   0.94533   0.96176
 Alpha virt. eigenvalues --    0.97061   1.00220   1.00511   1.01150   1.01999
 Alpha virt. eigenvalues --    1.04446   1.05788   1.06167   1.08831   1.11795
 Alpha virt. eigenvalues --    1.14103   1.15217   1.16548   1.17272   1.18764
 Alpha virt. eigenvalues --    1.20556   1.22825   1.24592   1.26803   1.27718
 Alpha virt. eigenvalues --    1.29385   1.33189   1.34656   1.37800   1.38380
 Alpha virt. eigenvalues --    1.41022   1.43200   1.43574   1.44881   1.45384
 Alpha virt. eigenvalues --    1.46809   1.47874   1.49276   1.49819   1.50975
 Alpha virt. eigenvalues --    1.51870   1.52965   1.54473   1.63477   1.67929
 Alpha virt. eigenvalues --    1.70818   1.72380   1.76739   1.79227   1.81163
 Alpha virt. eigenvalues --    1.82116   1.83240   1.84652   1.86761   1.88287
 Alpha virt. eigenvalues --    1.89718   1.91047   1.91950   1.94443   1.96822
 Alpha virt. eigenvalues --    1.97257   1.98537   1.99346   2.03179   2.04510
 Alpha virt. eigenvalues --    2.05845   2.07004   2.08797   2.10991   2.12035
 Alpha virt. eigenvalues --    2.13731   2.14066   2.15546   2.15674   2.15959
 Alpha virt. eigenvalues --    2.17115   2.22447   2.24126   2.25380   2.26588
 Alpha virt. eigenvalues --    2.28937   2.30446   2.30869   2.31791   2.34983
 Alpha virt. eigenvalues --    2.36102   2.36529   2.39274   2.41480   2.49549
 Alpha virt. eigenvalues --    2.52899   2.54416   2.57913   2.58479   2.59624
 Alpha virt. eigenvalues --    2.64789   2.65515   2.66179   2.67893   2.71701
 Alpha virt. eigenvalues --    2.72183   2.73246   2.74095   2.77304   2.78347
 Alpha virt. eigenvalues --    2.82071   2.85404   2.91613   2.94721   2.98176
 Alpha virt. eigenvalues --    3.01215   3.07131   3.19606   3.40361   3.43322
 Alpha virt. eigenvalues --    3.90672   4.06064   4.08742   4.11095   4.12506
 Alpha virt. eigenvalues --    4.12915   4.16114   4.23509   4.31803   4.32936
 Alpha virt. eigenvalues --    4.35812   4.37730   4.44878   4.55504   4.70716
 Alpha virt. eigenvalues --    4.77835
          Condensed to atoms (all electrons):
              1          2          3          4          5          6
     1  C    4.894339   0.249622  -0.043595  -0.006699   0.000325  -0.000008
     2  O    0.249622   8.202175   0.279886  -0.062484   0.003699   0.000168
     3  C   -0.043595   0.279886   4.510533   0.465659  -0.002463  -0.033619
     4  C   -0.006699  -0.062484   0.465659   5.110314   0.481360  -0.017628
     5  C    0.000325   0.003699  -0.002463   0.481360   5.011365   0.519808
     6  C   -0.000008   0.000168  -0.033619  -0.017628   0.519808   4.837585
     7  C   -0.000130   0.003057  -0.015595  -0.042760  -0.049138   0.526920
     8  C    0.004407  -0.055912   0.540964  -0.064298  -0.043320  -0.023988
     9  C   -0.000000   0.000001   0.000158   0.005679  -0.060334   0.292848
    10  C    0.000000  -0.000000   0.000032   0.000199  -0.002408  -0.030479
    11  C    0.000000  -0.000000  -0.000005  -0.000037  -0.000593  -0.011684
    12  C   -0.000000   0.000000  -0.000000  -0.000004  -0.000023  -0.000144
    13  C   -0.000000  -0.000000  -0.000000  -0.000000  -0.000002   0.000040
    14  C    0.000000  -0.000000  -0.000000   0.000000  -0.000067  -0.000223
    15  C    0.000000   0.000000   0.000001   0.000037   0.001695  -0.000848
    16  O    0.000000   0.000000  -0.000009  -0.000048   0.002769  -0.044650
    17  H    0.383947  -0.031340   0.003216   0.000161   0.000001  -0.000000
    18  H    0.363559  -0.036052  -0.004806   0.005205  -0.000128  -0.000008
    19  H    0.364156  -0.036346  -0.004669   0.004914  -0.000161   0.000001
    20  H    0.005811  -0.007275  -0.046256   0.352198  -0.037815   0.003320
    21  H   -0.000007  -0.000047   0.003105  -0.039204   0.351683  -0.044482
    22  H    0.000003  -0.000056   0.004194   0.000132   0.006499  -0.035910
    23  H   -0.000186  -0.000358  -0.037611   0.007523   0.000256   0.004068
    24  H   -0.000000  -0.000000  -0.000011  -0.000016  -0.003276  -0.070166
    25  H    0.000000   0.000000  -0.000012  -0.000041   0.000562   0.003327
    26  H    0.000000   0.000000  -0.000000   0.000000   0.000001  -0.000001
    27  H    0.000000   0.000000  -0.000000  -0.000000   0.000000   0.000000
    28  H   -0.000000   0.000000   0.000000   0.000000   0.000000   0.000001
    29  H    0.000000  -0.000000   0.000000  -0.000000   0.000011   0.000102
    30  H   -0.000000  -0.000000   0.000000   0.000004  -0.000160   0.006382
              7          8          9         10         11         12
     1  C   -0.000130   0.004407  -0.000000   0.000000   0.000000  -0.000000
     2  O    0.003057  -0.055912   0.000001  -0.000000  -0.000000   0.000000
     3  C   -0.015595   0.540964   0.000158   0.000032  -0.000005  -0.000000
     4  C   -0.042760  -0.064298   0.005679   0.000199  -0.000037  -0.000004
     5  C   -0.049138  -0.043320  -0.060334  -0.002408  -0.000593  -0.000023
     6  C    0.526920  -0.023988   0.292848  -0.030479  -0.011684  -0.000144
     7  C    4.990345   0.487129  -0.040863  -0.002318   0.001941   0.000029
     8  C    0.487129   5.021270   0.006283  -0.000086  -0.000038   0.000001
     9  C   -0.040863   0.006283   4.960715   0.332533  -0.048850   0.005035
    10  C   -0.002318  -0.000086   0.332533   4.824878   0.508008  -0.022025
    11  C    0.001941  -0.000038  -0.048850   0.508008   5.005894   0.520172
    12  C    0.000029   0.000001   0.005035  -0.022025   0.520172   4.869799
    13  C    0.000000   0.000000   0.000337  -0.035147  -0.035130   0.546174
    14  C    0.000006  -0.000000   0.005281  -0.020064  -0.040846  -0.027498
    15  C   -0.000269   0.000002  -0.033623   0.522097  -0.062943  -0.042266
    16  O   -0.000387   0.000606   0.226560  -0.040424  -0.001966   0.000279
    17  H    0.000003  -0.000110  -0.000000   0.000000  -0.000000  -0.000000
    18  H    0.000003   0.000074  -0.000000  -0.000000   0.000000  -0.000000
    19  H   -0.000002   0.000058   0.000000   0.000000   0.000000   0.000000
    20  H    0.000784   0.004563  -0.000152  -0.000003   0.000001   0.000000
    21  H    0.005744   0.000534  -0.007426   0.003140   0.000494  -0.000032
    22  H    0.356662  -0.046065  -0.012897   0.000265   0.000039   0.000003
    23  H   -0.041912   0.346302  -0.000134  -0.000000   0.000001   0.000000
    24  H    0.002979  -0.000002   0.379134  -0.063050   0.008560  -0.000075
    25  H    0.001442   0.000042  -0.007156  -0.043252   0.354987  -0.042508
    26  H   -0.000000  -0.000000  -0.000153   0.003652  -0.040179   0.358894
    27  H    0.000000   0.000000   0.000007   0.000666   0.004776  -0.043435
    28  H   -0.000000   0.000000  -0.000140   0.003817   0.000681   0.004749
    29  H   -0.000006  -0.000000  -0.008519  -0.044787   0.005965   0.000374
    30  H   -0.000138  -0.000004  -0.034073   0.005457   0.002818  -0.000281
             13         14         15         16         17         18
     1  C   -0.000000   0.000000   0.000000   0.000000   0.383947   0.363559
     2  O   -0.000000  -0.000000   0.000000   0.000000  -0.031340  -0.036052
     3  C   -0.000000  -0.000000   0.000001  -0.000009   0.003216  -0.004806
     4  C   -0.000000   0.000000   0.000037  -0.000048   0.000161   0.005205
     5  C   -0.000002  -0.000067   0.001695   0.002769   0.000001  -0.000128
     6  C    0.000040  -0.000223  -0.000848  -0.044650  -0.000000  -0.000008
     7  C    0.000000   0.000006  -0.000269  -0.000387   0.000003   0.000003
     8  C    0.000000  -0.000000   0.000002   0.000606  -0.000110   0.000074
     9  C    0.000337   0.005281  -0.033623   0.226560  -0.000000  -0.000000
    10  C   -0.035147  -0.020064   0.522097  -0.040424   0.000000  -0.000000
    11  C   -0.035130  -0.040846  -0.062943  -0.001966  -0.000000   0.000000
    12  C    0.546174  -0.027498  -0.042266   0.000279  -0.000000  -0.000000
    13  C    4.852408   0.552891  -0.035497   0.000007  -0.000000   0.000000
    14  C    0.552891   4.872225   0.510481  -0.000101  -0.000000   0.000000
    15  C   -0.035497   0.510481   5.011807   0.000377   0.000000  -0.000000
    16  O    0.000007  -0.000101   0.000377   8.298929   0.000000  -0.000000
    17  H   -0.000000  -0.000000   0.000000   0.000000   0.546142  -0.034069
    18  H    0.000000   0.000000  -0.000000  -0.000000  -0.034069   0.599638
    19  H   -0.000000  -0.000000   0.000000   0.000000  -0.034344  -0.046784
    20  H    0.000000   0.000000  -0.000001   0.000000  -0.000120   0.001769
    21  H   -0.000014   0.000063   0.001569   0.000071  -0.000000   0.000002
    22  H    0.000000   0.000000  -0.000004   0.012983  -0.000000   0.000000
    23  H   -0.000000   0.000000  -0.000000   0.000002  -0.000027   0.000029
    24  H   -0.000027   0.000514  -0.007520  -0.049134   0.000000   0.000000
    25  H    0.004580   0.000376   0.005840   0.002665  -0.000000   0.000000
    26  H   -0.043262   0.004671   0.000806   0.000002   0.000000   0.000000
    27  H    0.359132  -0.043144   0.004797   0.000000   0.000000   0.000000
    28  H   -0.043267   0.357784  -0.039716   0.000001  -0.000000   0.000000
    29  H    0.004785  -0.045619   0.355275   0.000059   0.000000   0.000000
    30  H   -0.000081  -0.000205   0.002150   0.234609  -0.000000   0.000000
             19         20         21         22         23         24
     1  C    0.364156   0.005811  -0.000007   0.000003  -0.000186  -0.000000
     2  O   -0.036346  -0.007275  -0.000047  -0.000056  -0.000358  -0.000000
     3  C   -0.004669  -0.046256   0.003105   0.004194  -0.037611  -0.000011
     4  C    0.004914   0.352198  -0.039204   0.000132   0.007523  -0.000016
     5  C   -0.000161  -0.037815   0.351683   0.006499   0.000256  -0.003276
     6  C    0.000001   0.003320  -0.044482  -0.035910   0.004068  -0.070166
     7  C   -0.000002   0.000784   0.005744   0.356662  -0.041912   0.002979
     8  C    0.000058   0.004563   0.000534  -0.046065   0.346302  -0.000002
     9  C    0.000000  -0.000152  -0.007426  -0.012897  -0.000134   0.379134
    10  C    0.000000  -0.000003   0.003140   0.000265  -0.000000  -0.063050
    11  C    0.000000   0.000001   0.000494   0.000039   0.000001   0.008560
    12  C    0.000000   0.000000  -0.000032   0.000003   0.000000  -0.000075
    13  C   -0.000000   0.000000  -0.000014   0.000000  -0.000000  -0.000027
    14  C   -0.000000   0.000000   0.000063   0.000000   0.000000   0.000514
    15  C    0.000000  -0.000001   0.001569  -0.000004  -0.000000  -0.007520
    16  O    0.000000   0.000000   0.000071   0.012983   0.000002  -0.049134
    17  H   -0.034344  -0.000120  -0.000000  -0.000000  -0.000027   0.000000
    18  H   -0.046784   0.001769   0.000002   0.000000   0.000029   0.000000
    19  H    0.599938   0.001756   0.000001  -0.000000   0.000029  -0.000000
    20  H    0.001756   0.598248  -0.005613   0.000015  -0.000168   0.000003
    21  H    0.000001  -0.005613   0.600250  -0.000169   0.000016   0.002207
    22  H   -0.000000   0.000015  -0.000169   0.567907  -0.005910   0.000466
    23  H    0.000029  -0.000168   0.000016  -0.005910   0.593037   0.000004
    24  H   -0.000000   0.000003   0.002207   0.000466   0.000004   0.655476
    25  H   -0.000000  -0.000000  -0.000010   0.000113  -0.000001   0.000240
    26  H   -0.000000   0.000000  -0.000000  -0.000000  -0.000000   0.000003
    27  H   -0.000000   0.000000  -0.000000   0.000000   0.000000  -0.000000
    28  H   -0.000000  -0.000000  -0.000001  -0.000000  -0.000000  -0.000006
    29  H   -0.000000  -0.000000   0.000175   0.000000  -0.000000   0.007845
    30  H   -0.000000  -0.000000  -0.000009  -0.000506  -0.000000   0.002138
             25         26         27         28         29         30
     1  C    0.000000   0.000000   0.000000  -0.000000   0.000000  -0.000000
     2  O    0.000000   0.000000   0.000000   0.000000  -0.000000  -0.000000
     3  C   -0.000012  -0.000000  -0.000000   0.000000   0.000000   0.000000
     4  C   -0.000041   0.000000  -0.000000   0.000000  -0.000000   0.000004
     5  C    0.000562   0.000001   0.000000   0.000000   0.000011  -0.000160
     6  C    0.003327  -0.000001   0.000000   0.000001   0.000102   0.006382
     7  C    0.001442  -0.000000   0.000000  -0.000000  -0.000006  -0.000138
     8  C    0.000042  -0.000000   0.000000   0.000000  -0.000000  -0.000004
     9  C   -0.007156  -0.000153   0.000007  -0.000140  -0.008519  -0.034073
    10  C   -0.043252   0.003652   0.000666   0.003817  -0.044787   0.005457
    11  C    0.354987  -0.040179   0.004776   0.000681   0.005965   0.002818
    12  C   -0.042508   0.358894  -0.043435   0.004749   0.000374  -0.000281
    13  C    0.004580  -0.043262   0.359132  -0.043267   0.004785  -0.000081
    14  C    0.000376   0.004671  -0.043144   0.357784  -0.045619  -0.000205
    15  C    0.005840   0.000806   0.004797  -0.039716   0.355275   0.002150
    16  O    0.002665   0.000002   0.000000   0.000001   0.000059   0.234609
    17  H   -0.000000   0.000000   0.000000  -0.000000   0.000000  -0.000000
    18  H    0.000000   0.000000   0.000000   0.000000   0.000000   0.000000
    19  H   -0.000000  -0.000000  -0.000000  -0.000000  -0.000000  -0.000000
    20  H   -0.000000   0.000000   0.000000  -0.000000  -0.000000  -0.000000
    21  H   -0.000010  -0.000000  -0.000000  -0.000001   0.000175  -0.000009
    22  H    0.000113  -0.000000   0.000000  -0.000000   0.000000  -0.000506
    23  H   -0.000001  -0.000000   0.000000  -0.000000  -0.000000  -0.000000
    24  H    0.000240   0.000003  -0.000000  -0.000006   0.007845   0.002138
    25  H    0.577271  -0.005136  -0.000176   0.000016  -0.000150   0.000435
    26  H   -0.005136   0.592398  -0.005641  -0.000186   0.000017   0.000008
    27  H   -0.000176  -0.005641   0.597498  -0.005731  -0.000183  -0.000000
    28  H    0.000016  -0.000186  -0.005731   0.595804  -0.005591   0.000002
    29  H   -0.000150   0.000017  -0.000183  -0.005591   0.598471   0.000145
    30  H    0.000435   0.000008  -0.000000   0.000002   0.000145   0.385758
 Mulliken atomic charges:
              1
     1  C   -0.215545
     2  O   -0.508738
     3  C    0.380902
     4  C   -0.200165
     5  C   -0.180147
     6  C    0.119266
     7  C   -0.183524
     8  C   -0.178412
     9  C    0.039750
    10  C    0.099298
    11  C   -0.172064
    12  C   -0.127218
    13  C   -0.127928
    14  C   -0.126524
    15  C   -0.194249
    16  O   -0.643199
    17  H    0.166539
    18  H    0.151569
    19  H    0.151453
    20  H    0.128934
    21  H    0.127958
    22  H    0.152235
    23  H    0.135042
    24  H    0.133715
    25  H    0.146549
    26  H    0.134107
    27  H    0.131434
    28  H    0.131781
    29  H    0.131631
    30  H    0.395550
 Sum of Mulliken atomic charges =  -0.00000
 Mulliken charges with hydrogens summed into heavy atoms:
              1
     1  C    0.254015
     2  O   -0.508738
     3  C    0.380902
     4  C   -0.071231
     5  C   -0.052189
     6  C    0.119266
     7  C   -0.031290
     8  C   -0.043370
     9  C    0.173465
    10  C    0.099298
    11  C   -0.025515
    12  C    0.006889
    13  C    0.003506
    14  C    0.005257
    15  C   -0.062618
    16  O   -0.247649
 Sum of Mulliken charges with hydrogens summed into heavy atoms =  -0.00000
 Electronic spatial extent (au):  <R**2>=           4689.8530
 Charge=             -0.0000 electrons
 Dipole moment (field-independent basis, Debye):
    X=             -1.0952    Y=             -2.3247    Z=             -0.4729  Tot=              2.6129
 Quadrupole moment (field-independent basis, Debye-Ang):
   XX=            -80.3634   YY=            -92.3471   ZZ=            -88.9960
   XY=             -5.1800   XZ=             -1.6702   YZ=              2.4867
 Traceless Quadrupole moment (field-independent basis, Debye-Ang):
   XX=              6.8721   YY=             -5.1116   ZZ=             -1.7605
   XY=             -5.1800   XZ=             -1.6702   YZ=              2.4867
 Octapole moment (field-independent basis, Debye-Ang**2):
  XXX=             20.9600  YYY=             -5.2244  ZZZ=              3.0532  XYY=             13.4952
  XXY=            -41.8975  XXZ=            -10.0159  XZZ=             -9.9307  YZZ=             -0.2945
  YYZ=              6.2543  XYZ=              7.2333
 Hexadecapole moment (field-independent basis, Debye-Ang**3):
 XXXX=          -4534.0509 YYYY=           -918.0956 ZZZZ=           -454.6386 XXXY=           -124.2111
 XXXZ=            -22.6381 YYYX=            -49.8624 YYYZ=             17.3270 ZZZX=              4.5660
 ZZZY=             -5.3344 XXYY=           -833.4539 XXZZ=           -860.6742 YYZZ=           -220.6774
 XXYZ=              9.5037 YYXZ=             -0.6366 ZZXY=              5.9605
 N-N= 1.009439947994D+03 E-N=-3.628322823424D+03  KE= 6.858024579297D+02
 No NMR shielding tensors so no spin-rotation constants.
 Leave Link  601 at Thu Sep 30 10:04:52 2021, MaxMem= 1342177280 cpu:       1.7
 (Enter /sw/target/amd/app/gaussian/Gaussian09RevA.02_gcc-4.9.2/g09/l701.exe)
 Compute integral first derivatives.
 ... and contract with generalized density number  0.
 Leave Link  701 at Thu Sep 30 10:04:54 2021, MaxMem= 1342177280 cpu:       1.6
 (Enter /sw/target/amd/app/gaussian/Gaussian09RevA.02_gcc-4.9.2/g09/l702.exe)
 L702 exits ... SP integral derivatives will be done elsewhere.
 Leave Link  702 at Thu Sep 30 10:04:54 2021, MaxMem= 1342177280 cpu:       0.0
 (Enter /sw/target/amd/app/gaussian/Gaussian09RevA.02_gcc-4.9.2/g09/l703.exe)
 Compute integral first derivatives, UseDBF=F ICtDFT=           0.
 Integral derivatives from FoFDir, PRISM(SPDF).
 Calling FoFJK, ICntrl=      2127 FMM=F ISym2X=0 I1Cent= 0 IOpClX= 0 NMat=1 NMatS=1 NMatT=0.
 FoFCou: FMM=F IPFlag=           0 FMFlag=      100000 FMFlg1=         800
         NFxFlg=           0 DoJE=F BraDBF=F KetDBF=F FulRan=T
         Omega=  0.000000  0.000000  1.000000  0.000000  0.000000 ICntrl=    2127 IOpCl=  0
         NMat0=    1 NMatS0=    1 NMatT0=    0 NMatD0=    1 NMtDS0=    0 NMtDT0=    0
         I1Cent=           0 NGrid=           0.
 Symmetry not used in FoFCou.
 Leave Link  703 at Thu Sep 30 10:06:41 2021, MaxMem= 1342177280 cpu:     107.6
 (Enter /sw/target/amd/app/gaussian/Gaussian09RevA.02_gcc-4.9.2/g09/l716.exe)
 Dipole        =-4.30865835D-01-9.14595465D-01-1.86041722D-01
 ***** Axes restored to original set *****
 -------------------------------------------------------------------
 Center     Atomic                   Forces (Hartrees/Bohr)
 Number     Number              X              Y              Z
 -------------------------------------------------------------------
      1        6           0.000216371   -0.002157055   -0.005275358
      2        8          -0.007253371   -0.002711808    0.002251244
      3        6           0.004811415   -0.000451455   -0.007013219
      4        6          -0.003489848    0.002571639    0.009764179
      5        6           0.005045313    0.000420422   -0.006051918
      6        6          -0.000656847   -0.003965965   -0.001394420
      7        6          -0.002127977   -0.002831454   -0.003345145
      8        6           0.010594135    0.006727096    0.002470652
      9        6           0.003287689    0.007080195    0.002750130
     10        6          -0.006660001   -0.000712364    0.005228069
     11        6           0.001156824   -0.000967940   -0.000750037
     12        6           0.000449823    0.000762369   -0.003524517
     13        6          -0.000058787   -0.000421159    0.003763524
     14        6           0.000090004    0.000195598    0.000953550
     15        6           0.001064300   -0.001814176   -0.000539797
     16        8           0.005555476   -0.004636903   -0.007605371
     17        1           0.004194528    0.001410111   -0.001490374
     18        1          -0.000783106    0.000521733    0.003836501
     19        1          -0.001500276    0.001279990    0.003595489
     20        1          -0.000305958   -0.000839358   -0.001598728
     21        1           0.000647327   -0.000292725   -0.000555822
     22        1          -0.001919882    0.000224101    0.003323301
     23        1          -0.002470041   -0.001161534    0.000458677
     24        1          -0.004678823   -0.000306004    0.006417082
     25        1          -0.001938762    0.001670664    0.000169605
     26        1          -0.000122012    0.000097770   -0.000449809
     27        1          -0.000132473   -0.000051155    0.000124500
     28        1          -0.000145690    0.000244797   -0.000400798
     29        1          -0.000036999   -0.000289872   -0.002365511
     30        1          -0.002832352    0.000404440   -0.002745678
 -------------------------------------------------------------------
 Cartesian Forces:  Max     0.010594135 RMS     0.003352234
 Leave Link  716 at Thu Sep 30 10:06:42 2021, MaxMem= 1342177280 cpu:       0.1
 (Enter /sw/target/amd/app/gaussian/Gaussian09RevA.02_gcc-4.9.2/g09/l103.exe)

 GradGradGradGradGradGradGradGradGradGradGradGradGradGradGradGradGradGrad
 Berny optimization.
 Internal  Forces:  Max     0.010521405 RMS     0.002448978
 Search for a local minimum.
 Step number   1 out of a maximum of  159
 All quantities printed in internal units (Hartrees-Bohrs-Radians)
 RMS Force = .24490D-02 SwitMx=.10000D-02 MixMth= 1
 Mixed Optimization -- RFO/linear search
 Second derivative matrix not updated -- first step.
     Eigenvalues ---    0.00488   0.00513   0.01284   0.01407   0.01408
     Eigenvalues ---    0.01420   0.02039   0.02045   0.02050   0.02082
     Eigenvalues ---    0.02088   0.02092   0.02100   0.02122   0.02122
     Eigenvalues ---    0.02128   0.02134   0.02144   0.02157   0.02160
     Eigenvalues ---    0.02160   0.02167   0.02175   0.05153   0.06133
     Eigenvalues ---    0.08633   0.09986   0.10546   0.15999   0.16000
     Eigenvalues ---    0.16000   0.16000   0.16000   0.16000   0.16000
     Eigenvalues ---    0.16000   0.16000   0.16000   0.16000   0.16000
     Eigenvalues ---    0.16000   0.19218   0.20343   0.22000   0.22000
     Eigenvalues ---    0.22000   0.22966   0.23466   0.23997   0.24982
     Eigenvalues ---    0.24986   0.25000   0.25000   0.30273   0.30451
     Eigenvalues ---    0.33975   0.34232   0.34253   0.34304   0.34926
     Eigenvalues ---    0.34989   0.35012   0.35043   0.35135   0.35141
     Eigenvalues ---    0.35160   0.35175   0.35433   0.40872   0.41339
     Eigenvalues ---    0.41662   0.41758   0.41949   0.42237   0.45110
     Eigenvalues ---    0.45232   0.45700   0.45926   0.45969   0.46330
     Eigenvalues ---    0.46456   0.46648   0.51463   0.530111000.00000
     Eigenvalues --- 1000.000001000.000001000.000001000.000001000.00000
     Eigenvalues --- 1000.000001000.000001000.000001000.000001000.00000
     Eigenvalues --- 1000.000001000.000001000.000001000.000001000.00000
     Eigenvalues --- 1000.000001000.000001000.000001000.000001000.00000
     Eigenvalues --- 1000.000001000.000001000.000001000.000001000.00000
     Eigenvalues --- 1000.000001000.000001000.000001000.000001000.00000
     Eigenvalues --- 1000.000001000.000001000.000001000.000001000.00000
     Eigenvalues --- 1000.000001000.000001000.000001000.000001000.00000
     Eigenvalues --- 1000.000001000.000001000.000001000.000001000.00000
     Eigenvalues --- 1000.000001000.000001000.000001000.000001000.00000
     Eigenvalues --- 1000.000001000.000001000.000001000.000001000.00000
     Eigenvalues --- 1000.000001000.000001000.000001000.000001000.00000
     Eigenvalues --- 1000.000001000.000001000.000001000.00000
 RFO step:  Lambda=-4.66626095D-03 EMin= 4.88466409D-03
 Linear search not attempted -- first point.
 Iteration  1 RMS(Cart)=  0.05193030 RMS(Int)=  0.00070582
 Iteration  2 RMS(Cart)=  0.00145242 RMS(Int)=  0.00027911
 Iteration  3 RMS(Cart)=  0.00000068 RMS(Int)=  0.00027910
 Variable       Old X    -DE/DX   Delta X   Delta X   Delta X     New X
                                 (Linear)    (Quad)   (Total)
    R1        2.68623  -0.00212   0.00000  -0.00497  -0.00497   2.68126
    R2        2.06820  -0.00105   0.00000  -0.00301  -0.00301   2.06518
    R3        2.06941   0.00167   0.00000   0.00483   0.00483   2.07423
    R4        2.06906   0.00183   0.00000   0.00527   0.00527   2.07432
    R5        2.58417   0.00135   0.00000   0.00260   0.00260   2.58678
    R6        2.63358   0.00441   0.00000   0.01021   0.01020   2.64379
    R7        2.63650   0.00456   0.00000   0.01067   0.01066   2.64716
    R8        2.64788  -0.00423   0.00000  -0.00930  -0.00930   2.63858
    R9        2.04978   0.00002   0.00000   0.00004   0.00004   2.04982
   R10        2.65605  -0.00661   0.00000  -0.01561  -0.01560   2.64045
   R11        2.05694  -0.00079   0.00000  -0.00224  -0.00224   2.05469
   R12        2.64928  -0.00227   0.00000  -0.00584  -0.00583   2.64345
   R13        2.87423  -0.00131   0.00000  -0.00427  -0.00427   2.86996
   R14        2.64192  -0.00521   0.00000  -0.01114  -0.01114   2.63078
   R15        2.05656  -0.00269   0.00000  -0.00759  -0.00759   2.04897
   R16        2.05447  -0.00102   0.00000  -0.00286  -0.00286   2.05161
   R17        2.87073   0.00100   0.00000   0.00323   0.00323   2.87395
   R18        2.70386   0.00537   0.00000   0.01299   0.01299   2.71685
   R19        2.07372   0.00343   0.00000   0.00995   0.00995   2.08367
   R20        2.65458  -0.00254   0.00000  -0.00618  -0.00618   2.64840
   R21        2.65325  -0.00331   0.00000  -0.00781  -0.00781   2.64543
   R22        2.63745  -0.00112   0.00000  -0.00246  -0.00246   2.63499
   R23        2.05796  -0.00143   0.00000  -0.00405  -0.00405   2.05391
   R24        2.63329   0.00353   0.00000   0.00798   0.00798   2.64127
   R25        2.05417  -0.00015   0.00000  -0.00043  -0.00043   2.05373
   R26        2.63332   0.00125   0.00000   0.00320   0.00321   2.63652
   R27        2.05392   0.00010   0.00000   0.00027   0.00027   2.05419
   R28        2.63777   0.00120   0.00000   0.00263   0.00263   2.64040
   R29        2.05456  -0.00020   0.00000  -0.00056  -0.00056   2.05399
   R30        2.05605  -0.00024   0.00000  -0.00069  -0.00069   2.05536
   R31        1.83643  -0.00390   0.00000  -0.00730  -0.00730   1.82914
    A1        1.88095  -0.00616   0.00000  -0.03474  -0.03465   1.84630
    A2        1.94112   0.00142   0.00000   0.00719   0.00724   1.94836
    A3        1.93885   0.00194   0.00000   0.01041   0.01047   1.94932
    A4        1.87888   0.00333   0.00000   0.02277   0.02284   1.90172
    A5        1.87980   0.00317   0.00000   0.02202   0.02211   1.90191
    A6        1.94111  -0.00368   0.00000  -0.02701  -0.02697   1.91414
    A7        2.04036   0.00362   0.00000   0.01420   0.01420   2.05456
    A8        2.20257  -0.00589   0.00000  -0.02492  -0.02491   2.17765
    A9        2.00250   0.00595   0.00000   0.02155   0.02156   2.02406
   A10        2.07811  -0.00006   0.00000   0.00338   0.00336   2.08147
   A11        2.09819  -0.00255   0.00000  -0.00946  -0.00947   2.08872
   A12        2.12589  -0.00060   0.00000  -0.00665  -0.00666   2.11923
   A13        2.05910   0.00315   0.00000   0.01614   0.01613   2.07523
   A14        2.11486   0.00168   0.00000   0.00547   0.00549   2.12034
   A15        2.07242  -0.00056   0.00000  -0.00104  -0.00106   2.07136
   A16        2.09591  -0.00112   0.00000  -0.00443  -0.00445   2.09146
[...]
       /RESON  / : Allow strongly delocalized NBO set

 Analyzing the CI density

 Job title: COc1ccc(cc1)C(c1ccccc1)O_conf_0                                 

 Storage needed:    218470 in NPA (1342172480 available)


 NATURAL POPULATIONS:  Natural atomic orbital occupancies 
                                                          
   NAO  Atom  No  lang   Type(AO)    Occupancy
 --------------------------------------------
     1    C    1  S      Cor( 1S)     1.99941
     2    C    1  S      Val( 2S)     1.10990
     3    C    1  S      Ryd( 3S)     0.00152
     4    C    1  S      Ryd( 4S)     0.00003
     5    C    1  px     Val( 2p)     1.16987
     6    C    1  px     Ryd( 3p)     0.00245
     7    C    1  py     Val( 2p)     0.85932
     8    C    1  py     Ryd( 3p)     0.00270
     9    C    1  pz     Val( 2p)     1.18162
    10    C    1  pz     Ryd( 3p)     0.00138
    11    C    1  dxy    Ryd( 3d)     0.00149
    12    C    1  dxz    Ryd( 3d)     0.00072
    13    C    1  dyz    Ryd( 3d)     0.00110
    14    C    1  dx2y2  Ryd( 3d)     0.00153
    15    C    1  dz2    Ryd( 3d)     0.00151

    16    O    2  S      Cor( 1S)     1.99975
    17    O    2  S      Val( 2S)     1.60108
    18    O    2  S      Ryd( 3S)     0.00076
    19    O    2  S      Ryd( 4S)     0.00005
    20    O    2  px     Val( 2p)     1.51516
    21    O    2  px     Ryd( 3p)     0.00131
    22    O    2  py     Val( 2p)     1.58200
    23    O    2  py     Ryd( 3p)     0.00161
    24    O    2  pz     Val( 2p)     1.70699
    25    O    2  pz     Ryd( 3p)     0.00208
    26    O    2  dxy    Ryd( 3d)     0.00118
    27    O    2  dxz    Ryd( 3d)     0.00111
    28    O    2  dyz    Ryd( 3d)     0.00102
    29    O    2  dx2y2  Ryd( 3d)     0.00099
    30    O    2  dz2    Ryd( 3d)     0.00133

    31    C    3  S      Cor( 1S)     1.99878
    32    C    3  S      Val( 2S)     0.85181
    33    C    3  S      Ryd( 3S)     0.00139
    34    C    3  S      Ryd( 4S)     0.00013
    35    C    3  px     Val( 2p)     0.77076
    36    C    3  px     Ryd( 3p)     0.00659
    37    C    3  py     Val( 2p)     1.02323
    38    C    3  py     Ryd( 3p)     0.00343
    39    C    3  pz     Val( 2p)     0.94620
    40    C    3  pz     Ryd( 3p)     0.00304
    41    C    3  dxy    Ryd( 3d)     0.00140
    42    C    3  dxz    Ryd( 3d)     0.00153
    43    C    3  dyz    Ryd( 3d)     0.00072
    44    C    3  dx2y2  Ryd( 3d)     0.00179
    45    C    3  dz2    Ryd( 3d)     0.00105

    46    C    4  S      Cor( 1S)     1.99905
    47    C    4  S      Val( 2S)     0.97145
    48    C    4  S      Ryd( 3S)     0.00063
    49    C    4  S      Ryd( 4S)     0.00005
    50    C    4  px     Val( 2p)     1.08581
    51    C    4  px     Ryd( 3p)     0.00381
    52    C    4  py     Val( 2p)     1.16500
    53    C    4  py     Ryd( 3p)     0.00338
    54    C    4  pz     Val( 2p)     1.05816
    55    C    4  pz     Ryd( 3p)     0.00197
    56    C    4  dxy    Ryd( 3d)     0.00073
    57    C    4  dxz    Ryd( 3d)     0.00051
    58    C    4  dyz    Ryd( 3d)     0.00054
    59    C    4  dx2y2  Ryd( 3d)     0.00050
    60    C    4  dz2    Ryd( 3d)     0.00044

    61    C    5  S      Cor( 1S)     1.99904
    62    C    5  S      Val( 2S)     0.97000
    63    C    5  S      Ryd( 3S)     0.00085
    64    C    5  S      Ryd( 4S)     0.00006
    65    C    5  px     Val( 2p)     1.07953
    66    C    5  px     Ryd( 3p)     0.00366
    67    C    5  py     Val( 2p)     1.07580
    68    C    5  py     Ryd( 3p)     0.00406
    69    C    5  pz     Val( 2p)     1.01513
    70    C    5  pz     Ryd( 3p)     0.00243
    71    C    5  dxy    Ryd( 3d)     0.00068
    72    C    5  dxz    Ryd( 3d)     0.00063
    73    C    5  dyz    Ryd( 3d)     0.00056
    74    C    5  dx2y2  Ryd( 3d)     0.00063
    75    C    5  dz2    Ryd( 3d)     0.00041

    76    C    6  S      Cor( 1S)     1.99900
    77    C    6  S      Val( 2S)     0.92280
    78    C    6  S      Ryd( 3S)     0.00170
    79    C    6  S      Ryd( 4S)     0.00005
    80    C    6  px     Val( 2p)     1.05949
    81    C    6  px     Ryd( 3p)     0.00557
    82    C    6  py     Val( 2p)     0.99658
    83    C    6  py     Ryd( 3p)     0.00456
    84    C    6  pz     Val( 2p)     0.86131
    85    C    6  pz     Ryd( 3p)     0.00189
    86    C    6  dxy    Ryd( 3d)     0.00092
    87    C    6  dxz    Ryd( 3d)     0.00072
    88    C    6  dyz    Ryd( 3d)     0.00049
    89    C    6  dx2y2  Ryd( 3d)     0.00072
    90    C    6  dz2    Ryd( 3d)     0.00062

    91    C    7  S      Cor( 1S)     1.99905
    92    C    7  S      Val( 2S)     0.96969
    93    C    7  S      Ryd( 3S)     0.00062
    94    C    7  S      Ryd( 4S)     0.00005
    95    C    7  px     Val( 2p)     1.04835
    96    C    7  px     Ryd( 3p)     0.00420
    97    C    7  py     Val( 2p)     1.16895
    98    C    7  py     Ryd( 3p)     0.00486
    99    C    7  pz     Val( 2p)     1.02037
   100    C    7  pz     Ryd( 3p)     0.00251
   101    C    7  dxy    Ryd( 3d)     0.00064
   102    C    7  dxz    Ryd( 3d)     0.00047
   103    C    7  dyz    Ryd( 3d)     0.00057
   104    C    7  dx2y2  Ryd( 3d)     0.00068
   105    C    7  dz2    Ryd( 3d)     0.00041

   106    C    8  S      Cor( 1S)     1.99906
   107    C    8  S      Val( 2S)     0.97861
   108    C    8  S      Ryd( 3S)     0.00084
   109    C    8  S      Ryd( 4S)     0.00005
   110    C    8  px     Val( 2p)     1.11213
   111    C    8  px     Ryd( 3p)     0.00501
   112    C    8  py     Val( 2p)     1.06224
   113    C    8  py     Ryd( 3p)     0.00358
   114    C    8  pz     Val( 2p)     1.03347
   115    C    8  pz     Ryd( 3p)     0.00235
   116    C    8  dxy    Ryd( 3d)     0.00063
   117    C    8  dxz    Ryd( 3d)     0.00069
   118    C    8  dyz    Ryd( 3d)     0.00053
   119    C    8  dx2y2  Ryd( 3d)     0.00060
   120    C    8  dz2    Ryd( 3d)     0.00042

   121    C    9  S      Cor( 1S)     1.99900
   122    C    9  S      Val( 2S)     0.93771
   123    C    9  S      Ryd( 3S)     0.00262
   124    C    9  S      Ryd( 4S)     0.00006
   125    C    9  px     Val( 2p)     1.01530
   126    C    9  px     Ryd( 3p)     0.00188
   127    C    9  py     Val( 2p)     0.82453
   128    C    9  py     Ryd( 3p)     0.00863
   129    C    9  pz     Val( 2p)     1.13973
   130    C    9  pz     Ryd( 3p)     0.00528
   131    C    9  dxy    Ryd( 3d)     0.00100
   132    C    9  dxz    Ryd( 3d)     0.00038
   133    C    9  dyz    Ryd( 3d)     0.00142
   134    C    9  dx2y2  Ryd( 3d)     0.00256
   135    C    9  dz2    Ryd( 3d)     0.00178

   136    C   10  S      Cor( 1S)     1.99895
   137    C   10  S      Val( 2S)     0.85566
   138    C   10  S      Ryd( 3S)     0.00080
   139    C   10  S      Ryd( 4S)     0.00005
   140    C   10  px     Val( 2p)     1.12149
   141    C   10  px     Ryd( 3p)     0.00570
   142    C   10  py     Val( 2p)     1.17682
   143    C   10  py     Ryd( 3p)     0.00503
   144    C   10  pz     Val( 2p)     1.09668
   145    C   10  pz     Ryd( 3p)     0.00477
   146    C   10  dxy    Ryd( 3d)     0.00044
   147    C   10  dxz    Ryd( 3d)     0.00062
   148    C   10  dyz    Ryd( 3d)     0.00062
   149    C   10  dx2y2  Ryd( 3d)     0.00033
   150    C   10  dz2    Ryd( 3d)     0.00056

   151    C   11  S      Cor( 1S)     1.99903
   152    C   11  S      Val( 2S)     0.92913
   153    C   11  S      Ryd( 3S)     0.00056
   154    C   11  S      Ryd( 4S)     0.00004
   155    C   11  px     Val( 2p)     1.14396
   156    C   11  px     Ryd( 3p)     0.00453
   157    C   11  py     Val( 2p)     1.14006
   158    C   11  py     Ryd( 3p)     0.00454
   159    C   11  pz     Val( 2p)     1.10237
   160    C   11  pz     Ryd( 3p)     0.00436
   161    C   11  dxy    Ryd( 3d)     0.00049
   162    C   11  dxz    Ryd( 3d)     0.00070
   163    C   11  dyz    Ryd( 3d)     0.00071
   164    C   11  dx2y2  Ryd( 3d)     0.00040
   165    C   11  dz2    Ryd( 3d)     0.00053

   166    C   12  S      Cor( 1S)     1.99910
   167    C   12  S      Val( 2S)     0.95103
   168    C   12  S      Ryd( 3S)     0.00056
   169    C   12  S      Ryd( 4S)     0.00003
   170    C   12  px     Val( 2p)     1.04246
   171    C   12  px     Ryd( 3p)     0.00287
   172    C   12  py     Val( 2p)     1.03301
   173    C   12  py     Ryd( 3p)     0.00253
   174    C   12  pz     Val( 2p)     1.17780
   175    C   12  pz     Ryd( 3p)     0.00514
   176    C   12  dxy    Ryd( 3d)     0.00039
   177    C   12  dxz    Ryd( 3d)     0.00045
   178    C   12  dyz    Ryd( 3d)     0.00040
   179    C   12  dx2y2  Ryd( 3d)     0.00116
   180    C   12  dz2    Ryd( 3d)     0.00093

   181    C   13  S      Cor( 1S)     1.99910
   182    C   13  S      Val( 2S)     0.93905
   183    C   13  S      Ryd( 3S)     0.00052
   184    C   13  S      Ryd( 4S)     0.00003
   185    C   13  px     Val( 2p)     1.17459
   186    C   13  px     Ryd( 3p)     0.00506
   187    C   13  py     Val( 2p)     1.17498
   188    C   13  py     Ryd( 3p)     0.00520
   189    C   13  pz     Val( 2p)     1.07054
   190    C   13  pz     Ryd( 3p)     0.00510
   191    C   13  dxy    Ryd( 3d)     0.00060
   192    C   13  dxz    Ryd( 3d)     0.00056
   193    C   13  dyz    Ryd( 3d)     0.00054
   194    C   13  dx2y2  Ryd( 3d)     0.00028
   195    C   13  dz2    Ryd( 3d)     0.00055

   196    C   14  S      Cor( 1S)     1.99910
   197    C   14  S      Val( 2S)     0.94268
   198    C   14  S      Ryd( 3S)     0.00059
   199    C   14  S      Ryd( 4S)     0.00003
   200    C   14  px     Val( 2p)     1.11232
   201    C   14  px     Ryd( 3p)     0.00431
   202    C   14  py     Val( 2p)     1.11106
   203    C   14  py     Ryd( 3p)     0.00424
   204    C   14  pz     Val( 2p)     1.11982
   205    C   14  pz     Ryd( 3p)     0.00512
   206    C   14  dxy    Ryd( 3d)     0.00048
   207    C   14  dxz    Ryd( 3d)     0.00074
   208    C   14  dyz    Ryd( 3d)     0.00074
   209    C   14  dx2y2  Ryd( 3d)     0.00042
   210    C   14  dz2    Ryd( 3d)     0.00053

   211    C   15  S      Cor( 1S)     1.99903
   212    C   15  S      Val( 2S)     0.93843
   213    C   15  S      Ryd( 3S)     0.00049
   214    C   15  S      Ryd( 4S)     0.00004
   215    C   15  px     Val( 2p)     1.06643
   216    C   15  px     Ryd( 3p)     0.00243
   217    C   15  py     Val( 2p)     1.05627
   218    C   15  py     Ryd( 3p)     0.00215
   219    C   15  pz     Val( 2p)     1.16580
   220    C   15  pz     Ryd( 3p)     0.00465
   221    C   15  dxy    Ryd( 3d)     0.00038
   222    C   15  dxz    Ryd( 3d)     0.00045
   223    C   15  dyz    Ryd( 3d)     0.00039
   224    C   15  dx2y2  Ryd( 3d)     0.00125
   225    C   15  dz2    Ryd( 3d)     0.00088

   226    O   16  S      Cor( 1S)     1.99982
   227    O   16  S      Val( 2S)     1.68566
   228    O   16  S      Ryd( 3S)     0.00172
   229    O   16  S      Ryd( 4S)     0.00010
   230    O   16  px     Val( 2p)     1.62062
   231    O   16  px     Ryd( 3p)     0.00117
   232    O   16  py     Val( 2p)     1.58715
   233    O   16  py     Ryd( 3p)     0.00208
   234    O   16  pz     Val( 2p)     1.87791
   235    O   16  pz     Ryd( 3p)     0.00179
   236    O   16  dxy    Ryd( 3d)     0.00107
   237    O   16  dxz    Ryd( 3d)     0.00091
   238    O   16  dyz    Ryd( 3d)     0.00082
   239    O   16  dx2y2  Ryd( 3d)     0.00126
   240    O   16  dz2    Ryd( 3d)     0.00109

   241    H   17  S      Val( 1S)     0.75130
   242    H   17  S      Ryd( 2S)     0.00030

   243    H   18  S      Val( 1S)     0.77212
   244    H   18  S      Ryd( 2S)     0.00101

   245    H   19  S      Val( 1S)     0.76875
   246    H   19  S      Ryd( 2S)     0.00093

   247    H   20  S      Val( 1S)     0.74282
   248    H   20  S      Ryd( 2S)     0.00066

   249    H   21  S      Val( 1S)     0.72090
   250    H   21  S      Ryd( 2S)     0.00098

   251    H   22  S      Val( 1S)     0.71129
   252    H   22  S      Ryd( 2S)     0.00109

   253    H   23  S      Val( 1S)     0.73468
   254    H   23  S      Ryd( 2S)     0.00093

   255    H   24  S      Val( 1S)     0.75842
   256    H   24  S      Ryd( 2S)     0.00195

   257    H   25  S      Val( 1S)     0.79770
   258    H   25  S      Ryd( 2S)     0.00105

   259    H   26  S      Val( 1S)     0.78907
   260    H   26  S      Ryd( 2S)     0.00087

   261    H   27  S      Val( 1S)     0.79412
   262    H   27  S      Ryd( 2S)     0.00064

   263    H   28  S      Val( 1S)     0.79086
   264    H   28  S      Ryd( 2S)     0.00076

   265    H   29  S      Val( 1S)     0.80114
   266    H   29  S      Ryd( 2S)     0.00106

   267    H   30  S      Val( 1S)     0.50374
   268    H   30  S      Ryd( 2S)     0.00367

 WARNING:  1 low occupancy (<1.9990e) core orbital  found on  C    3
           1 low occupancy (<1.9990e) core orbital  found on  C    6
           1 low occupancy (<1.9990e) core orbital  found on  C    9
           1 low occupancy (<1.9990e) core orbital  found on  C   10


 Summary of Natural Population Analysis:                  
                                                          
                                       Natural Population 
                Natural  -----------------------------------------------
    Atom  No    Charge         Core      Valence    Rydberg      Total
 -----------------------------------------------------------------------
      C    1   -0.33454      1.99941     4.32071    0.01442     6.33454
      O    2   -0.41643      1.99975     6.40523    0.01145     8.41643
      C    3    0.38815      1.99878     3.59201    0.02106     5.61185
      C    4   -0.29204      1.99905     4.28043    0.01256     6.29204
      C    5   -0.15348      1.99904     4.14046    0.01398     6.15348
      C    6    0.14360      1.99900     3.84018    0.01723     5.85640
      C    7   -0.22144      1.99905     4.20737    0.01502     6.22144
      C    8   -0.20020      1.99906     4.18644    0.01471     6.20020
      C    9    0.05812      1.99900     3.91727    0.02561     5.94188
      C   10   -0.26853      1.99895     4.25065    0.01893     6.26853
      C   11   -0.33140      1.99903     4.31551    0.01686     6.33140
      C   12   -0.21785      1.99910     4.20430    0.01445     6.21785
      C   13   -0.37672      1.99910     4.35917    0.01845     6.37672
      C   14   -0.30219      1.99910     4.28587    0.01722     6.30219
      C   15   -0.23907      1.99903     4.22693    0.01311     6.23907
      O   16   -0.78317      1.99982     6.77134    0.01201     8.78317
      H   17    0.24840      0.00000     0.75130    0.00030     0.75160
      H   18    0.22686      0.00000     0.77212    0.00101     0.77314
      H   19    0.23032      0.00000     0.76875    0.00093     0.76968
      H   20    0.25653      0.00000     0.74282    0.00066     0.74347
      H   21    0.27812      0.00000     0.72090    0.00098     0.72188
      H   22    0.28762      0.00000     0.71129    0.00109     0.71238
      H   23    0.26439      0.00000     0.73468    0.00093     0.73561
      H   24    0.23963      0.00000     0.75842    0.00195     0.76037
      H   25    0.20125      0.00000     0.79770    0.00105     0.79875
      H   26    0.21006      0.00000     0.78907    0.00087     0.78994
      H   27    0.20524      0.00000     0.79412    0.00064     0.79476
      H   28    0.20838      0.00000     0.79086    0.00076     0.79162
      H   29    0.19779      0.00000     0.80114    0.00106     0.80221
      H   30    0.49259      0.00000     0.50374    0.00367     0.50741
 =======================================================================
   * Total *    0.00000     31.98627    81.74079    0.27294   114.00000

                                 Natural Population      
 --------------------------------------------------------
   Core                      31.98627 ( 99.9571% of  32)
   Valence                   81.74079 ( 99.6839% of  82)
   Natural Minimal Basis    113.72706 ( 99.7606% of 114)
   Natural Rydberg Basis      0.27294 (  0.2394% of 114)
 --------------------------------------------------------

    Atom  No          Natural Electron Configuration
 ----------------------------------------------------------------------------
      C    1      [core]2S( 1.11)2p( 3.21)3p( 0.01)3d( 0.01)
      O    2      [core]2S( 1.60)2p( 4.80)3d( 0.01)
      C    3      [core]2S( 0.85)2p( 2.74)3p( 0.01)3d( 0.01)
      C    4      [core]2S( 0.97)2p( 3.31)3p( 0.01)
      C    5      [core]2S( 0.97)2p( 3.17)3p( 0.01)
      C    6      [core]2S( 0.92)2p( 2.92)3p( 0.01)
      C    7      [core]2S( 0.97)2p( 3.24)3p( 0.01)
      C    8      [core]2S( 0.98)2p( 3.21)3p( 0.01)
      C    9      [core]2S( 0.94)2p( 2.98)3p( 0.02)3d( 0.01)
      C   10      [core]2S( 0.86)2p( 3.39)3p( 0.02)
      C   11      [core]2S( 0.93)2p( 3.39)3p( 0.01)
      C   12      [core]2S( 0.95)2p( 3.25)3p( 0.01)
      C   13      [core]2S( 0.94)2p( 3.42)3p( 0.02)
      C   14      [core]2S( 0.94)2p( 3.34)3p( 0.01)
      C   15      [core]2S( 0.94)2p( 3.29)3p( 0.01)
      O   16      [core]2S( 1.69)2p( 5.09)3p( 0.01)3d( 0.01)
      H   17            1S( 0.75)
      H   18            1S( 0.77)
      H   19            1S( 0.77)
      H   20            1S( 0.74)
      H   21            1S( 0.72)
      H   22            1S( 0.71)
      H   23            1S( 0.73)
      H   24            1S( 0.76)
      H   25            1S( 0.80)
      H   26            1S( 0.79)
      H   27            1S( 0.79)
      H   28            1S( 0.79)
      H   29            1S( 0.80)
      H   30            1S( 0.50)


 NBO analysis skipped by request.
 Leave Link  607 at Thu Sep 30 18:05:21 2021, MaxMem= 1342177280 cpu:      21.1
 (Enter /sw/target/amd/app/gaussian/Gaussian09RevA.02_gcc-4.9.2/g09/l9999.exe)
 1\1\GINC-HERMITE\SP\RTD-B3LYP-FC\6-31G(d)\C14H14O2\JSCHLEINITZ\30-Sep-
 2021\0\\#p TD(NStates=10, Root=1) b3lyp/6-31G* volume pop=NPA density=
 current Geom=AllCheck Guess=Read\\COc1ccc(cc1)C(c1ccccc1)O_conf_0\\0,1
 \C,0,1.1515287997,-0.3696855629,0.325500491\O,0,2.4536933539,0.0658624
 563,-0.0250620031\C,0,3.1403172107,0.8359716559,0.8724517126\C,0,2.651
 6340335,1.2274954314,2.1249920794\C,0,3.4474454902,2.0162023986,2.9576
 250992\C,0,4.7254603114,2.4283901199,2.5726969891\C,0,5.1993699056,2.0
 324232632,1.3152383838\C,0,4.4193693274,1.2449513496,0.4749214885\C,0,
 5.5598216917,3.2950591438,3.5077242635\C,0,5.8852426054,2.6009837019,4
 .8257012509\C,0,6.7324862054,1.4832917089,4.8433972679\C,0,7.049168980
 9,0.8560450883,6.0459459769\C,0,6.5213097983,1.3345998727,7.249756394\
 C,0,5.6800507053,2.4463334408,7.2419957702\C,0,5.3690406775,3.07792126
 75,6.0343147656\O,0,6.7552363303,3.6635465076,2.8171751631\H,0,0.79396
 70291,-0.9592007078,-0.5210414119\H,0,0.4710223599,0.4769119268,0.4893
 670991\H,0,1.1625660606,-0.9994871019,1.2254164345\H,0,1.6653678684,0.
 9277563451,2.4608274272\H,0,3.0580500979,2.3058195641,3.931266894\H,0,
 6.184289153,2.3522199587,0.9955372023\H,0,4.7820888878,0.9363580028,-0
 .500900295\H,0,4.9772640133,4.2017103149,3.7440141653\H,0,7.1391366947
 ,1.113340648,3.906285208\H,0,7.7065347451,-0.0096694511,6.0470768819\H
 ,0,6.7679253574,0.8427845119,8.1870152747\H,0,5.2699378867,2.828005155
 7,8.1734396081\H,0,4.7210967638,3.9523384841,6.0324664936\H,0,7.334094
 3246,4.0959858347,3.4635806117\\Version=AM64L-G09RevA.02\State=1-A\HF=
 -692.3446303\RMSD=6.718e-09\Dipole=-3.737369,-0.8674994,-4.4857138\Qua
 drupole=8.5935055,1.7919616,-10.3854671,6.9564375,0.7525658,6.3942761\
 PG=C01 [X(C14H14O2)]\\@


 In the beginning the Universe was created.
 This has made a lot of people very angry
 and been widely regarded as a bad move.
                               -D.Adams
 Job cpu time:  0 days  4 hours  2 minutes 56.3 seconds.
 File lengths (MBytes):  RWF=    237 Int=      0 D2E=      0 Chk=     33 Scr=      1
 Normal termination of Gaussian 09 at Thu Sep 30 18:05:28 2021.
