 Entering Gaussian System, Link 0=g09
 Input=C14H16O_c4e7_conf_0.com
 Output=C14H16O_c4e7_conf_0.log
 Initial command:
 /sw/target/amd/app/gaussian/Gaussian09RevA.02_gcc-4.9.2/g09/l1.exe /home/jschleinitz/gaussian/Gau-1992447.inp -scrdir=/home/jschleinitz/gaussian/
 Entering Link 1 = /sw/target/amd/app/gaussian/Gaussian09RevA.02_gcc-4.9.2/g09/l1.exe PID=   1992449.
  
 Copyright (c) 1988,1990,1992,1993,1995,1998,2003,2009, Gaussian, Inc.
                  All Rights Reserved.
  
 This is part of the Gaussian(R) 09 program.  It is based on
 the Gaussian(R) 03 system (copyright 2003, Gaussian, Inc.),
 the Gaussian(R) 98 system (copyright 1998, Gaussian, Inc.),
 the Gaussian(R) 94 system (copyright 1995, Gaussian, Inc.),
 the Gaussian 92(TM) system (copyright 1992, Gaussian, Inc.),
 the Gaussian 90(TM) system (copyright 1990, Gaussian, Inc.),
 the Gaussian 88(TM) system (copyright 1988, Gaussian, Inc.),
 the Gaussian 86(TM) system (copyright 1986, Carnegie Mellon
 University), and the Gaussian 82(TM) system (copyright 1983,
 Carnegie Mellon University). Gaussian is a federally registered
 trademark of Gaussian, Inc.
  
 This software contains proprietary and confidential information,
 including trade secrets, belonging to Gaussian, Inc.
  
 This software is provided under written license and may be
 used, copied, transmitted, or stored only in accord with that
 written license.
  
 The following legend is applicable only to US Government
 contracts under FAR:
  
                    RESTRICTED RIGHTS LEGEND
  
 Use, reproduction and disclosure by the US Government is
 subject to restrictions as set forth in subparagraphs (a)
 and (c) of the Commercial Computer Software - Restricted
 Rights clause in FAR 52.227-19.
  
 Gaussian, Inc.
 340 Quinnipiac St., Bldg. 40, Wallingford CT 06492
  
  
 ---------------------------------------------------------------
 Warning -- This program may not be used in any manner that
 competes with the business of Gaussian, Inc. or will provide
 assistance to any competitor of Gaussian, Inc.  The licensee
 of this program is prohibited from giving any competitor of
 Gaussian, Inc. access to this program.  By using this program,
 the user acknowledges that Gaussian, Inc. is engaged in the
 business of creating and licensing software in the field of
 computational chemistry and represents and warrants to the
 licensee that it is not a competitor of Gaussian, Inc. and that
 it will not use this program in any manner prohibited above.
 ---------------------------------------------------------------
  

 Cite this work as:
 Gaussian 09, Revision A.02,
 M. J. Frisch, G. W. Trucks, H. B. Schlegel, G. E. Scuseria, 
 M. A. Robb, J. R. Cheeseman, G. Scalmani, V. Barone, B. Mennucci, 
 G. A. Petersson, H. Nakatsuji, M. Caricato, X. Li, H. P. Hratchian, 
 A. F. Izmaylov, J. Bloino, G. Zheng, J. L. Sonnenberg, M. Hada, 
 M. Ehara, K. Toyota, R. Fukuda, J. Hasegawa, M. Ishida, T. Nakajima, 
 Y. Honda, O. Kitao, H. Nakai, T. Vreven, J. A. Montgomery, Jr., 
 J. E. Peralta, F. Ogliaro, M. Bearpark, J. J. Heyd, E. Brothers, 
 K. N. Kudin, V. N. Staroverov, R. Kobayashi, J. Normand, 
 K. Raghavachari, A. Rendell, J. C. Burant, S. S. Iyengar, J. Tomasi, 
 M. Cossi, N. Rega, J. M. Millam, M. Klene, J. E. Knox, J. B. Cross, 
 V. Bakken, C. Adamo, J. Jaramillo, R. Gomperts, R. E. Stratmann, 
 O. Yazyev, A. J. Austin, R. Cammi, C. Pomelli, J. W. Ochterski, 
 R. L. Martin, K. Morokuma, V. G. Zakrzewski, G. A. Voth, 
 P. Salvador, J. J. Dannenberg, S. Dapprich, A. D. Daniels, 
 O. Farkas, J. B. Foresman, J. V. Ortiz, J. Cioslowski, 
 and D. J. Fox, Gaussian, Inc., Wallingford CT, 2009.
 
 ******************************************
 Gaussian 09:  AM64L-G09RevA.02 11-Jun-2009
                30-Sep-2021 
 ******************************************
 %nproc=5
 Will use up to    5 processors via shared memory.
 %mem=10gb
 %chk=C14H16O_c4e7_conf_0.chk
 -----------------------------------
 #p opt b3lyp/6-31G* scf=(xqc,tight)
 -----------------------------------
 1/14=-1,18=20,19=15,26=3,38=1/1,3;
 2/9=110,12=2,17=6,18=5,40=1/2;
 3/5=1,6=6,7=1,11=2,16=1,25=1,30=1,71=1,74=-5/1,2,3;
 4//1;
 5/5=2,8=3,13=1,32=2,38=5/2,8;
 6/7=2,8=2,9=2,10=2,28=1/1;
 7//1,2,3,16;
 1/14=-1,18=20,19=15/3(2);
 2/9=110/2;
 99//99;
 2/9=110/2;
 3/5=1,6=6,7=1,11=2,16=1,25=1,30=1,71=1,74=-5/1,2,3;
 4/5=5,16=3/1;
 5/5=2,8=3,13=1,32=2,38=5/2,8;
 7//1,2,3,16;
 1/14=-1,18=20,19=15/3(-5);
 2/9=110/2;
 6/7=2,8=2,9=2,10=2,19=2,28=1/1;
 99/9=1/99;
 Leave Link    1 at Thu Sep 30 06:23:41 2021, MaxMem= 1342177280 cpu:       0.1
 (Enter /sw/target/amd/app/gaussian/Gaussian09RevA.02_gcc-4.9.2/g09/l101.exe)
 ------------------------------
 CC(COc1ccc2c(c1)cccc2)C_conf_0
 ------------------------------
 Symbolic Z-matrix:
 Charge =  0 Multiplicity = 1
 C                     3.82862  -0.02443  -0.39091 
 C                     2.92572   1.09051   0.13645 
 C                     3.48767   1.64256   1.45436 
 O                     2.62327   2.66153   1.96181 
 C                     2.9651    3.20715   3.17147 
 C                     4.09076   2.87559   3.92398 
 C                     4.31577   3.48447   5.16055 
 C                     3.42015   4.43531   5.66916 
 C                     2.28478   4.78961   4.90705 
 C                     2.07644   4.17053   3.66149 
 C                     1.39083   5.74478   5.42023 
 C                     1.60861   6.32883   6.66997 
 C                     2.72576   5.97244   7.42044 
 C                     3.62932   5.0339    6.9207 
 C                     2.76864   2.19101  -0.91337 
 H                     3.90347  -0.84096   0.33526 
 H                     4.84103   0.3449   -0.58886 
 H                     3.4327   -0.44143  -1.32267 
 H                     1.92856   0.67433   0.32867 
 H                     4.4877    2.05936   1.2801 
 H                     3.55235   0.81988   2.17787 
 H                     4.81433   2.14373   3.58266 
 H                     5.19911   3.20291   5.73011 
 H                     1.20554   4.43052   3.06249 
 H                     0.51135   6.0356    4.85019 
 H                     0.90398   7.05868   7.05901 
 H                     2.89431   6.42227   8.39555 
 H                     4.49717   4.76852   7.52002 
 H                     3.72045   2.69927  -1.1008 
 H                     2.04015   2.94168  -0.59012 
 H                     2.41396   1.77468  -1.86231 
 
 NAtoms=     31 NQM=     31 NQMF=      0 NMic=      0 NMicF=      0 NTot=     31.
                    Isotopes and Nuclear Properties:
 (Nuclear quadrupole moments (NQMom) in fm**2, nuclear magnetic moments (NMagM)
  in nuclear magnetons)

  Atom         1           2           3           4           5           6           7           8           9          10
 IAtWgt=          12          12          12          16          12          12          12          12          12          12
 AtmWgt=  12.0000000  12.0000000  12.0000000  15.9949146  12.0000000  12.0000000  12.0000000  12.0000000  12.0000000  12.0000000
 NucSpn=           0           0           0           0           0           0           0           0           0           0
 AtZEff=   0.0000000   0.0000000   0.0000000   0.0000000   0.0000000   0.0000000   0.0000000   0.0000000   0.0000000   0.0000000
 NQMom=    0.0000000   0.0000000   0.0000000   0.0000000   0.0000000   0.0000000   0.0000000   0.0000000   0.0000000   0.0000000
 NMagM=    0.0000000   0.0000000   0.0000000   0.0000000   0.0000000   0.0000000   0.0000000   0.0000000   0.0000000   0.0000000

  Atom        11          12          13          14          15          16          17          18          19          20
 IAtWgt=          12          12          12          12          12           1           1           1           1           1
 AtmWgt=  12.0000000  12.0000000  12.0000000  12.0000000  12.0000000   1.0078250   1.0078250   1.0078250   1.0078250   1.0078250
 NucSpn=           0           0           0           0           0           1           1           1           1           1
 AtZEff=   0.0000000   0.0000000   0.0000000   0.0000000   0.0000000   0.0000000   0.0000000   0.0000000   0.0000000   0.0000000
 NQMom=    0.0000000   0.0000000   0.0000000   0.0000000   0.0000000   0.0000000   0.0000000   0.0000000   0.0000000   0.0000000
 NMagM=    0.0000000   0.0000000   0.0000000   0.0000000   0.0000000   2.7928460   2.7928460   2.7928460   2.7928460   2.7928460

  Atom        21          22          23          24          25          26          27          28          29          30
 IAtWgt=           1           1           1           1           1           1           1           1           1           1
 AtmWgt=   1.0078250   1.0078250   1.0078250   1.0078250   1.0078250   1.0078250   1.0078250   1.0078250   1.0078250   1.0078250
 NucSpn=           1           1           1           1           1           1           1           1           1           1
 AtZEff=   0.0000000   0.0000000   0.0000000   0.0000000   0.0000000   0.0000000   0.0000000   0.0000000   0.0000000   0.0000000
 NQMom=    0.0000000   0.0000000   0.0000000   0.0000000   0.0000000   0.0000000   0.0000000   0.0000000   0.0000000   0.0000000
 NMagM=    2.7928460   2.7928460   2.7928460   2.7928460   2.7928460   2.7928460   2.7928460   2.7928460   2.7928460   2.7928460

  Atom        31
 IAtWgt=           1
 AtmWgt=   1.0078250
 NucSpn=           1
 AtZEff=   0.0000000
 NQMom=    0.0000000
 NMagM=    2.7928460
 Leave Link  101 at Thu Sep 30 06:23:42 2021, MaxMem= 1342177280 cpu:       0.2
 (Enter /sw/target/amd/app/gaussian/Gaussian09RevA.02_gcc-4.9.2/g09/l103.exe)

 GradGradGradGradGradGradGradGradGradGradGradGradGradGradGradGradGradGrad
 Berny optimization.
 Initialization pass.
                           ----------------------------
                           !    Initial Parameters    !
                           ! (Angstroms and Degrees)  !
 --------------------------                            --------------------------
 ! Name  Definition              Value          Derivative Info.                !
 --------------------------------------------------------------------------------
 ! R1    R(1,2)                  1.5285         estimate D2E/DX2                !
 ! R2    R(1,16)                 1.0953         estimate D2E/DX2                !
 ! R3    R(1,17)                 1.0957         estimate D2E/DX2                !
 ! R4    R(1,18)                 1.0949         estimate D2E/DX2                !
 ! R5    R(2,3)                  1.5354         estimate D2E/DX2                !
 ! R6    R(2,15)                 1.529          estimate D2E/DX2                !
 ! R7    R(2,19)                 1.0975         estimate D2E/DX2                !
 ! R8    R(3,4)                  1.4293         estimate D2E/DX2                !
 ! R9    R(3,20)                 1.0973         estimate D2E/DX2                !
 ! R10   R(3,21)                 1.0975         estimate D2E/DX2                !
 ! R11   R(4,5)                  1.3703         estimate D2E/DX2                !
 ! R12   R(5,6)                  1.394          estimate D2E/DX2                !
 ! R13   R(5,10)                 1.3993         estimate D2E/DX2                !
 ! R14   R(6,7)                  1.3966         estimate D2E/DX2                !
 ! R15   R(6,22)                 1.0843         estimate D2E/DX2                !
 ! R16   R(7,8)                  1.4018         estimate D2E/DX2                !
 ! R17   R(7,23)                 1.0881         estimate D2E/DX2                !
 ! R18   R(8,9)                  1.4126         estimate D2E/DX2                !
 ! R19   R(8,14)                 1.403          estimate D2E/DX2                !
 ! R20   R(9,10)                 1.4064         estimate D2E/DX2                !
 ! R21   R(9,11)                 1.4053         estimate D2E/DX2                !
 ! R22   R(10,24)                1.0885         estimate D2E/DX2                !
 ! R23   R(11,12)                1.3966         estimate D2E/DX2                !
 ! R24   R(11,25)                1.0877         estimate D2E/DX2                !
 ! R25   R(12,13)                1.3922         estimate D2E/DX2                !
 ! R26   R(12,26)                1.0865         estimate D2E/DX2                !
 ! R27   R(13,14)                1.3954         estimate D2E/DX2                !
 ! R28   R(13,27)                1.087          estimate D2E/DX2                !
 ! R29   R(14,28)                1.0876         estimate D2E/DX2                !
 ! R30   R(15,29)                1.0952         estimate D2E/DX2                !
 ! R31   R(15,30)                1.0949         estimate D2E/DX2                !
 ! R32   R(15,31)                1.0953         estimate D2E/DX2                !
 ! A1    A(2,1,16)             110.8177         estimate D2E/DX2                !
 ! A2    A(2,1,17)             111.2386         estimate D2E/DX2                !
 ! A3    A(2,1,18)             110.9658         estimate D2E/DX2                !
 ! A4    A(16,1,17)            107.9341         estimate D2E/DX2                !
 ! A5    A(16,1,18)            107.7581         estimate D2E/DX2                !
 ! A6    A(17,1,18)            107.9837         estimate D2E/DX2                !
 ! A7    A(1,2,3)              110.0116         estimate D2E/DX2                !
 ! A8    A(1,2,15)             110.4131         estimate D2E/DX2                !
 ! A9    A(1,2,19)             108.6944         estimate D2E/DX2                !
 ! A10   A(3,2,15)             111.6022         estimate D2E/DX2                !
 ! A11   A(3,2,19)             108.5754         estimate D2E/DX2                !
 ! A12   A(15,2,19)            107.4484         estimate D2E/DX2                !
 ! A13   A(2,3,4)              109.8598         estimate D2E/DX2                !
 ! A14   A(2,3,20)             109.4997         estimate D2E/DX2                !
 ! A15   A(2,3,21)             108.5366         estimate D2E/DX2                !
 ! A16   A(4,3,20)             109.678          estimate D2E/DX2                !
 ! A17   A(4,3,21)             109.6329         estimate D2E/DX2                !
 ! A18   A(20,3,21)            109.6152         estimate D2E/DX2                !
 ! A19   A(3,4,5)              116.5127         estimate D2E/DX2                !
 ! A20   A(4,5,6)              125.679          estimate D2E/DX2                !
 ! A21   A(4,5,10)             115.1412         estimate D2E/DX2                !
 ! A22   A(6,5,10)             119.1787         estimate D2E/DX2                !
 ! A23   A(5,6,7)              120.2893         estimate D2E/DX2                !
 ! A24   A(5,6,22)             121.9696         estimate D2E/DX2                !
 ! A25   A(7,6,22)             117.7406         estimate D2E/DX2                !
 ! A26   A(6,7,8)              120.9345         estimate D2E/DX2                !
 ! A27   A(6,7,23)             118.7802         estimate D2E/DX2                !
 ! A28   A(8,7,23)             120.284          estimate D2E/DX2                !
 ! A29   A(7,8,9)              119.2036         estimate D2E/DX2                !
 ! A30   A(7,8,14)             121.1863         estimate D2E/DX2                !
 ! A31   A(9,8,14)             119.6095         estimate D2E/DX2                !
 ! A32   A(8,9,10)             119.1078         estimate D2E/DX2                !
 ! A33   A(8,9,11)             118.9964         estimate D2E/DX2                !
 ! A34   A(10,9,11)            121.8944         estimate D2E/DX2                !
 ! A35   A(5,10,9)             121.2733         estimate D2E/DX2                !
 ! A36   A(5,10,24)            118.6762         estimate D2E/DX2                !
 ! A37   A(9,10,24)            120.0478         estimate D2E/DX2                !
 ! A38   A(9,11,12)            120.7862         estimate D2E/DX2                !
 ! A39   A(9,11,25)            120.3129         estimate D2E/DX2                !
 ! A40   A(12,11,25)           118.8994         estimate D2E/DX2                !
 ! A41   A(11,12,13)           120.0301         estimate D2E/DX2                !
 ! A42   A(11,12,26)           120.0136         estimate D2E/DX2                !
 ! A43   A(13,12,26)           119.9557         estimate D2E/DX2                !
 ! A44   A(12,13,14)           119.9161         estimate D2E/DX2                !
 ! A45   A(12,13,27)           120.1355         estimate D2E/DX2                !
 ! A46   A(14,13,27)           119.9483         estimate D2E/DX2                !
 ! A47   A(8,14,13)            120.6583         estimate D2E/DX2                !
 ! A48   A(8,14,28)            120.4272         estimate D2E/DX2                !
 ! A49   A(13,14,28)           118.9135         estimate D2E/DX2                !
 ! A50   A(2,15,29)            111.2386         estimate D2E/DX2                !
 ! A51   A(2,15,30)            111.0463         estimate D2E/DX2                !
 ! A52   A(2,15,31)            110.7663         estimate D2E/DX2                !
 ! A53   A(29,15,30)           108.0956         estimate D2E/DX2                !
 ! A54   A(29,15,31)           108.033          estimate D2E/DX2                !
 ! A55   A(30,15,31)           107.5148         estimate D2E/DX2                !
 ! D1    D(16,1,2,3)            59.3548         estimate D2E/DX2                !
 ! D2    D(16,1,2,15)         -177.0302         estimate D2E/DX2                !
 ! D3    D(16,1,2,19)          -59.405          estimate D2E/DX2                !
 ! D4    D(17,1,2,3)           -60.725          estimate D2E/DX2                !
 ! D5    D(17,1,2,15)           62.8901         estimate D2E/DX2                !
 ! D6    D(17,1,2,19)         -179.4848         estimate D2E/DX2                !
 ! D7    D(18,1,2,3)           179.033          estimate D2E/DX2                !
 ! D8    D(18,1,2,15)          -57.3519         estimate D2E/DX2                !
 ! D9    D(18,1,2,19)           60.2732         estimate D2E/DX2                !
 ! D10   D(1,2,3,4)           -178.5528         estimate D2E/DX2                !
 ! D11   D(1,2,3,20)            60.9352         estimate D2E/DX2                !
 ! D12   D(1,2,3,21)           -58.6917         estimate D2E/DX2                !
 ! D13   D(15,2,3,4)            58.5282         estimate D2E/DX2                !
 ! D14   D(15,2,3,20)          -61.9838         estimate D2E/DX2                !
 ! D15   D(15,2,3,21)          178.3893         estimate D2E/DX2                !
 ! D16   D(19,2,3,4)           -59.72           estimate D2E/DX2                !
 ! D17   D(19,2,3,20)          179.768          estimate D2E/DX2                !
 ! D18   D(19,2,3,21)           60.141          estimate D2E/DX2                !
 ! D19   D(1,2,15,29)          -65.6446         estimate D2E/DX2                !
 ! D20   D(1,2,15,30)          173.9174         estimate D2E/DX2                !
 ! D21   D(1,2,15,31)           54.5256         estimate D2E/DX2                !
 ! D22   D(3,2,15,29)           57.0451         estimate D2E/DX2                !
 ! D23   D(3,2,15,30)          -63.3929         estimate D2E/DX2                !
 ! D24   D(3,2,15,31)          177.2153         estimate D2E/DX2                !
 ! D25   D(19,2,15,29)         175.9659         estimate D2E/DX2                !
 ! D26   D(19,2,15,30)          55.5279         estimate D2E/DX2                !
 ! D27   D(19,2,15,31)         -63.8639         estimate D2E/DX2                !
 ! D28   D(2,3,4,5)            177.0676         estimate D2E/DX2                !
 ! D29   D(20,3,4,5)           -62.5284         estimate D2E/DX2                !
 ! D30   D(21,3,4,5)            57.8762         estimate D2E/DX2                !
 ! D31   D(3,4,5,6)              1.5773         estimate D2E/DX2                !
 ! D32   D(3,4,5,10)          -178.0214         estimate D2E/DX2                !
 ! D33   D(4,5,6,7)           -178.6369         estimate D2E/DX2                !
 ! D34   D(4,5,6,22)             1.0958         estimate D2E/DX2                !
 ! D35   D(10,5,6,7)             0.947          estimate D2E/DX2                !
 ! D36   D(10,5,6,22)         -179.3204         estimate D2E/DX2                !
 ! D37   D(4,5,10,9)           178.4122         estimate D2E/DX2                !
 ! D38   D(4,5,10,24)           -0.9898         estimate D2E/DX2                !
 ! D39   D(6,5,10,9)            -1.2144         estimate D2E/DX2                !
 ! D40   D(6,5,10,24)          179.3836         estimate D2E/DX2                !
 ! D41   D(5,6,7,8)              0.0447         estimate D2E/DX2                !
 ! D42   D(5,6,7,23)           179.6349         estimate D2E/DX2                !
 ! D43   D(22,6,7,8)          -179.6991         estimate D2E/DX2                !
 ! D44   D(22,6,7,23)           -0.1088         estimate D2E/DX2                !
 ! D45   D(6,7,8,9)             -0.7821         estimate D2E/DX2                !
 ! D46   D(6,7,8,14)           178.9295         estimate D2E/DX2                !
 ! D47   D(23,7,8,9)           179.6338         estimate D2E/DX2                !
 ! D48   D(23,7,8,14)           -0.6546         estimate D2E/DX2                !
 ! D49   D(7,8,9,10)             0.5174         estimate D2E/DX2                !
 ! D50   D(7,8,9,11)          -179.906          estimate D2E/DX2                !
 ! D51   D(14,8,9,10)         -179.1988         estimate D2E/DX2                !
 ! D52   D(14,8,9,11)            0.3778         estimate D2E/DX2                !
 ! D53   D(7,8,14,13)         -179.5573         estimate D2E/DX2                !
 ! D54   D(7,8,14,28)            0.0846         estimate D2E/DX2                !
 ! D55   D(9,8,14,13)            0.1531         estimate D2E/DX2                !
 ! D56   D(9,8,14,28)          179.795          estimate D2E/DX2                !
 ! D57   D(8,9,10,5)             0.4796         estimate D2E/DX2                !
 ! D58   D(8,9,10,24)          179.8735         estimate D2E/DX2                !
 ! D59   D(11,9,10,5)         -179.0842         estimate D2E/DX2                !
 ! D60   D(11,9,10,24)           0.3096         estimate D2E/DX2                !
 ! D61   D(8,9,11,12)           -0.6363         estimate D2E/DX2                !
 ! D62   D(8,9,11,25)          179.8206         estimate D2E/DX2                !
 ! D63   D(10,9,11,12)         178.928          estimate D2E/DX2                !
 ! D64   D(10,9,11,25)          -0.6151         estimate D2E/DX2                !
 ! D65   D(9,11,12,13)           0.3605         estimate D2E/DX2                !
 ! D66   D(9,11,12,26)        -179.3856         estimate D2E/DX2                !
 ! D67   D(25,11,12,13)        179.91           estimate D2E/DX2                !
 ! D68   D(25,11,12,26)          0.1639         estimate D2E/DX2                !
 ! D69   D(11,12,13,14)          0.1798         estimate D2E/DX2                !
 ! D70   D(11,12,13,27)       -179.694          estimate D2E/DX2                !
 ! D71   D(26,12,13,14)        179.9261         estimate D2E/DX2                !
 ! D72   D(26,12,13,27)          0.0523         estimate D2E/DX2                !
 ! D73   D(12,13,14,8)          -0.4361         estimate D2E/DX2                !
 ! D74   D(12,13,14,28)        179.9166         estimate D2E/DX2                !
 ! D75   D(27,13,14,8)         179.438          estimate D2E/DX2                !
 ! D76   D(27,13,14,28)         -0.2093         estimate D2E/DX2                !
 --------------------------------------------------------------------------------
 Trust Radius=3.00D-01 FncErr=1.00D-07 GrdErr=1.00D-06
 Number of steps in this run= 173 maximum allowed number of steps= 186.
 GradGradGradGradGradGradGradGradGradGradGradGradGradGradGradGradGradGrad

 Leave Link  103 at Thu Sep 30 06:23:42 2021, MaxMem= 1342177280 cpu:       0.0
 (Enter /sw/target/amd/app/gaussian/Gaussian09RevA.02_gcc-4.9.2/g09/l202.exe)
                          Input orientation:                          
 ---------------------------------------------------------------------
 Center     Atomic      Atomic             Coordinates (Angstroms)
 Number     Number       Type             X           Y           Z
 ---------------------------------------------------------------------
      1          6           0        3.828619   -0.024431   -0.390913
      2          6           0        2.925718    1.090511    0.136455
      3          6           0        3.487672    1.642563    1.454359
      4          8           0        2.623274    2.661531    1.961810
      5          6           0        2.965096    3.207146    3.171467
      6          6           0        4.090756    2.875594    3.923979
      7          6           0        4.315767    3.484473    5.160548
      8          6           0        3.420150    4.435308    5.669164
      9          6           0        2.284781    4.789613    4.907050
     10          6           0        2.076441    4.170529    3.661486
     11          6           0        1.390827    5.744777    5.420229
     12          6           0        1.608608    6.328828    6.669972
     13          6           0        2.725757    5.972440    7.420444
     14          6           0        3.629318    5.033899    6.920697
     15          6           0        2.768637    2.191005   -0.913368
     16          1           0        3.903470   -0.840956    0.335263
     17          1           0        4.841025    0.344903   -0.588864
     18          1           0        3.432702   -0.441429   -1.322670
     19          1           0        1.928561    0.674332    0.328673
     20          1           0        4.487704    2.059359    1.280096
     21          1           0        3.552355    0.819879    2.177866
     22          1           0        4.814330    2.143730    3.582664
     23          1           0        5.199107    3.202913    5.730110
     24          1           0        1.205536    4.430516    3.062490
     25          1           0        0.511354    6.035597    4.850185
     26          1           0        0.903984    7.058677    7.059008
     27          1           0        2.894305    6.422270    8.395547
     28          1           0        4.497171    4.768520    7.520024
     29          1           0        3.720452    2.699274   -1.100804
     30          1           0        2.040147    2.941679   -0.590117
     31          1           0        2.413959    1.774681   -1.862308
 ---------------------------------------------------------------------
                    Distance matrix (angstroms):
                    1          2          3          4          5
     1  C    0.000000
     2  C    1.528543   0.000000
     3  C    2.510009   1.535391   0.000000
     4  O    3.768628   2.427241   1.429330   0.000000
     5  C    4.886647   3.700405   2.381064   1.370331   0.000000
     6  C    5.205493   4.346168   2.825438   2.459560   1.394028
     7  C    6.585472   5.736271   4.220688   3.711292   2.420262
     8  C    7.535293   6.484057   5.056536   4.186378   2.820274
     9  C    7.323037   6.070646   4.824100   3.649349   2.445256
    10  C    6.090135   4.757481   3.640548   2.337733   1.399261
    11  C    8.543768   7.206688   6.078901   4.794371   3.738292
    12  C    9.754406   8.477121   7.259103   6.053544   4.881034
    13  C    9.909393   8.770959   7.410973   6.385085   5.075228
    14  C    8.893034   7.878534   6.434444   5.588453   4.223143
    15  C    2.510911   1.529016   2.534548   2.917049   4.213907
    16  H    1.095285   2.173957   2.755564   4.068412   5.031076
    17  H    1.095700   2.179546   2.773130   4.097697   5.084450
    18  H    1.094901   2.175527   3.472454   4.590354   5.807583
    19  H    2.148556   1.097485   2.153013   2.664343   3.946014
    20  H    2.751153   2.164806   1.097338   2.074474   2.685709
    21  H    2.718052   2.152504   1.097476   2.074019   2.651634
    22  H    4.632695   4.068475   2.557513   2.774169   2.172465
    23  H    7.054142   6.396837   4.862690   4.596531   3.396687
    24  H    6.217162   4.761968   3.945492   2.520076   2.145824
    25  H    8.671638   7.245846   6.299909   4.918053   4.103545
    26  H   10.687621   9.360992   8.211079   6.947825   5.847688
    27  H   10.937768   9.830628   8.448536   7.457183   6.134578
    28  H    9.273741   8.397281   6.898042   6.232547   4.867761
    29  H    2.816773   2.179571   2.774830   3.253433   4.368157
    30  H    3.469311   2.176916   2.821863   2.632651   3.882721
    31  H    2.720858   2.173715   3.488638   3.931182   5.262565
                    6          7          8          9         10
     6  C    0.000000
     7  C    1.396591   0.000000
     8  C    2.434767   1.401751   0.000000
     9  C    2.809172   2.427459   1.412591   0.000000
    10  C    2.408988   2.780726   2.430315   1.406450   0.000000
    11  C    4.214332   3.705629   2.427927   1.405291   2.457947
    12  C    5.062249   4.206831   2.805124   2.436039   3.732038
    13  C    4.866102   3.718231   2.431448   2.812595   4.218799
    14  C    3.721763   2.443370   1.402996   2.433563   3.712046
    15  C    5.061283   6.399932   6.985062   6.392507   5.032587
    16  H    5.169788   6.493281   7.518181   7.431332   6.286236
    17  H    5.228102   6.571798   7.610073   7.516309   6.351678
    18  H    6.242035   7.630506   8.524580   8.215287   6.924696
    19  H    4.737812   6.078047   6.700046   6.166357   4.832484
    20  H    2.795340   4.137441   5.103794   5.045984   3.992774
    21  H    2.750410   4.071763   5.027720   4.981363   3.950481
    22  H    1.084288   2.129759   3.398315   3.892726   3.407369
    23  H    2.144222   1.088102   2.164994   3.418822   3.868660
    24  H    3.388870   3.869158   3.420422   2.167054   1.088515
    25  H    4.863702   4.591092   3.419466   2.168122   2.709425
    26  H    6.122264   5.293331   3.891636   3.418505   4.610772
    27  H    5.831408   4.595261   3.414337   3.899577   5.305711
    28  H    4.084101   2.692362   2.167185   3.423850   4.594110
    29  H    5.041493   6.338412   6.995460   6.521118   5.248501
    30  H    4.958471   6.208319   6.581332   5.804615   4.425779
    31  H    6.124114   7.474006   8.050740   7.411525   6.030448
                   11         12         13         14         15
    11  C    0.000000
    12  C    1.396567   0.000000
    13  C    2.415518   1.392209   0.000000
    14  C    2.787040   2.413084   1.395360   0.000000
    15  C    7.392030   8.716323   9.151695   8.378268   0.000000
    16  H    8.691498   9.838736   9.899958   8.829327   3.469829
    17  H    8.784743   9.947189  10.014617   8.935794   2.794313
    18  H    9.375771  10.632310  10.866441   9.898028   2.745582
    19  H    7.205728   8.502221   8.888120   8.084130   2.132766
    20  H    6.349303   7.454416   7.491364   6.434368   2.789947
    21  H    6.280107   7.369239   7.397079   6.344946   3.471300
    22  H    5.297600   6.109269   5.809451   4.571629   4.939777
    23  H    4.589128   4.852460   4.079824   2.689655   7.146114
    24  H    2.705651   4.096337   4.866248   4.596145   4.823499
    25  H    1.087658   2.145128   3.393200   3.874547   7.286615
    26  H    2.156142   1.086519   2.151606   3.397985   9.525227
    27  H    3.401758   2.153917   1.087005   2.154762  10.226206
    28  H    3.874479   3.391305   2.144119   1.087561   8.986296
    29  H    7.564794   8.832808   9.182304   8.354834   1.095181
    30  H    6.663576   8.022961   8.592128   7.957083   1.094851
    31  H    8.357260   9.705083  10.192540   9.446733   1.095267
                   16         17         18         19         20
    16  H    0.000000
    17  H    1.771803   0.000000
    18  H    1.769177   1.772051   0.000000
    19  H    2.489258   3.071294   2.496858   0.000000
    20  H    3.105779   2.560704   3.760500   3.061489   0.000000
    21  H    2.505362   3.088862   3.722763   2.465238   1.793649
    22  H    4.503735   4.542922   5.714389   4.590779   2.327149
    23  H    6.865561   6.944486   8.132843   6.801890   4.649348
    24  H    6.519588   6.575819   6.922842   4.701642   4.424018
    25  H    8.898200   8.984059   9.412242   7.155118   6.660884
    26  H   10.798605  10.911691  11.528163   9.333115   8.439909
    27  H   10.896836  11.020152  11.909827   9.952181   8.497267
    28  H    9.134522   9.243414  10.318426   8.664621   6.802672
    29  H    3.824789   2.657222   3.161652   3.058540   2.582025
    30  H    4.317016   3.819445   3.731121   2.448977   3.204173
    31  H    3.726865   3.091371   2.498038   2.499356   3.775734
                   21         22         23         24         25
    21  H    0.000000
    22  H    2.306214   0.000000
    23  H    4.583567   2.425170   0.000000
    24  H    4.396227   4.303878   4.956997   0.000000
    25  H    6.602477   5.938758   5.547378   2.500806   0.000000
    26  H    8.352366   7.178613   5.922919   4.792736   2.465715
    27  H    8.395200   6.719839   4.772936   5.938057   4.289238
    28  H    6.709926   4.742670   2.479442   5.551461   4.961881
    29  H    3.782863   4.841495   7.007243   5.162849   7.539472
    30  H    3.801386   5.073945   7.070541   4.031718   6.442549
    31  H    4.304717   5.962021   8.212290   5.724279   8.175137
                   26         27         28         29         30
    26  H    0.000000
    27  H    2.480470   0.000000
    28  H    4.285831   2.463860   0.000000
    29  H    9.670544  10.233469   8.899649   0.000000
    30  H    8.760688   9.673999   8.668836   1.772847   0.000000
    31  H   10.478097  11.271841  10.066330   1.772480   1.766377
                   31
    31  H    0.000000
 Stoichiometry    C14H16O
 Framework group  C1[X(C14H16O)]
 Deg. of freedom    87
 Full point group                 C1      NOp   1
 Largest Abelian subgroup         C1      NOp   1
 Largest concise Abelian subgroup C1      NOp   1
                         Standard orientation:                         
 ---------------------------------------------------------------------
 Center     Atomic      Atomic             Coordinates (Angstroms)
 Number     Number       Type             X           Y           Z
 ---------------------------------------------------------------------
      1          6           0       -5.182419    0.767849   -0.326080
      2          6           0       -4.047833   -0.256432   -0.323813
      3          6           0       -2.700989    0.451807   -0.119281
      4          8           0       -1.639512   -0.504869   -0.151287
      5          6           0       -0.366308   -0.009721   -0.043639
      6          6           0       -0.027190    1.332007    0.123923
      7          6           0        1.313709    1.716366    0.192655
      8          6           0        2.341135    0.767871    0.094378
      9          6           0        2.007550   -0.596083   -0.059782
     10          6           0        0.652072   -0.966139   -0.121738
     11          6           0        3.041005   -1.543490   -0.155867
     12          6           0        4.379678   -1.147787   -0.113756
     13          6           0        4.704090    0.198187    0.032379
     14          6           0        3.690115    1.150658    0.140460
     15          6           0       -4.292380   -1.320792    0.746339
     16          1           0       -5.040931    1.503698   -1.124927
     17          1           0       -5.231096    1.308364    0.625777
     18          1           0       -6.149563    0.280834   -0.488119
     19          1           0       -4.031225   -0.765130   -1.296143
     20          1           0       -2.702652    0.969667    0.848173
     21          1           0       -2.564225    1.181518   -0.927534
     22          1           0       -0.779525    2.109027    0.200825
     23          1           0        1.550628    2.770969    0.317745
     24          1           0        0.377734   -2.012583   -0.242398
     25          1           0        2.808480   -2.599631   -0.272054
     26          1           0        5.168704   -1.889855   -0.199179
     27          1           0        5.745446    0.508630    0.060373
     28          1           0        3.962008    2.197389    0.255426
     29          1           0       -4.249950   -0.889297    1.752039
     30          1           0       -3.544128   -2.117803    0.686407
     31          1           0       -5.277021   -1.782653    0.616818
 ---------------------------------------------------------------------
 Rotational constants (GHZ):      2.0745669      0.2442697      0.2225713
 Leave Link  202 at Thu Sep 30 06:23:43 2021, MaxMem= 1342177280 cpu:       0.1
 (Enter /sw/target/amd/app/gaussian/Gaussian09RevA.02_gcc-4.9.2/g09/l301.exe)
 Standard basis: 6-31G(d) (6D, 7F)
 Ernie: Thresh=  0.10000D-02 Tol=  0.10000D-05 Strict=F.
 There are   257 symmetry adapted basis functions of A   symmetry.
 Integral buffers will be    131072 words long.
 Raffenetti 2 integral format.
 Two-electron integral symmetry is turned on.
   257 basis functions,   484 primitive gaussians,   257 cartesian basis functions
    54 alpha electrons       54 beta electrons
       nuclear repulsion energy       912.7748744102 Hartrees.
 IExCor=  402 DFT=T Ex+Corr=B3LYP ExCW=0 ScaHFX=  0.200000
 ScaDFX=  0.800000  0.720000  1.000000  0.810000 ScalE2=  1.000000  1.000000
 IRadAn=      0 IRanWt=     -1 IRanGd=            0 ICorTp=0
 NAtoms=   31 NActive=   31 NUniq=   31 SFac= 7.50D-01 NAtFMM=   80 NAOKFM=F Big=F
 Leave Link  301 at Thu Sep 30 06:23:43 2021, MaxMem= 1342177280 cpu:       0.1
 (Enter /sw/target/amd/app/gaussian/Gaussian09RevA.02_gcc-4.9.2/g09/l302.exe)
 NPDir=0 NMtPBC=     1 NCelOv=     1 NCel=       1 NClECP=     1 NCelD=      1
         NCelK=      1 NCelE2=     1 NClLst=     1 CellRange=     0.0.
 One-electron integrals computed using PRISM.
 NBasis=   257 RedAO= T  NBF=   257
 NBsUse=   257 1.00D-06 NBFU=   257
 Precomputing XC quadrature grid using
 IXCGrd= 2 IRadAn=           0 IRanWt=          -1 IRanGd=           0 AccXCQ= 1.00D-10.
 NRdTot=    1973 NPtTot=      251232 NUsed=      265459 NTot=      265491
 NSgBfM=   255   255   255   255   255 NAtAll=    31    31.
 Leave Link  302 at Thu Sep 30 06:23:48 2021, MaxMem= 1342177280 cpu:       2.8
 (Enter /sw/target/amd/app/gaussian/Gaussian09RevA.02_gcc-4.9.2/g09/l303.exe)
 DipDrv:  MaxL=1.
 Leave Link  303 at Thu Sep 30 06:23:49 2021, MaxMem= 1342177280 cpu:       0.2
 (Enter /sw/target/amd/app/gaussian/Gaussian09RevA.02_gcc-4.9.2/g09/l401.exe)
 Harris functional with IExCor=  402 diagonalized for initial guess.
 ExpMin= 1.61D-01 ExpMax= 5.48D+03 ExpMxC= 8.25D+02 IAcc=1 IRadAn=         1 AccDes= 0.00D+00
 HarFok:  IExCor=  402 AccDes= 0.00D+00 IRadAn=         1 IDoV= 1
 ScaDFX=  1.000000  1.000000  1.000000  1.000000
 FoFCou: FMM=F IPFlag=           0 FMFlag=      100000 FMFlg1=           0
         NFxFlg=           0 DoJE=T BraDBF=F KetDBF=T FulRan=T
         Omega=  0.000000  0.000000  1.000000  0.000000  0.000000 ICntrl=     500 IOpCl=  0
         NMat0=    1 NMatS0=    1 NMatT0=    0 NMatD0=    1 NMtDS0=    0 NMtDT0=    0
         I1Cent=           4 NGrid=           0.
 Petite list used in FoFCou.
 Harris En= -618.453854296992    
 Initial guess orbital symmetries:
       Occupied  (A) (A) (A) (A) (A) (A) (A) (A) (A) (A) (A) (A)
                 (A) (A) (A) (A) (A) (A) (A) (A) (A) (A) (A) (A)
                 (A) (A) (A) (A) (A) (A) (A) (A) (A) (A) (A) (A)
                 (A) (A) (A) (A) (A) (A) (A) (A) (A) (A) (A) (A)
                 (A) (A) (A) (A) (A) (A)
       Virtual   (A) (A) (A) (A) (A) (A) (A) (A) (A) (A) (A) (A)
                 (A) (A) (A) (A) (A) (A) (A) (A) (A) (A) (A) (A)
                 (A) (A) (A) (A) (A) (A) (A) (A) (A) (A) (A) (A)
                 (A) (A) (A) (A) (A) (A) (A) (A) (A) (A) (A) (A)
                 (A) (A) (A) (A) (A) (A) (A) (A) (A) (A) (A) (A)
                 (A) (A) (A) (A) (A) (A) (A) (A) (A) (A) (A) (A)
                 (A) (A) (A) (A) (A) (A) (A) (A) (A) (A) (A) (A)
                 (A) (A) (A) (A) (A) (A) (A) (A) (A) (A) (A) (A)
                 (A) (A) (A) (A) (A) (A) (A) (A) (A) (A) (A) (A)
                 (A) (A) (A) (A) (A) (A) (A) (A) (A) (A) (A) (A)
                 (A) (A) (A) (A) (A) (A) (A) (A) (A) (A) (A) (A)
                 (A) (A) (A) (A) (A) (A) (A) (A) (A) (A) (A) (A)
                 (A) (A) (A) (A) (A) (A) (A) (A) (A) (A) (A) (A)
                 (A) (A) (A) (A) (A) (A) (A) (A) (A) (A) (A) (A)
                 (A) (A) (A) (A) (A) (A) (A) (A) (A) (A) (A) (A)
                 (A) (A) (A) (A) (A) (A) (A) (A) (A) (A) (A) (A)
                 (A) (A) (A) (A) (A) (A) (A) (A) (A) (A) (A)
 The electronic state of the initial guess is 1-A.
 Leave Link  401 at Thu Sep 30 06:24:01 2021, MaxMem= 1342177280 cpu:      11.1
 (Enter /sw/target/amd/app/gaussian/Gaussian09RevA.02_gcc-4.9.2/g09/l502.exe)
 Closed shell SCF:
 Requested convergence on RMS density matrix=1.00D-08 within  64 cycles.
 Requested convergence on MAX density matrix=1.00D-06.
 Requested convergence on             energy=1.00D-06.
 No special actions if energy rises.
 Using DIIS extrapolation, IDIIS=  1040.
 Integral symmetry usage will be decided dynamically.
       265167 words used for storage of precomputed grid.
 Keep R1 ints in memory in canonical form, NReq=558636269.
 IEnd=      472347 IEndB=      472347 NGot=  1342177280 MDV=   792198155
 LenX=   792198155 LenY=   792131665
 Symmetry not used in FoFDir.
 MinBra= 0 MaxBra= 2 Meth= 1.
 IRaf=       0 NMat=   1 IRICut=       1 DoRegI=T DoRafI=F ISym2E= 0 JSym2E=0.
 Integral accuracy reduced to 1.0D-05 until final iterations.

 Cycle   1  Pass 0  IDiag  1:
 E= -617.956569551632    
 DIIS: error= 3.88D-02 at cycle   1 NSaved=   1.
 NSaved= 1 IEnMin= 1 EnMin= -617.956569551632     IErMin= 1 ErrMin= 3.88D-02
 ErrMax= 3.88D-02 EMaxC= 1.00D-01 BMatC= 3.61D-01 BMatP= 3.61D-01
 IDIUse=3 WtCom= 6.12D-01 WtEn= 3.88D-01
 Coeff-Com:  0.100D+01
 Coeff-En:   0.100D+01
 Coeff:      0.100D+01
 Gap=     0.172 Goal=   None    Shift=    0.000
 GapD=    0.172 DampG=1.000 DampE=0.500 DampFc=0.5000 IDamp=-1.
 Damping current iteration by 5.00D-01
 RMSDP=5.68D-03 MaxDP=1.40D-01              OVMax= 1.79D-01

 Cycle   2  Pass 0  IDiag  1:
 E= -618.140775378148     Delta-E=       -0.184205826516 Rises=F Damp=T
 DIIS: error= 6.31D-03 at cycle   2 NSaved=   2.
 NSaved= 2 IEnMin= 2 EnMin= -618.140775378148     IErMin= 2 ErrMin= 6.31D-03
 ErrMax= 6.31D-03 EMaxC= 1.00D-01 BMatC= 1.94D-02 BMatP= 3.61D-01
 IDIUse=3 WtCom= 9.37D-01 WtEn= 6.31D-02
 Coeff-Com:  0.363D-01 0.964D+00
 Coeff-En:   0.612D-01 0.939D+00
 Coeff:      0.378D-01 0.962D+00
 Gap=     0.163 Goal=   None    Shift=    0.000
 RMSDP=1.75D-03 MaxDP=4.41D-02 DE=-1.84D-01 OVMax= 1.70D-01

 Cycle   3  Pass 0  IDiag  1:
 E= -618.340535119454     Delta-E=       -0.199759741306 Rises=F Damp=F
 DIIS: error= 6.40D-03 at cycle   3 NSaved=   3.
 NSaved= 3 IEnMin= 3 EnMin= -618.340535119454     IErMin= 2 ErrMin= 6.31D-03
 ErrMax= 6.40D-03 EMaxC= 1.00D-01 BMatC= 1.51D-02 BMatP= 1.94D-02
 IDIUse=3 WtCom= 9.36D-01 WtEn= 6.40D-02
 Coeff-Com: -0.189D-01 0.467D+00 0.552D+00
 Coeff-En:   0.000D+00 0.000D+00 0.100D+01
 Coeff:     -0.177D-01 0.437D+00 0.580D+00
 Gap=     0.161 Goal=   None    Shift=    0.000
 RMSDP=9.05D-04 MaxDP=3.67D-02 DE=-2.00D-01 OVMax= 7.71D-02

 Cycle   4  Pass 0  IDiag  1:
 E= -618.350825924918     Delta-E=       -0.010290805464 Rises=F Damp=F
 DIIS: error= 4.48D-03 at cycle   4 NSaved=   4.
 NSaved= 4 IEnMin= 4 EnMin= -618.350825924918     IErMin= 4 ErrMin= 4.48D-03
 ErrMax= 4.48D-03 EMaxC= 1.00D-01 BMatC= 5.69D-03 BMatP= 1.51D-02
 IDIUse=3 WtCom= 9.55D-01 WtEn= 4.48D-02
 Coeff-Com: -0.151D-01 0.106D+00 0.385D+00 0.524D+00
 Coeff-En:   0.000D+00 0.000D+00 0.314D+00 0.686D+00
 Coeff:     -0.144D-01 0.101D+00 0.382D+00 0.531D+00
 Gap=     0.158 Goal=   None    Shift=    0.000
 RMSDP=3.83D-04 MaxDP=1.41D-02 DE=-1.03D-02 OVMax= 3.68D-02

 Cycle   5  Pass 0  IDiag  1:
 E= -618.357100257233     Delta-E=       -0.006274332315 Rises=F Damp=F
 DIIS: error= 5.64D-04 at cycle   5 NSaved=   5.
 NSaved= 5 IEnMin= 5 EnMin= -618.357100257233     IErMin= 5 ErrMin= 5.64D-04
 ErrMax= 5.64D-04 EMaxC= 1.00D-01 BMatC= 1.77D-04 BMatP= 5.69D-03
 IDIUse=3 WtCom= 9.94D-01 WtEn= 5.64D-03
 Coeff-Com: -0.481D-02 0.185D-01 0.140D+00 0.253D+00 0.593D+00
 Coeff-En:   0.000D+00 0.000D+00 0.000D+00 0.000D+00 0.100D+01
 Coeff:     -0.478D-02 0.184D-01 0.140D+00 0.251D+00 0.595D+00
 Gap=     0.158 Goal=   None    Shift=    0.000
 RMSDP=6.68D-05 MaxDP=2.23D-03 DE=-6.27D-03 OVMax= 4.86D-03

 Cycle   6  Pass 0  IDiag  1:
 E= -618.357277019496     Delta-E=       -0.000176762263 Rises=F Damp=F
 DIIS: error= 1.57D-04 at cycle   6 NSaved=   6.
 NSaved= 6 IEnMin= 6 EnMin= -618.357277019496     IErMin= 6 ErrMin= 1.57D-04
 ErrMax= 1.57D-04 EMaxC= 1.00D-01 BMatC= 1.42D-05 BMatP= 1.77D-04
 IDIUse=3 WtCom= 9.98D-01 WtEn= 1.57D-03
 Coeff-Com: -0.997D-03 0.572D-03 0.365D-01 0.778D-01 0.293D+00 0.593D+00
 Coeff-En:   0.000D+00 0.000D+00 0.000D+00 0.000D+00 0.000D+00 0.100D+01
 Coeff:     -0.996D-03 0.571D-03 0.365D-01 0.777D-01 0.293D+00 0.593D+00
 Gap=     0.158 Goal=   None    Shift=    0.000
 RMSDP=1.75D-05 MaxDP=5.67D-04 DE=-1.77D-04 OVMax= 1.26D-03

 Cycle   7  Pass 0  IDiag  1:
 E= -618.357290263437     Delta-E=       -0.000013243941 Rises=F Damp=F
 DIIS: error= 9.00D-05 at cycle   7 NSaved=   7.
 NSaved= 7 IEnMin= 7 EnMin= -618.357290263437     IErMin= 7 ErrMin= 9.00D-05
 ErrMax= 9.00D-05 EMaxC= 1.00D-01 BMatC= 8.03D-07 BMatP= 1.42D-05
 IDIUse=1 WtCom= 1.00D+00 WtEn= 0.00D+00
 Coeff-Com: -0.337D-03-0.266D-03 0.148D-01 0.322D-01 0.135D+00 0.307D+00
 Coeff-Com:  0.511D+00
 Coeff:     -0.337D-03-0.266D-03 0.148D-01 0.322D-01 0.135D+00 0.307D+00
 Coeff:      0.511D+00
 Gap=     0.158 Goal=   None    Shift=    0.000
 RMSDP=6.07D-06 MaxDP=2.21D-04 DE=-1.32D-05 OVMax= 7.57D-04

 Initial convergence to 1.0D-05 achieved.  Increase integral accuracy.
 Cycle   8  Pass 1  IDiag  1:
 E= -618.357261209518     Delta-E=        0.000029053919 Rises=F Damp=F
 DIIS: error= 4.57D-05 at cycle   1 NSaved=   1.
 NSaved= 1 IEnMin= 1 EnMin= -618.357261209518     IErMin= 1 ErrMin= 4.57D-05
 ErrMax= 4.57D-05 EMaxC= 1.00D-01 BMatC= 3.51D-07 BMatP= 3.51D-07
 IDIUse=1 WtCom= 1.00D+00 WtEn= 0.00D+00
 Coeff-Com:  0.100D+01
 Coeff:      0.100D+01
 Gap=     0.158 Goal=   None    Shift=    0.000
 RMSDP=6.07D-06 MaxDP=2.21D-04 DE= 2.91D-05 OVMax= 8.60D-04

 Cycle   9  Pass 1  IDiag  1:
 E= -618.357260439046     Delta-E=        0.000000770472 Rises=F Damp=F
 DIIS: error= 1.02D-04 at cycle   2 NSaved=   2.
 NSaved= 2 IEnMin= 1 EnMin= -618.357261209518     IErMin= 1 ErrMin= 4.57D-05
 ErrMax= 1.02D-04 EMaxC= 1.00D-01 BMatC= 1.02D-06 BMatP= 3.51D-07
 IDIUse=3 WtCom= 4.98D-01 WtEn= 5.02D-01
 Coeff-Com:  0.646D+00 0.354D+00
 Coeff-En:   0.719D+00 0.281D+00
 Coeff:      0.683D+00 0.317D+00
 Gap=     0.158 Goal=   None    Shift=    0.000
 RMSDP=4.73D-06 MaxDP=1.78D-04 DE= 7.70D-07 OVMax= 6.29D-04

 Cycle  10  Pass 1  IDiag  1:
 E= -618.357261650572     Delta-E=       -0.000001211526 Rises=F Damp=F
 DIIS: error= 2.67D-06 at cycle   3 NSaved=   3.
 NSaved= 3 IEnMin= 3 EnMin= -618.357261650572     IErMin= 3 ErrMin= 2.67D-06
 ErrMax= 2.67D-06 EMaxC= 1.00D-01 BMatC= 3.19D-09 BMatP= 3.51D-07
 IDIUse=1 WtCom= 1.00D+00 WtEn= 0.00D+00
 Coeff-Com:  0.202D-01 0.300D-01 0.950D+00
 Coeff:      0.202D-01 0.300D-01 0.950D+00
 Gap=     0.158 Goal=   None    Shift=    0.000
 RMSDP=5.66D-07 MaxDP=1.23D-05 DE=-1.21D-06 OVMax= 2.95D-05

 Cycle  11  Pass 1  IDiag  1:
 E= -618.357261650423     Delta-E=        0.000000000149 Rises=F Damp=F
 DIIS: error= 2.48D-06 at cycle   4 NSaved=   4.
 NSaved= 4 IEnMin= 3 EnMin= -618.357261650572     IErMin= 4 ErrMin= 2.48D-06
 ErrMax= 2.48D-06 EMaxC= 1.00D-01 BMatC= 3.65D-09 BMatP= 3.19D-09
 IDIUse=1 WtCom= 1.00D+00 WtEn= 0.00D+00
 Coeff-Com: -0.150D-01 0.255D-02 0.538D+00 0.474D+00
 Coeff:     -0.150D-01 0.255D-02 0.538D+00 0.474D+00
 Gap=     0.158 Goal=   None    Shift=    0.000
 RMSDP=2.90D-07 MaxDP=9.03D-06 DE= 1.49D-10 OVMax= 2.00D-05

 Cycle  12  Pass 1  IDiag  1:
 E= -618.357261654000     Delta-E=       -0.000000003577 Rises=F Damp=F
 DIIS: error= 8.24D-07 at cycle   5 NSaved=   5.
 NSaved= 5 IEnMin= 5 EnMin= -618.357261654000     IErMin= 5 ErrMin= 8.24D-07
 ErrMax= 8.24D-07 EMaxC= 1.00D-01 BMatC= 1.91D-10 BMatP= 3.19D-09
 IDIUse=1 WtCom= 1.00D+00 WtEn= 0.00D+00
 Coeff-Com: -0.940D-02-0.172D-03 0.242D+00 0.262D+00 0.506D+00
 Coeff:     -0.940D-02-0.172D-03 0.242D+00 0.262D+00 0.506D+00
 Gap=     0.158 Goal=   None    Shift=    0.000
 RMSDP=8.03D-08 MaxDP=2.61D-06 DE=-3.58D-09 OVMax= 5.99D-06

 Cycle  13  Pass 1  IDiag  1:
 E= -618.357261654182     Delta-E=       -0.000000000183 Rises=F Damp=F
 DIIS: error= 2.40D-07 at cycle   6 NSaved=   6.
 NSaved= 6 IEnMin= 6 EnMin= -618.357261654182     IErMin= 6 ErrMin= 2.40D-07
 ErrMax= 2.40D-07 EMaxC= 1.00D-01 BMatC= 2.33D-11 BMatP= 1.91D-10
 IDIUse=1 WtCom= 1.00D+00 WtEn= 0.00D+00
 Coeff-Com: -0.360D-02-0.203D-03 0.771D-01 0.957D-01 0.297D+00 0.534D+00
 Coeff:     -0.360D-02-0.203D-03 0.771D-01 0.957D-01 0.297D+00 0.534D+00
 Gap=     0.158 Goal=   None    Shift=    0.000
 RMSDP=2.24D-08 MaxDP=6.36D-07 DE=-1.83D-10 OVMax= 1.61D-06

 Cycle  14  Pass 1  IDiag  1:
 E= -618.357261654206     Delta-E=       -0.000000000023 Rises=F Damp=F
 DIIS: error= 4.74D-08 at cycle   7 NSaved=   7.
 NSaved= 7 IEnMin= 7 EnMin= -618.357261654206     IErMin= 7 ErrMin= 4.74D-08
 ErrMax= 4.74D-08 EMaxC= 1.00D-01 BMatC= 7.18D-13 BMatP= 2.33D-11
 IDIUse=1 WtCom= 1.00D+00 WtEn= 0.00D+00
 Coeff-Com: -0.371D-03 0.813D-04 0.384D-02 0.798D-02 0.554D-01 0.186D+00
 Coeff-Com:  0.747D+00
 Coeff:     -0.371D-03 0.813D-04 0.384D-02 0.798D-02 0.554D-01 0.186D+00
 Coeff:      0.747D+00
 Gap=     0.158 Goal=   None    Shift=    0.000
 RMSDP=5.05D-09 MaxDP=1.51D-07 DE=-2.34D-11 OVMax= 3.41D-07

 SCF Done:  E(RB3LYP) =  -618.357261654     A.U. after   14 cycles
             Convg  =    0.5047D-08             -V/T =  2.0095
 KE= 6.125554718789D+02 PE=-3.259435232505D+03 EE= 1.115747624561D+03
 Leave Link  502 at Thu Sep 30 06:29:29 2021, MaxMem= 1342177280 cpu:     247.2
 (Enter /sw/target/amd/app/gaussian/Gaussian09RevA.02_gcc-4.9.2/g09/l508.exe)
 QCSCF skips out because SCF is already converged.
 Leave Link  508 at Thu Sep 30 06:29:30 2021, MaxMem= 1342177280 cpu:       0.0
 (Enter /sw/target/amd/app/gaussian/Gaussian09RevA.02_gcc-4.9.2/g09/l601.exe)
 Copying SCF densities to generalized density rwf, IOpCl= 0 IROHF=0.

 **********************************************************************

            Population analysis using the SCF density.

 **********************************************************************

 Orbital symmetries:
       Occupied  (A) (A) (A) (A) (A) (A) (A) (A) (A) (A) (A) (A)
                 (A) (A) (A) (A) (A) (A) (A) (A) (A) (A) (A) (A)
                 (A) (A) (A) (A) (A) (A) (A) (A) (A) (A) (A) (A)
                 (A) (A) (A) (A) (A) (A) (A) (A) (A) (A) (A) (A)
                 (A) (A) (A) (A) (A) (A)
       Virtual   (A) (A) (A) (A) (A) (A) (A) (A) (A) (A) (A) (A)
                 (A) (A) (A) (A) (A) (A) (A) (A) (A) (A) (A) (A)
                 (A) (A) (A) (A) (A) (A) (A) (A) (A) (A) (A) (A)
                 (A) (A) (A) (A) (A) (A) (A) (A) (A) (A) (A) (A)
                 (A) (A) (A) (A) (A) (A) (A) (A) (A) (A) (A) (A)
                 (A) (A) (A) (A) (A) (A) (A) (A) (A) (A) (A) (A)
                 (A) (A) (A) (A) (A) (A) (A) (A) (A) (A) (A) (A)
                 (A) (A) (A) (A) (A) (A) (A) (A) (A) (A) (A) (A)
                 (A) (A) (A) (A) (A) (A) (A) (A) (A) (A) (A) (A)
                 (A) (A) (A) (A) (A) (A) (A) (A) (A) (A) (A) (A)
                 (A) (A) (A) (A) (A) (A) (A) (A) (A) (A) (A) (A)
                 (A) (A) (A) (A) (A) (A) (A) (A) (A) (A) (A) (A)
                 (A) (A) (A) (A) (A) (A) (A) (A) (A) (A) (A) (A)
                 (A) (A) (A) (A) (A) (A) (A) (A) (A) (A) (A) (A)
                 (A) (A) (A) (A) (A) (A) (A) (A) (A) (A) (A) (A)
                 (A) (A) (A) (A) (A) (A) (A) (A) (A) (A) (A) (A)
                 (A) (A) (A) (A) (A) (A) (A) (A) (A) (A) (A)
 The electronic state is 1-A.
 Alpha  occ. eigenvalues --  -19.17387 -10.24422 -10.23836 -10.19405 -10.19073
 Alpha  occ. eigenvalues --  -10.18959 -10.18888 -10.18550 -10.18444 -10.18437
 Alpha  occ. eigenvalues --  -10.18261 -10.18193 -10.18024 -10.17813 -10.17094
 Alpha  occ. eigenvalues --   -1.05869  -0.87025  -0.81960  -0.80329  -0.76728
 Alpha  occ. eigenvalues --   -0.73812  -0.71737  -0.68530  -0.67753  -0.62732
 Alpha  occ. eigenvalues --   -0.59824  -0.59443  -0.56718  -0.52992  -0.50947
 Alpha  occ. eigenvalues --   -0.49902  -0.48434  -0.46383  -0.44717  -0.44256
 Alpha  occ. eigenvalues --   -0.43447  -0.41971  -0.41043  -0.40414  -0.39564
 Alpha  occ. eigenvalues --   -0.38890  -0.38647  -0.38267  -0.35581  -0.35011
 Alpha  occ. eigenvalues --   -0.34106  -0.33487  -0.33173  -0.32908  -0.31722
 Alpha  occ. eigenvalues --   -0.29733  -0.27199  -0.23102  -0.19459
 Alpha virt. eigenvalues --   -0.03695   0.00899   0.03820   0.08286   0.09681
 Alpha virt. eigenvalues --    0.11208   0.11439   0.11842   0.12732   0.13099
 Alpha virt. eigenvalues --    0.14329   0.14829   0.16800   0.17155   0.17319
 Alpha virt. eigenvalues --    0.17570   0.18015   0.19443   0.20118   0.21116
 Alpha virt. eigenvalues --    0.21366   0.21921   0.23029   0.24197   0.25181
 Alpha virt. eigenvalues --    0.26130   0.27670   0.29220   0.31624   0.33369
 Alpha virt. eigenvalues --    0.34900   0.36251   0.38765   0.48400   0.49506
 Alpha virt. eigenvalues --    0.50827   0.51197   0.51638   0.52480   0.52534
 Alpha virt. eigenvalues --    0.53065   0.53765   0.55115   0.55687   0.56337
 Alpha virt. eigenvalues --    0.57432   0.57499   0.58004   0.60201   0.60956
 Alpha virt. eigenvalues --    0.61264   0.61657   0.62398   0.62839   0.63390
 Alpha virt. eigenvalues --    0.63515   0.66030   0.67166   0.68014   0.68681
 Alpha virt. eigenvalues --    0.69550   0.70201   0.71956   0.72515   0.75180
 Alpha virt. eigenvalues --    0.78473   0.80717   0.82887   0.83282   0.83819
 Alpha virt. eigenvalues --    0.84496   0.85340   0.85959   0.86416   0.87524
 Alpha virt. eigenvalues --    0.88551   0.89222   0.89699   0.90216   0.91012
 Alpha virt. eigenvalues --    0.92402   0.93270   0.93918   0.94202   0.95455
 Alpha virt. eigenvalues --    0.96973   0.97694   0.98470   0.99250   1.00419
 Alpha virt. eigenvalues --    1.03500   1.04011   1.07411   1.10438   1.11033
 Alpha virt. eigenvalues --    1.14175   1.15838   1.20055   1.20425   1.23255
 Alpha virt. eigenvalues --    1.24501   1.26603   1.27084   1.34595   1.36209
 Alpha virt. eigenvalues --    1.36882   1.39413   1.40707   1.41194   1.43792
 Alpha virt. eigenvalues --    1.45060   1.46496   1.47789   1.49209   1.49525
 Alpha virt. eigenvalues --    1.50293   1.51132   1.52710   1.53585   1.55690
 Alpha virt. eigenvalues --    1.65418   1.71478   1.72995   1.73084   1.78669
 Alpha virt. eigenvalues --    1.79670   1.84556   1.85055   1.86865   1.87646
 Alpha virt. eigenvalues --    1.90192   1.91427   1.91588   1.92427   1.94760
 Alpha virt. eigenvalues --    1.95118   1.95434   1.96741   1.97880   1.98653
 Alpha virt. eigenvalues --    2.00350   2.03166   2.06035   2.06323   2.07283
 Alpha virt. eigenvalues --    2.09974   2.12282   2.14466   2.15903   2.16485
 Alpha virt. eigenvalues --    2.17976   2.20401   2.21642   2.23965   2.25339
 Alpha virt. eigenvalues --    2.25784   2.27591   2.29353   2.32994   2.33647
 Alpha virt. eigenvalues --    2.34376   2.35314   2.40289   2.42566   2.45977
 Alpha virt. eigenvalues --    2.48637   2.50200   2.55657   2.58003   2.61569
 Alpha virt. eigenvalues --    2.64667   2.65006   2.66596   2.69433   2.71061
 Alpha virt. eigenvalues --    2.71557   2.74916   2.78698   2.80132   2.84338
 Alpha virt. eigenvalues --    2.86045   2.90919   2.91680   3.05496   3.06917
 Alpha virt. eigenvalues --    3.18505   3.39833   3.50967   4.08746   4.09615
 Alpha virt. eigenvalues --    4.11431   4.12598   4.14037   4.16974   4.25612
 Alpha virt. eigenvalues --    4.28205   4.30051   4.36780   4.41447   4.43916
 Alpha virt. eigenvalues --    4.57058   4.62808   4.85577
          Condensed to atoms (all electrons):
              1          2          3          4          5          6
     1  C    5.118106   0.362911  -0.045339   0.002433  -0.000048   0.000002
     2  C    0.362911   4.898872   0.389226  -0.041714   0.002742   0.000390
     3  C   -0.045339   0.389226   4.876488   0.224205  -0.033520  -0.007031
     4  O    0.002433  -0.041714   0.224205   8.253898   0.265923  -0.058948
     5  C   -0.000048   0.002742  -0.033520   0.265923   4.562908   0.417696
     6  C    0.000002   0.000390  -0.007031  -0.058948   0.417696   5.150493
     7  C   -0.000000  -0.000004   0.000617   0.003319   0.011710   0.454580
     8  C    0.000000  -0.000000  -0.000034   0.000353  -0.036574  -0.002395
     9  C   -0.000000   0.000002  -0.000060   0.002035   0.010440  -0.041767
    10  C    0.000003  -0.000146   0.003106  -0.047759   0.493433  -0.052963
    11  C    0.000000  -0.000000   0.000003  -0.000081   0.008143  -0.000766
    12  C   -0.000000   0.000000  -0.000000   0.000000  -0.000314   0.000070
    13  C    0.000000   0.000000   0.000000  -0.000000   0.000056  -0.000386
    14  C    0.000000  -0.000000  -0.000000   0.000001  -0.000861   0.009987
    15  C   -0.054852   0.373460  -0.046247   0.000157   0.000208  -0.000008
    16  H    0.368953  -0.031983  -0.003801  -0.000001  -0.000004  -0.000002
    17  H    0.372371  -0.033750  -0.006938  -0.000008  -0.000000  -0.000003
    18  H    0.373673  -0.026363   0.004298  -0.000048   0.000001   0.000000
    19  H   -0.041195   0.377001  -0.042677   0.002106   0.000086   0.000010
    20  H   -0.001654  -0.035812   0.351440  -0.038622  -0.004855   0.004083
    21  H   -0.001320  -0.039230   0.358754  -0.036876  -0.005157   0.005029
    22  H    0.000028  -0.000086   0.005770  -0.006912  -0.044893   0.351225
    23  H    0.000000  -0.000000  -0.000009  -0.000046   0.002921  -0.041851
    24  H    0.000000  -0.000023  -0.000293   0.000610  -0.039861   0.007655
    25  H    0.000000  -0.000000   0.000000  -0.000002   0.000155   0.000009
    26  H    0.000000  -0.000000   0.000000  -0.000000   0.000003  -0.000001
    27  H   -0.000000  -0.000000  -0.000000   0.000000  -0.000001   0.000003
    28  H    0.000000  -0.000000   0.000000  -0.000000   0.000007   0.000256
    29  H   -0.004822  -0.035188  -0.006439  -0.000343  -0.000015  -0.000002
    30  H    0.005291  -0.028160  -0.006285   0.007139   0.000174   0.000027
    31  H   -0.005216  -0.031937   0.005046   0.000119  -0.000005   0.000000
              7          8          9         10         11         12
     1  C   -0.000000   0.000000  -0.000000   0.000003   0.000000  -0.000000
     2  C   -0.000004  -0.000000   0.000002  -0.000146  -0.000000   0.000000
     3  C    0.000617  -0.000034  -0.000060   0.003106   0.000003  -0.000000
     4  O    0.003319   0.000353   0.002035  -0.047759  -0.000081   0.000000
     5  C    0.011710  -0.036574   0.010440   0.493433   0.008143  -0.000314
     6  C    0.454580  -0.002395  -0.041767  -0.052963  -0.000766   0.000070
     7  C    5.164889   0.444164  -0.023756  -0.076527   0.017772  -0.000756
     8  C    0.444164   4.676190   0.487834  -0.032725  -0.029176  -0.039495
     9  C   -0.023756   0.487834   4.667624   0.424806   0.444035  -0.002055
    10  C   -0.076527  -0.032725   0.424806   5.297822  -0.096798   0.008022
    11  C    0.017772  -0.029176   0.444035  -0.096798   5.137277   0.512726
    12  C   -0.000756  -0.039495  -0.002055   0.008022   0.512726   4.894565
    13  C    0.008742  -0.002257  -0.039290  -0.000590  -0.020084   0.504983
    14  C   -0.103070   0.443856  -0.029617   0.017235  -0.077757  -0.018585
    15  C   -0.000000   0.000000  -0.000000  -0.000023  -0.000000   0.000000
    16  H    0.000000  -0.000000   0.000000  -0.000000   0.000000  -0.000000
    17  H   -0.000000   0.000000  -0.000000  -0.000000  -0.000000  -0.000000
    18  H    0.000000   0.000000   0.000000  -0.000000  -0.000000   0.000000
    19  H   -0.000000   0.000000  -0.000000  -0.000030  -0.000000   0.000000
    20  H   -0.000109   0.000003  -0.000002   0.000105  -0.000000  -0.000000
    21  H   -0.000097  -0.000003   0.000001   0.000208  -0.000000  -0.000000
    22  H   -0.034439   0.002548   0.001007   0.004238   0.000011  -0.000000
    23  H    0.353245  -0.037175   0.004426   0.000691  -0.000213   0.000014
    24  H   -0.000059   0.005079  -0.042529   0.343377  -0.009152   0.000216
    25  H   -0.000200   0.004716  -0.040250  -0.008272   0.353882  -0.045746
    26  H    0.000010   0.001050   0.002733  -0.000199  -0.036679   0.356465
    27  H   -0.000207   0.002719   0.001066   0.000012   0.004358  -0.042406
    28  H   -0.008774  -0.042719   0.004555  -0.000185   0.000538   0.004711
    29  H   -0.000000   0.000000  -0.000000  -0.000001  -0.000000  -0.000000
    30  H   -0.000000   0.000000  -0.000000  -0.000028  -0.000000  -0.000000
    31  H   -0.000000  -0.000000   0.000000  -0.000000   0.000000  -0.000000
             13         14         15         16         17         18
     1  C    0.000000   0.000000  -0.054852   0.368953   0.372371   0.373673
     2  C    0.000000  -0.000000   0.373460  -0.031983  -0.033750  -0.026363
     3  C    0.000000  -0.000000  -0.046247  -0.003801  -0.006938   0.004298
     4  O   -0.000000   0.000001   0.000157  -0.000001  -0.000008  -0.000048
     5  C    0.000056  -0.000861   0.000208  -0.000004  -0.000000   0.000001
     6  C   -0.000386   0.009987  -0.000008  -0.000002  -0.000003   0.000000
     7  C    0.008742  -0.103070  -0.000000   0.000000  -0.000000   0.000000
     8  C   -0.002257   0.443856   0.000000  -0.000000   0.000000   0.000000
     9  C   -0.039290  -0.029617  -0.000000   0.000000  -0.000000   0.000000
    10  C   -0.000590   0.017235  -0.000023  -0.000000  -0.000000  -0.000000
    11  C   -0.020084  -0.077757  -0.000000   0.000000  -0.000000  -0.000000
    12  C    0.504983  -0.018585   0.000000  -0.000000  -0.000000   0.000000
    13  C    4.905043   0.508479  -0.000000   0.000000  -0.000000   0.000000
    14  C    0.508479   5.138595   0.000000   0.000000   0.000000   0.000000
    15  C   -0.000000   0.000000   5.107487   0.005711  -0.005304  -0.004381
    16  H    0.000000   0.000000   0.005711   0.579069  -0.031798  -0.029081
    17  H   -0.000000   0.000000  -0.005304  -0.031798   0.577420  -0.030258
    18  H    0.000000   0.000000  -0.004381  -0.029081  -0.030258   0.560293
    19  H   -0.000000   0.000000  -0.048378  -0.003736   0.005709  -0.003469
    20  H    0.000000   0.000000  -0.010735  -0.000463   0.005676  -0.000149
    21  H    0.000000   0.000000   0.006681   0.005079  -0.000494  -0.000143
    22  H    0.000004  -0.000204   0.000006   0.000002   0.000001  -0.000000
    23  H    0.000201  -0.008601  -0.000000   0.000000  -0.000000  -0.000000
    24  H    0.000007  -0.000149  -0.000003  -0.000000   0.000000  -0.000000
    25  H    0.004594   0.000616  -0.000000   0.000000  -0.000000  -0.000000
    26  H   -0.042567   0.004449   0.000000  -0.000000  -0.000000  -0.000000
    27  H    0.356337  -0.036771   0.000000   0.000000   0.000000   0.000000
    28  H   -0.045760   0.354960   0.000000   0.000000   0.000000  -0.000000
    29  H   -0.000000   0.000000   0.371972  -0.000068   0.004606  -0.000224
    30  H   -0.000000   0.000000   0.372895  -0.000193  -0.000035  -0.000015
    31  H    0.000000  -0.000000   0.372335   0.000026  -0.000211   0.004521
             19         20         21         22         23         24
     1  C   -0.041195  -0.001654  -0.001320   0.000028   0.000000   0.000000
     2  C    0.377001  -0.035812  -0.039230  -0.000086  -0.000000  -0.000023
     3  C   -0.042677   0.351440   0.358754   0.005770  -0.000009  -0.000293
     4  O    0.002106  -0.038622  -0.036876  -0.006912  -0.000046   0.000610
     5  C    0.000086  -0.004855  -0.005157  -0.044893   0.002921  -0.039861
     6  C    0.000010   0.004083   0.005029   0.351225  -0.041851   0.007655
     7  C   -0.000000  -0.000109  -0.000097  -0.034439   0.353245  -0.000059
     8  C    0.000000   0.000003  -0.000003   0.002548  -0.037175   0.005079
     9  C   -0.000000  -0.000002   0.000001   0.001007   0.004426  -0.042529
    10  C   -0.000030   0.000105   0.000208   0.004238   0.000691   0.343377
    11  C   -0.000000  -0.000000  -0.000000   0.000011  -0.000213  -0.009152
    12  C    0.000000  -0.000000  -0.000000  -0.000000   0.000014   0.000216
    13  C   -0.000000   0.000000   0.000000   0.000004   0.000201   0.000007
    14  C    0.000000   0.000000   0.000000  -0.000204  -0.008601  -0.000149
    15  C   -0.048378  -0.010735   0.006681   0.000006  -0.000000  -0.000003
    16  H   -0.003736  -0.000463   0.005079   0.000002   0.000000  -0.000000
    17  H    0.005709   0.005676  -0.000494   0.000001  -0.000000   0.000000
    18  H   -0.003469  -0.000149  -0.000143  -0.000000  -0.000000  -0.000000
    19  H    0.615447   0.006737  -0.006910   0.000005  -0.000000   0.000008
    20  H    0.006737   0.637772  -0.055448   0.002070   0.000000   0.000031
    21  H   -0.006910  -0.055448   0.630659   0.002241   0.000001   0.000032
    22  H    0.000005   0.002070   0.002241   0.588382  -0.005317  -0.000170
    23  H   -0.000000   0.000000   0.000001  -0.005317   0.593114   0.000018
    24  H    0.000008   0.000031   0.000032  -0.000170   0.000018   0.596461
    25  H   -0.000000  -0.000000  -0.000000  -0.000000   0.000003   0.005875
    26  H   -0.000000   0.000000   0.000000   0.000000  -0.000000  -0.000012
    27  H    0.000000   0.000000   0.000000  -0.000000  -0.000012   0.000000
    28  H    0.000000   0.000000   0.000000  -0.000013   0.006334   0.000003
    29  H    0.005832   0.005850  -0.000046  -0.000001   0.000000   0.000000
    30  H   -0.003294   0.000188   0.000086   0.000002   0.000000   0.000112
    31  H   -0.003104  -0.000100  -0.000132  -0.000000   0.000000  -0.000000
             25         26         27         28         29         30
     1  C    0.000000   0.000000  -0.000000   0.000000  -0.004822   0.005291
     2  C   -0.000000  -0.000000  -0.000000  -0.000000  -0.035188  -0.028160
     3  C    0.000000   0.000000  -0.000000   0.000000  -0.006439  -0.006285
     4  O   -0.000002  -0.000000   0.000000  -0.000000  -0.000343   0.007139
     5  C    0.000155   0.000003  -0.000001   0.000007  -0.000015   0.000174
     6  C    0.000009  -0.000001   0.000003   0.000256  -0.000002   0.000027
     7  C   -0.000200   0.000010  -0.000207  -0.008774  -0.000000  -0.000000
     8  C    0.004716   0.001050   0.002719  -0.042719   0.000000   0.000000
     9  C   -0.040250   0.002733   0.001066   0.004555  -0.000000  -0.000000
    10  C   -0.008272  -0.000199   0.000012  -0.000185  -0.000001  -0.000028
    11  C    0.353882  -0.036679   0.004358   0.000538  -0.000000  -0.000000
    12  C   -0.045746   0.356465  -0.042406   0.004711  -0.000000  -0.000000
    13  C    0.004594  -0.042567   0.356337  -0.045760  -0.000000  -0.000000
    14  C    0.000616   0.004449  -0.036771   0.354960   0.000000   0.000000
    15  C   -0.000000   0.000000   0.000000   0.000000   0.371972   0.372895
    16  H    0.000000  -0.000000   0.000000   0.000000  -0.000068  -0.000193
    17  H   -0.000000  -0.000000   0.000000   0.000000   0.004606  -0.000035
    18  H   -0.000000  -0.000000   0.000000  -0.000000  -0.000224  -0.000015
    19  H   -0.000000  -0.000000   0.000000   0.000000   0.005832  -0.003294
    20  H   -0.000000   0.000000   0.000000   0.000000   0.005850   0.000188
    21  H   -0.000000   0.000000   0.000000   0.000000  -0.000046   0.000086
    22  H   -0.000000   0.000000  -0.000000  -0.000013  -0.000001   0.000002
    23  H    0.000003  -0.000000  -0.000012   0.006334   0.000000   0.000000
    24  H    0.005875  -0.000012   0.000000   0.000003   0.000000   0.000112
    25  H    0.602451  -0.005315  -0.000198   0.000020   0.000000   0.000000
    26  H   -0.005315   0.598417  -0.005276  -0.000202   0.000000   0.000000
    27  H   -0.000198  -0.005276   0.600627  -0.005337   0.000000  -0.000000
    28  H    0.000020  -0.000202  -0.005337   0.605504   0.000000   0.000000
    29  H    0.000000   0.000000   0.000000   0.000000   0.582042  -0.028741
    30  H    0.000000   0.000000  -0.000000   0.000000  -0.028741   0.547601
    31  H    0.000000  -0.000000  -0.000000  -0.000000  -0.031543  -0.029974
             31
     1  C   -0.005216
     2  C   -0.031937
     3  C    0.005046
     4  O    0.000119
     5  C   -0.000005
     6  C    0.000000
     7  C   -0.000000
     8  C   -0.000000
     9  C    0.000000
    10  C   -0.000000
    11  C    0.000000
    12  C   -0.000000
    13  C    0.000000
    14  C   -0.000000
    15  C    0.372335
    16  H    0.000026
    17  H   -0.000211
    18  H    0.004521
    19  H   -0.003104
    20  H   -0.000100
    21  H   -0.000132
    22  H   -0.000000
    23  H    0.000000
    24  H   -0.000000
    25  H    0.000000
    26  H   -0.000000
    27  H   -0.000000
    28  H   -0.000000
    29  H   -0.031543
    30  H   -0.029974
    31  H    0.580392
 Mulliken atomic charges:
              1
     1  C   -0.449326
     2  C   -0.100208
     3  C   -0.020280
     4  O   -0.530937
     5  C    0.389500
     6  C   -0.195393
     7  C   -0.211048
     8  C    0.154043
     9  C    0.168759
    10  C   -0.276810
    11  C   -0.208041
    12  C   -0.132416
    13  C   -0.137510
    14  C   -0.202562
    15  C   -0.440978
    16  H    0.142290
    17  H    0.143016
    18  H    0.151344
    19  H    0.139853
    20  H    0.133994
    21  H    0.137088
    22  H    0.134497
    23  H    0.132256
    24  H    0.132767
    25  H    0.127665
    26  H    0.127122
    27  H    0.125087
    28  H    0.126102
    29  H    0.137130
    30  H    0.163213
    31  H    0.139784
 Sum of Mulliken atomic charges =  -0.00000
 Mulliken charges with hydrogens summed into heavy atoms:
              1
     1  C   -0.012676
     2  C    0.039645
     3  C    0.250802
     4  O   -0.530937
     5  C    0.389500
     6  C   -0.060897
     7  C   -0.078792
     8  C    0.154043
     9  C    0.168759
    10  C   -0.144043
    11  C   -0.080376
    12  C   -0.005294
    13  C   -0.012423
    14  C   -0.076460
    15  C   -0.000851
 Sum of Mulliken charges with hydrogens summed into heavy atoms =  -0.00000
 Electronic spatial extent (au):  <R**2>=           4855.7355
 Charge=             -0.0000 electrons
 Dipole moment (field-independent basis, Debye):
    X=             -1.1560    Y=              1.0468    Z=             -0.0416  Tot=              1.5601
 Quadrupole moment (field-independent basis, Debye-Ang):
   XX=            -79.0975   YY=            -83.2323   ZZ=            -92.9551
   XY=             -1.7853   XZ=              0.4960   YZ=              1.1974
 Traceless Quadrupole moment (field-independent basis, Debye-Ang):
   XX=              5.9975   YY=              1.8627   ZZ=             -7.8601
   XY=             -1.7853   XZ=              0.4960   YZ=              1.1974
 Octapole moment (field-independent basis, Debye-Ang**2):
  XXX=             -3.7285  YYY=             -0.6151  ZZZ=             -1.2342  XYY=              8.3938
  XXY=             -0.3280  XXZ=             -3.6265  XZZ=            -17.3019  YZZ=             -0.0493
  YYZ=             -0.3931  XYZ=              1.8268
 Hexadecapole moment (field-independent basis, Debye-Ang**3):
 XXXX=          -5443.0191 YYYY=           -695.2215 ZZZZ=           -166.3304 XXXY=             14.7738
 XXXZ=             18.2195 YYYX=              2.8598 YYYZ=              9.7919 ZZZX=              2.5870
 ZZZY=             -0.6333 XXYY=          -1045.5342 XXZZ=          -1036.0993 YYZZ=           -159.5439
 XXYZ=             16.9701 YYXZ=              2.4873 ZZXY=             -1.5246
 N-N= 9.127748744102D+02 E-N=-3.259435235848D+03  KE= 6.125554718789D+02
 No NMR shielding tensors so no spin-rotation constants.
 Leave Link  601 at Thu Sep 30 06:29:32 2021, MaxMem= 1342177280 cpu:       1.7
 (Enter /sw/target/amd/app/gaussian/Gaussian09RevA.02_gcc-4.9.2/g09/l701.exe)
 Compute integral first derivatives.
 ... and contract with generalized density number  0.
 Leave Link  701 at Thu Sep 30 06:29:34 2021, MaxMem= 1342177280 cpu:       1.6
 (Enter /sw/target/amd/app/gaussian/Gaussian09RevA.02_gcc-4.9.2/g09/l702.exe)
 L702 exits ... SP integral derivatives will be done elsewhere.
 Leave Link  702 at Thu Sep 30 06:29:35 2021, MaxMem= 1342177280 cpu:       0.1
 (Enter /sw/target/amd/app/gaussian/Gaussian09RevA.02_gcc-4.9.2/g09/l703.exe)
 Compute integral first derivatives, UseDBF=F ICtDFT=           0.
 Integral derivatives from FoFDir, PRISM(SPDF).
 Calling FoFJK, ICntrl=      2127 FMM=F ISym2X=0 I1Cent= 0 IOpClX= 0 NMat=1 NMatS=1 NMatT=0.
 FoFCou: FMM=F IPFlag=           0 FMFlag=      100000 FMFlg1=         800
         NFxFlg=           0 DoJE=F BraDBF=F KetDBF=F FulRan=T
         Omega=  0.000000  0.000000  1.000000  0.000000  0.000000 ICntrl=    2127 IOpCl=  0
         NMat0=    1 NMatS0=    1 NMatT0=    0 NMatD0=    1 NMtDS0=    0 NMtDT0=    0
         I1Cent=           0 NGrid=           0.
 Symmetry not used in FoFCou.
 Leave Link  703 at Thu Sep 30 06:31:18 2021, MaxMem= 1342177280 cpu:     103.4
 (Enter /sw/target/amd/app/gaussian/Gaussian09RevA.02_gcc-4.9.2/g09/l716.exe)
 Dipole        =-4.54813276D-01 4.11824526D-01-1.63577489D-02
 ***** Axes restored to original set *****
 -------------------------------------------------------------------
 Center     Atomic                   Forces (Hartrees/Bohr)
 Number     Number              X              Y              Z
 -------------------------------------------------------------------
      1        6           0.000380785   -0.003588001    0.003966584
      2        6          -0.000673794    0.006646972   -0.002434272
      3        6          -0.007183300   -0.004700009   -0.006173820
      4        8           0.007642583   -0.004619128    0.001460103
      5        6          -0.028117318    0.017359849   -0.004357061
      6        6           0.020499913   -0.002171196    0.020431206
      7        6           0.002126337   -0.014247563   -0.020175644
      8        6           0.012929022   -0.003398387    0.009477770
      9        6          -0.008862281   -0.000930963   -0.012926801
     10        6           0.003752477   -0.009102109   -0.010011613
     11        6          -0.008109527    0.017507702    0.020041559
     12        6          -0.014217253   -0.003056684   -0.022172291
     13        6           0.022151183   -0.013010260    0.004705506
     14        6          -0.009182775    0.018274142    0.019989036
     15        6          -0.004579778    0.003987333   -0.000472841
     16        1           0.001447854   -0.001947021   -0.000102194
     17        1           0.001069391    0.000176181   -0.000786151
     18        1          -0.000017849    0.000329497   -0.000131967
     19        1          -0.000012507   -0.000890140    0.002970708
     20        1           0.002270289   -0.000644916    0.000961992
     21        1           0.002877368    0.000586252    0.002172674
     22        1          -0.001250632   -0.000295015   -0.001781558
     23        1          -0.001198539    0.001211282    0.000422204
     24        1           0.001375458   -0.001002232    0.000643544
     25        1           0.000925077   -0.001726360   -0.001663556
     26        1          -0.000529097    0.000189703   -0.000781031
     27        1           0.000466295   -0.000168761   -0.000173113
     28        1           0.000700407   -0.001615992   -0.001963192
     29        1           0.001500621    0.000573856   -0.000702259
     30        1           0.001399847    0.000735570    0.000329374
     31        1           0.000419741   -0.000463606   -0.000762895
 -------------------------------------------------------------------
 Cartesian Forces:  Max     0.028117318 RMS     0.008447850
 Leave Link  716 at Thu Sep 30 06:31:19 2021, MaxMem= 1342177280 cpu:       0.1
 (Enter /sw/target/amd/app/gaussian/Gaussian09RevA.02_gcc-4.9.2/g09/l103.exe)

 GradGradGradGradGradGradGradGradGradGradGradGradGradGradGradGradGradGrad
 Berny optimization.
 Internal  Forces:  Max     0.019972981 RMS     0.004112905
 Search for a local minimum.
 Step number   1 out of a maximum of  173
 All quantities printed in internal units (Hartrees-Bohrs-Radians)
 RMS Force = .41129D-02 SwitMx=.10000D-02 MixMth= 1
 Mixed Optimization -- RFO/linear search
 Second derivative matrix not updated -- first step.
     Eigenvalues ---    0.00298   0.00382   0.00388   0.01304   0.01992
     Eigenvalues ---    0.01998   0.02018   0.02051   0.02074   0.02075
     Eigenvalues ---    0.02084   0.02087   0.02098   0.02098   0.02125
     Eigenvalues ---    0.02136   0.02153   0.02156   0.02159   0.02174
     Eigenvalues ---    0.03630   0.04718   0.04856   0.05147   0.05494
     Eigenvalues ---    0.05511   0.05563   0.05567   0.05917   0.11232
     Eigenvalues ---    0.13729   0.15999   0.15999   0.16000   0.16000
     Eigenvalues ---    0.16000   0.16000   0.16000   0.16000   0.16000
     Eigenvalues ---    0.16000   0.16000   0.16000   0.16000   0.16513
     Eigenvalues ---    0.16785   0.22000   0.22091   0.22296   0.22708
     Eigenvalues ---    0.23516   0.24367   0.24749   0.24999   0.25000
     Eigenvalues ---    0.28931   0.29514   0.29558   0.33962   0.33963
     Eigenvalues ---    0.33978   0.34162   0.34209   0.34211   0.34221
     Eigenvalues ---    0.34252   0.34258   0.34985   0.35033   0.35085
     Eigenvalues ---    0.35096   0.35161   0.35218   0.35481   0.38669
     Eigenvalues ---    0.41022   0.41086   0.41662   0.43599   0.44617
     Eigenvalues ---    0.45473   0.45544   0.45718   0.45746   0.46307
     Eigenvalues ---    0.46596   0.509131000.000001000.000001000.00000
     Eigenvalues --- 1000.000001000.000001000.000001000.000001000.00000
     Eigenvalues --- 1000.000001000.000001000.000001000.000001000.00000
     Eigenvalues --- 1000.000001000.000001000.000001000.000001000.00000
     Eigenvalues --- 1000.000001000.000001000.000001000.000001000.00000
     Eigenvalues --- 1000.000001000.000001000.000001000.000001000.00000
     Eigenvalues --- 1000.000001000.000001000.000001000.000001000.00000
     Eigenvalues --- 1000.000001000.000001000.000001000.000001000.00000
     Eigenvalues --- 1000.000001000.000001000.000001000.000001000.00000
     Eigenvalues --- 1000.000001000.000001000.000001000.000001000.00000
     Eigenvalues --- 1000.000001000.000001000.000001000.000001000.00000
     Eigenvalues --- 1000.000001000.000001000.000001000.000001000.00000
     Eigenvalues --- 1000.000001000.000001000.000001000.000001000.00000
     Eigenvalues --- 1000.000001000.000001000.000001000.000001000.00000
     Eigenvalues --- 1000.000001000.000001000.000001000.000001000.00000
     Eigenvalues --- 1000.000001000.000001000.00000
 RFO step:  Lambda=-7.46649538D-03 EMin= 2.97786623D-03
 Linear search not attempted -- first point.
 Iteration  1 RMS(Cart)=  0.05009347 RMS(Int)=  0.00077785
 Iteration  2 RMS(Cart)=  0.00135279 RMS(Int)=  0.00006326
 Iteration  3 RMS(Cart)=  0.00000066 RMS(Int)=  0.00006325
 Variable       Old X    -DE/DX   Delta X   Delta X   Delta X     New X
                                 (Linear)    (Quad)   (Total)
    R1        2.88853   0.00436   0.00000   0.01438   0.01438   2.90291
    R2        2.06979   0.00148   0.00000   0.00424   0.00424   2.07403
    R3        2.07057   0.00119   0.00000   0.00342   0.00342   2.07399
    R4        2.06906  -0.00001   0.00000  -0.00002  -0.00002   2.06904
    R5        2.90147  -0.00394   0.00000  -0.01329  -0.01329   2.88818
[...]
 Box volume = 9336.449 fraction occupied=0.211
 Integrated density= 9.3663168337456113D+01 error=-1.4336831662543887D+01
 Molar volume = 1973.739 bohr**3/mol (176.134 cm**3/mol)
 Recommended a0 for SCRF calculation =  5.03 angstrom (  9.51 bohr)
 Leave Link  604 at Thu Sep 30 13:16:56 2021, MaxMem= 1342177280 cpu:       0.4
 (Enter /sw/target/amd/app/gaussian/Gaussian09RevA.02_gcc-4.9.2/g09/l607.exe)
 ******************************Gaussian NBO Version 3.1******************************
             N A T U R A L   A T O M I C   O R B I T A L   A N D
          N A T U R A L   B O N D   O R B I T A L   A N A L Y S I S
 ******************************Gaussian NBO Version 3.1******************************
       /RESON  / : Allow strongly delocalized NBO set

 Analyzing the CI density

 Job title: CC(COc1ccc2c(c1)cccc2)C_conf_0                                  

 Storage needed:    201318 in NPA (1342172165 available)


 NATURAL POPULATIONS:  Natural atomic orbital occupancies 
                                                          
   NAO  Atom  No  lang   Type(AO)    Occupancy
 --------------------------------------------
     1    C    1  S      Cor( 1S)     1.99942
     2    C    1  S      Val( 2S)     1.09821
     3    C    1  S      Ryd( 3S)     0.00040
     4    C    1  S      Ryd( 4S)     0.00002
     5    C    1  px     Val( 2p)     1.15169
     6    C    1  px     Ryd( 3p)     0.00172
     7    C    1  py     Val( 2p)     1.17788
     8    C    1  py     Ryd( 3p)     0.00163
     9    C    1  pz     Val( 2p)     1.24319
    10    C    1  pz     Ryd( 3p)     0.00172
    11    C    1  dxy    Ryd( 3d)     0.00077
    12    C    1  dxz    Ryd( 3d)     0.00014
    13    C    1  dyz    Ryd( 3d)     0.00122
    14    C    1  dx2y2  Ryd( 3d)     0.00054
    15    C    1  dz2    Ryd( 3d)     0.00066

    16    C    2  S      Cor( 1S)     1.99924
    17    C    2  S      Val( 2S)     0.98108
    18    C    2  S      Ryd( 3S)     0.00095
    19    C    2  S      Ryd( 4S)     0.00002
    20    C    2  px     Val( 2p)     1.02792
    21    C    2  px     Ryd( 3p)     0.00271
    22    C    2  py     Val( 2p)     1.08250
    23    C    2  py     Ryd( 3p)     0.00255
    24    C    2  pz     Val( 2p)     1.17021
    25    C    2  pz     Ryd( 3p)     0.00271
    26    C    2  dxy    Ryd( 3d)     0.00087
    27    C    2  dxz    Ryd( 3d)     0.00033
    28    C    2  dyz    Ryd( 3d)     0.00105
    29    C    2  dx2y2  Ryd( 3d)     0.00047
    30    C    2  dz2    Ryd( 3d)     0.00091

    31    C    3  S      Cor( 1S)     1.99917
    32    C    3  S      Val( 2S)     1.02434
    33    C    3  S      Ryd( 3S)     0.00255
    34    C    3  S      Ryd( 4S)     0.00005
    35    C    3  px     Val( 2p)     0.84286
    36    C    3  px     Ryd( 3p)     0.00277
    37    C    3  py     Val( 2p)     0.98935
    38    C    3  py     Ryd( 3p)     0.00318
    39    C    3  pz     Val( 2p)     1.23480
    40    C    3  pz     Ryd( 3p)     0.00229
    41    C    3  dxy    Ryd( 3d)     0.00178
    42    C    3  dxz    Ryd( 3d)     0.00082
    43    C    3  dyz    Ryd( 3d)     0.00172
    44    C    3  dx2y2  Ryd( 3d)     0.00116
    45    C    3  dz2    Ryd( 3d)     0.00106

    46    O    4  S      Cor( 1S)     1.99973
    47    O    4  S      Val( 2S)     1.59172
    48    O    4  S      Ryd( 3S)     0.00103
    49    O    4  S      Ryd( 4S)     0.00009
    50    O    4  px     Val( 2p)     1.39499
    51    O    4  px     Ryd( 3p)     0.00083
    52    O    4  py     Val( 2p)     1.72960
    53    O    4  py     Ryd( 3p)     0.00246
    54    O    4  pz     Val( 2p)     1.73327
    55    O    4  pz     Ryd( 3p)     0.00232
    56    O    4  dxy    Ryd( 3d)     0.00128
    57    O    4  dxz    Ryd( 3d)     0.00049
    58    O    4  dyz    Ryd( 3d)     0.00140
    59    O    4  dx2y2  Ryd( 3d)     0.00128
    60    O    4  dz2    Ryd( 3d)     0.00077

    61    C    5  S      Cor( 1S)     1.99880
    62    C    5  S      Val( 2S)     0.84063
    63    C    5  S      Ryd( 3S)     0.00159
    64    C    5  S      Ryd( 4S)     0.00014
    65    C    5  px     Val( 2p)     0.77518
    66    C    5  px     Ryd( 3p)     0.00570
    67    C    5  py     Val( 2p)     1.05713
    68    C    5  py     Ryd( 3p)     0.00695
    69    C    5  pz     Val( 2p)     0.93604
    70    C    5  pz     Ryd( 3p)     0.00120
    71    C    5  dxy    Ryd( 3d)     0.00164
    72    C    5  dxz    Ryd( 3d)     0.00176
    73    C    5  dyz    Ryd( 3d)     0.00127
    74    C    5  dx2y2  Ryd( 3d)     0.00150
    75    C    5  dz2    Ryd( 3d)     0.00053

    76    C    6  S      Cor( 1S)     1.99905
    77    C    6  S      Val( 2S)     0.95068
    78    C    6  S      Ryd( 3S)     0.00069
    79    C    6  S      Ryd( 4S)     0.00005
    80    C    6  px     Val( 2p)     1.14785
    81    C    6  px     Ryd( 3p)     0.00371
    82    C    6  py     Val( 2p)     1.11288
    83    C    6  py     Ryd( 3p)     0.00420
    84    C    6  pz     Val( 2p)     1.15831
    85    C    6  pz     Ryd( 3p)     0.00339
    86    C    6  dxy    Ryd( 3d)     0.00071
    87    C    6  dxz    Ryd( 3d)     0.00056
    88    C    6  dyz    Ryd( 3d)     0.00037
    89    C    6  dx2y2  Ryd( 3d)     0.00060
    90    C    6  dz2    Ryd( 3d)     0.00046

    91    C    7  S      Cor( 1S)     1.99907
    92    C    7  S      Val( 2S)     0.94398
    93    C    7  S      Ryd( 3S)     0.00075
    94    C    7  S      Ryd( 4S)     0.00005
    95    C    7  px     Val( 2p)     1.05880
    96    C    7  px     Ryd( 3p)     0.00428
    97    C    7  py     Val( 2p)     1.17597
    98    C    7  py     Ryd( 3p)     0.00492
    99    C    7  pz     Val( 2p)     1.01395
   100    C    7  pz     Ryd( 3p)     0.00328
   101    C    7  dxy    Ryd( 3d)     0.00068
   102    C    7  dxz    Ryd( 3d)     0.00074
   103    C    7  dyz    Ryd( 3d)     0.00032
   104    C    7  dx2y2  Ryd( 3d)     0.00078
   105    C    7  dz2    Ryd( 3d)     0.00042

   106    C    8  S      Cor( 1S)     1.99902
   107    C    8  S      Val( 2S)     0.87171
   108    C    8  S      Ryd( 3S)     0.00047
   109    C    8  S      Ryd( 4S)     0.00006
   110    C    8  px     Val( 2p)     1.09767
   111    C    8  px     Ryd( 3p)     0.00486
   112    C    8  py     Val( 2p)     1.07526
   113    C    8  py     Ryd( 3p)     0.00539
   114    C    8  pz     Val( 2p)     0.98825
   115    C    8  pz     Ryd( 3p)     0.00098
   116    C    8  dxy    Ryd( 3d)     0.00070
   117    C    8  dxz    Ryd( 3d)     0.00096
   118    C    8  dyz    Ryd( 3d)     0.00053
   119    C    8  dx2y2  Ryd( 3d)     0.00073
   120    C    8  dz2    Ryd( 3d)     0.00035

   121    C    9  S      Cor( 1S)     1.99903
   122    C    9  S      Val( 2S)     0.87121
   123    C    9  S      Ryd( 3S)     0.00050
   124    C    9  S      Ryd( 4S)     0.00007
   125    C    9  px     Val( 2p)     1.08683
   126    C    9  px     Ryd( 3p)     0.00496
   127    C    9  py     Val( 2p)     1.08499
   128    C    9  py     Ryd( 3p)     0.00562
   129    C    9  pz     Val( 2p)     0.99952
   130    C    9  pz     Ryd( 3p)     0.00085
   131    C    9  dxy    Ryd( 3d)     0.00065
   132    C    9  dxz    Ryd( 3d)     0.00090
   133    C    9  dyz    Ryd( 3d)     0.00061
   134    C    9  dx2y2  Ryd( 3d)     0.00076
   135    C    9  dz2    Ryd( 3d)     0.00035

   136    C   10  S      Cor( 1S)     1.99900
   137    C   10  S      Val( 2S)     0.95448
   138    C   10  S      Ryd( 3S)     0.00090
   139    C   10  S      Ryd( 4S)     0.00006
   140    C   10  px     Val( 2p)     1.06057
   141    C   10  px     Ryd( 3p)     0.00458
   142    C   10  py     Val( 2p)     1.18100
   143    C   10  py     Ryd( 3p)     0.00420
   144    C   10  pz     Val( 2p)     1.02147
   145    C   10  pz     Ryd( 3p)     0.00341
   146    C   10  dxy    Ryd( 3d)     0.00080
   147    C   10  dxz    Ryd( 3d)     0.00055
   148    C   10  dyz    Ryd( 3d)     0.00043
   149    C   10  dx2y2  Ryd( 3d)     0.00062
   150    C   10  dz2    Ryd( 3d)     0.00044

   151    C   11  S      Cor( 1S)     1.99906
   152    C   11  S      Val( 2S)     0.94562
   153    C   11  S      Ryd( 3S)     0.00064
   154    C   11  S      Ryd( 4S)     0.00004
   155    C   11  px     Val( 2p)     1.06517
   156    C   11  px     Ryd( 3p)     0.00420
   157    C   11  py     Val( 2p)     1.16794
   158    C   11  py     Ryd( 3p)     0.00458
   159    C   11  pz     Val( 2p)     1.03992
   160    C   11  pz     Ryd( 3p)     0.00323
   161    C   11  dxy    Ryd( 3d)     0.00071
   162    C   11  dxz    Ryd( 3d)     0.00068
   163    C   11  dyz    Ryd( 3d)     0.00030
   164    C   11  dx2y2  Ryd( 3d)     0.00075
   165    C   11  dz2    Ryd( 3d)     0.00041

   166    C   12  S      Cor( 1S)     1.99912
   167    C   12  S      Val( 2S)     0.95635
   168    C   12  S      Ryd( 3S)     0.00061
   169    C   12  S      Ryd( 4S)     0.00003
   170    C   12  px     Val( 2p)     1.13370
   171    C   12  px     Ryd( 3p)     0.00497
   172    C   12  py     Val( 2p)     1.11446
   173    C   12  py     Ryd( 3p)     0.00485
   174    C   12  pz     Val( 2p)     1.07366
   175    C   12  pz     Ryd( 3p)     0.00292
   176    C   12  dxy    Ryd( 3d)     0.00083
   177    C   12  dxz    Ryd( 3d)     0.00058
   178    C   12  dyz    Ryd( 3d)     0.00038
   179    C   12  dx2y2  Ryd( 3d)     0.00061
   180    C   12  dz2    Ryd( 3d)     0.00044

   181    C   13  S      Cor( 1S)     1.99910
   182    C   13  S      Val( 2S)     0.96732
   183    C   13  S      Ryd( 3S)     0.00056
   184    C   13  S      Ryd( 4S)     0.00004
   185    C   13  px     Val( 2p)     1.18265
   186    C   13  px     Ryd( 3p)     0.00493
   187    C   13  py     Val( 2p)     1.06869
   188    C   13  py     Ryd( 3p)     0.00453
   189    C   13  pz     Val( 2p)     0.94067
   190    C   13  pz     Ryd( 3p)     0.00135
   191    C   13  dxy    Ryd( 3d)     0.00074
   192    C   13  dxz    Ryd( 3d)     0.00040
   193    C   13  dyz    Ryd( 3d)     0.00082
   194    C   13  dx2y2  Ryd( 3d)     0.00081
   195    C   13  dz2    Ryd( 3d)     0.00045

   196    C   14  S      Cor( 1S)     1.99906
   197    C   14  S      Val( 2S)     0.94771
   198    C   14  S      Ryd( 3S)     0.00068
   199    C   14  S      Ryd( 4S)     0.00005
   200    C   14  px     Val( 2p)     1.05325
   201    C   14  px     Ryd( 3p)     0.00428
   202    C   14  py     Val( 2p)     1.18439
   203    C   14  py     Ryd( 3p)     0.00461
   204    C   14  pz     Val( 2p)     1.05673
   205    C   14  pz     Ryd( 3p)     0.00319
   206    C   14  dxy    Ryd( 3d)     0.00065
   207    C   14  dxz    Ryd( 3d)     0.00046
   208    C   14  dyz    Ryd( 3d)     0.00039
   209    C   14  dx2y2  Ryd( 3d)     0.00082
   210    C   14  dz2    Ryd( 3d)     0.00041

   211    C   15  S      Cor( 1S)     1.99943
   212    C   15  S      Val( 2S)     1.09881
   213    C   15  S      Ryd( 3S)     0.00052
   214    C   15  S      Ryd( 4S)     0.00002
   215    C   15  px     Val( 2p)     1.24932
   216    C   15  px     Ryd( 3p)     0.00252
   217    C   15  py     Val( 2p)     1.17640
   218    C   15  py     Ryd( 3p)     0.00212
   219    C   15  pz     Val( 2p)     1.14735
   220    C   15  pz     Ryd( 3p)     0.00106
   221    C   15  dxy    Ryd( 3d)     0.00117
   222    C   15  dxz    Ryd( 3d)     0.00013
   223    C   15  dyz    Ryd( 3d)     0.00075
   224    C   15  dx2y2  Ryd( 3d)     0.00027
   225    C   15  dz2    Ryd( 3d)     0.00097

   226    H   16  S      Val( 1S)     0.76647
   227    H   16  S      Ryd( 2S)     0.00090

   228    H   17  S      Val( 1S)     0.77158
   229    H   17  S      Ryd( 2S)     0.00122

   230    H   18  S      Val( 1S)     0.75834
   231    H   18  S      Ryd( 2S)     0.00076

   232    H   19  S      Val( 1S)     0.74979
   233    H   19  S      Ryd( 2S)     0.00244

   234    H   20  S      Val( 1S)     0.77822
   235    H   20  S      Ryd( 2S)     0.00260

   236    H   21  S      Val( 1S)     0.77277
   237    H   21  S      Ryd( 2S)     0.00223

   238    H   22  S      Val( 1S)     0.76674
   239    H   22  S      Ryd( 2S)     0.00081

   240    H   23  S      Val( 1S)     0.76728
   241    H   23  S      Ryd( 2S)     0.00114

   242    H   24  S      Val( 1S)     0.75669
   243    H   24  S      Ryd( 2S)     0.00167

   244    H   25  S      Val( 1S)     0.77288
   245    H   25  S      Ryd( 2S)     0.00114

   246    H   26  S      Val( 1S)     0.76890
   247    H   26  S      Ryd( 2S)     0.00081

   248    H   27  S      Val( 1S)     0.76752
   249    H   27  S      Ryd( 2S)     0.00087

   250    H   28  S      Val( 1S)     0.77122
   251    H   28  S      Ryd( 2S)     0.00114

   252    H   29  S      Val( 1S)     0.77459
   253    H   29  S      Ryd( 2S)     0.00119

   254    H   30  S      Val( 1S)     0.75440
   255    H   30  S      Ryd( 2S)     0.00122

   256    H   31  S      Val( 1S)     0.76460
   257    H   31  S      Ryd( 2S)     0.00078

 WARNING:  1 low occupancy (<1.9990e) core orbital  found on  C    5


 Summary of Natural Population Analysis:                  
                                                          
                                       Natural Population 
                Natural  -----------------------------------------------
    Atom  No    Charge         Core      Valence    Rydberg      Total
 -----------------------------------------------------------------------
      C    1   -0.67920      1.99942     4.67097    0.00880     6.67920
      C    2   -0.27353      1.99924     4.26171    0.01259     6.27353
      C    3   -0.10792      1.99917     4.09136    0.01739     6.10792
      O    4   -0.46126      1.99973     6.44958    0.01195     8.46126
      C    5    0.36995      1.99880     3.60898    0.02228     5.63005
      C    6   -0.38351      1.99905     4.36973    0.01473     6.38351
      C    7   -0.20799      1.99907     4.19270    0.01622     6.20799
      C    8   -0.04692      1.99902     4.03288    0.01501     6.04692
      C    9   -0.05685      1.99903     4.04255    0.01527     6.05685
      C   10   -0.23251      1.99900     4.21752    0.01599     6.23251
      C   11   -0.23328      1.99906     4.21866    0.01556     6.23328
      C   12   -0.29351      1.99912     4.27817    0.01622     6.29351
      C   13   -0.17306      1.99910     4.15934    0.01462     6.17306
      C   14   -0.25667      1.99906     4.24207    0.01553     6.25667
      C   15   -0.68082      1.99943     4.67189    0.00951     6.68082
      H   16    0.23263      0.00000     0.76647    0.00090     0.76737
      H   17    0.22720      0.00000     0.77158    0.00122     0.77280
      H   18    0.24090      0.00000     0.75834    0.00076     0.75910
      H   19    0.24776      0.00000     0.74979    0.00244     0.75224
      H   20    0.21918      0.00000     0.77822    0.00260     0.78082
      H   21    0.22500      0.00000     0.77277    0.00223     0.77500
      H   22    0.23245      0.00000     0.76674    0.00081     0.76755
      H   23    0.23158      0.00000     0.76728    0.00114     0.76842
      H   24    0.24164      0.00000     0.75669    0.00167     0.75836
      H   25    0.22598      0.00000     0.77288    0.00114     0.77402
      H   26    0.23029      0.00000     0.76890    0.00081     0.76971
      H   27    0.23161      0.00000     0.76752    0.00087     0.76839
      H   28    0.22764      0.00000     0.77122    0.00114     0.77236
      H   29    0.22422      0.00000     0.77459    0.00119     0.77578
      H   30    0.24438      0.00000     0.75440    0.00122     0.75562
      H   31    0.23463      0.00000     0.76460    0.00078     0.76537
 =======================================================================
   * Total *   -0.00000     29.98731    77.77009    0.24260   108.00000

                                 Natural Population      
 --------------------------------------------------------
   Core                      29.98731 ( 99.9577% of  30)
   Valence                   77.77009 ( 99.7052% of  78)
   Natural Minimal Basis    107.75740 ( 99.7754% of 108)
   Natural Rydberg Basis      0.24260 (  0.2246% of 108)
 --------------------------------------------------------

    Atom  No          Natural Electron Configuration
 ----------------------------------------------------------------------------
      C    1      [core]2S( 1.10)2p( 3.57)3p( 0.01)
      C    2      [core]2S( 0.98)2p( 3.28)3p( 0.01)
      C    3      [core]2S( 1.02)2p( 3.07)3p( 0.01)3d( 0.01)
      O    4      [core]2S( 1.59)2p( 4.86)3p( 0.01)3d( 0.01)
      C    5      [core]2S( 0.84)2p( 2.77)3p( 0.01)3d( 0.01)
      C    6      [core]2S( 0.95)2p( 3.42)3p( 0.01)
      C    7      [core]2S( 0.94)2p( 3.25)3p( 0.01)
      C    8      [core]2S( 0.87)2p( 3.16)3p( 0.01)
      C    9      [core]2S( 0.87)2p( 3.17)3p( 0.01)
      C   10      [core]2S( 0.95)2p( 3.26)3p( 0.01)
      C   11      [core]2S( 0.95)2p( 3.27)3p( 0.01)
      C   12      [core]2S( 0.96)2p( 3.32)3p( 0.01)
      C   13      [core]2S( 0.97)2p( 3.19)3p( 0.01)
      C   14      [core]2S( 0.95)2p( 3.29)3p( 0.01)
      C   15      [core]2S( 1.10)2p( 3.57)3p( 0.01)
      H   16            1S( 0.77)
      H   17            1S( 0.77)
      H   18            1S( 0.76)
      H   19            1S( 0.75)
      H   20            1S( 0.78)
      H   21            1S( 0.77)
      H   22            1S( 0.77)
      H   23            1S( 0.77)
      H   24            1S( 0.76)
      H   25            1S( 0.77)
      H   26            1S( 0.77)
      H   27            1S( 0.77)
      H   28            1S( 0.77)
      H   29            1S( 0.77)
      H   30            1S( 0.75)
      H   31            1S( 0.76)


 NBO analysis skipped by request.
 Leave Link  607 at Thu Sep 30 13:17:22 2021, MaxMem= 1342177280 cpu:      22.2
 (Enter /sw/target/amd/app/gaussian/Gaussian09RevA.02_gcc-4.9.2/g09/l9999.exe)
 1\1\GINC-HERMITE\SP\RTD-B3LYP-FC\6-31G(d)\C14H16O1\JSCHLEINITZ\30-Sep-
 2021\0\\#p TD(NStates=10, Root=1) b3lyp/6-31G* volume pop=NPA density=
 current Geom=AllCheck Guess=Read\\CC(COc1ccc2c(c1)cccc2)C_conf_0\\0,1\
 C,0,3.78566207,-0.033005588,-0.4298514834\C,0,2.9344311722,1.117619341
 5,0.1258502535\C,0,3.5117612232,1.5894002003,1.4609441773\O,0,2.628327
 4496,2.5633818949,2.0126134547\C,0,2.934215734,3.1470647935,3.20949863
 62\C,0,4.0986269998,2.837597222,3.9616352637\C,0,4.3283801299,3.472131
 3076,5.16330491\C,0,3.4273631377,4.4364146763,5.6791932711\C,0,2.25286
 09282,4.7458140806,4.9153009371\C,0,2.0344798133,4.0846320259,3.684571
 3306\C,0,1.3437694077,5.7137860327,5.4291724213\C,0,1.5837630123,6.339
 1382137,6.6305843157\C,0,2.7454545315,6.0319693116,7.3843792316\C,0,3.
 6443485775,5.1016495316,6.9162824994\C,0,2.818655009,2.2720813139,-0.8
 778103436\H,0,3.8380087821,-0.8754327276,0.2703899657\H,0,4.8120789492
 ,0.2972764243,-0.6360611292\H,0,3.3651021577,-0.4060414338,-1.37005211
 29\H,0,1.9250582407,0.7355686699,0.3334640184\H,0,4.5107495583,2.02733
 25399,1.3099794022\H,0,3.6139466591,0.7418340965,2.1544882603\H,0,4.80
 95326145,2.1045761284,3.5983958282\H,0,5.2219624525,3.2307928197,5.734
 4560522\H,0,1.1498907403,4.3066161693,3.0945435244\H,0,0.4523602322,5.
 9505366041,4.8530304405\H,0,0.8793891666,7.075485779,7.0088172784\H,0,
 2.9210362944,6.5346370944,8.3315450966\H,0,4.5377034426,4.8609568471,7
 .4884631346\H,0,3.8098309423,2.6744158191,-1.1259463602\H,0,2.21469589
 68,3.0875750241,-0.4702097331\H,0,2.3541418167,1.9319288505,-1.8104296
 813\\Version=AM64L-G09RevA.02\State=1-A\HF=-618.3617953\RMSD=8.642e-09
 \Dipole=0.3286211,-0.8749749,-0.9685224\Quadrupole=-0.5999704,-0.80544
 01,1.4054105,-2.4921751,1.3125685,3.9077248\PG=C01 [X(C14H16O1)]\\@


 IF YOU'RE NOT PART OF THE SOLUTION,
 THEN YOU'RE PART OF THE PRECIPITATE.
 Job cpu time:  0 days  3 hours 59 minutes 16.8 seconds.
 File lengths (MBytes):  RWF=    217 Int=      0 D2E=      0 Chk=     30 Scr=      1
 Normal termination of Gaussian 09 at Thu Sep 30 13:17:28 2021.
