 Entering Gaussian System, Link 0=g09
 Input=C15H26N2_bd68_conf_0.com
 Output=C15H26N2_bd68_conf_0.log
 Initial command:
 /sw/target/amd/app/gaussian/Gaussian09RevA.02_gcc-4.9.2/g09/l1.exe /home/jschleinitz/gaussian/Gau-2053928.inp -scrdir=/home/jschleinitz/gaussian/
 Entering Link 1 = /sw/target/amd/app/gaussian/Gaussian09RevA.02_gcc-4.9.2/g09/l1.exe PID=   2053930.
  
 Copyright (c) 1988,1990,1992,1993,1995,1998,2003,2009, Gaussian, Inc.
                  All Rights Reserved.
  
 This is part of the Gaussian(R) 09 program.  It is based on
 the Gaussian(R) 03 system (copyright 2003, Gaussian, Inc.),
 the Gaussian(R) 98 system (copyright 1998, Gaussian, Inc.),
 the Gaussian(R) 94 system (copyright 1995, Gaussian, Inc.),
 the Gaussian 92(TM) system (copyright 1992, Gaussian, Inc.),
 the Gaussian 90(TM) system (copyright 1990, Gaussian, Inc.),
 the Gaussian 88(TM) system (copyright 1988, Gaussian, Inc.),
 the Gaussian 86(TM) system (copyright 1986, Carnegie Mellon
 University), and the Gaussian 82(TM) system (copyright 1983,
 Carnegie Mellon University). Gaussian is a federally registered
 trademark of Gaussian, Inc.
  
 This software contains proprietary and confidential information,
 including trade secrets, belonging to Gaussian, Inc.
  
 This software is provided under written license and may be
 used, copied, transmitted, or stored only in accord with that
 written license.
  
 The following legend is applicable only to US Government
 contracts under FAR:
  
                    RESTRICTED RIGHTS LEGEND
  
 Use, reproduction and disclosure by the US Government is
 subject to restrictions as set forth in subparagraphs (a)
 and (c) of the Commercial Computer Software - Restricted
 Rights clause in FAR 52.227-19.
  
 Gaussian, Inc.
 340 Quinnipiac St., Bldg. 40, Wallingford CT 06492
  
  
 ---------------------------------------------------------------
 Warning -- This program may not be used in any manner that
 competes with the business of Gaussian, Inc. or will provide
 assistance to any competitor of Gaussian, Inc.  The licensee
 of this program is prohibited from giving any competitor of
 Gaussian, Inc. access to this program.  By using this program,
 the user acknowledges that Gaussian, Inc. is engaged in the
 business of creating and licensing software in the field of
 computational chemistry and represents and warrants to the
 licensee that it is not a competitor of Gaussian, Inc. and that
 it will not use this program in any manner prohibited above.
 ---------------------------------------------------------------
  

 Cite this work as:
 Gaussian 09, Revision A.02,
 M. J. Frisch, G. W. Trucks, H. B. Schlegel, G. E. Scuseria, 
 M. A. Robb, J. R. Cheeseman, G. Scalmani, V. Barone, B. Mennucci, 
 G. A. Petersson, H. Nakatsuji, M. Caricato, X. Li, H. P. Hratchian, 
 A. F. Izmaylov, J. Bloino, G. Zheng, J. L. Sonnenberg, M. Hada, 
 M. Ehara, K. Toyota, R. Fukuda, J. Hasegawa, M. Ishida, T. Nakajima, 
 Y. Honda, O. Kitao, H. Nakai, T. Vreven, J. A. Montgomery, Jr., 
 J. E. Peralta, F. Ogliaro, M. Bearpark, J. J. Heyd, E. Brothers, 
 K. N. Kudin, V. N. Staroverov, R. Kobayashi, J. Normand, 
 K. Raghavachari, A. Rendell, J. C. Burant, S. S. Iyengar, J. Tomasi, 
 M. Cossi, N. Rega, J. M. Millam, M. Klene, J. E. Knox, J. B. Cross, 
 V. Bakken, C. Adamo, J. Jaramillo, R. Gomperts, R. E. Stratmann, 
 O. Yazyev, A. J. Austin, R. Cammi, C. Pomelli, J. W. Ochterski, 
 R. L. Martin, K. Morokuma, V. G. Zakrzewski, G. A. Voth, 
 P. Salvador, J. J. Dannenberg, S. Dapprich, A. D. Daniels, 
 O. Farkas, J. B. Foresman, J. V. Ortiz, J. Cioslowski, 
 and D. J. Fox, Gaussian, Inc., Wallingford CT, 2009.
 
 ******************************************
 Gaussian 09:  AM64L-G09RevA.02 11-Jun-2009
                 1-Oct-2021 
 ******************************************
 %nproc=7
 Will use up to    7 processors via shared memory.
 %mem=14gb
 %chk=C15H26N2_bd68_conf_0.chk
 -----------------------------------
 #p opt b3lyp/6-31G* scf=(xqc,tight)
 -----------------------------------
 1/14=-1,18=20,19=15,26=3,38=1/1,3;
 2/9=110,12=2,17=6,18=5,40=1/2;
 3/5=1,6=6,7=1,11=2,16=1,25=1,30=1,71=1,74=-5/1,2,3;
 4//1;
 5/5=2,8=3,13=1,32=2,38=5/2,8;
 6/7=2,8=2,9=2,10=2,28=1/1;
 7//1,2,3,16;
 1/14=-1,18=20,19=15/3(2);
 2/9=110/2;
 99//99;
 2/9=110/2;
 3/5=1,6=6,7=1,11=2,16=1,25=1,30=1,71=1,74=-5/1,2,3;
 4/5=5,16=3/1;
 5/5=2,8=3,13=1,32=2,38=5/2,8;
 7//1,2,3,16;
 1/14=-1,18=20,19=15/3(-5);
 2/9=110/2;
 6/7=2,8=2,9=2,10=2,19=2,28=1/1;
 99/9=1/99;
 Leave Link    1 at Fri Oct  1 18:35:29 2021, MaxMem= 1879048192 cpu:       0.1
 (Enter /sw/target/amd/app/gaussian/Gaussian09RevA.02_gcc-4.9.2/g09/l101.exe)
 -----------------------------------
 C1CCC(CC1)N1C=CN(C1)C1CCCCC1_conf_0
 -----------------------------------
 Symbolic Z-matrix:
 Charge =  0 Multiplicity = 1
 C                    -1.03778   1.15666  -0.57207 
 C                    -0.9875   -0.36631  -0.54144 
 C                     0.41371  -0.8759   -0.86409 
 C                     1.49226  -0.25978   0.04223 
 C                     1.38656   1.27347   0.11594 
 C                    -0.03422   1.75167   0.40901 
 N                     2.82314  -0.66892  -0.40049 
 C                     3.93755  -0.80322   0.40895 
 C                     5.05025  -0.76418  -0.3367 
 N                     4.71945  -0.6003   -1.67495 
 C                     3.25543  -0.48194  -1.7971 
 C                     5.55408   0.00815  -2.70747 
 C                     6.85397  -0.78619  -2.89858 
 C                     7.78483  -0.11963  -3.90899 
 C                     8.06712   1.33191  -3.5343 
 C                     6.77507   2.12874  -3.39101 
 C                     5.82945   1.4848   -2.38089 
 H                    -2.04847   1.50001  -0.32568 
 H                    -0.81685   1.5125   -1.58629 
 H                    -1.69921  -0.77241  -1.269 
 H                    -1.29663  -0.72711   0.44666 
 H                     0.62173  -0.64888  -1.91632 
 H                     0.43684  -1.96891  -0.77298 
 H                     1.32703  -0.65335   1.05526 
 H                     1.71436   1.72696  -0.82669 
 H                     2.0634    1.65618   0.88999 
 H                    -0.07123   2.84582   0.35322 
 H                    -0.31348   1.47431   1.43268 
 H                     3.85558  -0.87998   1.48332 
 H                     6.07624  -0.79573  -0.00621 
 H                     2.86463  -1.27893  -2.43764 
 H                     2.96576   0.49795  -2.18816 
 H                     5.00889  -0.03111  -3.66169 
 H                     6.62092  -1.80491  -3.23184 
 H                     7.3885   -0.88594  -1.94635 
 H                     7.33322  -0.15959  -4.90777 
 H                     8.72748  -0.67588  -3.96153 
 H                     8.70366   1.79418  -4.29693 
 H                     8.62376   1.36463  -2.58949 
 H                     6.27746   2.1994   -4.3659 
 H                     7.00621   3.15242  -3.0753 
 H                     4.88787   2.04709  -2.35856 
 H                     6.26692   1.57643  -1.37868 
 
 NAtoms=     43 NQM=     43 NQMF=      0 NMic=      0 NMicF=      0 NTot=     43.
                    Isotopes and Nuclear Properties:
 (Nuclear quadrupole moments (NQMom) in fm**2, nuclear magnetic moments (NMagM)
  in nuclear magnetons)

  Atom         1           2           3           4           5           6           7           8           9          10
 IAtWgt=          12          12          12          12          12          12          14          12          12          14
 AtmWgt=  12.0000000  12.0000000  12.0000000  12.0000000  12.0000000  12.0000000  14.0030740  12.0000000  12.0000000  14.0030740
 NucSpn=           0           0           0           0           0           0           2           0           0           2
 AtZEff=   0.0000000   0.0000000   0.0000000   0.0000000   0.0000000   0.0000000   0.0000000   0.0000000   0.0000000   0.0000000
 NQMom=    0.0000000   0.0000000   0.0000000   0.0000000   0.0000000   0.0000000   2.0440000   0.0000000   0.0000000   2.0440000
 NMagM=    0.0000000   0.0000000   0.0000000   0.0000000   0.0000000   0.0000000   0.4037610   0.0000000   0.0000000   0.4037610

  Atom        11          12          13          14          15          16          17          18          19          20
 IAtWgt=          12          12          12          12          12          12          12           1           1           1
 AtmWgt=  12.0000000  12.0000000  12.0000000  12.0000000  12.0000000  12.0000000  12.0000000   1.0078250   1.0078250   1.0078250
 NucSpn=           0           0           0           0           0           0           0           1           1           1
 AtZEff=   0.0000000   0.0000000   0.0000000   0.0000000   0.0000000   0.0000000   0.0000000   0.0000000   0.0000000   0.0000000
 NQMom=    0.0000000   0.0000000   0.0000000   0.0000000   0.0000000   0.0000000   0.0000000   0.0000000   0.0000000   0.0000000
 NMagM=    0.0000000   0.0000000   0.0000000   0.0000000   0.0000000   0.0000000   0.0000000   2.7928460   2.7928460   2.7928460

  Atom        21          22          23          24          25          26          27          28          29          30
 IAtWgt=           1           1           1           1           1           1           1           1           1           1
 AtmWgt=   1.0078250   1.0078250   1.0078250   1.0078250   1.0078250   1.0078250   1.0078250   1.0078250   1.0078250   1.0078250
 NucSpn=           1           1           1           1           1           1           1           1           1           1
 AtZEff=   0.0000000   0.0000000   0.0000000   0.0000000   0.0000000   0.0000000   0.0000000   0.0000000   0.0000000   0.0000000
 NQMom=    0.0000000   0.0000000   0.0000000   0.0000000   0.0000000   0.0000000   0.0000000   0.0000000   0.0000000   0.0000000
 NMagM=    2.7928460   2.7928460   2.7928460   2.7928460   2.7928460   2.7928460   2.7928460   2.7928460   2.7928460   2.7928460

  Atom        31          32          33          34          35          36          37          38          39          40
 IAtWgt=           1           1           1           1           1           1           1           1           1           1
 AtmWgt=   1.0078250   1.0078250   1.0078250   1.0078250   1.0078250   1.0078250   1.0078250   1.0078250   1.0078250   1.0078250
 NucSpn=           1           1           1           1           1           1           1           1           1           1
 AtZEff=   0.0000000   0.0000000   0.0000000   0.0000000   0.0000000   0.0000000   0.0000000   0.0000000   0.0000000   0.0000000
 NQMom=    0.0000000   0.0000000   0.0000000   0.0000000   0.0000000   0.0000000   0.0000000   0.0000000   0.0000000   0.0000000
 NMagM=    2.7928460   2.7928460   2.7928460   2.7928460   2.7928460   2.7928460   2.7928460   2.7928460   2.7928460   2.7928460

  Atom        41          42          43
 IAtWgt=           1           1           1
 AtmWgt=   1.0078250   1.0078250   1.0078250
 NucSpn=           1           1           1
 AtZEff=   0.0000000   0.0000000   0.0000000
 NQMom=    0.0000000   0.0000000   0.0000000
 NMagM=    2.7928460   2.7928460   2.7928460
 Leave Link  101 at Fri Oct  1 18:35:29 2021, MaxMem= 1879048192 cpu:       0.1
 (Enter /sw/target/amd/app/gaussian/Gaussian09RevA.02_gcc-4.9.2/g09/l103.exe)

 GradGradGradGradGradGradGradGradGradGradGradGradGradGradGradGradGradGrad
 Berny optimization.
 Initialization pass.
                           ----------------------------
                           !    Initial Parameters    !
                           ! (Angstroms and Degrees)  !
 --------------------------                            --------------------------
 ! Name  Definition              Value          Derivative Info.                !
 --------------------------------------------------------------------------------
 ! R1    R(1,2)                  1.5241         estimate D2E/DX2                !
 ! R2    R(1,6)                  1.5244         estimate D2E/DX2                !
 ! R3    R(1,18)                 1.0955         estimate D2E/DX2                !
 ! R4    R(1,19)                 1.0973         estimate D2E/DX2                !
 ! R5    R(2,3)                  1.5255         estimate D2E/DX2                !
 ! R6    R(2,20)                 1.0958         estimate D2E/DX2                !
 ! R7    R(2,21)                 1.0964         estimate D2E/DX2                !
 ! R8    R(3,4)                  1.5376         estimate D2E/DX2                !
 ! R9    R(3,22)                 1.0964         estimate D2E/DX2                !
 ! R10   R(3,23)                 1.0971         estimate D2E/DX2                !
 ! R11   R(4,5)                  1.5387         estimate D2E/DX2                !
 ! R12   R(4,7)                  1.461          estimate D2E/DX2                !
 ! R13   R(4,24)                 1.0993         estimate D2E/DX2                !
 ! R14   R(5,6)                  1.5275         estimate D2E/DX2                !
 ! R15   R(5,25)                 1.0962         estimate D2E/DX2                !
 ! R16   R(5,26)                 1.0971         estimate D2E/DX2                !
 ! R17   R(6,27)                 1.0962         estimate D2E/DX2                !
 ! R18   R(6,28)                 1.0967         estimate D2E/DX2                !
 ! R19   R(7,8)                  1.3839         estimate D2E/DX2                !
 ! R20   R(7,11)                 1.4739         estimate D2E/DX2                !
 ! R21   R(8,9)                  1.34           estimate D2E/DX2                !
 ! R22   R(8,29)                 1.0802         estimate D2E/DX2                !
 ! R23   R(9,10)                 1.3882         estimate D2E/DX2                !
 ! R24   R(9,30)                 1.0784         estimate D2E/DX2                !
 ! R25   R(10,11)                1.4739         estimate D2E/DX2                !
 ! R26   R(10,12)                1.4604         estimate D2E/DX2                !
 ! R27   R(11,31)                1.0946         estimate D2E/DX2                !
 ! R28   R(11,32)                1.0941         estimate D2E/DX2                !
 ! R29   R(12,13)                1.5353         estimate D2E/DX2                !
 ! R30   R(12,17)                1.5372         estimate D2E/DX2                !
 ! R31   R(12,33)                1.0997         estimate D2E/DX2                !
 ! R32   R(13,14)                1.527          estimate D2E/DX2                !
 ! R33   R(13,34)                1.0969         estimate D2E/DX2                !
 ! R34   R(13,35)                1.0965         estimate D2E/DX2                !
 ! R35   R(14,15)                1.5255         estimate D2E/DX2                !
 ! R36   R(14,36)                1.0969         estimate D2E/DX2                !
 ! R37   R(14,37)                1.0958         estimate D2E/DX2                !
 ! R38   R(15,16)                1.5248         estimate D2E/DX2                !
 ! R39   R(15,38)                1.0957         estimate D2E/DX2                !
 ! R40   R(15,39)                1.0971         estimate D2E/DX2                !
 ! R41   R(16,17)                1.5262         estimate D2E/DX2                !
 ! R42   R(16,40)                1.0968         estimate D2E/DX2                !
 ! R43   R(16,41)                1.0959         estimate D2E/DX2                !
 ! R44   R(17,42)                1.0969         estimate D2E/DX2                !
 ! R45   R(17,43)                1.0974         estimate D2E/DX2                !
 ! A1    A(2,1,6)              110.8179         estimate D2E/DX2                !
 ! A2    A(2,1,18)             109.8225         estimate D2E/DX2                !
 ! A3    A(2,1,19)             109.6317         estimate D2E/DX2                !
 ! A4    A(6,1,18)             109.8945         estimate D2E/DX2                !
 ! A5    A(6,1,19)             109.6173         estimate D2E/DX2                !
 ! A6    A(18,1,19)            106.9776         estimate D2E/DX2                !
 ! A7    A(1,2,3)              111.0907         estimate D2E/DX2                !
 ! A8    A(1,2,20)             109.6068         estimate D2E/DX2                !
 ! A9    A(1,2,21)             109.7332         estimate D2E/DX2                !
 ! A10   A(3,2,20)             109.4109         estimate D2E/DX2                !
 ! A11   A(3,2,21)             109.856          estimate D2E/DX2                !
 ! A12   A(20,2,21)            107.0548         estimate D2E/DX2                !
 ! A13   A(2,3,4)              112.6918         estimate D2E/DX2                !
 ! A14   A(2,3,22)             107.9443         estimate D2E/DX2                !
 ! A15   A(2,3,23)             109.5491         estimate D2E/DX2                !
 ! A16   A(4,3,22)             110.4657         estimate D2E/DX2                !
 ! A17   A(4,3,23)             109.6019         estimate D2E/DX2                !
 ! A18   A(22,3,23)            106.3805         estimate D2E/DX2                !
 ! A19   A(3,4,5)              112.2927         estimate D2E/DX2                !
 ! A20   A(3,4,7)              110.3733         estimate D2E/DX2                !
 ! A21   A(3,4,24)             107.1151         estimate D2E/DX2                !
 ! A22   A(5,4,7)              110.8635         estimate D2E/DX2                !
 ! A23   A(5,4,24)             107.5952         estimate D2E/DX2                !
 ! A24   A(7,4,24)             108.4151         estimate D2E/DX2                !
 ! A25   A(4,5,6)              112.6473         estimate D2E/DX2                !
 ! A26   A(4,5,25)             110.518          estimate D2E/DX2                !
 ! A27   A(4,5,26)             109.8165         estimate D2E/DX2                !
 ! A28   A(6,5,25)             108.2775         estimate D2E/DX2                !
 ! A29   A(6,5,26)             109.2234         estimate D2E/DX2                !
 ! A30   A(25,5,26)            106.1346         estimate D2E/DX2                !
 ! A31   A(1,6,5)              111.5105         estimate D2E/DX2                !
 ! A32   A(1,6,27)             109.5494         estimate D2E/DX2                !
 ! A33   A(1,6,28)             109.5342         estimate D2E/DX2                !
 ! A34   A(5,6,27)             109.5194         estimate D2E/DX2                !
 ! A35   A(5,6,28)             109.6792         estimate D2E/DX2                !
 ! A36   A(27,6,28)            106.9383         estimate D2E/DX2                !
 ! A37   A(4,7,8)              125.6955         estimate D2E/DX2                !
 ! A38   A(4,7,11)             121.2497         estimate D2E/DX2                !
 ! A39   A(8,7,11)             109.2908         estimate D2E/DX2                !
 ! A40   A(7,8,9)              109.8999         estimate D2E/DX2                !
 ! A41   A(7,8,29)             121.8381         estimate D2E/DX2                !
 ! A42   A(9,8,29)             128.2081         estimate D2E/DX2                !
 ! A43   A(8,9,10)             109.9981         estimate D2E/DX2                !
 ! A44   A(8,9,30)             128.2174         estimate D2E/DX2                !
 ! A45   A(10,9,30)            121.7091         estimate D2E/DX2                !
 ! A46   A(9,10,11)            109.0304         estimate D2E/DX2                !
 ! A47   A(9,10,12)            126.4792         estimate D2E/DX2                !
 ! A48   A(11,10,12)           118.3999         estimate D2E/DX2                !
 ! A49   A(7,11,10)            101.69           estimate D2E/DX2                !
 ! A50   A(7,11,31)            110.9409         estimate D2E/DX2                !
 ! A51   A(7,11,32)            112.0033         estimate D2E/DX2                !
 ! A52   A(10,11,31)           110.161          estimate D2E/DX2                !
 ! A53   A(10,11,32)           111.3792         estimate D2E/DX2                !
 ! A54   A(31,11,32)           110.3904         estimate D2E/DX2                !
 ! A55   A(10,12,13)           110.8737         estimate D2E/DX2                !
 ! A56   A(10,12,17)           110.6333         estimate D2E/DX2                !
 ! A57   A(10,12,33)           108.3767         estimate D2E/DX2                !
 ! A58   A(13,12,17)           111.8252         estimate D2E/DX2                !
 ! A59   A(13,12,33)           107.0537         estimate D2E/DX2                !
 ! A60   A(17,12,33)           107.9056         estimate D2E/DX2                !
 ! A61   A(12,13,14)           111.8785         estimate D2E/DX2                !
 ! A62   A(12,13,34)           109.7819         estimate D2E/DX2                !
 ! A63   A(12,13,35)           110.5904         estimate D2E/DX2                !
 ! A64   A(14,13,34)           109.5047         estimate D2E/DX2                !
 ! A65   A(14,13,35)           108.4915         estimate D2E/DX2                !
 ! A66   A(34,13,35)           106.4352         estimate D2E/DX2                !
 ! A67   A(13,14,15)           111.4467         estimate D2E/DX2                !
 ! A68   A(13,14,36)           109.6109         estimate D2E/DX2                !
 ! A69   A(13,14,37)           109.5445         estimate D2E/DX2                !
 ! A70   A(15,14,36)           109.5438         estimate D2E/DX2                !
 ! A71   A(15,14,37)           109.61           estimate D2E/DX2                !
 ! A72   A(36,14,37)           106.9796         estimate D2E/DX2                !
 ! A73   A(14,15,16)           111.3182         estimate D2E/DX2                !
 ! A74   A(14,15,38)           109.7549         estimate D2E/DX2                !
 ! A75   A(14,15,39)           109.5001         estimate D2E/DX2                !
 ! A76   A(16,15,38)           109.7077         estimate D2E/DX2                !
 ! A77   A(16,15,39)           109.477          estimate D2E/DX2                !
 ! A78   A(38,15,39)           106.9827         estimate D2E/DX2                !
 ! A79   A(15,16,17)           111.5145         estimate D2E/DX2                !
 ! A80   A(15,16,40)           109.5467         estimate D2E/DX2                !
 ! A81   A(15,16,41)           109.6641         estimate D2E/DX2                !
 ! A82   A(17,16,40)           109.5341         estimate D2E/DX2                !
 ! A83   A(17,16,41)           109.5202         estimate D2E/DX2                !
 ! A84   A(40,16,41)           106.9517         estimate D2E/DX2                !
 ! A85   A(12,17,16)           112.0675         estimate D2E/DX2                !
 ! A86   A(12,17,42)           110.0583         estimate D2E/DX2                !
 ! A87   A(12,17,43)           110.2215         estimate D2E/DX2                !
 ! A88   A(16,17,42)           109.2105         estimate D2E/DX2                !
 ! A89   A(16,17,43)           108.7982         estimate D2E/DX2                !
 ! A90   A(42,17,43)           106.3082         estimate D2E/DX2                !
 ! D1    D(6,1,2,3)            -57.6941         estimate D2E/DX2                !
 ! D2    D(6,1,2,20)          -178.726          estimate D2E/DX2                !
 ! D3    D(6,1,2,21)            63.9811         estimate D2E/DX2                !
 ! D4    D(18,1,2,3)          -179.298          estimate D2E/DX2                !
 ! D5    D(18,1,2,20)           59.6701         estimate D2E/DX2                !
 ! D6    D(18,1,2,21)          -57.6228         estimate D2E/DX2                !
 ! D7    D(19,1,2,3)            63.4358         estimate D2E/DX2                !
 ! D8    D(19,1,2,20)          -57.596          estimate D2E/DX2                !
 ! D9    D(19,1,2,21)         -174.889          estimate D2E/DX2                !
 ! D10   D(2,1,6,5)             57.2861         estimate D2E/DX2                !
 ! D11   D(2,1,6,27)           178.6894         estimate D2E/DX2                !
 ! D12   D(2,1,6,28)           -64.3082         estimate D2E/DX2                !
 ! D13   D(18,1,6,5)           178.8477         estimate D2E/DX2                !
 ! D14   D(18,1,6,27)          -59.749          estimate D2E/DX2                !
 ! D15   D(18,1,6,28)           57.2534         estimate D2E/DX2                !
 ! D16   D(19,1,6,5)           -63.8523         estimate D2E/DX2                !
 ! D17   D(19,1,6,27)           57.551          estimate D2E/DX2                !
 ! D18   D(19,1,6,28)          174.5534         estimate D2E/DX2                !
 ! D19   D(1,2,3,4)             54.1419         estimate D2E/DX2                !
 ! D20   D(1,2,3,22)           -68.1189         estimate D2E/DX2                !
 ! D21   D(1,2,3,23)           176.4415         estimate D2E/DX2                !
 ! D22   D(20,2,3,4)           175.2888         estimate D2E/DX2                !
 ! D23   D(20,2,3,22)           53.0281         estimate D2E/DX2                !
 ! D24   D(20,2,3,23)          -62.4115         estimate D2E/DX2                !
 ! D25   D(21,2,3,4)           -67.4616         estimate D2E/DX2                !
 ! D26   D(21,2,3,22)          170.2777         estimate D2E/DX2                !
 ! D27   D(21,2,3,23)           54.8381         estimate D2E/DX2                !
 ! D28   D(2,3,4,5)            -49.6721         estimate D2E/DX2                !
 ! D29   D(2,3,4,7)           -173.9252         estimate D2E/DX2                !
 ! D30   D(2,3,4,24)            68.2385         estimate D2E/DX2                !
 ! D31   D(22,3,4,5)            71.1578         estimate D2E/DX2                !
 ! D32   D(22,3,4,7)           -53.0953         estimate D2E/DX2                !
 ! D33   D(22,3,4,24)         -170.9316         estimate D2E/DX2                !
 ! D34   D(23,3,4,5)          -171.942          estimate D2E/DX2                !
 ! D35   D(23,3,4,7)            63.8049         estimate D2E/DX2                !
 ! D36   D(23,3,4,24)          -54.0315         estimate D2E/DX2                !
 ! D37   D(3,4,5,6)             49.0219         estimate D2E/DX2                !
 ! D38   D(3,4,5,25)           -72.2422         estimate D2E/DX2                !
 ! D39   D(3,4,5,26)           170.9979         estimate D2E/DX2                !
 ! D40   D(7,4,5,6)            173.0028         estimate D2E/DX2                !
 ! D41   D(7,4,5,25)            51.7386         estimate D2E/DX2                !
 ! D42   D(7,4,5,26)           -65.0212         estimate D2E/DX2                !
 ! D43   D(24,4,5,6)           -68.6037         estimate D2E/DX2                !
 ! D44   D(24,4,5,25)          170.1322         estimate D2E/DX2                !
 ! D45   D(24,4,5,26)           53.3723         estimate D2E/DX2                !
 ! D46   D(3,4,7,8)           -151.2693         estimate D2E/DX2                !
 ! D47   D(3,4,7,11)            52.978          estimate D2E/DX2                !
 ! D48   D(5,4,7,8)             83.6601         estimate D2E/DX2                !
 ! D49   D(5,4,7,11)           -72.0926         estimate D2E/DX2                !
 ! D50   D(24,4,7,8)           -34.2352         estimate D2E/DX2                !
 ! D51   D(24,4,7,11)          170.012          estimate D2E/DX2                !
 ! D52   D(4,5,6,1)            -53.0806         estimate D2E/DX2                !
 ! D53   D(4,5,6,27)          -174.5012         estimate D2E/DX2                !
 ! D54   D(4,5,6,28)            68.4297         estimate D2E/DX2                !
 ! D55   D(25,5,6,1)            69.4512         estimate D2E/DX2                !
 ! D56   D(25,5,6,27)          -51.9694         estimate D2E/DX2                !
 ! D57   D(25,5,6,28)         -169.0386         estimate D2E/DX2                !
 ! D58   D(26,5,6,1)          -175.3912         estimate D2E/DX2                !
 ! D59   D(26,5,6,27)           63.1881         estimate D2E/DX2                !
 ! D60   D(26,5,6,28)          -53.881          estimate D2E/DX2                !
 ! D61   D(4,7,8,9)           -160.1457         estimate D2E/DX2                !
 ! D62   D(4,7,8,29)            17.392          estimate D2E/DX2                !
 ! D63   D(11,7,8,9)            -1.9833         estimate D2E/DX2                !
 ! D64   D(11,7,8,29)          175.5544         estimate D2E/DX2                !
 ! D65   D(4,7,11,10)          162.1966         estimate D2E/DX2                !
 ! D66   D(4,7,11,31)          -80.6721         estimate D2E/DX2                !
 ! D67   D(4,7,11,32)           43.1766         estimate D2E/DX2                !
 ! D68   D(8,7,11,10)            2.8896         estimate D2E/DX2                !
 ! D69   D(8,7,11,31)          120.0209         estimate D2E/DX2                !
 ! D70   D(8,7,11,32)         -116.1304         estimate D2E/DX2                !
 ! D71   D(7,8,9,10)             0.0732         estimate D2E/DX2                !
 ! D72   D(7,8,9,30)           176.9174         estimate D2E/DX2                !
 ! D73   D(29,8,9,10)         -177.2646         estimate D2E/DX2                !
 ! D74   D(29,8,9,30)           -0.4204         estimate D2E/DX2                !
 ! D75   D(8,9,10,11)            1.8629         estimate D2E/DX2                !
 ! D76   D(8,9,10,12)          153.5958         estimate D2E/DX2                !
 ! D77   D(30,9,10,11)        -175.2228         estimate D2E/DX2                !
 ! D78   D(30,9,10,12)         -23.4899         estimate D2E/DX2                !
 ! D79   D(9,10,11,7)           -2.8376         estimate D2E/DX2                !
 ! D80   D(9,10,11,31)        -120.5326         estimate D2E/DX2                !
 ! D81   D(9,10,11,32)         116.6258         estimate D2E/DX2                !
 ! D82   D(12,10,11,7)        -157.1863         estimate D2E/DX2                !
 ! D83   D(12,10,11,31)         85.1187         estimate D2E/DX2                !
 ! D84   D(12,10,11,32)        -37.7228         estimate D2E/DX2                !
 ! D85   D(9,10,12,13)          61.8311         estimate D2E/DX2                !
 ! D86   D(9,10,12,17)         -62.832          estimate D2E/DX2                !
 ! D87   D(9,10,12,33)         179.0515         estimate D2E/DX2                !
 ! D88   D(11,10,12,13)       -148.7629         estimate D2E/DX2                !
 ! D89   D(11,10,12,17)         86.5739         estimate D2E/DX2                !
 ! D90   D(11,10,12,33)        -31.5425         estimate D2E/DX2                !
 ! D91   D(10,12,13,14)       -176.3119         estimate D2E/DX2                !
 ! D92   D(10,12,13,34)         61.8993         estimate D2E/DX2                !
 ! D93   D(10,12,13,35)        -55.2501         estimate D2E/DX2                !
 ! D94   D(17,12,13,14)        -52.3269         estimate D2E/DX2                !
 ! D95   D(17,12,13,34)       -174.1157         estimate D2E/DX2                !
 ! D96   D(17,12,13,35)         68.7349         estimate D2E/DX2                !
 ! D97   D(33,12,13,14)         65.6601         estimate D2E/DX2                !
 ! D98   D(33,12,13,34)        -56.1287         estimate D2E/DX2                !
 ! D99   D(33,12,13,35)       -173.2781         estimate D2E/DX2                !
 ! D100  D(10,12,17,16)        176.2305         estimate D2E/DX2                !
 ! D101  D(10,12,17,42)        -62.034          estimate D2E/DX2                !
 ! D102  D(10,12,17,43)         54.9065         estimate D2E/DX2                !
 ! D103  D(13,12,17,16)         52.1108         estimate D2E/DX2                !
 ! D104  D(13,12,17,42)        173.8462         estimate D2E/DX2                !
 ! D105  D(13,12,17,43)        -69.2133         estimate D2E/DX2                !
 ! D106  D(33,12,17,16)        -65.3659         estimate D2E/DX2                !
 ! D107  D(33,12,17,42)         56.3695         estimate D2E/DX2                !
 ! D108  D(33,12,17,43)        173.3101         estimate D2E/DX2                !
 ! D109  D(12,13,14,15)         54.4275         estimate D2E/DX2                !
 ! D110  D(12,13,14,36)        -67.0064         estimate D2E/DX2                !
 ! D111  D(12,13,14,37)        175.8996         estimate D2E/DX2                !
 ! D112  D(34,13,14,15)        176.3753         estimate D2E/DX2                !
 ! D113  D(34,13,14,36)         54.9415         estimate D2E/DX2                !
 ! D114  D(34,13,14,37)        -62.1525         estimate D2E/DX2                !
 ! D115  D(35,13,14,15)        -67.8422         estimate D2E/DX2                !
 ! D116  D(35,13,14,36)        170.7239         estimate D2E/DX2                !
 ! D117  D(35,13,14,37)         53.6299         estimate D2E/DX2                !
 ! D118  D(13,14,15,16)        -56.1045         estimate D2E/DX2                !
 ! D119  D(13,14,15,38)       -177.7579         estimate D2E/DX2                !
 ! D120  D(13,14,15,39)         65.0865         estimate D2E/DX2                !
 ! D121  D(36,14,15,16)         65.3683         estimate D2E/DX2                !
 ! D122  D(36,14,15,38)        -56.2851         estimate D2E/DX2                !
 ! D123  D(36,14,15,39)       -173.4407         estimate D2E/DX2                !
 ! D124  D(37,14,15,16)       -177.5385         estimate D2E/DX2                !
 ! D125  D(37,14,15,38)         60.8081         estimate D2E/DX2                !
 ! D126  D(37,14,15,39)        -56.3475         estimate D2E/DX2                !
 ! D127  D(14,15,16,17)         55.8192         estimate D2E/DX2                !
 ! D128  D(14,15,16,40)        -65.6034         estimate D2E/DX2                !
 ! D129  D(14,15,16,41)        177.3041         estimate D2E/DX2                !
 ! D130  D(38,15,16,17)        177.5001         estimate D2E/DX2                !
 ! D131  D(38,15,16,40)         56.0775         estimate D2E/DX2                !
 ! D132  D(38,15,16,41)        -61.0151         estimate D2E/DX2                !
 ! D133  D(39,15,16,17)        -65.3853         estimate D2E/DX2                !
 ! D134  D(39,15,16,40)        173.1921         estimate D2E/DX2                !
 ! D135  D(39,15,16,41)         56.0995         estimate D2E/DX2                !
 ! D136  D(15,16,17,12)        -53.9019         estimate D2E/DX2                !
 ! D137  D(15,16,17,42)       -176.1218         estimate D2E/DX2                !
 ! D138  D(15,16,17,43)         68.2377         estimate D2E/DX2                !
 ! D139  D(40,16,17,12)         67.5281         estimate D2E/DX2                !
 ! D140  D(40,16,17,42)        -54.6918         estimate D2E/DX2                !
 ! D141  D(40,16,17,43)       -170.3324         estimate D2E/DX2                !
 ! D142  D(41,16,17,12)       -175.4702         estimate D2E/DX2                !
 ! D143  D(41,16,17,42)         62.3099         estimate D2E/DX2                !
 ! D144  D(41,16,17,43)        -53.3307         estimate D2E/DX2                !
 --------------------------------------------------------------------------------
 Trust Radius=3.00D-01 FncErr=1.00D-07 GrdErr=1.00D-06
 Number of steps in this run= 258 maximum allowed number of steps= 258.
 GradGradGradGradGradGradGradGradGradGradGradGradGradGradGradGradGradGrad

 Leave Link  103 at Fri Oct  1 18:35:29 2021, MaxMem= 1879048192 cpu:       0.0
 (Enter /sw/target/amd/app/gaussian/Gaussian09RevA.02_gcc-4.9.2/g09/l202.exe)
                          Input orientation:                          
 ---------------------------------------------------------------------
 Center     Atomic      Atomic             Coordinates (Angstroms)
 Number     Number       Type             X           Y           Z
 ---------------------------------------------------------------------
      1          6           0       -1.037779    1.156655   -0.572066
      2          6           0       -0.987504   -0.366306   -0.541445
      3          6           0        0.413714   -0.875897   -0.864087
      4          6           0        1.492259   -0.259780    0.042231
      5          6           0        1.386559    1.273472    0.115942
      6          6           0       -0.034217    1.751674    0.409014
      7          7           0        2.823145   -0.668924   -0.400488
      8          6           0        3.937553   -0.803220    0.408949
      9          6           0        5.050249   -0.764178   -0.336699
     10          7           0        4.719448   -0.600297   -1.674953
     11          6           0        3.255433   -0.481938   -1.797105
     12          6           0        5.554080    0.008153   -2.707467
     13          6           0        6.853972   -0.786191   -2.898577
     14          6           0        7.784831   -0.119626   -3.908995
     15          6           0        8.067118    1.331908   -3.534297
     16          6           0        6.775068    2.128745   -3.391007
     17          6           0        5.829449    1.484800   -2.380893
     18          1           0       -2.048468    1.500011   -0.325677
     19          1           0       -0.816850    1.512497   -1.586291
     20          1           0       -1.699205   -0.772414   -1.268997
     21          1           0       -1.296634   -0.727109    0.446659
     22          1           0        0.621733   -0.648877   -1.916317
     23          1           0        0.436840   -1.968914   -0.772976
     24          1           0        1.327028   -0.653346    1.055261
     25          1           0        1.714360    1.726962   -0.826691
     26          1           0        2.063403    1.656175    0.889993
     27          1           0       -0.071233    2.845816    0.353218
     28          1           0       -0.313477    1.474307    1.432682
     29          1           0        3.855579   -0.879983    1.483320
     30          1           0        6.076236   -0.795731   -0.006209
     31          1           0        2.864634   -1.278926   -2.437644
     32          1           0        2.965763    0.497948   -2.188164
     33          1           0        5.008889   -0.031105   -3.661686
     34          1           0        6.620920   -1.804911   -3.231844
     35          1           0        7.388498   -0.885936   -1.946349
     36          1           0        7.333221   -0.159595   -4.907766
     37          1           0        8.727479   -0.675883   -3.961534
     38          1           0        8.703660    1.794176   -4.296930
     39          1           0        8.623756    1.364630   -2.589489
     40          1           0        6.277463    2.199403   -4.365903
     41          1           0        7.006207    3.152421   -3.075299
     42          1           0        4.887872    2.047093   -2.358561
     43          1           0        6.266918    1.576426   -1.378679
 ---------------------------------------------------------------------
                    Distance matrix (angstroms):
                    1          2          3          4          5
     1  C    0.000000
     2  C    1.524099   0.000000
     3  C    2.514633   1.525514   0.000000
     4  C    2.963907   2.549755   1.537619   0.000000
     5  C    2.522780   2.959257   2.554735   1.538658   0.000000
     6  C    1.524370   2.509575   2.953905   2.551589   1.527473
     7  N    4.274215   3.825244   2.462340   1.461046   2.470502
     8  C    5.436675   5.034911   3.747445   2.531654   3.302434
     9  C    6.388199   6.054311   4.667770   3.613488   4.216577
    10  N    6.119552   5.823135   4.390081   3.671434   4.222140
    11  C    4.755774   4.426349   3.016802   2.557595   3.199047
    12  C    7.023647   6.901029   5.531995   4.912334   5.190463
    13  C    8.453819   8.198849   6.754564   6.137869   6.574355
    14  C    9.518531   9.399740   8.011041   7.431574   7.686268
    15  C    9.576257   9.686448   8.401133   7.652046   7.612984
    16  C    8.362533   8.637291   7.475294   6.737971   6.485847
    17  C    7.109033   7.299384   6.099490   5.265577   5.100795
    18  H    1.095487   2.157623   3.463692   3.971016   3.470700
    19  H    1.097308   2.156554   2.782137   3.335421   2.794591
    20  H    2.155112   1.095799   2.153854   3.488203   3.952929
    21  H    2.157168   1.096399   2.159973   2.856551   3.363216
    22  H    2.796595   2.135361   1.096357   2.178331   2.900080
    23  H    3.461798   2.156551   1.097051   2.167858   3.493595
    24  H    3.393614   2.826468   2.137188   1.099284   2.144409
    25  H    2.822119   3.429753   2.909975   2.179794   1.096205
    26  H    3.464747   3.930328   3.494233   2.171587   1.097149
    27  H    2.154907   3.457991   3.945649   3.490837   2.157249
    28  H    2.155117   2.781968   3.365622   2.863755   2.159690
    29  H    5.684846   5.274371   4.166147   2.836666   3.550092
    30  H    7.398731   7.096992   5.727699   4.615456   5.127337
    31  H    4.963997   4.389466   2.940327   3.011951   3.901312
    32  H    4.367381   4.368860   3.186469   2.778495   2.899004
    33  H    6.893383   6.767939   5.445720   5.112532   5.393855
    34  H    8.631395   8.197314   6.708111   6.277752   6.934165
    35  H    8.778552   8.508888   7.058258   6.253971   6.703682
    36  H    9.518637   9.399040   8.046366   7.656981   7.915435
    37  H   10.497951  10.304065   8.874282   8.279595   8.620609
    38  H   10.448765  10.615556   9.361459   8.663220   8.560639
    39  H    9.872108   9.978324   8.683419   7.773218   7.726881
    40  H    8.306221   8.601692   7.490243   6.955388   6.698151
    41  H    8.657654   9.094024   8.036029   7.194841   6.730149
    42  H    6.252823   6.606546   5.549362   4.755593   4.356702
    43  H    7.361076   7.556574   6.367001   5.309238   5.113079
                    6          7          8          9         10
     6  C    0.000000
     7  N    3.831332   0.000000
     8  C    4.722545   1.383882   0.000000
     9  C    5.721660   2.230053   1.340003   0.000000
    10  N    5.698422   2.285812   2.234992   1.388240   0.000000
    11  C    4.547282   1.473897   2.331348   2.331053   1.473863
    12  C    6.631846   3.638488   3.603268   2.543793   1.460447
    13  C    8.051588   4.743603   4.409708   3.133229   2.467388
    14  C    9.126032   6.101612   5.823529   4.544743   3.823422
    15  C    9.019841   6.428324   6.096005   4.870289   4.289227
    16  C    7.806964   5.691032   5.575623   4.546735   3.823360
    17  C    6.499028   4.195043   4.074005   3.137480   2.465376
    18  H    2.158776   5.333150   6.455772   7.451071   7.213635
    19  H    2.156609   4.406164   5.652245   6.416196   5.926411
    20  H    3.458169   4.606156   5.881283   6.813544   6.433781
    21  H    2.781992   4.206379   5.234876   6.395151   6.380484
    22  H    3.405890   2.672892   4.052819   4.703216   4.105105
    23  H    3.932145   2.742840   3.874375   4.788034   4.585566
    24  H    2.838088   2.087538   2.693514   3.976457   4.354928
    25  H    2.141284   2.674196   3.587648   4.192139   3.894385
    26  H    2.154175   2.765616   3.129291   4.035360   4.327261
    27  H    1.096188   4.615072   5.421155   6.303778   6.240176
    28  H    1.096729   4.218097   4.930153   6.075449   6.268310
    29  H    4.817704   2.158519   1.080225   2.180164   3.286211
    30  H    6.633197   3.279350   2.178618   1.078363   2.159577
    31  H    5.068661   2.126928   3.079049   3.075037   2.117208
    32  H    4.161375   2.139560   3.063072   3.060387   2.131886
    33  H    6.721742   3.977399   4.279485   3.405091   2.086831
    34  H    8.378305   4.871359   4.632410   3.454273   2.736896
    35  H    8.222008   4.824855   4.178910   2.841339   2.697975
    36  H    9.284408   6.396543   6.341315   5.145108   4.180563
    37  H   10.087717   6.895090   6.485425   5.164228   4.615027
    38  H    9.924626   7.471920   7.183839   5.964564   5.336873
    39  H    9.170677   6.524888   5.970821   4.730417   4.465527
    40  H    7.927017   5.990336   6.106565   5.150083   4.184130
    41  H    7.979354   6.265405   6.099485   5.163860   4.612279
    42  H    5.654529   3.933688   4.084912   3.466633   2.739409
    43  H    6.552164   4.225876   3.779454   2.836271   2.687111
                   11         12         13         14         15
    11  C    0.000000
    12  C    2.520462   0.000000
    13  C    3.775619   1.535325   0.000000
    14  C    5.010668   2.536975   1.527007   0.000000
    15  C    5.427725   2.958266   2.522342   1.525463   0.000000
    16  C    4.663048   2.540659   2.957290   2.518552   1.524754
    17  C    3.291569   1.537194   2.544611   2.955131   2.522079
    18  H    5.850178   8.105388   9.544631  10.590428  10.613604
    19  H    4.539350   6.641448   8.114651   9.058018   9.096825
    20  H    4.991164   7.435633   8.707041   9.866239  10.244063
    21  H    5.080935   7.577692   8.810589  10.090281  10.381109
    22  H    2.641676   5.038418   6.310665   7.453914   7.872428
    23  H    3.347298   5.816975   6.862697   8.200455   8.760221
    24  H    3.447335   5.697690   6.796881   8.162837   8.392502
    25  H    2.862839   4.608153   6.084757   7.054155   6.916989
    26  H    3.634963   5.276602   6.577839   7.675838   7.464857
    27  H    5.173445   7.004589   8.469008   9.416902   9.145351
    28  H    5.195722   7.329302   8.674213   9.831415   9.742973
    29  H    3.358542   4.608296   5.310384   6.715223   6.914189
    30  H    3.355995   2.866299   2.995122   4.313717   4.575791
    31  H    1.094625   2.993743   4.045994   5.264712   5.923255
    32  H    1.094081   2.684951   4.155944   5.154229   5.341478
    33  H    2.598946   1.099686   2.134672   2.788342   3.350642
    34  H    3.890404   2.168022   1.096892   2.157176   3.467363
    35  H    4.155444   2.178023   1.096542   2.143896   2.810861
    36  H    5.138918   2.834572   2.158505   1.096856   2.156294
    37  H    5.887755   3.480093   2.156867   1.095795   2.156347
    38  H    6.411943   3.954254   3.469154   2.158097   1.095667
    39  H    5.732066   3.358104   2.802445   2.155901   1.097078
    40  H    4.787587   2.841702   3.376267   2.803358   2.155685
    41  H    5.376863   3.482871   3.945512   3.465198   2.156497
    42  H    3.062041   2.173211   3.490654   3.935847   3.464311
    43  H    3.671647   2.175615   2.869962   3.403403   2.819078
                   16         17         18         19         20
    16  C    0.000000
    17  C    1.526169   0.000000
    18  H    9.361962   8.141604   0.000000
    19  H    7.827769   6.693686   1.762439   0.000000
    20  H    9.205050   7.938007   2.485106   2.469827   0.000000
    21  H    9.382748   7.979264   2.474231   3.062501   1.762837
    22  H    6.910385   5.647009   3.778602   2.617246   2.412683
    23  H    7.988619   6.602557   4.290718   3.788593   2.498066
    24  H    7.562438   6.053975   4.235317   4.032975   3.817650
    25  H    5.687522   4.405467   3.802815   2.651417   4.253816
    26  H    6.383578   4.991108   4.290656   3.801116   4.971570
    27  H    7.836150   6.644228   2.486272   2.468883   4.286428
    28  H    8.599054   7.230421   2.470360   3.060889   3.777178
    29  H    6.429224   4.941710   6.617750   6.080959   6.200198
    30  H    4.527448   3.301643   8.448864   7.439032   7.877351
    31  H    5.273766   4.053582   6.026729   4.697889   4.738240
    32  H    4.314757   3.035081   5.442013   3.962287   4.921445
    33  H    2.803142   2.147491   7.954845   6.374104   7.160519
    34  H    3.939891   3.488946   9.722480   8.308638   8.610651
    35  H    3.398770   2.870514   9.867910   8.556275   9.113618
    36  H    2.801534   3.369044  10.571941   8.958333   9.757096
    37  H    3.464585   3.945321  11.579076  10.075961  10.769161
    38  H    2.156874   3.468142  11.465847   9.902879  11.134423
    39  H    2.154983   2.804658  10.910525   9.494910  10.624227
    40  H    1.096825   2.156767   9.280825   7.650318   9.058133
    41  H    1.095906   2.155904   9.606145   8.130603   9.718604
    42  H    2.152700   1.096923   7.248775   5.781526   7.247507
    43  H    2.147729   1.097364   8.382142   7.087098   8.305914
                   21         22         23         24         25
    21  H    0.000000
    22  H    3.044653   0.000000
    23  H    2.456526   1.756107   0.000000
    24  H    2.694336   3.054135   2.421901   0.000000
    25  H    4.087784   2.832972   3.910811   3.059026   0.000000
    26  H    4.143240   3.907308   4.307255   2.429701   1.753239
    27  H    3.778377   4.224201   4.970721   3.833031   2.415028
    28  H    2.604817   4.074104   4.157363   2.713044   3.046428
    29  H    5.257694   4.697734   4.238446   2.574523   4.088660
    30  H    7.387084   5.781148   5.810944   4.868466   5.105206
    31  H    5.093119   2.387330   3.023473   3.867294   3.599119
    32  H    5.158594   2.623659   3.805735   3.811921   2.220381
    33  H    7.557946   4.761837   5.744857   6.016051   4.688488
    34  H    8.796631   6.249582   6.657010   6.908739   6.506399
    35  H    9.010174   6.770982   7.132685   6.767952   6.346393
    36  H   10.171841   7.364254   8.241978   8.477962   7.196240
    37  H   10.950692   8.359830   8.976277   8.940661   8.048897
    38  H   11.351846   8.772307   9.742660   9.436685   7.803678
    39  H   10.583370   8.278873   9.024292   8.402301   7.139923
    40  H    9.438866   6.789732   8.024767   7.876167   5.794060
    41  H    9.817948   7.520280   8.642068   7.987394   5.923834
    42  H    7.335774   5.065943   6.201136   5.623715   3.538402
    43  H    8.114522   6.091728   6.850265   5.941251   4.588370
                   26         27         28         29         30
    26  H    0.000000
    27  H    2.502008   0.000000
    28  H    2.444820   1.762089   0.000000
    29  H    3.161650   5.529789   4.788139   0.000000
    30  H    4.787259   7.154119   6.931948   2.675278   0.000000
    31  H    4.508875   5.781151   5.714901   4.063876   4.057060
    32  H    3.410395   4.603743   4.981688   4.021227   4.013673
    33  H    5.678079   7.085461   7.519736   5.340581   3.884121
    34  H    7.052632   8.903193   8.977580   5.543949   3.423426
    35  H    6.547045   8.652257   8.735503   4.923838   2.343995
    36  H    8.042513   9.567465  10.066921   7.311562   5.099994
    37  H    8.566546  10.413298  10.745220   7.309138   4.763198
    38  H    8.427113   9.986419  10.688289   8.004144   5.658734
    39  H    7.431690   9.298186   9.801225   6.660448   4.222600
    40  H    6.758539   7.936870   8.808510   7.039997   5.293227
    41  H    6.511037   7.870126   8.758751   6.853302   5.086459
    42  H    4.322447   5.708277   6.461860   4.938974   3.876521
    43  H    4.777318   6.692008   7.156520   4.476555   2.747210
                   31         32         33         34         35
    31  H    0.000000
    32  H    1.797150   0.000000
    33  H    2.766435   2.574010   0.000000
    34  H    3.875191   4.444390   2.435118   0.000000
    35  H    4.567402   4.640495   3.055430   1.756755   0.000000
    36  H    5.227110   5.186838   2.640406   2.454212   3.049692
    37  H    6.087599   6.141669   3.785969   2.498949   2.428573
    38  H    6.855300   6.249045   4.169715   4.292510   3.799722
    39  H    6.338686   5.738039   4.020566   3.803941   2.646609
    40  H    5.240645   4.313335   2.660896   4.175953   4.075286
    41  H    6.098857   4.915121   3.803678   4.974746   4.210582
    42  H    3.893861   2.474548   2.455950   4.313238   3.876301
    43  H    4.566178   3.565951   3.062502   3.872077   2.764673
                   36         37         38         39         40
    36  H    0.000000
    37  H    1.762346   0.000000
    38  H    2.463421   2.492839   0.000000
    39  H    3.059927   2.461089   1.762456   0.000000
    40  H    2.640664   3.799126   2.460772   3.059017   0.000000
    41  H    3.799253   4.290000   2.493704   2.459405   1.762092
    42  H    4.165051   4.972595   4.287363   3.804723   2.446137
    43  H    4.074951   4.218815   3.808060   2.658120   3.051512
                   41         42         43
    41  H    0.000000
    42  H    2.494555   0.000000
    43  H    2.430808   1.755980   0.000000
 Stoichiometry    C15H26N2
 Framework group  C1[X(C15H26N2)]
 Deg. of freedom   123
 Full point group                 C1      NOp   1
 Largest Abelian subgroup         C1      NOp   1
 Largest concise Abelian subgroup C1      NOp   1
                         Standard orientation:                         
 ---------------------------------------------------------------------
 Center     Atomic      Atomic             Coordinates (Angstroms)
 Number     Number       Type             X           Y           Z
 ---------------------------------------------------------------------
      1          6           0       -4.615502    1.311124   -0.572457
      2          6           0       -4.616255   -0.130386   -1.067356
      3          6           0       -3.211472   -0.724055   -1.030847
      4          6           0       -2.553283   -0.605691    0.353729
      5          6           0       -2.643729    0.820939    0.922952
      6          6           0       -4.055836    1.397741    0.842808
      7          7           0       -1.164587   -1.056200    0.296957
      8          6           0       -0.453252   -1.614224    1.344688
      9          6           0        0.861791   -1.515070    1.107121
     10          7           0        1.078043   -0.884085   -0.110378
     11          6           0       -0.221715   -0.504799   -0.692650
     12          6           0        2.260830   -0.117646   -0.493123
     13          6           0        3.514747   -1.003496   -0.479460
     14          6           0        4.779050   -0.204856   -0.788427
     15          6           0        4.928035    0.988706    0.149791
     16          6           0        3.699895    1.890872    0.098396
     17          6           0        2.422624    1.115793    0.409881
     18          1           0       -5.634608    1.712350   -0.595530
     19          1           0       -4.011430    1.931882   -1.246135
     20          1           0       -5.000494   -0.166863   -2.092932
     21          1           0       -5.291657   -0.733629   -0.449279
     22          1           0       -2.607590   -0.209618   -1.787603
     23          1           0       -3.250688   -1.778582   -1.330777
     24          1           0       -3.106415   -1.270080    1.032740
     25          1           0       -1.966548    1.493440    0.383662
     26          1           0       -2.310146    0.826208    1.968146
     27          1           0       -4.043055    2.444261    1.168787
     28          1           0       -4.715519    0.856501    1.531787
     29          1           0       -0.946008   -2.015009    2.218444
     30          1           0        1.679171   -1.810751    1.745345
     31          1           0       -0.352798   -0.984774   -1.667660
     32          1           0       -0.314880    0.581235   -0.786795
     33          1           0        2.126237    0.234856   -1.526048
     34          1           0        3.405156   -1.813313   -1.211142
     35          1           0        3.637057   -1.483650    0.498751
     36          1           0        4.747943    0.146473   -1.827028
     37          1           0        5.655546   -0.856138   -0.697032
     38          1           0        5.820462    1.563681   -0.121252
     39          1           0        5.076668    0.631290    1.176311
     40          1           0        3.619714    2.345251   -0.896660
     41          1           0        3.814625    2.711210    0.815956
     42          1           0        1.558936    1.782165    0.294857
     43          1           0        2.440560    0.813884    1.464745
 ---------------------------------------------------------------------
 Rotational constants (GHZ):      1.1360851      0.1967848      0.1869117
 Leave Link  202 at Fri Oct  1 18:35:29 2021, MaxMem= 1879048192 cpu:       0.0
 (Enter /sw/target/amd/app/gaussian/Gaussian09RevA.02_gcc-4.9.2/g09/l301.exe)
 Standard basis: 6-31G(d) (6D, 7F)
 Ernie: Thresh=  0.10000D-02 Tol=  0.10000D-05 Strict=F.
 There are   307 symmetry adapted basis functions of A   symmetry.
 Integral buffers will be    131072 words long.
 Raffenetti 2 integral format.
 Two-electron integral symmetry is turned on.
   307 basis functions,   580 primitive gaussians,   307 cartesian basis functions
    65 alpha electrons       65 beta electrons
       nuclear repulsion energy      1269.5086362147 Hartrees.
 IExCor=  402 DFT=T Ex+Corr=B3LYP ExCW=0 ScaHFX=  0.200000
 ScaDFX=  0.800000  0.720000  1.000000  0.810000 ScalE2=  1.000000  1.000000
 IRadAn=      0 IRanWt=     -1 IRanGd=            0 ICorTp=0
 NAtoms=   43 NActive=   43 NUniq=   43 SFac= 7.50D-01 NAtFMM=   80 NAOKFM=F Big=F
 Leave Link  301 at Fri Oct  1 18:35:29 2021, MaxMem= 1879048192 cpu:       0.1
 (Enter /sw/target/amd/app/gaussian/Gaussian09RevA.02_gcc-4.9.2/g09/l302.exe)
 NPDir=0 NMtPBC=     1 NCelOv=     1 NCel=       1 NClECP=     1 NCelD=      1
         NCelK=      1 NCelE2=     1 NClLst=     1 CellRange=     0.0.
 One-electron integrals computed using PRISM.
 NBasis=   307 RedAO= T  NBF=   307
 NBsUse=   307 1.00D-06 NBFU=   307
 Precomputing XC quadrature grid using
 IXCGrd= 2 IRadAn=           0 IRanWt=          -1 IRanGd=           0 AccXCQ= 1.00D-10.
 NRdTot=    2737 NPtTot=      349004 NUsed=      368735 NTot=      368767
 NSgBfM=   306   306   306   306   306 NAtAll=    43    43.
 Leave Link  302 at Fri Oct  1 18:35:30 2021, MaxMem= 1879048192 cpu:       4.1
 (Enter /sw/target/amd/app/gaussian/Gaussian09RevA.02_gcc-4.9.2/g09/l303.exe)
 DipDrv:  MaxL=1.
 Leave Link  303 at Fri Oct  1 18:35:30 2021, MaxMem= 1879048192 cpu:       0.1
 (Enter /sw/target/amd/app/gaussian/Gaussian09RevA.02_gcc-4.9.2/g09/l401.exe)
 Harris functional with IExCor=  402 diagonalized for initial guess.
 ExpMin= 1.61D-01 ExpMax= 4.17D+03 ExpMxC= 6.27D+02 IAcc=1 IRadAn=         1 AccDes= 0.00D+00
 HarFok:  IExCor=  402 AccDes= 0.00D+00 IRadAn=         1 IDoV= 1
 ScaDFX=  1.000000  1.000000  1.000000  1.000000
 FoFCou: FMM=F IPFlag=           0 FMFlag=      100000 FMFlg1=           0
         NFxFlg=           0 DoJE=T BraDBF=F KetDBF=T FulRan=T
         Omega=  0.000000  0.000000  1.000000  0.000000  0.000000 ICntrl=     500 IOpCl=  0
         NMat0=    1 NMatS0=    1 NMatT0=    0 NMatD0=    1 NMtDS0=    0 NMtDT0=    0
         I1Cent=           4 NGrid=           0.
 Petite list used in FoFCou.
 Harris En= -696.844273721239    
 Initial guess orbital symmetries:
       Occupied  (A) (A) (A) (A) (A) (A) (A) (A) (A) (A) (A) (A)
                 (A) (A) (A) (A) (A) (A) (A) (A) (A) (A) (A) (A)
                 (A) (A) (A) (A) (A) (A) (A) (A) (A) (A) (A) (A)
                 (A) (A) (A) (A) (A) (A) (A) (A) (A) (A) (A) (A)
                 (A) (A) (A) (A) (A) (A) (A) (A) (A) (A) (A) (A)
                 (A) (A) (A) (A) (A)
       Virtual   (A) (A) (A) (A) (A) (A) (A) (A) (A) (A) (A) (A)
                 (A) (A) (A) (A) (A) (A) (A) (A) (A) (A) (A) (A)
                 (A) (A) (A) (A) (A) (A) (A) (A) (A) (A) (A) (A)
                 (A) (A) (A) (A) (A) (A) (A) (A) (A) (A) (A) (A)
                 (A) (A) (A) (A) (A) (A) (A) (A) (A) (A) (A) (A)
                 (A) (A) (A) (A) (A) (A) (A) (A) (A) (A) (A) (A)
                 (A) (A) (A) (A) (A) (A) (A) (A) (A) (A) (A) (A)
                 (A) (A) (A) (A) (A) (A) (A) (A) (A) (A) (A) (A)
                 (A) (A) (A) (A) (A) (A) (A) (A) (A) (A) (A) (A)
                 (A) (A) (A) (A) (A) (A) (A) (A) (A) (A) (A) (A)
                 (A) (A) (A) (A) (A) (A) (A) (A) (A) (A) (A) (A)
                 (A) (A) (A) (A) (A) (A) (A) (A) (A) (A) (A) (A)
                 (A) (A) (A) (A) (A) (A) (A) (A) (A) (A) (A) (A)
                 (A) (A) (A) (A) (A) (A) (A) (A) (A) (A) (A) (A)
                 (A) (A) (A) (A) (A) (A) (A) (A) (A) (A) (A) (A)
                 (A) (A) (A) (A) (A) (A) (A) (A) (A) (A) (A) (A)
                 (A) (A) (A) (A) (A) (A) (A) (A) (A) (A) (A) (A)
                 (A) (A) (A) (A) (A) (A) (A) (A) (A) (A) (A) (A)
                 (A) (A) (A) (A) (A) (A) (A) (A) (A) (A) (A) (A)
                 (A) (A) (A) (A) (A) (A) (A) (A) (A) (A) (A) (A)
                 (A) (A)
 The electronic state of the initial guess is 1-A.
 Leave Link  401 at Fri Oct  1 18:35:34 2021, MaxMem= 1879048192 cpu:      17.8
 (Enter /sw/target/amd/app/gaussian/Gaussian09RevA.02_gcc-4.9.2/g09/l502.exe)
 Closed shell SCF:
 Requested convergence on RMS density matrix=1.00D-08 within  64 cycles.
 Requested convergence on MAX density matrix=1.00D-06.
 Requested convergence on             energy=1.00D-06.
 No special actions if energy rises.
 Using DIIS extrapolation, IDIIS=  1040.
 Integral symmetry usage will be decided dynamically.
       368335 words used for storage of precomputed grid.
 Keep R1 ints in memory in canonical form, NReq=1132898321.
 IEnd=      661124 IEndB=      661124 NGot=  1879048192 MDV=   760857540
 LenX=   760857540 LenY=   760762850
 Symmetry not used in FoFDir.
 MinBra= 0 MaxBra= 2 Meth= 1.
 IRaf=       0 NMat=   1 IRICut=       1 DoRegI=T DoRafI=F ISym2E= 0 JSym2E=0.
 Integral accuracy reduced to 1.0D-05 until final iterations.

 Cycle   1  Pass 0  IDiag  1:
 E= -696.183408121663    
 DIIS: error= 2.89D-02 at cycle   1 NSaved=   1.
 NSaved= 1 IEnMin= 1 EnMin= -696.183408121663     IErMin= 1 ErrMin= 2.89D-02
 ErrMax= 2.89D-02 EMaxC= 1.00D-01 BMatC= 4.80D-01 BMatP= 4.80D-01
 IDIUse=3 WtCom= 7.11D-01 WtEn= 2.89D-01
 Coeff-Com:  0.100D+01
 Coeff-En:   0.100D+01
 Coeff:      0.100D+01
 Gap=     0.208 Goal=   None    Shift=    0.000
 GapD=    0.208 DampG=1.000 DampE=0.500 DampFc=0.5000 IDamp=-1.
 Damping current iteration by 5.00D-01
 RMSDP=5.86D-03 MaxDP=1.87D-01              OVMax= 1.79D-01

 Cycle   2  Pass 0  IDiag  1:
 E= -696.417439439200     Delta-E=       -0.234031317537 Rises=F Damp=T
 DIIS: error= 6.76D-03 at cycle   2 NSaved=   2.
 NSaved= 2 IEnMin= 2 EnMin= -696.417439439200     IErMin= 2 ErrMin= 6.76D-03
 ErrMax= 6.76D-03 EMaxC= 1.00D-01 BMatC= 2.71D-02 BMatP= 4.80D-01
 IDIUse=3 WtCom= 9.32D-01 WtEn= 6.76D-02
 Coeff-Com:  0.800D-01 0.920D+00
 Coeff-En:   0.133D+00 0.867D+00
 Coeff:      0.835D-01 0.916D+00
 Gap=     0.197 Goal=   None    Shift=    0.000
 RMSDP=1.16D-03 MaxDP=3.34D-02 DE=-2.34D-01 OVMax= 1.05D-01

 Cycle   3  Pass 0  IDiag  1:
 E= -696.716573729394     Delta-E=       -0.299134290194 Rises=F Damp=F
 DIIS: error= 3.80D-03 at cycle   3 NSaved=   3.
 NSaved= 3 IEnMin= 3 EnMin= -696.716573729394     IErMin= 3 ErrMin= 3.80D-03
 ErrMax= 3.80D-03 EMaxC= 1.00D-01 BMatC= 6.37D-03 BMatP= 2.71D-02
 IDIUse=3 WtCom= 9.62D-01 WtEn= 3.80D-02
 Coeff-Com: -0.740D-02 0.294D+00 0.714D+00
 Coeff-En:   0.000D+00 0.000D+00 0.100D+01
 Coeff:     -0.712D-02 0.282D+00 0.725D+00
 Gap=     0.199 Goal=   None    Shift=    0.000
 RMSDP=4.34D-04 MaxDP=1.40D-02 DE=-2.99D-01 OVMax= 2.12D-02

 Cycle   4  Pass 0  IDiag  1:
 E= -696.721385007725     Delta-E=       -0.004811278331 Rises=F Damp=F
 DIIS: error= 1.83D-03 at cycle   4 NSaved=   4.
 NSaved= 4 IEnMin= 4 EnMin= -696.721385007725     IErMin= 4 ErrMin= 1.83D-03
 ErrMax= 1.83D-03 EMaxC= 1.00D-01 BMatC= 1.31D-03 BMatP= 6.37D-03
 IDIUse=3 WtCom= 9.82D-01 WtEn= 1.83D-02
 Coeff-Com: -0.694D-02 0.701D-01 0.340D+00 0.597D+00
 Coeff-En:   0.000D+00 0.000D+00 0.107D+00 0.893D+00
 Coeff:     -0.682D-02 0.688D-01 0.335D+00 0.603D+00
 Gap=     0.196 Goal=   None    Shift=    0.000
 RMSDP=1.90D-04 MaxDP=1.12D-02 DE=-4.81D-03 OVMax= 2.00D-02

 Cycle   5  Pass 0  IDiag  1:
 E= -696.722353838985     Delta-E=       -0.000968831260 Rises=F Damp=F
 DIIS: error= 9.40D-04 at cycle   5 NSaved=   5.
 NSaved= 5 IEnMin= 5 EnMin= -696.722353838985     IErMin= 5 ErrMin= 9.40D-04
 ErrMax= 9.40D-04 EMaxC= 1.00D-01 BMatC= 3.34D-04 BMatP= 1.31D-03
 IDIUse=3 WtCom= 9.91D-01 WtEn= 9.40D-03
 Coeff-Com: -0.323D-02 0.125D-01 0.133D+00 0.379D+00 0.479D+00
 Coeff-En:   0.000D+00 0.000D+00 0.000D+00 0.200D+00 0.800D+00
 Coeff:     -0.320D-02 0.124D-01 0.132D+00 0.377D+00 0.482D+00
 Gap=     0.195 Goal=   None    Shift=    0.000
 RMSDP=8.33D-05 MaxDP=4.22D-03 DE=-9.69D-04 OVMax= 1.18D-02

 Cycle   6  Pass 0  IDiag  1:
 E= -696.722646193690     Delta-E=       -0.000292354705 Rises=F Damp=F
 DIIS: error= 2.31D-04 at cycle   6 NSaved=   6.
 NSaved= 6 IEnMin= 6 EnMin= -696.722646193690     IErMin= 6 ErrMin= 2.31D-04
 ErrMax= 2.31D-04 EMaxC= 1.00D-01 BMatC= 4.05D-05 BMatP= 3.34D-04
 IDIUse=3 WtCom= 9.98D-01 WtEn= 2.31D-03
 Coeff-Com: -0.147D-02 0.208D-02 0.584D-01 0.200D+00 0.321D+00 0.420D+00
 Coeff-En:   0.000D+00 0.000D+00 0.000D+00 0.000D+00 0.701D-01 0.930D+00
 Coeff:     -0.146D-02 0.207D-02 0.583D-01 0.200D+00 0.320D+00 0.421D+00
 Gap=     0.195 Goal=   None    Shift=    0.000
 RMSDP=2.51D-05 MaxDP=1.25D-03 DE=-2.92D-04 OVMax= 3.11D-03

 Cycle   7  Pass 0  IDiag  1:
 E= -696.722685206008     Delta-E=       -0.000039012319 Rises=F Damp=F
 DIIS: error= 2.45D-05 at cycle   7 NSaved=   7.
 NSaved= 7 IEnMin= 7 EnMin= -696.722685206008     IErMin= 7 ErrMin= 2.45D-05
 ErrMax= 2.45D-05 EMaxC= 1.00D-01 BMatC= 3.75D-07 BMatP= 4.05D-05
 IDIUse=1 WtCom= 1.00D+00 WtEn= 0.00D+00
 Coeff-Com: -0.225D-03-0.232D-03 0.114D-01 0.449D-01 0.807D-01 0.146D+00
 Coeff-Com:  0.718D+00
 Coeff:     -0.225D-03-0.232D-03 0.114D-01 0.449D-01 0.807D-01 0.146D+00
 Coeff:      0.718D+00
 Gap=     0.195 Goal=   None    Shift=    0.000
 RMSDP=3.36D-06 MaxDP=9.26D-05 DE=-3.90D-05 OVMax= 1.84D-04

 Initial convergence to 1.0D-05 achieved.  Increase integral accuracy.
 Cycle   8  Pass 1  IDiag  1:
 E= -696.722433775928     Delta-E=        0.000251430081 Rises=F Damp=F
 DIIS: error= 5.44D-05 at cycle   1 NSaved=   1.
 NSaved= 1 IEnMin= 1 EnMin= -696.722433775928     IErMin= 1 ErrMin= 5.44D-05
 ErrMax= 5.44D-05 EMaxC= 1.00D-01 BMatC= 7.54D-07 BMatP= 7.54D-07
 IDIUse=1 WtCom= 1.00D+00 WtEn= 0.00D+00
 Coeff-Com:  0.100D+01
 Coeff:      0.100D+01
 Gap=     0.195 Goal=   None    Shift=    0.000
 RMSDP=3.36D-06 MaxDP=9.26D-05 DE= 2.51D-04 OVMax= 3.34D-04

 Cycle   9  Pass 1  IDiag  1:
 E= -696.722434705831     Delta-E=       -0.000000929904 Rises=F Damp=F
 DIIS: error= 1.30D-05 at cycle   2 NSaved=   2.
 NSaved= 2 IEnMin= 2 EnMin= -696.722434705831     IErMin= 2 ErrMin= 1.30D-05
 ErrMax= 1.30D-05 EMaxC= 1.00D-01 BMatC= 1.29D-07 BMatP= 7.54D-07
 IDIUse=1 WtCom= 1.00D+00 WtEn= 0.00D+00
 Coeff-Com:  0.195D+00 0.805D+00
 Coeff:      0.195D+00 0.805D+00
 Gap=     0.195 Goal=   None    Shift=    0.000
 RMSDP=2.63D-06 MaxDP=8.69D-05 DE=-9.30D-07 OVMax= 1.25D-04

 Cycle  10  Pass 1  IDiag  1:
 E= -696.722434734650     Delta-E=       -0.000000028819 Rises=F Damp=F
 DIIS: error= 1.11D-05 at cycle   3 NSaved=   3.
 NSaved= 3 IEnMin= 3 EnMin= -696.722434734650     IErMin= 3 ErrMin= 1.11D-05
 ErrMax= 1.11D-05 EMaxC= 1.00D-01 BMatC= 1.05D-07 BMatP= 1.29D-07
 IDIUse=1 WtCom= 1.00D+00 WtEn= 0.00D+00
 Coeff-Com: -0.148D-01 0.475D+00 0.540D+00
 Coeff:     -0.148D-01 0.475D+00 0.540D+00
 Gap=     0.195 Goal=   None    Shift=    0.000
 RMSDP=1.31D-06 MaxDP=5.15D-05 DE=-2.88D-08 OVMax= 7.73D-05

 Cycle  11  Pass 1  IDiag  1:
 E= -696.722434832433     Delta-E=       -0.000000097783 Rises=F Damp=F
 DIIS: error= 2.39D-06 at cycle   4 NSaved=   4.
 NSaved= 4 IEnMin= 4 EnMin= -696.722434832433     IErMin= 4 ErrMin= 2.39D-06
 ErrMax= 2.39D-06 EMaxC= 1.00D-01 BMatC= 4.87D-09 BMatP= 1.05D-07
 IDIUse=1 WtCom= 1.00D+00 WtEn= 0.00D+00
 Coeff-Com: -0.140D-01 0.250D+00 0.311D+00 0.452D+00
 Coeff:     -0.140D-01 0.250D+00 0.311D+00 0.452D+00
 Gap=     0.195 Goal=   None    Shift=    0.000
 RMSDP=3.08D-07 MaxDP=1.54D-05 DE=-9.78D-08 OVMax= 4.00D-05

 Cycle  12  Pass 1  IDiag  1:
 E= -696.722434836501     Delta-E=       -0.000000004067 Rises=F Damp=F
 DIIS: error= 1.05D-06 at cycle   5 NSaved=   5.
 NSaved= 5 IEnMin= 5 EnMin= -696.722434836501     IErMin= 5 ErrMin= 1.05D-06
 ErrMax= 1.05D-06 EMaxC= 1.00D-01 BMatC= 5.31D-10 BMatP= 4.87D-09
 IDIUse=1 WtCom= 1.00D+00 WtEn= 0.00D+00
 Coeff-Com: -0.687D-02 0.104D+00 0.133D+00 0.280D+00 0.490D+00
 Coeff:     -0.687D-02 0.104D+00 0.133D+00 0.280D+00 0.490D+00
 Gap=     0.195 Goal=   None    Shift=    0.000
 RMSDP=1.01D-07 MaxDP=5.20D-06 DE=-4.07D-09 OVMax= 1.38D-05

 Cycle  13  Pass 1  IDiag  1:
 E= -696.722434836979     Delta-E=       -0.000000000478 Rises=F Damp=F
 DIIS: error= 3.35D-07 at cycle   6 NSaved=   6.
 NSaved= 6 IEnMin= 6 EnMin= -696.722434836979     IErMin= 6 ErrMin= 3.35D-07
 ErrMax= 3.35D-07 EMaxC= 1.00D-01 BMatC= 4.11D-11 BMatP= 5.31D-10
 IDIUse=1 WtCom= 1.00D+00 WtEn= 0.00D+00
 Coeff-Com: -0.219D-02 0.285D-01 0.377D-01 0.101D+00 0.266D+00 0.570D+00
 Coeff:     -0.219D-02 0.285D-01 0.377D-01 0.101D+00 0.266D+00 0.570D+00
 Gap=     0.195 Goal=   None    Shift=    0.000
 RMSDP=2.71D-08 MaxDP=1.58D-06 DE=-4.78D-10 OVMax= 3.19D-06

 Cycle  14  Pass 1  IDiag  1:
 E= -696.722434837052     Delta-E=       -0.000000000073 Rises=F Damp=F
 DIIS: error= 7.53D-08 at cycle   7 NSaved=   7.
 NSaved= 7 IEnMin= 7 EnMin= -696.722434837052     IErMin= 7 ErrMin= 7.53D-08
 ErrMax= 7.53D-08 EMaxC= 1.00D-01 BMatC= 4.95D-12 BMatP= 4.11D-11
 IDIUse=1 WtCom= 1.00D+00 WtEn= 0.00D+00
 Coeff-Com: -0.220D-03 0.676D-03 0.120D-02 0.126D-01 0.649D-01 0.302D+00
 Coeff-Com:  0.618D+00
 Coeff:     -0.220D-03 0.676D-03 0.120D-02 0.126D-01 0.649D-01 0.302D+00
 Coeff:      0.618D+00
 Gap=     0.195 Goal=   None    Shift=    0.000
 RMSDP=8.21D-09 MaxDP=4.67D-07 DE=-7.25D-11 OVMax= 6.31D-07

 SCF Done:  E(RB3LYP) =  -696.722434837     A.U. after   14 cycles
             Convg  =    0.8206D-08             -V/T =  2.0094
 KE= 6.902048484006D+02 PE=-4.152283825670D+03 EE= 1.495847906217D+03
 Leave Link  502 at Fri Oct  1 18:51:34 2021, MaxMem= 1879048192 cpu:     525.3
 (Enter /sw/target/amd/app/gaussian/Gaussian09RevA.02_gcc-4.9.2/g09/l508.exe)
 QCSCF skips out because SCF is already converged.
 Leave Link  508 at Fri Oct  1 18:51:39 2021, MaxMem= 1879048192 cpu:       0.0
 (Enter /sw/target/amd/app/gaussian/Gaussian09RevA.02_gcc-4.9.2/g09/l601.exe)
 Copying SCF densities to generalized density rwf, IOpCl= 0 IROHF=0.

 **********************************************************************

            Population analysis using the SCF density.

 **********************************************************************

 Orbital symmetries:
       Occupied  (A) (A) (A) (A) (A) (A) (A) (A) (A) (A) (A) (A)
                 (A) (A) (A) (A) (A) (A) (A) (A) (A) (A) (A) (A)
                 (A) (A) (A) (A) (A) (A) (A) (A) (A) (A) (A) (A)
                 (A) (A) (A) (A) (A) (A) (A) (A) (A) (A) (A) (A)
                 (A) (A) (A) (A) (A) (A) (A) (A) (A) (A) (A) (A)
                 (A) (A) (A) (A) (A)
       Virtual   (A) (A) (A) (A) (A) (A) (A) (A) (A) (A) (A) (A)
                 (A) (A) (A) (A) (A) (A) (A) (A) (A) (A) (A) (A)
                 (A) (A) (A) (A) (A) (A) (A) (A) (A) (A) (A) (A)
                 (A) (A) (A) (A) (A) (A) (A) (A) (A) (A) (A) (A)
                 (A) (A) (A) (A) (A) (A) (A) (A) (A) (A) (A) (A)
                 (A) (A) (A) (A) (A) (A) (A) (A) (A) (A) (A) (A)
                 (A) (A) (A) (A) (A) (A) (A) (A) (A) (A) (A) (A)
                 (A) (A) (A) (A) (A) (A) (A) (A) (A) (A) (A) (A)
                 (A) (A) (A) (A) (A) (A) (A) (A) (A) (A) (A) (A)
                 (A) (A) (A) (A) (A) (A) (A) (A) (A) (A) (A) (A)
                 (A) (A) (A) (A) (A) (A) (A) (A) (A) (A) (A) (A)
                 (A) (A) (A) (A) (A) (A) (A) (A) (A) (A) (A) (A)
                 (A) (A) (A) (A) (A) (A) (A) (A) (A) (A) (A) (A)
                 (A) (A) (A) (A) (A) (A) (A) (A) (A) (A) (A) (A)
                 (A) (A) (A) (A) (A) (A) (A) (A) (A) (A) (A) (A)
                 (A) (A) (A) (A) (A) (A) (A) (A) (A) (A) (A) (A)
                 (A) (A) (A) (A) (A) (A) (A) (A) (A) (A) (A) (A)
                 (A) (A) (A) (A) (A) (A) (A) (A) (A) (A) (A) (A)
                 (A) (A) (A) (A) (A) (A) (A) (A) (A) (A) (A) (A)
                 (A) (A) (A) (A) (A) (A) (A) (A) (A) (A) (A) (A)
                 (A) (A)
 The electronic state is 1-A.
 Alpha  occ. eigenvalues --  -14.31820 -14.31603 -10.23091 -10.21319 -10.21129
 Alpha  occ. eigenvalues --  -10.17641 -10.17554 -10.17477 -10.17433 -10.17402
 Alpha  occ. eigenvalues --  -10.17380 -10.17379 -10.17301 -10.17281 -10.17278
 Alpha  occ. eigenvalues --  -10.17036 -10.16931  -0.96291  -0.88243  -0.82750
 Alpha  occ. eigenvalues --   -0.81117  -0.75303  -0.73972  -0.73833  -0.72033
 Alpha  occ. eigenvalues --   -0.71400  -0.63767  -0.60915  -0.60469  -0.60322
 Alpha  occ. eigenvalues --   -0.57299  -0.56498  -0.54506  -0.53523  -0.51250
 Alpha  occ. eigenvalues --   -0.47319  -0.46352  -0.45821  -0.44265  -0.43997
 Alpha  occ. eigenvalues --   -0.43768  -0.43553  -0.43159  -0.41652  -0.40312
 Alpha  occ. eigenvalues --   -0.39288  -0.38544  -0.38077  -0.37520  -0.37307
 Alpha  occ. eigenvalues --   -0.37195  -0.36712  -0.34211  -0.34036  -0.33927
 Alpha  occ. eigenvalues --   -0.33728  -0.31774  -0.31639  -0.31161  -0.30500
 Alpha  occ. eigenvalues --   -0.30095  -0.30021  -0.28946  -0.23328  -0.12120
 Alpha virt. eigenvalues --    0.07406   0.08010   0.08784   0.09833   0.10053
 Alpha virt. eigenvalues --    0.11052   0.12559   0.12824   0.13373   0.14699
 Alpha virt. eigenvalues --    0.14916   0.15492   0.15942   0.15963   0.16823
 Alpha virt. eigenvalues --    0.17143   0.17290   0.17692   0.17935   0.18254
 Alpha virt. eigenvalues --    0.18460   0.18803   0.18966   0.19370   0.19938
 Alpha virt. eigenvalues --    0.20434   0.21240   0.22034   0.22969   0.23174
 Alpha virt. eigenvalues --    0.23971   0.24803   0.25600   0.25647   0.25945
 Alpha virt. eigenvalues --    0.26952   0.28302   0.28647   0.28985   0.29200
 Alpha virt. eigenvalues --    0.29736   0.31173   0.32518   0.33760   0.38403
 Alpha virt. eigenvalues --    0.47054   0.49355   0.51634   0.52360   0.52735
 Alpha virt. eigenvalues --    0.53433   0.53939   0.54544   0.55100   0.55247
 Alpha virt. eigenvalues --    0.56084   0.56311   0.56565   0.57093   0.57991
 Alpha virt. eigenvalues --    0.59640   0.60968   0.61331   0.62818   0.64013
 Alpha virt. eigenvalues --    0.64602   0.66079   0.67062   0.67695   0.68641
 Alpha virt. eigenvalues --    0.69473   0.70378   0.70641   0.73081   0.73312
 Alpha virt. eigenvalues --    0.74114   0.75081   0.76128   0.76684   0.77116
 Alpha virt. eigenvalues --    0.79140   0.81737   0.82938   0.83295   0.83573
 Alpha virt. eigenvalues --    0.84255   0.84969   0.85543   0.86217   0.86571
 Alpha virt. eigenvalues --    0.86857   0.87184   0.88104   0.88774   0.89328
 Alpha virt. eigenvalues --    0.90012   0.90294   0.91178   0.91398   0.92438
 Alpha virt. eigenvalues --    0.92674   0.93764   0.94337   0.94710   0.95535
 Alpha virt. eigenvalues --    0.96231   0.97032   0.97467   0.98775   0.98913
 Alpha virt. eigenvalues --    0.99650   1.01407   1.02305   1.03698   1.05516
 Alpha virt. eigenvalues --    1.06421   1.07084   1.13203   1.15516   1.16449
 Alpha virt. eigenvalues --    1.18616   1.20445   1.21738   1.23884   1.26581
 Alpha virt. eigenvalues --    1.30830   1.31273   1.33968   1.36579   1.38206
 Alpha virt. eigenvalues --    1.38674   1.39418   1.39916   1.44620   1.46708
 Alpha virt. eigenvalues --    1.48031   1.49505   1.53299   1.54929   1.59974
 Alpha virt. eigenvalues --    1.61223   1.64205   1.66652   1.69017   1.70445
 Alpha virt. eigenvalues --    1.72439   1.72603   1.72983   1.73566   1.74139
 Alpha virt. eigenvalues --    1.77811   1.79145   1.82589   1.85348   1.87925
 Alpha virt. eigenvalues --    1.89800   1.90559   1.90859   1.91114   1.91836
 Alpha virt. eigenvalues --    1.92824   1.93121   1.93589   1.95819   1.95968
 Alpha virt. eigenvalues --    1.98279   1.98859   1.99694   2.00540   2.01636
 Alpha virt. eigenvalues --    2.02734   2.03461   2.03939   2.04526   2.08460
 Alpha virt. eigenvalues --    2.09656   2.10772   2.11482   2.11949   2.13740
 Alpha virt. eigenvalues --    2.15637   2.16763   2.17437   2.23138   2.23285
 Alpha virt. eigenvalues --    2.25775   2.27258   2.28525   2.29501   2.32281
 Alpha virt. eigenvalues --    2.34163   2.34918   2.37276   2.37451   2.37803
 Alpha virt. eigenvalues --    2.39413   2.40565   2.41020   2.41371   2.42112
 Alpha virt. eigenvalues --    2.43544   2.43643   2.46299   2.51731   2.54713
 Alpha virt. eigenvalues --    2.56099   2.58968   2.61319   2.64939   2.65452
 Alpha virt. eigenvalues --    2.67251   2.67460   2.71655   2.71965   2.73027
 Alpha virt. eigenvalues --    2.74333   2.76115   2.79686   2.83187   2.87066
 Alpha virt. eigenvalues --    2.88561   2.90616   3.00092   3.06400   3.17754
 Alpha virt. eigenvalues --    4.04951   4.08618   4.16624   4.19688   4.20304
 Alpha virt. eigenvalues --    4.26563   4.27450   4.31548   4.31997   4.44186
 Alpha virt. eigenvalues --    4.44888   4.55308   4.55657   4.56395   4.56629
 Alpha virt. eigenvalues --    4.64972   4.65913
          Condensed to atoms (all electrons):
              1          2          3          4          5          6
     1  C    4.995310   0.384462  -0.043765  -0.014011  -0.045365   0.387755
     2  C    0.384462   5.020223   0.357150  -0.035762  -0.006862  -0.050671
     3  C   -0.043765   0.357150   5.077793   0.388970  -0.062882  -0.009561
     4  C   -0.014011  -0.035762   0.388970   4.789377   0.371965  -0.031735
     5  C   -0.045365  -0.006862  -0.062882   0.371965   5.122842   0.348668
     6  C    0.387755  -0.050671  -0.009561  -0.031735   0.348668   5.023467
     7  N    0.000076   0.003559  -0.052804   0.328233  -0.069631   0.004676
     8  C    0.000002  -0.000087   0.003728  -0.035804   0.000814  -0.000062
     9  C   -0.000000   0.000004  -0.000285   0.004282   0.000072  -0.000007
    10  N    0.000000  -0.000002   0.000179   0.003666   0.000136   0.000001
    11  C   -0.000029  -0.000039  -0.005022  -0.036910  -0.006096   0.000167
    12  C    0.000000   0.000000   0.000000  -0.000085   0.000000  -0.000000
    13  C    0.000000  -0.000000   0.000000   0.000002  -0.000000   0.000000
    14  C   -0.000000  -0.000000  -0.000000  -0.000000  -0.000000   0.000000
    15  C    0.000000  -0.000000   0.000000  -0.000000   0.000000   0.000000
    16  C    0.000000   0.000000   0.000000  -0.000000   0.000000  -0.000000
    17  C   -0.000000  -0.000000   0.000000  -0.000001  -0.000003   0.000000
    18  H    0.368286  -0.033634   0.005000   0.000315   0.005029  -0.033309
    19  H    0.372042  -0.041601  -0.005015  -0.001131  -0.004232  -0.042268
    20  H   -0.033620   0.367959  -0.030448   0.004182  -0.000079   0.005355
    21  H   -0.041315   0.372140  -0.039911  -0.005170  -0.000838  -0.005245
    22  H   -0.005149  -0.040702   0.370303  -0.036654  -0.005835  -0.000108
    23  H    0.005081  -0.030605   0.360913  -0.030362   0.005999  -0.000096
    24  H   -0.000810  -0.002843  -0.042409   0.374872  -0.058924   0.000048
    25  H   -0.005143  -0.000066  -0.005619  -0.037452   0.367892  -0.040437
    26  H    0.005087   0.000029   0.005189  -0.030293   0.364941  -0.033201
    27  H   -0.034450   0.005443   0.000005   0.003888  -0.030163   0.365812
    28  H   -0.041778  -0.005355  -0.000844  -0.004887  -0.041076   0.372811
    29  H   -0.000000  -0.000002   0.000055  -0.002546  -0.000106  -0.000008
    30  H   -0.000000  -0.000000   0.000003  -0.000116   0.000003  -0.000000
    31  H    0.000012  -0.000144   0.002869  -0.000550  -0.000495   0.000033
    32  H   -0.000017   0.000157  -0.002406  -0.001832   0.003715  -0.000639
    33  H   -0.000000   0.000000  -0.000000  -0.000000   0.000001  -0.000000
    34  H   -0.000000   0.000000  -0.000000  -0.000000   0.000000  -0.000000
    35  H   -0.000000  -0.000000   0.000000   0.000000  -0.000000  -0.000000
    36  H   -0.000000   0.000000  -0.000000   0.000000  -0.000000  -0.000000
    37  H    0.000000  -0.000000   0.000000   0.000000   0.000000   0.000000
    38  H   -0.000000   0.000000  -0.000000  -0.000000  -0.000000  -0.000000
    39  H    0.000000  -0.000000  -0.000000   0.000000   0.000000   0.000000
    40  H    0.000000  -0.000000  -0.000000   0.000000   0.000000   0.000000
    41  H   -0.000000   0.000000   0.000000   0.000000  -0.000000  -0.000000
[...]
    67    C    5  py     Val( 2p)     1.08174
    68    C    5  py     Ryd( 3p)     0.00187
    69    C    5  pz     Val( 2p)     1.23487
    70    C    5  pz     Ryd( 3p)     0.00449
    71    C    5  dxy    Ryd( 3d)     0.00062
    72    C    5  dxz    Ryd( 3d)     0.00085
    73    C    5  dyz    Ryd( 3d)     0.00070
    74    C    5  dx2y2  Ryd( 3d)     0.00063
    75    C    5  dz2    Ryd( 3d)     0.00069

    76    C    6  S      Cor( 1S)     1.99933
    77    C    6  S      Val( 2S)     1.03404
    78    C    6  S      Ryd( 3S)     0.00062
    79    C    6  S      Ryd( 4S)     0.00002
    80    C    6  px     Val( 2p)     1.06371
    81    C    6  px     Ryd( 3p)     0.00163
    82    C    6  py     Val( 2p)     1.23225
    83    C    6  py     Ryd( 3p)     0.00434
    84    C    6  pz     Val( 2p)     1.11685
    85    C    6  pz     Ryd( 3p)     0.00160
    86    C    6  dxy    Ryd( 3d)     0.00055
    87    C    6  dxz    Ryd( 3d)     0.00076
    88    C    6  dyz    Ryd( 3d)     0.00089
    89    C    6  dx2y2  Ryd( 3d)     0.00085
    90    C    6  dz2    Ryd( 3d)     0.00052

    91    N    7  S      Cor( 1S)     1.99938
    92    N    7  S      Val( 2S)     1.25404
    93    N    7  S      Ryd( 3S)     0.00149
    94    N    7  S      Ryd( 4S)     0.00003
    95    N    7  px     Val( 2p)     1.27095
    96    N    7  px     Ryd( 3p)     0.00205
    97    N    7  py     Val( 2p)     1.47250
    98    N    7  py     Ryd( 3p)     0.00438
    99    N    7  pz     Val( 2p)     1.34316
   100    N    7  pz     Ryd( 3p)     0.00412
   101    N    7  dxy    Ryd( 3d)     0.00105
   102    N    7  dxz    Ryd( 3d)     0.00081
   103    N    7  dyz    Ryd( 3d)     0.00092
   104    N    7  dx2y2  Ryd( 3d)     0.00084
   105    N    7  dz2    Ryd( 3d)     0.00085

   106    C    8  S      Cor( 1S)     1.99904
   107    C    8  S      Val( 2S)     0.92319
   108    C    8  S      Ryd( 3S)     0.00212
   109    C    8  S      Ryd( 4S)     0.00007
   110    C    8  px     Val( 2p)     1.04181
   111    C    8  px     Ryd( 3p)     0.00677
   112    C    8  py     Val( 2p)     1.24911
   113    C    8  py     Ryd( 3p)     0.01627
   114    C    8  pz     Val( 2p)     1.00438
   115    C    8  pz     Ryd( 3p)     0.00593
   116    C    8  dxy    Ryd( 3d)     0.00123
   117    C    8  dxz    Ryd( 3d)     0.00116
   118    C    8  dyz    Ryd( 3d)     0.00078
   119    C    8  dx2y2  Ryd( 3d)     0.00047
   120    C    8  dz2    Ryd( 3d)     0.00080

   121    C    9  S      Cor( 1S)     1.99904
   122    C    9  S      Val( 2S)     0.92126
   123    C    9  S      Ryd( 3S)     0.00204
   124    C    9  S      Ryd( 4S)     0.00007
   125    C    9  px     Val( 2p)     1.13032
   126    C    9  px     Ryd( 3p)     0.00554
   127    C    9  py     Val( 2p)     1.25708
   128    C    9  py     Ryd( 3p)     0.01679
   129    C    9  pz     Val( 2p)     0.91599
   130    C    9  pz     Ryd( 3p)     0.00658
   131    C    9  dxy    Ryd( 3d)     0.00116
   132    C    9  dxz    Ryd( 3d)     0.00094
   133    C    9  dyz    Ryd( 3d)     0.00074
   134    C    9  dx2y2  Ryd( 3d)     0.00055
   135    C    9  dz2    Ryd( 3d)     0.00102

   136    N   10  S      Cor( 1S)     1.99938
   137    N   10  S      Val( 2S)     1.25321
   138    N   10  S      Ryd( 3S)     0.00136
   139    N   10  S      Ryd( 4S)     0.00002
   140    N   10  px     Val( 2p)     1.25458
   141    N   10  px     Ryd( 3p)     0.00232
   142    N   10  py     Val( 2p)     1.46091
   143    N   10  py     Ryd( 3p)     0.00398
   144    N   10  pz     Val( 2p)     1.36955
   145    N   10  pz     Ryd( 3p)     0.00413
   146    N   10  dxy    Ryd( 3d)     0.00102
   147    N   10  dxz    Ryd( 3d)     0.00061
   148    N   10  dyz    Ryd( 3d)     0.00097
   149    N   10  dx2y2  Ryd( 3d)     0.00083
   150    N   10  dz2    Ryd( 3d)     0.00105

   151    C   11  S      Cor( 1S)     1.99935
   152    C   11  S      Val( 2S)     1.00861
   153    C   11  S      Ryd( 3S)     0.00239
   154    C   11  S      Ryd( 4S)     0.00004
   155    C   11  px     Val( 2p)     0.81141
   156    C   11  px     Ryd( 3p)     0.00355
   157    C   11  py     Val( 2p)     1.13030
   158    C   11  py     Ryd( 3p)     0.00304
   159    C   11  pz     Val( 2p)     1.10755
   160    C   11  pz     Ryd( 3p)     0.00310
   161    C   11  dxy    Ryd( 3d)     0.00187
   162    C   11  dxz    Ryd( 3d)     0.00149
   163    C   11  dyz    Ryd( 3d)     0.00066
   164    C   11  dx2y2  Ryd( 3d)     0.00134
   165    C   11  dz2    Ryd( 3d)     0.00186

   166    C   12  S      Cor( 1S)     1.99918
   167    C   12  S      Val( 2S)     0.94212
   168    C   12  S      Ryd( 3S)     0.00189
   169    C   12  S      Ryd( 4S)     0.00004
   170    C   12  px     Val( 2p)     0.92672
   171    C   12  px     Ryd( 3p)     0.00387
   172    C   12  py     Val( 2p)     0.99971
   173    C   12  py     Ryd( 3p)     0.00518
   174    C   12  pz     Val( 2p)     1.17344
   175    C   12  pz     Ryd( 3p)     0.00489
   176    C   12  dxy    Ryd( 3d)     0.00151
   177    C   12  dxz    Ryd( 3d)     0.00059
   178    C   12  dyz    Ryd( 3d)     0.00072
   179    C   12  dx2y2  Ryd( 3d)     0.00100
   180    C   12  dz2    Ryd( 3d)     0.00142

   181    C   13  S      Cor( 1S)     1.99929
   182    C   13  S      Val( 2S)     1.03439
   183    C   13  S      Ryd( 3S)     0.00092
   184    C   13  S      Ryd( 4S)     0.00003
   185    C   13  px     Val( 2p)     1.02759
   186    C   13  px     Ryd( 3p)     0.00262
   187    C   13  py     Val( 2p)     1.15567
   188    C   13  py     Ryd( 3p)     0.00298
   189    C   13  pz     Val( 2p)     1.23364
   190    C   13  pz     Ryd( 3p)     0.00347
   191    C   13  dxy    Ryd( 3d)     0.00073
   192    C   13  dxz    Ryd( 3d)     0.00032
   193    C   13  dyz    Ryd( 3d)     0.00091
   194    C   13  dx2y2  Ryd( 3d)     0.00062
   195    C   13  dz2    Ryd( 3d)     0.00094

   196    C   14  S      Cor( 1S)     1.99933
   197    C   14  S      Val( 2S)     1.03312
   198    C   14  S      Ryd( 3S)     0.00060
   199    C   14  S      Ryd( 4S)     0.00002
   200    C   14  px     Val( 2p)     1.13935
   201    C   14  px     Ryd( 3p)     0.00302
   202    C   14  py     Val( 2p)     1.09404
   203    C   14  py     Ryd( 3p)     0.00256
   204    C   14  pz     Val( 2p)     1.18077
   205    C   14  pz     Ryd( 3p)     0.00181
   206    C   14  dxy    Ryd( 3d)     0.00103
   207    C   14  dxz    Ryd( 3d)     0.00023
   208    C   14  dyz    Ryd( 3d)     0.00055
   209    C   14  dx2y2  Ryd( 3d)     0.00051
   210    C   14  dz2    Ryd( 3d)     0.00124

   211    C   15  S      Cor( 1S)     1.99933
   212    C   15  S      Val( 2S)     1.03395
   213    C   15  S      Ryd( 3S)     0.00063
   214    C   15  S      Ryd( 4S)     0.00002
   215    C   15  px     Val( 2p)     1.13871
   216    C   15  px     Ryd( 3p)     0.00271
   217    C   15  py     Val( 2p)     1.08229
   218    C   15  py     Ryd( 3p)     0.00232
   219    C   15  pz     Val( 2p)     1.19339
   220    C   15  pz     Ryd( 3p)     0.00225
   221    C   15  dxy    Ryd( 3d)     0.00095
   222    C   15  dxz    Ryd( 3d)     0.00038
   223    C   15  dyz    Ryd( 3d)     0.00060
   224    C   15  dx2y2  Ryd( 3d)     0.00053
   225    C   15  dz2    Ryd( 3d)     0.00110

   226    C   16  S      Cor( 1S)     1.99932
   227    C   16  S      Val( 2S)     1.03274
   228    C   16  S      Ryd( 3S)     0.00061
   229    C   16  S      Ryd( 4S)     0.00002
   230    C   16  px     Val( 2p)     1.03098
   231    C   16  px     Ryd( 3p)     0.00160
   232    C   16  py     Val( 2p)     1.15727
   233    C   16  py     Ryd( 3p)     0.00256
   234    C   16  pz     Val( 2p)     1.22532
   235    C   16  pz     Ryd( 3p)     0.00312
   236    C   16  dxy    Ryd( 3d)     0.00067
   237    C   16  dxz    Ryd( 3d)     0.00034
   238    C   16  dyz    Ryd( 3d)     0.00092
   239    C   16  dx2y2  Ryd( 3d)     0.00071
   240    C   16  dz2    Ryd( 3d)     0.00093

   241    C   17  S      Cor( 1S)     1.99928
   242    C   17  S      Val( 2S)     1.03248
   243    C   17  S      Ryd( 3S)     0.00097
   244    C   17  S      Ryd( 4S)     0.00002
   245    C   17  px     Val( 2p)     1.14013
   246    C   17  px     Ryd( 3p)     0.00356
   247    C   17  py     Val( 2p)     1.08376
   248    C   17  py     Ryd( 3p)     0.00334
   249    C   17  pz     Val( 2p)     1.20038
   250    C   17  pz     Ryd( 3p)     0.00197
   251    C   17  dxy    Ryd( 3d)     0.00094
   252    C   17  dxz    Ryd( 3d)     0.00026
   253    C   17  dyz    Ryd( 3d)     0.00059
   254    C   17  dx2y2  Ryd( 3d)     0.00052
   255    C   17  dz2    Ryd( 3d)     0.00115

   256    H   18  S      Val( 1S)     0.76165
   257    H   18  S      Ryd( 2S)     0.00241

   258    H   19  S      Val( 1S)     0.77534
   259    H   19  S      Ryd( 2S)     0.00253

   260    H   20  S      Val( 1S)     0.75839
   261    H   20  S      Ryd( 2S)     0.00145

   262    H   21  S      Val( 1S)     0.77158
   263    H   21  S      Ryd( 2S)     0.00190

   264    H   22  S      Val( 1S)     0.77857
   265    H   22  S      Ryd( 2S)     0.00177

   266    H   23  S      Val( 1S)     0.75260
   267    H   23  S      Ryd( 2S)     0.00264

   268    H   24  S      Val( 1S)     0.75559
   269    H   24  S      Ryd( 2S)     0.00354

   270    H   25  S      Val( 1S)     0.78213
   271    H   25  S      Ryd( 2S)     0.00216

   272    H   26  S      Val( 1S)     0.75217
   273    H   26  S      Ryd( 2S)     0.00802

   274    H   27  S      Val( 1S)     0.75899
   275    H   27  S      Ryd( 2S)     0.00259

   276    H   28  S      Val( 1S)     0.77271
   277    H   28  S      Ryd( 2S)     0.00227

   278    H   29  S      Val( 1S)     0.77376
   279    H   29  S      Ryd( 2S)     0.00104

   280    H   30  S      Val( 1S)     0.77153
   281    H   30  S      Ryd( 2S)     0.00102

   282    H   31  S      Val( 1S)     0.74807
   283    H   31  S      Ryd( 2S)     0.00138

   284    H   32  S      Val( 1S)     0.75603
   285    H   32  S      Ryd( 2S)     0.00394

   286    H   33  S      Val( 1S)     0.76670
   287    H   33  S      Ryd( 2S)     0.00252

   288    H   34  S      Val( 1S)     0.75292
   289    H   34  S      Ryd( 2S)     0.00267

   290    H   35  S      Val( 1S)     0.76947
   291    H   35  S      Ryd( 2S)     0.00319

   292    H   36  S      Val( 1S)     0.77482
   293    H   36  S      Ryd( 2S)     0.00199

   294    H   37  S      Val( 1S)     0.75745
   295    H   37  S      Ryd( 2S)     0.00149

   296    H   38  S      Val( 1S)     0.76091
   297    H   38  S      Ryd( 2S)     0.00127

   298    H   39  S      Val( 1S)     0.77226
   299    H   39  S      Ryd( 2S)     0.00251

   300    H   40  S      Val( 1S)     0.77768
   301    H   40  S      Ryd( 2S)     0.00213

   302    H   41  S      Val( 1S)     0.75954
   303    H   41  S      Ryd( 2S)     0.00230

   304    H   42  S      Val( 1S)     0.76758
   305    H   42  S      Ryd( 2S)     0.00155

   306    H   43  S      Val( 1S)     0.76270
   307    H   43  S      Ryd( 2S)     0.00904


 Summary of Natural Population Analysis:                  
                                                          
                                       Natural Population 
                Natural  -----------------------------------------------
    Atom  No    Charge         Core      Valence    Rydberg      Total
 -----------------------------------------------------------------------
      C    1   -0.45967      1.99933     4.44884    0.01150     6.45967
      C    2   -0.45707      1.99933     4.44596    0.01178     6.45707
      C    3   -0.46601      1.99929     4.45367    0.01305     6.46601
      C    4   -0.06080      1.99918     4.04164    0.01998     6.06080
      C    5   -0.46854      1.99928     4.45685    0.01242     6.46854
      C    6   -0.45795      1.99933     4.44685    0.01177     6.45795
      N    7   -0.35658      1.99938     5.34064    0.01656     7.35658
      C    8   -0.25314      1.99904     4.21849    0.03561     6.25314
      C    9   -0.25912      1.99904     4.22465    0.03543     6.25912
      N   10   -0.35392      1.99938     5.33825    0.01629     7.35392
      C   11   -0.07657      1.99935     4.05788    0.01934     6.07657
      C   12   -0.06228      1.99918     4.04199    0.02110     6.06228
      C   13   -0.46413      1.99929     4.45129    0.01355     6.46413
      C   14   -0.45816      1.99933     4.44727    0.01156     6.45816
      C   15   -0.45916      1.99933     4.44834    0.01149     6.45916
      C   16   -0.45713      1.99932     4.44630    0.01150     6.45713
      C   17   -0.46934      1.99928     4.45674    0.01333     6.46934
      H   18    0.23594      0.00000     0.76165    0.00241     0.76406
      H   19    0.22213      0.00000     0.77534    0.00253     0.77787
      H   20    0.24016      0.00000     0.75839    0.00145     0.75984
      H   21    0.22653      0.00000     0.77158    0.00190     0.77347
      H   22    0.21966      0.00000     0.77857    0.00177     0.78034
      H   23    0.24476      0.00000     0.75260    0.00264     0.75524
      H   24    0.24087      0.00000     0.75559    0.00354     0.75913
      H   25    0.21572      0.00000     0.78213    0.00216     0.78428
      H   26    0.23981      0.00000     0.75217    0.00802     0.76019
      H   27    0.23841      0.00000     0.75899    0.00259     0.76159
      H   28    0.22502      0.00000     0.77271    0.00227     0.77498
      H   29    0.22520      0.00000     0.77376    0.00104     0.77480
      H   30    0.22745      0.00000     0.77153    0.00102     0.77255
      H   31    0.25055      0.00000     0.74807    0.00138     0.74945
      H   32    0.24003      0.00000     0.75603    0.00394     0.75997
      H   33    0.23078      0.00000     0.76670    0.00252     0.76922
      H   34    0.24441      0.00000     0.75292    0.00267     0.75559
      H   35    0.22735      0.00000     0.76947    0.00319     0.77265
      H   36    0.22319      0.00000     0.77482    0.00199     0.77681
      H   37    0.24105      0.00000     0.75745    0.00149     0.75895
      H   38    0.23783      0.00000     0.76091    0.00127     0.76217
      H   39    0.22523      0.00000     0.77226    0.00251     0.77477
      H   40    0.22020      0.00000     0.77768    0.00213     0.77980
      H   41    0.23816      0.00000     0.75954    0.00230     0.76184
      H   42    0.23087      0.00000     0.76758    0.00155     0.76913
      H   43    0.22826      0.00000     0.76270    0.00904     0.77174
 =======================================================================
   * Total *   -0.00000     33.98765    95.65678    0.35556   130.00000

                                 Natural Population      
 --------------------------------------------------------
   Core                      33.98765 ( 99.9637% of  34)
   Valence                   95.65678 ( 99.6425% of  96)
   Natural Minimal Basis    129.64444 ( 99.7265% of 130)
   Natural Rydberg Basis      0.35556 (  0.2735% of 130)
 --------------------------------------------------------

    Atom  No          Natural Electron Configuration
 ----------------------------------------------------------------------------
      C    1      [core]2S( 1.04)2p( 3.41)3p( 0.01)
      C    2      [core]2S( 1.03)2p( 3.41)3p( 0.01)
      C    3      [core]2S( 1.03)2p( 3.42)3p( 0.01)
      C    4      [core]2S( 0.94)2p( 3.10)3p( 0.01)3d( 0.01)
      C    5      [core]2S( 1.03)2p( 3.42)3p( 0.01)
      C    6      [core]2S( 1.03)2p( 3.41)3p( 0.01)
      N    7      [core]2S( 1.25)2p( 4.09)3p( 0.01)
      C    8      [core]2S( 0.92)2p( 3.30)3p( 0.03)
      C    9      [core]2S( 0.92)2p( 3.30)3p( 0.03)
      N   10      [core]2S( 1.25)2p( 4.09)3p( 0.01)
      C   11      [core]2S( 1.01)2p( 3.05)3p( 0.01)3d( 0.01)
      C   12      [core]2S( 0.94)2p( 3.10)3p( 0.01)3d( 0.01)
      C   13      [core]2S( 1.03)2p( 3.42)3p( 0.01)
      C   14      [core]2S( 1.03)2p( 3.41)3p( 0.01)
      C   15      [core]2S( 1.03)2p( 3.41)3p( 0.01)
      C   16      [core]2S( 1.03)2p( 3.41)3p( 0.01)
      C   17      [core]2S( 1.03)2p( 3.42)3p( 0.01)
      H   18            1S( 0.76)
      H   19            1S( 0.78)
      H   20            1S( 0.76)
      H   21            1S( 0.77)
      H   22            1S( 0.78)
      H   23            1S( 0.75)
      H   24            1S( 0.76)
      H   25            1S( 0.78)
      H   26            1S( 0.75)2S( 0.01)
      H   27            1S( 0.76)
      H   28            1S( 0.77)
      H   29            1S( 0.77)
      H   30            1S( 0.77)
      H   31            1S( 0.75)
      H   32            1S( 0.76)
      H   33            1S( 0.77)
      H   34            1S( 0.75)
      H   35            1S( 0.77)
      H   36            1S( 0.77)
      H   37            1S( 0.76)
      H   38            1S( 0.76)
      H   39            1S( 0.77)
      H   40            1S( 0.78)
      H   41            1S( 0.76)
      H   42            1S( 0.77)
      H   43            1S( 0.76)2S( 0.01)


 NBO analysis skipped by request.
 Leave Link  607 at Sat Oct  2 12:03:07 2021, MaxMem= 1879048192 cpu:      32.7
 (Enter /sw/target/amd/app/gaussian/Gaussian09RevA.02_gcc-4.9.2/g09/l9999.exe)
 1\1\GINC-HERMITE\SP\RTD-B3LYP-FC\6-31G(d)\C15H26N2\JSCHLEINITZ\02-Oct-
 2021\0\\#p TD(NStates=10, Root=1) b3lyp/6-31G* volume pop=NPA density=
 current Geom=AllCheck Guess=Read\\C1CCC(CC1)N1C=CN(C1)C1CCCCC1_conf_0\
 \0,1\C,0,-1.1252824434,1.161086168,-0.3926275999\C,0,-1.0383233826,-0.
 3652253365,-0.5425865946\C,0,0.3537065223,-0.8086024424,-1.0185542841\
 C,0,1.4624325892,-0.2809521909,-0.0929196203\C,0,1.3780859547,1.256658
 1139,0.0393741409\C,0,-0.0138016274,1.6957191176,0.5238923833\N,0,2.76
 7824052,-0.8108489662,-0.4960433386\C,0,3.8647680588,-0.6868422324,0.3
 940628146\C,0,5.0137454516,-0.6272212783,-0.292765889\N,0,4.7469009763
 ,-0.7088404963,-1.6847177979\C,0,3.3028665946,-0.4669287107,-1.8225226
 42\C,0,5.6203593988,-0.0434881447,-2.6570743687\C,0,6.9613545526,-0.78
 80396818,-2.7782513956\C,0,7.8616336,-0.1624259769,-3.8547646\C,0,8.08
 97931234,1.3358312249,-3.6019606468\C,0,6.7564194077,2.0877437949,-3.4
 730234706\C,0,5.8562271172,1.4614023419,-2.3960493167\H,0,-2.110353748
 2,1.4496527327,-0.0041203718\H,0,-1.0311997369,1.6279548797,-1.3844517
 186\H,0,-1.8050777919,-0.7244137935,-1.2405932844\H,0,-1.2556733466,-0
 .8369639019,0.4272167113\H,0,0.520555804,-0.4297398753,-2.0378336158\H
 ,0,0.4198994291,-1.9018348029,-1.0717532891\H,0,1.280816135,-0.7031534
 273,0.9073178046\H,0,1.5845365697,1.7244064853,-0.9335873021\H,0,2.158
 0056633,1.6069283046,0.7271694804\H,0,-0.0635202178,2.7903147866,0.586
 3935691\H,0,-0.1772515319,1.319335167,1.545017494\H,0,3.7135740475,-0.
 7949147997,1.4598334729\H,0,6.0259035616,-0.6795461663,0.081936541\H,0
 ,2.8728146234,-1.0980406382,-2.6109105347\H,0,3.0928218014,0.595455281
 7,-2.0885619596\H,0,5.1089539786,-0.1418381706,-3.62660839\H,0,6.76427
 04463,-1.8441075588,-2.9955448408\H,0,7.4830097264,-0.7570955661,-1.81
 04510759\H,0,7.3910882365,-0.29419138,-4.840629085\H,0,8.8210015859,-0
 .6934880376,-3.89616843\H,0,8.6957178437,1.7702189974,-4.407432046\H,0
 ,8.6664952843,1.4619814862,-2.6735643708\H,0,6.233958294,2.0647499659,
 -4.4412348466\H,0,6.9358964473,3.1460985673,-3.2440819868\H,0,4.897207
 1174,1.9921957072,-2.345994426\H,0,6.3258108545,1.5751937553,-1.408648
 96\\Version=AM64L-G09RevA.02\State=1-A\HF=-696.7338996\RMSD=3.321e-09\
 Dipole=-0.454866,0.3398616,-0.6831912\Quadrupole=2.9581963,-3.4768113,
 0.518615,0.8445096,-1.8620954,0.6928582\PG=C01 [X(C15H26N2)]\\@


 Cherishing children is the mark of a civilized society.
 -- Joan Ganz Cooney
 Job cpu time:  0 days  7 hours  8 minutes 29.1 seconds.
 File lengths (MBytes):  RWF=    315 Int=      0 D2E=      0 Chk=     44 Scr=      1
 Normal termination of Gaussian 09 at Sat Oct  2 12:03:20 2021.
