 Entering Gaussian System, Link 0=g09
 Input=C15H25ClN2_e5dd_conf_0.com
 Output=C15H25ClN2_e5dd_conf_0.log
 Initial command:
 /sw/target/amd/app/gaussian/Gaussian09RevA.02_gcc-4.9.2/g09/l1.exe /home/jschleinitz/gaussian/Gau-3132779.inp -scrdir=/home/jschleinitz/gaussian/
 Entering Link 1 = /sw/target/amd/app/gaussian/Gaussian09RevA.02_gcc-4.9.2/g09/l1.exe PID=   3132791.
  
 Copyright (c) 1988,1990,1992,1993,1995,1998,2003,2009, Gaussian, Inc.
                  All Rights Reserved.
  
 This is part of the Gaussian(R) 09 program.  It is based on
 the Gaussian(R) 03 system (copyright 2003, Gaussian, Inc.),
 the Gaussian(R) 98 system (copyright 1998, Gaussian, Inc.),
 the Gaussian(R) 94 system (copyright 1995, Gaussian, Inc.),
 the Gaussian 92(TM) system (copyright 1992, Gaussian, Inc.),
 the Gaussian 90(TM) system (copyright 1990, Gaussian, Inc.),
 the Gaussian 88(TM) system (copyright 1988, Gaussian, Inc.),
 the Gaussian 86(TM) system (copyright 1986, Carnegie Mellon
 University), and the Gaussian 82(TM) system (copyright 1983,
 Carnegie Mellon University). Gaussian is a federally registered
 trademark of Gaussian, Inc.
  
 This software contains proprietary and confidential information,
 including trade secrets, belonging to Gaussian, Inc.
  
 This software is provided under written license and may be
 used, copied, transmitted, or stored only in accord with that
 written license.
  
 The following legend is applicable only to US Government
 contracts under FAR:
  
                    RESTRICTED RIGHTS LEGEND
  
 Use, reproduction and disclosure by the US Government is
 subject to restrictions as set forth in subparagraphs (a)
 and (c) of the Commercial Computer Software - Restricted
 Rights clause in FAR 52.227-19.
  
 Gaussian, Inc.
 340 Quinnipiac St., Bldg. 40, Wallingford CT 06492
  
  
 ---------------------------------------------------------------
 Warning -- This program may not be used in any manner that
 competes with the business of Gaussian, Inc. or will provide
 assistance to any competitor of Gaussian, Inc.  The licensee
 of this program is prohibited from giving any competitor of
 Gaussian, Inc. access to this program.  By using this program,
 the user acknowledges that Gaussian, Inc. is engaged in the
 business of creating and licensing software in the field of
 computational chemistry and represents and warrants to the
 licensee that it is not a competitor of Gaussian, Inc. and that
 it will not use this program in any manner prohibited above.
 ---------------------------------------------------------------
  

 Cite this work as:
 Gaussian 09, Revision A.02,
 M. J. Frisch, G. W. Trucks, H. B. Schlegel, G. E. Scuseria, 
 M. A. Robb, J. R. Cheeseman, G. Scalmani, V. Barone, B. Mennucci, 
 G. A. Petersson, H. Nakatsuji, M. Caricato, X. Li, H. P. Hratchian, 
 A. F. Izmaylov, J. Bloino, G. Zheng, J. L. Sonnenberg, M. Hada, 
 M. Ehara, K. Toyota, R. Fukuda, J. Hasegawa, M. Ishida, T. Nakajima, 
 Y. Honda, O. Kitao, H. Nakai, T. Vreven, J. A. Montgomery, Jr., 
 J. E. Peralta, F. Ogliaro, M. Bearpark, J. J. Heyd, E. Brothers, 
 K. N. Kudin, V. N. Staroverov, R. Kobayashi, J. Normand, 
 K. Raghavachari, A. Rendell, J. C. Burant, S. S. Iyengar, J. Tomasi, 
 M. Cossi, N. Rega, J. M. Millam, M. Klene, J. E. Knox, J. B. Cross, 
 V. Bakken, C. Adamo, J. Jaramillo, R. Gomperts, R. E. Stratmann, 
 O. Yazyev, A. J. Austin, R. Cammi, C. Pomelli, J. W. Ochterski, 
 R. L. Martin, K. Morokuma, V. G. Zakrzewski, G. A. Voth, 
 P. Salvador, J. J. Dannenberg, S. Dapprich, A. D. Daniels, 
 O. Farkas, J. B. Foresman, J. V. Ortiz, J. Cioslowski, 
 and D. J. Fox, Gaussian, Inc., Wallingford CT, 2009.
 
 ******************************************
 Gaussian 09:  AM64L-G09RevA.02 11-Jun-2009
                 2-Oct-2021 
 ******************************************
 %nproc=7
 Will use up to    7 processors via shared memory.
 %mem=14gb
 %chk=C15H25ClN2_e5dd_conf_0.chk
 -----------------------------------
 #p opt b3lyp/6-31G* scf=(xqc,tight)
 -----------------------------------
 1/14=-1,18=20,19=15,26=3,38=1/1,3;
 2/9=110,12=2,17=6,18=5,40=1/2;
 3/5=1,6=6,7=1,11=2,16=1,25=1,30=1,71=1,74=-5/1,2,3;
 4//1;
 5/5=2,8=3,13=1,32=2,38=5/2,8;
 6/7=2,8=2,9=2,10=2,28=1/1;
 7//1,2,3,16;
 1/14=-1,18=20,19=15/3(2);
 2/9=110/2;
 99//99;
 2/9=110/2;
 3/5=1,6=6,7=1,11=2,16=1,25=1,30=1,71=1,74=-5/1,2,3;
 4/5=5,16=3/1;
 5/5=2,8=3,13=1,32=2,38=5/2,8;
 7//1,2,3,16;
 1/14=-1,18=20,19=15/3(-5);
 2/9=110/2;
 6/7=2,8=2,9=2,10=2,19=2,28=1/1;
 99/9=1/99;
 Leave Link    1 at Sat Oct  2 05:45:20 2021, MaxMem= 1879048192 cpu:       0.1
 (Enter /sw/target/amd/app/gaussian/Gaussian09RevA.02_gcc-4.9.2/g09/l101.exe)
 -------------------------------------------
 C1CCC(CC1)n1cc[n+](c1)C1CCCCC1.[Cl-]_conf_0
 -------------------------------------------
 Symbolic Z-matrix:
 Charge =  0 Multiplicity = 1
 C                    -0.29455   0.05049   2.62865 
 C                     0.16135   1.22908   1.77447 
 C                     1.47876   0.92953   1.06347 
 C                     1.40527  -0.36561   0.24566 
 C                     0.91282  -1.54601   1.09202 
 C                    -0.39965  -1.22796   1.8032 
 N                     2.70436  -0.67238  -0.37108 
 C                     2.92366  -0.78682  -1.7372 
 C                     4.25008  -1.06658  -1.9092 
 N                     4.81861  -1.12645  -0.64159 
 C                     3.86302  -0.88269   0.26952 
 C                     6.23546  -1.41095  -0.36347 
 C                     6.37678  -2.66877   0.50278 
 C                     7.82983  -2.94629   0.87719 
 C                     8.47818  -1.73459   1.53976 
 C                     8.36992  -0.49548   0.65619 
 C                     6.92013  -0.19891   0.2799 
 Cl                    3.02993  -0.61749  -5.26105 
 H                    -1.26556   0.27731   3.08364 
 H                     0.41574  -0.10233   3.45108 
 H                     0.27676   2.11827   2.40441 
 H                    -0.61127   1.4619    1.03143 
 H                     2.27981   0.85914   1.80912 
 H                     1.74126   1.76689   0.40586 
 H                     0.68383  -0.20872  -0.56888 
 H                     1.67135  -1.81431   1.837 
 H                     0.78144  -2.42746   0.45313 
 H                    -0.67807  -2.06514   2.453 
 H                    -1.2007   -1.11873   1.06193 
 H                     2.10363  -0.65241  -2.42292 
 H                     4.85711  -1.2292   -2.78401 
 H                     4.00587  -0.85731   1.34162 
 H                     6.72668  -1.60647  -1.32683 
 H                     5.96173  -3.53247  -0.03038 
 H                     5.78675  -2.56079   1.42156 
 H                     8.3954   -3.21711  -0.02276 
 H                     7.87762  -3.80601   1.55526 
 H                     9.53204  -1.94829   1.75063 
 H                     7.99214  -1.54032   2.50382 
 H                     8.96219  -0.64477  -0.2551 
 H                     8.79982   0.3672    1.17791 
 H                     6.8862    0.65358  -0.40888 
 H                     6.37164   0.10847   1.17902 
 
 NAtoms=     43 NQM=     43 NQMF=      0 NMic=      0 NMicF=      0 NTot=     43.
                    Isotopes and Nuclear Properties:
 (Nuclear quadrupole moments (NQMom) in fm**2, nuclear magnetic moments (NMagM)
  in nuclear magnetons)

  Atom         1           2           3           4           5           6           7           8           9          10
 IAtWgt=          12          12          12          12          12          12          14          12          12          14
 AtmWgt=  12.0000000  12.0000000  12.0000000  12.0000000  12.0000000  12.0000000  14.0030740  12.0000000  12.0000000  14.0030740
 NucSpn=           0           0           0           0           0           0           2           0           0           2
 AtZEff=   0.0000000   0.0000000   0.0000000   0.0000000   0.0000000   0.0000000   0.0000000   0.0000000   0.0000000   0.0000000
 NQMom=    0.0000000   0.0000000   0.0000000   0.0000000   0.0000000   0.0000000   2.0440000   0.0000000   0.0000000   2.0440000
 NMagM=    0.0000000   0.0000000   0.0000000   0.0000000   0.0000000   0.0000000   0.4037610   0.0000000   0.0000000   0.4037610

  Atom        11          12          13          14          15          16          17          18          19          20
 IAtWgt=          12          12          12          12          12          12          12          35           1           1
 AtmWgt=  12.0000000  12.0000000  12.0000000  12.0000000  12.0000000  12.0000000  12.0000000  34.9688527   1.0078250   1.0078250
 NucSpn=           0           0           0           0           0           0           0           3           1           1
 AtZEff=   0.0000000   0.0000000   0.0000000   0.0000000   0.0000000   0.0000000   0.0000000   0.0000000   0.0000000   0.0000000
 NQMom=    0.0000000   0.0000000   0.0000000   0.0000000   0.0000000   0.0000000   0.0000000  -8.1650000   0.0000000   0.0000000
 NMagM=    0.0000000   0.0000000   0.0000000   0.0000000   0.0000000   0.0000000   0.0000000   0.8218740   2.7928460   2.7928460

  Atom        21          22          23          24          25          26          27          28          29          30
 IAtWgt=           1           1           1           1           1           1           1           1           1           1
 AtmWgt=   1.0078250   1.0078250   1.0078250   1.0078250   1.0078250   1.0078250   1.0078250   1.0078250   1.0078250   1.0078250
 NucSpn=           1           1           1           1           1           1           1           1           1           1
 AtZEff=   0.0000000   0.0000000   0.0000000   0.0000000   0.0000000   0.0000000   0.0000000   0.0000000   0.0000000   0.0000000
 NQMom=    0.0000000   0.0000000   0.0000000   0.0000000   0.0000000   0.0000000   0.0000000   0.0000000   0.0000000   0.0000000
 NMagM=    2.7928460   2.7928460   2.7928460   2.7928460   2.7928460   2.7928460   2.7928460   2.7928460   2.7928460   2.7928460

  Atom        31          32          33          34          35          36          37          38          39          40
 IAtWgt=           1           1           1           1           1           1           1           1           1           1
 AtmWgt=   1.0078250   1.0078250   1.0078250   1.0078250   1.0078250   1.0078250   1.0078250   1.0078250   1.0078250   1.0078250
 NucSpn=           1           1           1           1           1           1           1           1           1           1
 AtZEff=   0.0000000   0.0000000   0.0000000   0.0000000   0.0000000   0.0000000   0.0000000   0.0000000   0.0000000   0.0000000
 NQMom=    0.0000000   0.0000000   0.0000000   0.0000000   0.0000000   0.0000000   0.0000000   0.0000000   0.0000000   0.0000000
 NMagM=    2.7928460   2.7928460   2.7928460   2.7928460   2.7928460   2.7928460   2.7928460   2.7928460   2.7928460   2.7928460

  Atom        41          42          43
 IAtWgt=           1           1           1
 AtmWgt=   1.0078250   1.0078250   1.0078250
 NucSpn=           1           1           1
 AtZEff=   0.0000000   0.0000000   0.0000000
 NQMom=    0.0000000   0.0000000   0.0000000
 NMagM=    2.7928460   2.7928460   2.7928460
 Leave Link  101 at Sat Oct  2 05:45:22 2021, MaxMem= 1879048192 cpu:       0.2
 (Enter /sw/target/amd/app/gaussian/Gaussian09RevA.02_gcc-4.9.2/g09/l103.exe)

 GradGradGradGradGradGradGradGradGradGradGradGradGradGradGradGradGradGrad
 Berny optimization.
 Initialization pass.
                           ----------------------------
                           !    Initial Parameters    !
                           ! (Angstroms and Degrees)  !
 --------------------------                            --------------------------
 ! Name  Definition              Value          Derivative Info.                !
 --------------------------------------------------------------------------------
 ! R1    R(1,2)                  1.5253         estimate D2E/DX2                !
 ! R2    R(1,6)                  1.5254         estimate D2E/DX2                !
 ! R3    R(1,19)                 1.0961         estimate D2E/DX2                !
 ! R4    R(1,20)                 1.0974         estimate D2E/DX2                !
 ! R5    R(2,3)                  1.5267         estimate D2E/DX2                !
 ! R6    R(2,21)                 1.0958         estimate D2E/DX2                !
 ! R7    R(2,22)                 1.0969         estimate D2E/DX2                !
 ! R8    R(3,4)                  1.5335         estimate D2E/DX2                !
 ! R9    R(3,23)                 1.0966         estimate D2E/DX2                !
 ! R10   R(3,24)                 1.0966         estimate D2E/DX2                !
 ! R11   R(4,5)                  1.5337         estimate D2E/DX2                !
 ! R12   R(4,7)                  1.4704         estimate D2E/DX2                !
 ! R13   R(4,25)                 1.0994         estimate D2E/DX2                !
 ! R14   R(5,6)                  1.5263         estimate D2E/DX2                !
 ! R15   R(5,26)                 1.0965         estimate D2E/DX2                !
 ! R16   R(5,27)                 1.0965         estimate D2E/DX2                !
 ! R17   R(6,28)                 1.0957         estimate D2E/DX2                !
 ! R18   R(6,29)                 1.0969         estimate D2E/DX2                !
 ! R19   R(7,8)                  1.3883         estimate D2E/DX2                !
 ! R20   R(7,11)                 1.3406         estimate D2E/DX2                !
 ! R21   R(8,9)                  1.3665         estimate D2E/DX2                !
 ! R22   R(8,18)                 3.5295         estimate D2E/DX2                !
 ! R23   R(8,30)                 1.0774         estimate D2E/DX2                !
 ! R24   R(9,10)                 1.3906         estimate D2E/DX2                !
 ! R25   R(9,18)                 3.5952         estimate D2E/DX2                !
 ! R26   R(9,31)                 1.0771         estimate D2E/DX2                !
 ! R27   R(10,11)                1.3426         estimate D2E/DX2                !
 ! R28   R(10,12)                1.4716         estimate D2E/DX2                !
 ! R29   R(11,32)                1.0819         estimate D2E/DX2                !
 ! R30   R(12,13)                1.5338         estimate D2E/DX2                !
 ! R31   R(12,17)                1.5335         estimate D2E/DX2                !
 ! R32   R(12,33)                1.0989         estimate D2E/DX2                !
 ! R33   R(13,14)                1.526          estimate D2E/DX2                !
 ! R34   R(13,34)                1.0966         estimate D2E/DX2                !
 ! R35   R(13,35)                1.0972         estimate D2E/DX2                !
 ! R36   R(14,15)                1.5256         estimate D2E/DX2                !
 ! R37   R(14,36)                1.0969         estimate D2E/DX2                !
 ! R38   R(14,37)                1.096          estimate D2E/DX2                !
 ! R39   R(15,16)                1.5257         estimate D2E/DX2                !
 ! R40   R(15,38)                1.0958         estimate D2E/DX2                !
 ! R41   R(15,39)                1.097          estimate D2E/DX2                !
 ! R42   R(16,17)                1.5269         estimate D2E/DX2                !
 ! R43   R(16,40)                1.0971         estimate D2E/DX2                !
 ! R44   R(16,41)                1.096          estimate D2E/DX2                !
 ! R45   R(17,42)                1.0965         estimate D2E/DX2                !
 ! R46   R(17,43)                1.0971         estimate D2E/DX2                !
 ! R47   R(18,30)                2.9857         estimate D2E/DX2                !
 ! R48   R(18,31)                3.1382         estimate D2E/DX2                !
 ! A1    A(2,1,6)              111.4171         estimate D2E/DX2                !
 ! A2    A(2,1,19)             109.7159         estimate D2E/DX2                !
 ! A3    A(2,1,20)             109.5019         estimate D2E/DX2                !
 ! A4    A(6,1,19)             109.6962         estimate D2E/DX2                !
 ! A5    A(6,1,20)             109.4775         estimate D2E/DX2                !
 ! A6    A(19,1,20)            106.9256         estimate D2E/DX2                !
 ! A7    A(1,2,3)              111.5379         estimate D2E/DX2                !
 ! A8    A(1,2,21)             109.6669         estimate D2E/DX2                !
 ! A9    A(1,2,22)             109.4401         estimate D2E/DX2                !
 ! A10   A(3,2,21)             109.6364         estimate D2E/DX2                !
 ! A11   A(3,2,22)             109.5098         estimate D2E/DX2                !
 ! A12   A(21,2,22)            106.9385         estimate D2E/DX2                !
 ! A13   A(2,3,4)              111.8832         estimate D2E/DX2                !
 ! A14   A(2,3,23)             109.0414         estimate D2E/DX2                !
 ! A15   A(2,3,24)             109.6346         estimate D2E/DX2                !
 ! A16   A(4,3,23)             110.084          estimate D2E/DX2                !
 ! A17   A(4,3,24)             109.6683         estimate D2E/DX2                !
 ! A18   A(23,3,24)            106.3747         estimate D2E/DX2                !
 ! A19   A(3,4,5)              111.7844         estimate D2E/DX2                !
 ! A20   A(3,4,7)              110.9496         estimate D2E/DX2                !
 ! A21   A(3,4,25)             107.8218         estimate D2E/DX2                !
 ! A22   A(5,4,7)              110.7676         estimate D2E/DX2                !
 ! A23   A(5,4,25)             107.9387         estimate D2E/DX2                !
 ! A24   A(7,4,25)             107.3843         estimate D2E/DX2                !
 ! A25   A(4,5,6)              111.8928         estimate D2E/DX2                !
 ! A26   A(4,5,26)             109.9457         estimate D2E/DX2                !
 ! A27   A(4,5,27)             109.6108         estimate D2E/DX2                !
 ! A28   A(6,5,26)             109.2247         estimate D2E/DX2                !
 ! A29   A(6,5,27)             109.6314         estimate D2E/DX2                !
 ! A30   A(26,5,27)            106.3818         estimate D2E/DX2                !
 ! A31   A(1,6,5)              111.5643         estimate D2E/DX2                !
 ! A32   A(1,6,28)             109.6907         estimate D2E/DX2                !
 ! A33   A(1,6,29)             109.425          estimate D2E/DX2                !
 ! A34   A(5,6,28)             109.6098         estimate D2E/DX2                !
 ! A35   A(5,6,29)             109.5031         estimate D2E/DX2                !
 ! A36   A(28,6,29)            106.9354         estimate D2E/DX2                !
 ! A37   A(4,7,8)              124.7138         estimate D2E/DX2                !
 ! A38   A(4,7,11)             126.5772         estimate D2E/DX2                !
 ! A39   A(8,7,11)             108.7087         estimate D2E/DX2                !
 ! A40   A(7,8,9)              107.1012         estimate D2E/DX2                !
 ! A41   A(7,8,18)             169.4892         estimate D2E/DX2                !
 ! A42   A(7,8,30)             119.7212         estimate D2E/DX2                !
 ! A43   A(9,8,30)             133.1776         estimate D2E/DX2                !
 ! A44   A(8,9,10)             106.9144         estimate D2E/DX2                !
 ! A45   A(8,9,31)             132.8577         estimate D2E/DX2                !
 ! A46   A(10,9,18)            173.732          estimate D2E/DX2                !
 ! A47   A(10,9,31)            120.2279         estimate D2E/DX2                !
 ! A48   A(9,10,11)            108.6503         estimate D2E/DX2                !
 ! A49   A(9,10,12)            125.0452         estimate D2E/DX2                !
 ! A50   A(11,10,12)           126.3045         estimate D2E/DX2                !
 ! A51   A(7,11,10)            108.6243         estimate D2E/DX2                !
 ! A52   A(7,11,32)            125.7311         estimate D2E/DX2                !
 ! A53   A(10,11,32)           125.6443         estimate D2E/DX2                !
 ! A54   A(10,12,13)           110.7309         estimate D2E/DX2                !
 ! A55   A(10,12,17)           110.8754         estimate D2E/DX2                !
 ! A56   A(10,12,33)           107.4028         estimate D2E/DX2                !
 ! A57   A(13,12,17)           111.7198         estimate D2E/DX2                !
 ! A58   A(13,12,33)           107.9401         estimate D2E/DX2                !
 ! A59   A(17,12,33)           107.9891         estimate D2E/DX2                !
 ! A60   A(12,13,14)           112.0526         estimate D2E/DX2                !
 ! A61   A(12,13,34)           109.6605         estimate D2E/DX2                !
 ! A62   A(12,13,35)           110.0396         estimate D2E/DX2                !
 ! A63   A(14,13,34)           109.6614         estimate D2E/DX2                !
 ! A64   A(14,13,35)           108.9346         estimate D2E/DX2                !
 ! A65   A(34,13,35)           106.3257         estimate D2E/DX2                !
 ! A66   A(13,14,15)           111.5175         estimate D2E/DX2                !
 ! A67   A(13,14,36)           109.547          estimate D2E/DX2                !
 ! A68   A(13,14,37)           109.6322         estimate D2E/DX2                !
 ! A69   A(15,14,36)           109.4687         estimate D2E/DX2                !
 ! A70   A(15,14,37)           109.6209         estimate D2E/DX2                !
 ! A71   A(36,14,37)           106.9446         estimate D2E/DX2                !
 ! A72   A(14,15,16)           111.3069         estimate D2E/DX2                !
 ! A73   A(14,15,38)           109.7183         estimate D2E/DX2                !
 ! A74   A(14,15,39)           109.5132         estimate D2E/DX2                !
 ! A75   A(16,15,38)           109.7594         estimate D2E/DX2                !
 ! A76   A(16,15,39)           109.4921         estimate D2E/DX2                !
 ! A77   A(38,15,39)           106.9501         estimate D2E/DX2                !
 ! A78   A(15,16,17)           111.5825         estimate D2E/DX2                !
 ! A79   A(15,16,40)           109.4046         estimate D2E/DX2                !
 ! A80   A(15,16,41)           109.6183         estimate D2E/DX2                !
 ! A81   A(17,16,40)           109.5318         estimate D2E/DX2                !
 ! A82   A(17,16,41)           109.6852         estimate D2E/DX2                !
 ! A83   A(40,16,41)           106.9037         estimate D2E/DX2                !
 ! A84   A(12,17,16)           111.9497         estimate D2E/DX2                !
 ! A85   A(12,17,42)           109.7011         estimate D2E/DX2                !
 ! A86   A(12,17,43)           110.0009         estimate D2E/DX2                !
 ! A87   A(16,17,42)           109.5847         estimate D2E/DX2                !
 ! A88   A(16,17,43)           109.0955         estimate D2E/DX2                !
 ! A89   A(42,17,43)           106.3494         estimate D2E/DX2                !
 ! A90   A(8,18,31)             38.7519         estimate D2E/DX2                !
 ! A91   A(9,18,30)             38.518          estimate D2E/DX2                !
 ! A92   A(30,18,31)            55.1137         estimate D2E/DX2                !
 ! D1    D(6,1,2,3)            -55.454          estimate D2E/DX2                !
 ! D2    D(6,1,2,21)          -177.1029         estimate D2E/DX2                !
 ! D3    D(6,1,2,22)            65.881          estimate D2E/DX2                !
 ! D4    D(19,1,2,3)          -177.1319         estimate D2E/DX2                !
 ! D5    D(19,1,2,21)           61.2192         estimate D2E/DX2                !
 ! D6    D(19,1,2,22)          -55.7969         estimate D2E/DX2                !
 ! D7    D(20,1,2,3)            65.8033         estimate D2E/DX2                !
 ! D8    D(20,1,2,21)          -55.8456         estimate D2E/DX2                !
 ! D9    D(20,1,2,22)         -172.8617         estimate D2E/DX2                !
 ! D10   D(2,1,6,5)             55.4382         estimate D2E/DX2                !
 ! D11   D(2,1,6,28)           177.0873         estimate D2E/DX2                !
 ! D12   D(2,1,6,29)           -65.8954         estimate D2E/DX2                !
 ! D13   D(19,1,6,5)           177.1275         estimate D2E/DX2                !
 ! D14   D(19,1,6,28)          -61.2234         estimate D2E/DX2                !
 ! D15   D(19,1,6,29)           55.7939         estimate D2E/DX2                !
 ! D16   D(20,1,6,5)           -65.8334         estimate D2E/DX2                !
 ! D17   D(20,1,6,28)           55.8158         estimate D2E/DX2                !
 ! D18   D(20,1,6,29)          172.8331         estimate D2E/DX2                !
 ! D19   D(1,2,3,4)             54.1843         estimate D2E/DX2                !
 ! D20   D(1,2,3,23)           -67.8285         estimate D2E/DX2                !
 ! D21   D(1,2,3,24)           176.0815         estimate D2E/DX2                !
 ! D22   D(21,2,3,4)           175.8509         estimate D2E/DX2                !
 ! D23   D(21,2,3,23)           53.8381         estimate D2E/DX2                !
 ! D24   D(21,2,3,24)          -62.2518         estimate D2E/DX2                !
 ! D25   D(22,2,3,4)           -67.1102         estimate D2E/DX2                !
 ! D26   D(22,2,3,23)          170.877          estimate D2E/DX2                !
 ! D27   D(22,2,3,24)           54.7871         estimate D2E/DX2                !
 ! D28   D(2,3,4,5)            -52.7646         estimate D2E/DX2                !
 ! D29   D(2,3,4,7)           -176.9509         estimate D2E/DX2                !
 ! D30   D(2,3,4,25)            65.7177         estimate D2E/DX2                !
 ! D31   D(23,3,4,5)            68.6486         estimate D2E/DX2                !
 ! D32   D(23,3,4,7)           -55.5377         estimate D2E/DX2                !
 ! D33   D(23,3,4,25)         -172.8691         estimate D2E/DX2                !
 ! D34   D(24,3,4,5)          -174.6426         estimate D2E/DX2                !
 ! D35   D(24,3,4,7)            61.1711         estimate D2E/DX2                !
 ! D36   D(24,3,4,25)          -56.1603         estimate D2E/DX2                !
 ! D37   D(3,4,5,6)             52.7396         estimate D2E/DX2                !
 ! D38   D(3,4,5,26)           -68.817          estimate D2E/DX2                !
 ! D39   D(3,4,5,27)           174.5799         estimate D2E/DX2                !
 ! D40   D(7,4,5,6)            177.0278         estimate D2E/DX2                !
 ! D41   D(7,4,5,26)            55.4712         estimate D2E/DX2                !
 ! D42   D(7,4,5,27)           -61.1319         estimate D2E/DX2                !
 ! D43   D(25,4,5,6)           -65.6731         estimate D2E/DX2                !
 ! D44   D(25,4,5,26)          172.7703         estimate D2E/DX2                !
 ! D45   D(25,4,5,27)           56.1672         estimate D2E/DX2                !
 ! D46   D(3,4,7,8)           -119.9452         estimate D2E/DX2                !
 ! D47   D(3,4,7,11)            59.8376         estimate D2E/DX2                !
 ! D48   D(5,4,7,8)            115.2919         estimate D2E/DX2                !
 ! D49   D(5,4,7,11)           -64.9254         estimate D2E/DX2                !
 ! D50   D(25,4,7,8)            -2.3468         estimate D2E/DX2                !
 ! D51   D(25,4,7,11)          177.436          estimate D2E/DX2                !
 ! D52   D(4,5,6,1)            -54.1333         estimate D2E/DX2                !
 ! D53   D(4,5,6,28)          -175.8293         estimate D2E/DX2                !
 ! D54   D(4,5,6,29)            67.1549         estimate D2E/DX2                !
 ! D55   D(26,5,6,1)            67.8376         estimate D2E/DX2                !
 ! D56   D(26,5,6,28)          -53.8583         estimate D2E/DX2                !
 ! D57   D(26,5,6,29)         -170.8742         estimate D2E/DX2                !
 ! D58   D(27,5,6,1)          -175.9618         estimate D2E/DX2                !
 ! D59   D(27,5,6,28)           62.3423         estimate D2E/DX2                !
 ! D60   D(27,5,6,29)          -54.6736         estimate D2E/DX2                !
 ! D61   D(4,7,8,9)            179.5398         estimate D2E/DX2                !
 ! D62   D(4,7,8,18)            33.8288         estimate D2E/DX2                !
 ! D63   D(4,7,8,30)            -0.3502         estimate D2E/DX2                !
 ! D64   D(11,7,8,9)            -0.276          estimate D2E/DX2                !
 ! D65   D(11,7,8,18)         -145.987          estimate D2E/DX2                !
 ! D66   D(11,7,8,30)          179.834          estimate D2E/DX2                !
 ! D67   D(4,7,11,10)         -179.7269         estimate D2E/DX2                !
 ! D68   D(4,7,11,32)            0.0945         estimate D2E/DX2                !
 ! D69   D(8,7,11,10)            0.0846         estimate D2E/DX2                !
 ! D70   D(8,7,11,32)          179.9059         estimate D2E/DX2                !
 ! D71   D(7,8,9,10)             0.3515         estimate D2E/DX2                !
 ! D72   D(7,8,9,31)          -179.5742         estimate D2E/DX2                !
 ! D73   D(30,8,9,10)         -179.7795         estimate D2E/DX2                !
 ! D74   D(30,8,9,31)            0.2948         estimate D2E/DX2                !
 ! D75   D(7,8,18,31)          149.2512         estimate D2E/DX2                !
 ! D76   D(8,9,10,11)           -0.3079         estimate D2E/DX2                !
 ! D77   D(8,9,10,12)          179.7052         estimate D2E/DX2                !
 ! D78   D(18,9,10,11)         119.2576         estimate D2E/DX2                !
 ! D79   D(18,9,10,12)         -60.7294         estimate D2E/DX2                !
 ! D80   D(31,9,10,11)         179.6291         estimate D2E/DX2                !
 ! D81   D(31,9,10,12)          -0.3579         estimate D2E/DX2                !
 ! D82   D(10,9,18,30)        -123.5109         estimate D2E/DX2                !
 ! D83   D(9,10,11,7)            0.1379         estimate D2E/DX2                !
 ! D84   D(9,10,11,32)        -179.6837         estimate D2E/DX2                !
 ! D85   D(12,10,11,7)        -179.8753         estimate D2E/DX2                !
 ! D86   D(12,10,11,32)          0.3031         estimate D2E/DX2                !
 ! D87   D(9,10,12,13)        -120.1489         estimate D2E/DX2                !
 ! D88   D(9,10,12,17)         115.2522         estimate D2E/DX2                !
 ! D89   D(9,10,12,33)          -2.5178         estimate D2E/DX2                !
 ! D90   D(11,10,12,13)         59.8665         estimate D2E/DX2                !
 ! D91   D(11,10,12,17)        -64.7325         estimate D2E/DX2                !
 ! D92   D(11,10,12,33)        177.4975         estimate D2E/DX2                !
 ! D93   D(10,12,13,14)       -176.6918         estimate D2E/DX2                !
 ! D94   D(10,12,13,34)         61.2878         estimate D2E/DX2                !
 ! D95   D(10,12,13,35)        -55.331          estimate D2E/DX2                !
 ! D96   D(17,12,13,14)        -52.5743         estimate D2E/DX2                !
 ! D97   D(17,12,13,34)       -174.5948         estimate D2E/DX2                !
 ! D98   D(17,12,13,35)         68.7864         estimate D2E/DX2                !
 ! D99   D(33,12,13,14)         66.0065         estimate D2E/DX2                !
 ! D100  D(33,12,13,34)        -56.014          estimate D2E/DX2                !
 ! D101  D(33,12,13,35)       -172.6328         estimate D2E/DX2                !
 ! D102  D(10,12,17,16)        176.5581         estimate D2E/DX2                !
 ! D103  D(10,12,17,42)        -61.5599         estimate D2E/DX2                !
 ! D104  D(10,12,17,43)         55.089          estimate D2E/DX2                !
 ! D105  D(13,12,17,16)         52.5218         estimate D2E/DX2                !
 ! D106  D(13,12,17,42)        174.4039         estimate D2E/DX2                !
 ! D107  D(13,12,17,43)        -68.9473         estimate D2E/DX2                !
 ! D108  D(33,12,17,16)        -66.0299         estimate D2E/DX2                !
 ! D109  D(33,12,17,42)         55.8522         estimate D2E/DX2                !
 ! D110  D(33,12,17,43)        172.5011         estimate D2E/DX2                !
 ! D111  D(12,13,14,15)         54.1816         estimate D2E/DX2                !
 ! D112  D(12,13,14,36)        -67.1608         estimate D2E/DX2                !
 ! D113  D(12,13,14,37)        175.7737         estimate D2E/DX2                !
 ! D114  D(34,13,14,15)        176.2016         estimate D2E/DX2                !
 ! D115  D(34,13,14,36)         54.8592         estimate D2E/DX2                !
 ! D116  D(34,13,14,37)        -62.2063         estimate D2E/DX2                !
 ! D117  D(35,13,14,15)        -67.8128         estimate D2E/DX2                !
 ! D118  D(35,13,14,36)        170.8448         estimate D2E/DX2                !
 ! D119  D(35,13,14,37)         53.7793         estimate D2E/DX2                !
 ! D120  D(13,14,15,16)        -55.5219         estimate D2E/DX2                !
 ! D121  D(13,14,15,38)       -177.208          estimate D2E/DX2                !
 ! D122  D(13,14,15,39)         65.6895         estimate D2E/DX2                !
 ! D123  D(36,14,15,16)         65.8661         estimate D2E/DX2                !
 ! D124  D(36,14,15,38)        -55.8201         estimate D2E/DX2                !
 ! D125  D(36,14,15,39)       -172.9226         estimate D2E/DX2                !
 ! D126  D(37,14,15,16)       -177.1206         estimate D2E/DX2                !
 ! D127  D(37,14,15,38)         61.1933         estimate D2E/DX2                !
 ! D128  D(37,14,15,39)        -55.9092         estimate D2E/DX2                !
 ! D129  D(14,15,16,17)         55.5613         estimate D2E/DX2                !
 ! D130  D(14,15,16,40)        -65.8065         estimate D2E/DX2                !
 ! D131  D(14,15,16,41)        177.2683         estimate D2E/DX2                !
 ! D132  D(38,15,16,17)        177.2236         estimate D2E/DX2                !
 ! D133  D(38,15,16,40)         55.8558         estimate D2E/DX2                !
 ! D134  D(38,15,16,41)        -61.0695         estimate D2E/DX2                !
 ! D135  D(39,15,16,17)        -65.6624         estimate D2E/DX2                !
 ! D136  D(39,15,16,40)        172.9698         estimate D2E/DX2                !
 ! D137  D(39,15,16,41)         56.0445         estimate D2E/DX2                !
 ! D138  D(15,16,17,12)        -54.182          estimate D2E/DX2                !
 ! D139  D(15,16,17,42)       -176.1308         estimate D2E/DX2                !
 ! D140  D(15,16,17,43)         67.807          estimate D2E/DX2                !
 ! D141  D(40,16,17,12)         67.1119         estimate D2E/DX2                !
 ! D142  D(40,16,17,42)        -54.8369         estimate D2E/DX2                !
 ! D143  D(40,16,17,43)       -170.8991         estimate D2E/DX2                !
 ! D144  D(41,16,17,12)       -175.8502         estimate D2E/DX2                !
 ! D145  D(41,16,17,42)         62.201          estimate D2E/DX2                !
 ! D146  D(41,16,17,43)        -53.8612         estimate D2E/DX2                !
 --------------------------------------------------------------------------------
 Trust Radius=3.00D-01 FncErr=1.00D-07 GrdErr=1.00D-06
 Number of steps in this run= 258 maximum allowed number of steps= 258.
 GradGradGradGradGradGradGradGradGradGradGradGradGradGradGradGradGradGrad

 Leave Link  103 at Sat Oct  2 05:45:22 2021, MaxMem= 1879048192 cpu:       0.0
 (Enter /sw/target/amd/app/gaussian/Gaussian09RevA.02_gcc-4.9.2/g09/l202.exe)
                          Input orientation:                          
 ---------------------------------------------------------------------
 Center     Atomic      Atomic             Coordinates (Angstroms)
 Number     Number       Type             X           Y           Z
 ---------------------------------------------------------------------
      1          6           0       -0.294546    0.050487    2.628647
      2          6           0        0.161353    1.229075    1.774471
      3          6           0        1.478763    0.929535    1.063465
      4          6           0        1.405275   -0.365609    0.245660
      5          6           0        0.912816   -1.546008    1.092019
      6          6           0       -0.399651   -1.227957    1.803199
      7          7           0        2.704358   -0.672377   -0.371084
      8          6           0        2.923656   -0.786821   -1.737203
      9          6           0        4.250079   -1.066581   -1.909200
     10          7           0        4.818609   -1.126455   -0.641587
     11          6           0        3.863025   -0.882691    0.269518
     12          6           0        6.235457   -1.410951   -0.363474
     13          6           0        6.376780   -2.668768    0.502776
     14          6           0        7.829827   -2.946285    0.877189
     15          6           0        8.478184   -1.734587    1.539761
     16          6           0        8.369919   -0.495483    0.656190
     17          6           0        6.920134   -0.198906    0.279905
     18         17           0        3.029928   -0.617485   -5.261052
     19          1           0       -1.265561    0.277310    3.083636
     20          1           0        0.415745   -0.102334    3.451078
     21          1           0        0.276758    2.118271    2.404412
     22          1           0       -0.611266    1.461902    1.031431
     23          1           0        2.279810    0.859135    1.809123
     24          1           0        1.741259    1.766889    0.405857
     25          1           0        0.683833   -0.208723   -0.568885
     26          1           0        1.671352   -1.814314    1.837002
     27          1           0        0.781438   -2.427464    0.453132
     28          1           0       -0.678069   -2.065141    2.453003
     29          1           0       -1.200696   -1.118733    1.061930
     30          1           0        2.103631   -0.652407   -2.422920
     31          1           0        4.857113   -1.229198   -2.784008
     32          1           0        4.005869   -0.857308    1.341617
     33          1           0        6.726675   -1.606469   -1.326833
     34          1           0        5.961732   -3.532467   -0.030381
     35          1           0        5.786747   -2.560789    1.421555
     36          1           0        8.395402   -3.217107   -0.022759
     37          1           0        7.877615   -3.806011    1.555255
     38          1           0        9.532040   -1.948285    1.750626
     39          1           0        7.992141   -1.540316    2.503818
     40          1           0        8.962191   -0.644767   -0.255104
     41          1           0        8.799817    0.367205    1.177908
     42          1           0        6.886199    0.653585   -0.408882
     43          1           0        6.371638    0.108474    1.179015
 ---------------------------------------------------------------------
                    Distance matrix (angstroms):
                    1          2          3          4          5
     1  C    0.000000
     2  C    1.525297   0.000000
     3  C    2.523320   1.526703   0.000000
     4  C    2.956544   2.535275   1.533493   0.000000
     5  C    2.523439   2.954915   2.539571   1.533682   0.000000
     6  C    1.525395   2.520428   2.954728   2.535218   1.526272
     7  N    4.302830   3.832206   2.475104   1.470408   2.472554
     8  C    5.488038   4.901633   3.588501   2.532716   3.553074
     9  C    6.518705   5.962981   4.527848   3.636990   4.513811
    10  N    6.182554   5.751164   4.276549   3.607901   4.293790
    11  C    4.870494   4.519603   3.098261   2.511669   3.133724
    12  C    7.330043   6.959546   5.490006   4.979402   5.519710
    13  C    7.511343   7.445933   6.103501   5.485118   5.609162
    14  C    8.834800   8.777485   7.442627   6.952237   7.060593
    15  C    9.018478   8.832217   7.504418   7.319484   7.580951
    16  C    8.902900   8.461986   7.048729   6.977942   7.543337
    17  C    7.591469   7.067813   5.612118   5.517485   6.209837
    18  Cl   8.587530   7.819021   6.693198   5.746897   6.760608
    19  H    1.096053   2.157742   3.469553   3.949786   3.469345
    20  H    1.097388   2.156010   2.809886   3.364994   2.810060
    21  H    2.156942   1.095816   2.157788   3.478997   3.943841
    22  H    2.154878   1.096930   2.157002   2.832607   3.372539
    23  H    2.820078   2.150794   1.096648   2.170074   2.857905
    24  H    3.468622   2.158345   1.096593   2.164739   3.483163
    25  H    3.353897   2.798493   2.142921   1.099352   2.144613
    26  H    2.822931   3.397973   2.857299   2.168389   1.096524
    27  H    3.468552   3.937096   3.482558   2.164132   1.096541
    28  H    2.157272   3.466539   3.943453   3.478662   2.157011
    29  H    2.154712   2.806260   3.372670   2.832768   2.156479
    30  H    5.635924   4.993046   3.879160   2.773315   3.817244
    31  H    7.581162   6.990923   5.556656   4.673314   5.539082
    32  H    4.579750   4.395528   3.107482   2.864608   3.178613
    33  H    8.227325   7.794989   6.299637   5.685928   6.297258
    34  H    7.684335   7.718431   6.418954   5.555762   5.540519
    35  H    6.727404   6.792104   5.556017   5.039727   4.989346
    36  H    9.655171   9.528806   8.137225   7.554137   7.747541
    37  H    9.099943   9.216336   7.975748   7.445979   7.336936
    38  H   10.066171   9.894744   8.579587   8.415111   8.653705
    39  H    8.438923   8.338029   7.113289   7.061588   7.218729
    40  H    9.720421   9.224164   7.760074   7.578633   8.210932
    41  H    9.214792   8.701825   7.343510   7.489016   8.116190
    42  H    7.820064   7.093784   5.611089   5.613173   6.540046
    43  H    6.822229   6.338609   4.962633   5.075497   5.704701
                    6          7          8          9         10
     6  C    0.000000
     7  N    3.830281   0.000000
     8  C    4.875800   1.388334   0.000000
     9  C    5.952138   2.215953   1.366472   0.000000
    10  N    5.763464   2.179315   2.215078   1.390558   0.000000
    11  C    4.543324   1.340564   2.217777   2.220459   1.342637
    12  C    6.982308   3.607521   3.639326   2.539603   1.471646
    13  C    7.048905   4.270350   4.525847   3.592699   2.473094
    14  C    8.457805   5.744500   5.963962   4.910382   3.832218
    15  C    8.896180   6.173871   6.518400   5.497130   4.303556
    16  C    8.874543   5.760656   5.956089   4.886764   3.833296
    17  C    7.547094   4.291938   4.515109   3.560089   2.475057
    18  Cl   7.876442   4.901101   3.529515   3.595186   4.979747
    19  H    2.157578   5.347640   6.474751   7.560207   7.270829
    20  H    2.155784   4.491284   5.803138   6.660666   6.097864
    21  H    3.466443   4.624320   5.709519   6.673665   6.358834
    22  H    2.806376   4.185159   5.021729   6.218779   6.243566
    23  H    3.396395   2.697976   3.962340   4.627771   4.048956
    24  H    3.937660   2.735181   3.537260   4.436465   4.351857
    25  H    2.799921   2.082456   2.591520   3.905186   4.236023
    26  H    2.152675   2.691982   3.924150   4.609009   4.064699
    27  H    2.157886   2.730803   3.475396   4.411812   4.380614
    28  H    1.095736   4.621264   5.671363   6.656770   6.377389
    29  H    1.096851   4.183565   4.995558   6.208163   6.255722
    30  H    4.945479   2.138060   1.077365   2.245593   3.281611
    31  H    6.976822   3.281250   2.242711   1.077137   2.145229
    32  H    4.445115   2.159045   3.264244   3.266687   2.160112
    33  H    7.792618   4.238516   3.911928   2.600800   2.083433
    34  H    7.009992   4.348181   4.436408   3.541230   2.732983
    35  H    6.339844   4.034945   4.617576   3.960800   2.692798
    36  H    9.200207   6.243794   6.227810   5.036579   4.188941
    37  H    8.673003   6.347679   6.670645   5.715413   4.622084
    38  H    9.957918   7.262701   7.562056   6.486204   5.349254
    39  H    8.426780   6.081039   6.651583   5.805358   4.487334
    40  H    9.603167   6.258968   6.219381   5.011782   4.189351
    41  H    9.357657   6.374537   6.660249   5.682085   4.625105
    42  H    7.843285   4.387185   4.420515   3.486983   2.738178
    43  H    6.930081   4.057275   4.603745   3.926683   2.692869
                   11         12         13         14         15
    11  C    0.000000
    12  C    2.511607   0.000000
    13  C    3.092482   1.533774   0.000000
    14  C    4.512561   2.537422   1.525958   0.000000
    15  C    4.861989   2.959201   2.522683   1.525642   0.000000
    16  C    4.539994   2.536479   2.952847   2.519319   1.525712
    17  C    3.132665   1.533549   2.538725   2.955061   2.524494
    18  Cl   5.599248   5.906883   6.973584   8.132671   8.785355
    19  H    5.963828   8.426034   8.587525   9.898791  10.068358
    20  H    4.755526   7.080419   7.128325   8.347550   8.445135
    21  H    5.140511   7.458062   7.983873   9.221225   9.102500
    22  H    5.108512   7.554909   8.134783   9.524072   9.648524
    23  H    2.812634   5.051793   5.562176   6.793557   6.724566
    24  H    3.397168   5.557729   6.416580   7.714067   7.676733
    25  H    3.356250   5.684019   6.293642   7.787850   8.217454
    26  H    2.851027   5.082898   4.965008   6.334779   6.813785
    27  H    3.451987   5.607715   5.600763   7.080169   7.803892
    28  H    5.175648   7.493821   7.344294   8.697351   9.207619
    29  H    5.130780   7.577172   7.754573   9.215445   9.710217
    30  H    3.224549   4.678535   5.557446   6.995850   7.583461
    31  H    3.229907   2.791389   3.896755   5.018942   5.662381
    32  H    1.081871   2.860929   3.099397   4.382029   4.561850
    33  H    3.357482   1.098901   2.144382   2.805310   3.361779
    34  H    3.393497   2.164880   1.096584   2.158025   3.468465
    35  H    2.800698   2.170207   1.097248   2.149213   2.817874
    36  H    5.106601   2.836134   2.156780   1.096871   2.155502
    37  H    5.129898   3.480592   2.157207   1.095986   2.156785
    38  H    5.955410   3.952924   3.468701   2.157875   1.095785
    39  H    4.740693   3.365121   2.808375   2.156159   1.096989
    40  H    5.131601   2.834406   3.369764   2.803805   2.154881
    41  H    5.172942   3.480465   3.942593   3.465621   2.156829
    42  H    3.458316   2.165141   3.482621   3.937445   3.469148
    43  H    2.846530   2.169440   2.858390   3.398377   2.822152
                   16         17         18         19         20
    16  C    0.000000
    17  C    1.526900   0.000000
    18  Cl   7.971458   6.783149   0.000000
    19  H    9.966552   8.665638   9.427921   0.000000
    20  H    8.440074   7.236902   9.110464   1.762365   0.000000
    21  H    8.682583   7.349645   8.592069   2.495842   2.458844
    22  H    9.199665   7.748874   7.561580   2.458231   3.058803
    23  H    6.344578   4.999057   7.261574   3.812159   2.663678
    24  H    7.008575   5.540845   6.281701   4.293054   3.811084
    25  H    7.788386   6.293806   5.261909   4.168605   4.030297
    26  H    6.928523   5.708223   7.325333   3.815028   2.666958
    27  H    7.833188   6.532999   6.401845   4.292500   3.811515
    28  H    9.357267   8.120215   8.680530   2.495980   2.458697
    29  H    9.599466   8.210087   7.624273   2.457730   3.058427
    30  H    6.983689   5.541627   2.985672   6.522114   6.136399
    31  H    4.971228   3.834726   3.138238   8.613126   7.737692
    32  H    4.432342   3.170752   6.678713   5.666565   4.231880
    33  H    2.804803   2.144823   5.488361   9.320767   8.057214
    34  H    3.936244   3.482448   6.667271   8.743298   7.392181
    35  H    3.394709   2.857696   7.485567   7.781540   6.245849
    36  H    2.805149   3.373064   7.936376  10.732886   9.243608
    37  H    3.465584   3.943919   8.951469  10.129517   8.543470
    38  H    2.158460   3.470648   9.654642  11.104880   9.455470
    39  H    2.155950   2.809693   9.261122   9.452248   7.769612
    40  H    1.097055   2.157550   7.762216  10.798347   9.331225
    41  H    1.096007   2.158726   8.701806  10.244594   8.699450
    42  H    2.157814   1.096503   6.326926   8.876398   7.572152
    43  H    2.152030   1.097146   7.291674   7.872922   6.378039
                   21         22         23         24         25
    21  H    0.000000
    22  H    1.761954   0.000000
    23  H    2.439674   3.053923   0.000000
    24  H    2.502490   2.453311   1.755907   0.000000
    25  H    3.797513   2.651278   3.056531   2.443627   0.000000
    26  H    4.210946   4.073435   2.741957   3.857211   3.056372
    27  H    4.972515   4.171477   3.858182   4.303033   2.444761
    28  H    4.291269   3.803335   4.208921   4.972767   3.799062
    29  H    3.803068   2.647270   4.072368   4.172811   2.653135
    30  H    5.858093   4.875808   4.497331   3.739824   2.377000
    31  H    7.687971   7.190463   5.665728   5.372180   4.833675
    32  H    4.887727   5.176184   2.478713   3.590337   3.886722
    33  H    8.330505   8.295884   5.973946   6.263875   6.248530
    34  H    8.377230   8.323188   6.018845   6.788658   6.260470
    35  H    7.295176   7.567615   4.913726   6.010526   5.961024
    36  H   10.013481  10.204142   7.574432   8.324756   8.295598
    37  H    9.674255  10.004318   7.291328   8.368584   8.318832
    38  H   10.130378  10.725356   7.776881   8.735399   9.311121
    39  H    8.539454   9.230376   6.234637   7.376488   8.039031
    40  H    9.494427   9.886571   7.153808   7.641650   8.295770
    41  H    8.787097   9.475668   6.568936   7.237293   8.321789
    42  H    7.331073   7.677229   5.116700   5.326692   6.264066
    43  H    6.533640   7.114387   4.207564   4.978808   5.958767
                   26         27         28         29         30
    26  H    0.000000
    27  H    1.755847   0.000000
    28  H    2.441752   2.502184   0.000000
    29  H    3.055033   2.451993   1.761791   0.000000
    30  H    4.436646   3.629145   5.788635   4.824958   0.000000
    31  H    5.643153   5.340978   7.665724   7.176385   2.836324
    32  H    2.571233   3.694828   4.963196   5.220621   4.222822
    33  H    5.967357   6.260044   8.326331   8.293810   4.846048
    34  H    4.984630   5.318859   7.239282   7.636729   5.376237
    35  H    4.203130   5.099876   6.565318   7.143754   5.655727
    36  H    7.116136   7.669580   9.475458   9.882552   7.205890
    37  H    6.524105   7.312373   8.777033   9.480536   7.688302
    38  H    7.862304   8.859240  10.234907  10.786755   8.618529
    39  H    6.361768   7.548946   8.686229   9.314775   7.728886
    40  H    7.674704   8.402638  10.113650  10.258825   7.193005
    41  H    7.483879   8.522316   9.867750  10.110970   7.671015
    42  H    6.191054   6.892317   8.532292   8.408464   5.351160
    43  H    5.120816   6.181280   7.486389   7.672027   5.636378
                   31         32         33         34         35
    31  H    0.000000
    32  H    4.228912   0.000000
    33  H    2.400199   3.883896   0.000000
    34  H    3.756021   3.586677   2.444461   0.000000
    35  H    4.508228   2.465718   3.057422   1.755818   0.000000
    36  H    4.908745   5.167028   2.660717   2.454029   3.053175
    37  H    5.881548   4.871438   3.803824   2.501935   2.437249
    38  H    6.552475   5.647662   4.178237   4.292868   3.809287
    39  H    6.155185   4.208037   4.034807   3.809645   2.660155
    40  H    4.856807   5.211508   2.659136   4.170379   4.070107
    41  H    5.812933   4.950572   3.803555   4.972135   4.208456
    42  H    3.647367   3.693689   2.444571   4.303595   3.858949
    43  H    4.448450   2.560476   3.057181   3.858382   2.743335
                   36         37         38         39         40
    36  H    0.000000
    37  H    1.762112   0.000000
    38  H    2.459014   2.495283   0.000000
    39  H    3.059059   2.458915   1.762108   0.000000
    40  H    2.644271   3.800943   2.459033   3.058539   0.000000
    41  H    3.801637   4.290521   2.495125   2.459474   1.761811
    42  H    4.172415   4.972799   4.293446   3.810529   2.453387
    43  H    4.074232   4.211022   3.813808   2.664515   3.055328
                   41         42         43
    41  H    0.000000
    42  H    2.502369   0.000000
    43  H    2.441924   1.755943   0.000000
 Stoichiometry    C15H25ClN2
 Framework group  C1[X(C15H25ClN2)]
 Deg. of freedom   123
 Full point group                 C1      NOp   1
 Largest Abelian subgroup         C1      NOp   1
 Largest concise Abelian subgroup C1      NOp   1
                         Standard orientation:                         
 ---------------------------------------------------------------------
 Center     Atomic      Atomic             Coordinates (Angstroms)
 Number     Number       Type             X           Y           Z
 ---------------------------------------------------------------------
      1          6           0       -4.425619   -2.382548    0.070467
      2          6           0       -4.137997   -1.542665    1.310790
      3          6           0       -2.726619   -0.961430    1.279172
      4          6           0       -2.461418   -0.174243   -0.009861
      5          6           0       -2.783594   -1.003091   -1.259419
      6          6           0       -4.193889   -1.584465   -1.208671
      7          7           0       -1.075280    0.314613   -0.051592
      8          6           0       -0.710565    1.651942   -0.129070
      9          6           0        0.655173    1.696250   -0.135617
     10          7           0        1.102934    0.381390   -0.069987
     11          6           0        0.036856   -0.433152   -0.018266
     12          6           0        2.515666   -0.030706   -0.059621
     13          6           0        2.825196   -0.938545   -1.256484
     14          6           0        4.262810   -1.449600   -1.231261
     15          6           0        4.589471   -2.136270    0.091373
     16          6           0        4.317560   -1.214655    1.276482
     17          6           0        2.879471   -0.701535    1.270570
     18         17           0       -0.311127    5.155038    0.032934
     19          1           0       -5.460644   -2.742036    0.099192
     20          1           0       -3.779274   -3.269395    0.070589
     21          1           0       -4.263149   -2.157144    2.209438
     22          1           0       -4.868630   -0.727159    1.376961
     23          1           0       -2.001156   -1.777890    1.377833
     24          1           0       -2.577401   -0.308662    2.147585
     25          1           0       -3.120192    0.705865   -0.008204
     26          1           0       -2.059744   -1.820184   -1.363171
     27          1           0       -2.674736   -0.378065   -2.153787
     28          1           0       -4.357936   -2.228023   -2.080199
     29          1           0       -4.927564   -0.771367   -1.269283
     30          1           0       -1.473010    2.412101   -0.168459
     31          1           0        1.361668    2.508207   -0.178206
     32          1           0        0.070691   -1.512744    0.043230
     33          1           0        3.124130    0.879005   -0.158522
     34          1           0        2.643978   -0.392730   -2.190156
     35          1           0        2.142145   -1.797232   -1.263640
     36          1           0        4.952980   -0.611684   -1.388387
     37          1           0        4.418735   -2.151310   -2.058591
     38          1           0        5.640311   -2.446828    0.097066
     39          1           0        3.986240   -3.047176    0.190105
     40          1           0        5.010395   -0.364694    1.243697
     41          1           0        4.514531   -1.750448    2.212089
     42          1           0        2.739511    0.009410    2.093544
     43          1           0        2.198687   -1.539209    1.466948
 ---------------------------------------------------------------------
 Rotational constants (GHZ):      0.3260650      0.2050908      0.1402588
 Leave Link  202 at Sat Oct  2 05:45:22 2021, MaxMem= 1879048192 cpu:       0.1
 (Enter /sw/target/amd/app/gaussian/Gaussian09RevA.02_gcc-4.9.2/g09/l301.exe)
 Standard basis: 6-31G(d) (6D, 7F)
 Ernie: Thresh=  0.10000D-02 Tol=  0.10000D-05 Strict=F.
 There are   324 symmetry adapted basis functions of A   symmetry.
 Integral buffers will be    131072 words long.
 Raffenetti 2 integral format.
 Two-electron integral symmetry is turned on.
   324 basis functions,   628 primitive gaussians,   324 cartesian basis functions
    73 alpha electrons       73 beta electrons
       nuclear repulsion energy      1441.5207730666 Hartrees.
 IExCor=  402 DFT=T Ex+Corr=B3LYP ExCW=0 ScaHFX=  0.200000
 ScaDFX=  0.800000  0.720000  1.000000  0.810000 ScalE2=  1.000000  1.000000
 IRadAn=      0 IRanWt=     -1 IRanGd=            0 ICorTp=0
 NAtoms=   43 NActive=   43 NUniq=   43 SFac= 7.50D-01 NAtFMM=   80 NAOKFM=F Big=F
 Leave Link  301 at Sat Oct  2 05:45:23 2021, MaxMem= 1879048192 cpu:       0.1
 (Enter /sw/target/amd/app/gaussian/Gaussian09RevA.02_gcc-4.9.2/g09/l302.exe)
 NPDir=0 NMtPBC=     1 NCelOv=     1 NCel=       1 NClECP=     1 NCelD=      1
         NCelK=      1 NCelE2=     1 NClLst=     1 CellRange=     0.0.
 One-electron integrals computed using PRISM.
 NBasis=   324 RedAO= T  NBF=   324
 NBsUse=   324 1.00D-06 NBFU=   324
 Precomputing XC quadrature grid using
 IXCGrd= 2 IRadAn=           0 IRanWt=          -1 IRanGd=           0 AccXCQ= 1.00D-10.
 NRdTot=    2736 NPtTot=      348638 NUsed=      368362 NTot=      368394
 NSgBfM=   318   318   320   320   320 NAtAll=    43    43.
 Leave Link  302 at Sat Oct  2 05:45:34 2021, MaxMem= 1879048192 cpu:       5.0
 (Enter /sw/target/amd/app/gaussian/Gaussian09RevA.02_gcc-4.9.2/g09/l303.exe)
 DipDrv:  MaxL=1.
 Leave Link  303 at Sat Oct  2 05:45:36 2021, MaxMem= 1879048192 cpu:       0.3
 (Enter /sw/target/amd/app/gaussian/Gaussian09RevA.02_gcc-4.9.2/g09/l401.exe)
 Harris functional with IExCor=  402 diagonalized for initial guess.
 ExpMin= 1.43D-01 ExpMax= 2.52D+04 ExpMxC= 3.78D+03 IAcc=1 IRadAn=         1 AccDes= 0.00D+00
 HarFok:  IExCor=  402 AccDes= 0.00D+00 IRadAn=         1 IDoV= 1
 ScaDFX=  1.000000  1.000000  1.000000  1.000000
 FoFCou: FMM=F IPFlag=           0 FMFlag=      100000 FMFlg1=           0
         NFxFlg=           0 DoJE=T BraDBF=F KetDBF=T FulRan=T
         Omega=  0.000000  0.000000  1.000000  0.000000  0.000000 ICntrl=     500 IOpCl=  0
         NMat0=    1 NMatS0=    1 NMatT0=    0 NMatD0=    1 NMtDS0=    0 NMtDT0=    0
         I1Cent=           4 NGrid=           0.
 Petite list used in FoFCou.
 Harris En= -1156.48668697529    
 Initial guess orbital symmetries:
       Occupied  (A) (A) (A) (A) (A) (A) (A) (A) (A) (A) (A) (A)
                 (A) (A) (A) (A) (A) (A) (A) (A) (A) (A) (A) (A)
                 (A) (A) (A) (A) (A) (A) (A) (A) (A) (A) (A) (A)
                 (A) (A) (A) (A) (A) (A) (A) (A) (A) (A) (A) (A)
                 (A) (A) (A) (A) (A) (A) (A) (A) (A) (A) (A) (A)
                 (A) (A) (A) (A) (A) (A) (A) (A) (A) (A) (A) (A)
                 (A)
       Virtual   (A) (A) (A) (A) (A) (A) (A) (A) (A) (A) (A) (A)
                 (A) (A) (A) (A) (A) (A) (A) (A) (A) (A) (A) (A)
                 (A) (A) (A) (A) (A) (A) (A) (A) (A) (A) (A) (A)
                 (A) (A) (A) (A) (A) (A) (A) (A) (A) (A) (A) (A)
                 (A) (A) (A) (A) (A) (A) (A) (A) (A) (A) (A) (A)
                 (A) (A) (A) (A) (A) (A) (A) (A) (A) (A) (A) (A)
                 (A) (A) (A) (A) (A) (A) (A) (A) (A) (A) (A) (A)
                 (A) (A) (A) (A) (A) (A) (A) (A) (A) (A) (A) (A)
                 (A) (A) (A) (A) (A) (A) (A) (A) (A) (A) (A) (A)
                 (A) (A) (A) (A) (A) (A) (A) (A) (A) (A) (A) (A)
                 (A) (A) (A) (A) (A) (A) (A) (A) (A) (A) (A) (A)
                 (A) (A) (A) (A) (A) (A) (A) (A) (A) (A) (A) (A)
                 (A) (A) (A) (A) (A) (A) (A) (A) (A) (A) (A) (A)
                 (A) (A) (A) (A) (A) (A) (A) (A) (A) (A) (A) (A)
                 (A) (A) (A) (A) (A) (A) (A) (A) (A) (A) (A) (A)
                 (A) (A) (A) (A) (A) (A) (A) (A) (A) (A) (A) (A)
                 (A) (A) (A) (A) (A) (A) (A) (A) (A) (A) (A) (A)
                 (A) (A) (A) (A) (A) (A) (A) (A) (A) (A) (A) (A)
                 (A) (A) (A) (A) (A) (A) (A) (A) (A) (A) (A) (A)
                 (A) (A) (A) (A) (A) (A) (A) (A) (A) (A) (A) (A)
                 (A) (A) (A) (A) (A) (A) (A) (A) (A) (A) (A)
 The electronic state of the initial guess is 1-A.
 Leave Link  401 at Sat Oct  2 05:46:07 2021, MaxMem= 1879048192 cpu:      23.8
 (Enter /sw/target/amd/app/gaussian/Gaussian09RevA.02_gcc-4.9.2/g09/l502.exe)
 Closed shell SCF:
 Requested convergence on RMS density matrix=1.00D-08 within  64 cycles.
 Requested convergence on MAX density matrix=1.00D-06.
 Requested convergence on             energy=1.00D-06.
 No special actions if energy rises.
 Using DIIS extrapolation, IDIIS=  1040.
 Integral symmetry usage will be decided dynamically.
       367962 words used for storage of precomputed grid.
 Keep R1 ints in memory in canonical form, NReq=1403894662.
 IEnd=      693173 IEndB=      693173 NGot=  1879048192 MDV=   492426941
 LenX=   492426941 LenY=   492321524
 Symmetry not used in FoFDir.
 MinBra= 0 MaxBra= 2 Meth= 1.
 IRaf=       0 NMat=   1 IRICut=       1 DoRegI=T DoRafI=F ISym2E= 0 JSym2E=0.
 Integral accuracy reduced to 1.0D-05 until final iterations.

 Cycle   1  Pass 0  IDiag  1:
 E= -1155.85496672011    
 DIIS: error= 4.51D-02 at cycle   1 NSaved=   1.
 NSaved= 1 IEnMin= 1 EnMin= -1155.85496672011     IErMin= 1 ErrMin= 4.51D-02
 ErrMax= 4.51D-02 EMaxC= 1.00D-01 BMatC= 4.41D-01 BMatP= 4.41D-01
 IDIUse=3 WtCom= 5.49D-01 WtEn= 4.51D-01
 Coeff-Com:  0.100D+01
 Coeff-En:   0.100D+01
 Coeff:      0.100D+01
 Gap=     0.177 Goal=   None    Shift=    0.000
 GapD=    0.177 DampG=1.000 DampE=0.500 DampFc=0.5000 IDamp=-1.
 Damping current iteration by 5.00D-01
 RMSDP=6.98D-03 MaxDP=4.98D-01              OVMax= 9.47D-01

 Cycle   2  Pass 0  IDiag  1:
 E= -1155.76507418633     Delta-E=        0.089892533785 Rises=F Damp=T
 DIIS: error= 3.08D-02 at cycle   2 NSaved=   2.
 NSaved= 2 IEnMin= 1 EnMin= -1155.85496672011     IErMin= 2 ErrMin= 3.08D-02
 ErrMax= 3.08D-02 EMaxC= 1.00D-01 BMatC= 1.27D-01 BMatP= 4.41D-01
 IDIUse=3 WtCom= 6.92D-01 WtEn= 3.08D-01
 Coeff-Com:  0.247D+00 0.753D+00
 Coeff-En:   0.573D+00 0.427D+00
 Coeff:      0.348D+00 0.652D+00
 Gap=     0.018 Goal=   None    Shift=    0.000
 RMSDP=3.18D-03 MaxDP=2.86D-01 DE= 8.99D-02 OVMax= 9.82D-01

 Cycle   3  Pass 0  IDiag  1:
 E= -1156.12201129834     Delta-E=       -0.356937112014 Rises=F Damp=F
 DIIS: error= 2.88D-02 at cycle   3 NSaved=   3.
 NSaved= 3 IEnMin= 3 EnMin= -1156.12201129834     IErMin= 3 ErrMin= 2.88D-02
 ErrMax= 2.88D-02 EMaxC= 1.00D-01 BMatC= 1.93D-01 BMatP= 1.27D-01
 IDIUse=2 WtCom= 0.00D+00 WtEn= 1.00D+00
 EnCoef did     2 forward-backward iterations
 Coeff-En:   0.810D-01 0.199D+00 0.720D+00
 Coeff:      0.810D-01 0.199D+00 0.720D+00
 Gap=     0.208 Goal=   None    Shift=    0.000
 RMSDP=5.38D-03 MaxDP=5.45D-01 DE=-3.57D-01 OVMax= 9.79D-01

 Cycle   4  Pass 0  IDiag  1:
 E= -1154.82316423818     Delta-E=        1.298847060164 Rises=F Damp=F
 DIIS: error= 4.60D-02 at cycle   4 NSaved=   4.
 NSaved= 4 IEnMin= 3 EnMin= -1156.12201129834     IErMin= 3 ErrMin= 2.88D-02
 ErrMax= 4.60D-02 EMaxC= 1.00D-01 BMatC= 6.83D-01 BMatP= 1.27D-01
 IDIUse=2 WtCom= 0.00D+00 WtEn= 1.00D+00
 Coeff-En:   0.000D+00 0.000D+00 0.794D+00 0.206D+00
 Coeff:      0.000D+00 0.000D+00 0.794D+00 0.206D+00
 Gap=     0.010 Goal=   None    Shift=    0.000
 RMSDP=4.52D-03 MaxDP=4.49D-01 DE= 1.30D+00 OVMax= 9.97D-01

 Cycle   5  Pass 0  IDiag  1:
 E= -1156.31413654318     Delta-E=       -1.490972305007 Rises=F Damp=F
 DIIS: error= 9.24D-03 at cycle   5 NSaved=   5.
 NSaved= 5 IEnMin= 5 EnMin= -1156.31413654318     IErMin= 5 ErrMin= 9.24D-03
 ErrMax= 9.24D-03 EMaxC= 1.00D-01 BMatC= 3.02D-02 BMatP= 1.27D-01
 IDIUse=3 WtCom= 9.08D-01 WtEn= 9.24D-02
 Coeff-Com: -0.299D-01 0.205D+00 0.259D+00-0.104D-01 0.576D+00
 Coeff-En:   0.000D+00 0.000D+00 0.556D-02 0.000D+00 0.994D+00
 Coeff:     -0.272D-01 0.186D+00 0.235D+00-0.944D-02 0.615D+00
 Gap=     0.086 Goal=   None    Shift=    0.000
 RMSDP=7.47D-04 MaxDP=2.57D-02 DE=-1.49D+00 OVMax= 3.84D-02

 Cycle   6  Pass 0  IDiag  1:
 E= -1156.33856407109     Delta-E=       -0.024427527909 Rises=F Damp=F
 DIIS: error= 4.68D-03 at cycle   6 NSaved=   6.
 NSaved= 6 IEnMin= 6 EnMin= -1156.33856407109     IErMin= 6 ErrMin= 4.68D-03
 ErrMax= 4.68D-03 EMaxC= 1.00D-01 BMatC= 5.77D-03 BMatP= 3.02D-02
 IDIUse=3 WtCom= 9.53D-01 WtEn= 4.68D-02
 Coeff-Com: -0.505D-01 0.939D-01 0.323D-01-0.155D-01 0.359D+00 0.581D+00
 Coeff-En:   0.000D+00 0.000D+00 0.000D+00 0.000D+00 0.813D-01 0.919D+00
 Coeff:     -0.482D-01 0.895D-01 0.308D-01-0.147D-01 0.346D+00 0.596D+00
 Gap=     0.061 Goal=   None    Shift=    0.000
 RMSDP=2.87D-04 MaxDP=1.04D-02 DE=-2.44D-02 OVMax= 2.62D-02

 Cycle   7  Pass 0  IDiag  1:
 E= -1156.34423602504     Delta-E=       -0.005671953949 Rises=F Damp=F
 DIIS: error= 1.16D-03 at cycle   7 NSaved=   7.
 NSaved= 7 IEnMin= 7 EnMin= -1156.34423602504     IErMin= 7 ErrMin= 1.16D-03
 ErrMax= 1.16D-03 EMaxC= 1.00D-01 BMatC= 2.00D-04 BMatP= 5.77D-03
 IDIUse=3 WtCom= 9.88D-01 WtEn= 1.16D-02
 Coeff-Com: -0.124D-01 0.189D-01-0.250D-01-0.723D-03 0.328D-01 0.210D+00
 Coeff-Com:  0.776D+00
 Coeff-En:   0.000D+00 0.000D+00 0.000D+00 0.000D+00 0.000D+00 0.000D+00
 Coeff-En:   0.100D+01
 Coeff:     -0.123D-01 0.187D-01-0.247D-01-0.714D-03 0.324D-01 0.208D+00
 Coeff:      0.779D+00
 Gap=     0.056 Goal=   None    Shift=    0.000
 RMSDP=1.02D-04 MaxDP=4.55D-03 DE=-5.67D-03 OVMax= 6.40D-03

 Cycle   8  Pass 0  IDiag  1:
 E= -1156.34446833276     Delta-E=       -0.000232307723 Rises=F Damp=F
 DIIS: error= 4.69D-04 at cycle   8 NSaved=   8.
 NSaved= 8 IEnMin= 8 EnMin= -1156.34446833276     IErMin= 8 ErrMin= 4.69D-04
 ErrMax= 4.69D-04 EMaxC= 1.00D-01 BMatC= 4.04D-05 BMatP= 2.00D-04
 IDIUse=3 WtCom= 9.95D-01 WtEn= 4.69D-03
 Coeff-Com: -0.272D-02 0.174D-02-0.192D-01 0.159D-02-0.182D-01 0.487D-01
 Coeff-Com:  0.403D+00 0.585D+00
 Coeff-En:   0.000D+00 0.000D+00 0.000D+00 0.000D+00 0.000D+00 0.000D+00
 Coeff-En:   0.000D+00 0.100D+01
 Coeff:     -0.271D-02 0.173D-02-0.191D-01 0.158D-02-0.181D-01 0.485D-01
 Coeff:      0.401D+00 0.587D+00
 Gap=     0.054 Goal=   None    Shift=    0.000
 RMSDP=3.99D-05 MaxDP=1.69D-03 DE=-2.32D-04 OVMax= 4.27D-03

 Cycle   9  Pass 0  IDiag  1:
 E= -1156.34451881289     Delta-E=       -0.000050480130 Rises=F Damp=F
 DIIS: error= 9.70D-05 at cycle   9 NSaved=   9.
 NSaved= 9 IEnMin= 9 EnMin= -1156.34451881289     IErMin= 9 ErrMin= 9.70D-05
 ErrMax= 9.70D-05 EMaxC= 1.00D-01 BMatC= 4.42D-06 BMatP= 4.04D-05
 IDIUse=1 WtCom= 1.00D+00 WtEn= 0.00D+00
 Coeff-Com: -0.577D-04 0.154D-03-0.630D-02 0.510D-03-0.115D-01-0.478D-02
 Coeff-Com:  0.953D-01 0.300D+00 0.626D+00
 Coeff:     -0.577D-04 0.154D-03-0.630D-02 0.510D-03-0.115D-01-0.478D-02
 Coeff:      0.953D-01 0.300D+00 0.626D+00
 Gap=     0.054 Goal=   None    Shift=    0.000
 RMSDP=1.36D-05 MaxDP=7.19D-04 DE=-5.05D-05 OVMax= 1.97D-03

 Cycle  10  Pass 0  IDiag  1:
 E= -1156.34452308134     Delta-E=       -0.000004268447 Rises=F Damp=F
 DIIS: error= 4.54D-05 at cycle  10 NSaved=  10.
 NSaved=10 IEnMin=10 EnMin= -1156.34452308134     IErMin=10 ErrMin= 4.54D-05
 ErrMax= 4.54D-05 EMaxC= 1.00D-01 BMatC= 7.17D-07 BMatP= 4.42D-06
 IDIUse=1 WtCom= 1.00D+00 WtEn= 0.00D+00
 Coeff-Com:  0.564D-04 0.531D-03-0.607D-03-0.684D-04-0.194D-02-0.769D-02
 Coeff-Com: -0.286D-02 0.904D-01 0.356D+00 0.566D+00
 Coeff:      0.564D-04 0.531D-03-0.607D-03-0.684D-04-0.194D-02-0.769D-02
 Coeff:     -0.286D-02 0.904D-01 0.356D+00 0.566D+00
 Gap=     0.054 Goal=   None    Shift=    0.000
 RMSDP=5.28D-06 MaxDP=3.04D-04 DE=-4.27D-06 OVMax= 8.63D-04

 Initial convergence to 1.0D-05 achieved.  Increase integral accuracy.
 Cycle  11  Pass 1  IDiag  1:
 E= -1156.34481124446     Delta-E=       -0.000288163124 Rises=F Damp=F
 DIIS: error= 5.88D-05 at cycle   1 NSaved=   1.
 NSaved= 1 IEnMin= 1 EnMin= -1156.34481124446     IErMin= 1 ErrMin= 5.88D-05
 ErrMax= 5.88D-05 EMaxC= 1.00D-01 BMatC= 4.02D-07 BMatP= 4.02D-07
 IDIUse=1 WtCom= 1.00D+00 WtEn= 0.00D+00
 Coeff-Com:  0.100D+01
 Coeff:      0.100D+01
 Gap=     0.054 Goal=   None    Shift=    0.000
 RMSDP=5.28D-06 MaxDP=3.04D-04 DE=-2.88D-04 OVMax= 5.71D-04

 Cycle  12  Pass 1  IDiag  1:
 E= -1156.34481144230     Delta-E=       -0.000000197836 Rises=F Damp=F
 DIIS: error= 4.19D-05 at cycle   2 NSaved=   2.
 NSaved= 2 IEnMin= 2 EnMin= -1156.34481144230     IErMin= 2 ErrMin= 4.19D-05
 ErrMax= 4.19D-05 EMaxC= 1.00D-01 BMatC= 3.92D-07 BMatP= 4.02D-07
 IDIUse=1 WtCom= 1.00D+00 WtEn= 0.00D+00
 Coeff-Com:  0.496D+00 0.504D+00
 Coeff:      0.496D+00 0.504D+00
 Gap=     0.054 Goal=   None    Shift=    0.000
 RMSDP=2.76D-06 MaxDP=1.98D-04 DE=-1.98D-07 OVMax= 2.67D-04

 Cycle  13  Pass 1  IDiag  1:
 E= -1156.34481167831     Delta-E=       -0.000000236013 Rises=F Damp=F
 DIIS: error= 2.56D-05 at cycle   3 NSaved=   3.
 NSaved= 3 IEnMin= 3 EnMin= -1156.34481167831     IErMin= 3 ErrMin= 2.56D-05
 ErrMax= 2.56D-05 EMaxC= 1.00D-01 BMatC= 1.36D-07 BMatP= 3.92D-07
 IDIUse=1 WtCom= 1.00D+00 WtEn= 0.00D+00
 Coeff-Com:  0.119D-01 0.368D+00 0.620D+00
 Coeff:      0.119D-01 0.368D+00 0.620D+00
 Gap=     0.054 Goal=   None    Shift=    0.000
 RMSDP=1.23D-06 MaxDP=7.40D-05 DE=-2.36D-07 OVMax= 1.09D-04

 Cycle  14  Pass 1  IDiag  1:
 E= -1156.34481180187     Delta-E=       -0.000000123560 Rises=F Damp=F
 DIIS: error= 3.57D-06 at cycle   4 NSaved=   4.
 NSaved= 4 IEnMin= 4 EnMin= -1156.34481180187     IErMin= 4 ErrMin= 3.57D-06
 ErrMax= 3.57D-06 EMaxC= 1.00D-01 BMatC= 3.30D-09 BMatP= 1.36D-07
 IDIUse=1 WtCom= 1.00D+00 WtEn= 0.00D+00
 Coeff-Com: -0.107D-01 0.164D+00 0.305D+00 0.542D+00
 Coeff:     -0.107D-01 0.164D+00 0.305D+00 0.542D+00
 Gap=     0.055 Goal=   None    Shift=    0.000
 RMSDP=2.51D-07 MaxDP=8.75D-06 DE=-1.24D-07 OVMax= 2.19D-05

 Cycle  15  Pass 1  IDiag  1:
 E= -1156.34481180501     Delta-E=       -0.000000003132 Rises=F Damp=F
 DIIS: error= 7.86D-07 at cycle   5 NSaved=   5.
 NSaved= 5 IEnMin= 5 EnMin= -1156.34481180501     IErMin= 5 ErrMin= 7.86D-07
 ErrMax= 7.86D-07 EMaxC= 1.00D-01 BMatC= 1.80D-10 BMatP= 3.30D-09
 IDIUse=1 WtCom= 1.00D+00 WtEn= 0.00D+00
 Coeff-Com: -0.522D-02 0.465D-01 0.909D-01 0.237D+00 0.630D+00
 Coeff:     -0.522D-02 0.465D-01 0.909D-01 0.237D+00 0.630D+00
 Gap=     0.055 Goal=   None    Shift=    0.000
 RMSDP=1.13D-07 MaxDP=7.46D-06 DE=-3.13D-09 OVMax= 2.08D-05

 Cycle  16  Pass 1  IDiag  1:
 E= -1156.34481180524     Delta-E=       -0.000000000236 Rises=F Damp=F
 DIIS: error= 1.92D-07 at cycle   6 NSaved=   6.
 NSaved= 6 IEnMin= 6 EnMin= -1156.34481180524     IErMin= 6 ErrMin= 1.92D-07
 ErrMax= 1.92D-07 EMaxC= 1.00D-01 BMatC= 1.66D-11 BMatP= 1.80D-10
 IDIUse=1 WtCom= 1.00D+00 WtEn= 0.00D+00
 Coeff-Com: -0.475D-03-0.185D-02-0.278D-02 0.135D-01 0.226D+00 0.765D+00
 Coeff:     -0.475D-03-0.185D-02-0.278D-02 0.135D-01 0.226D+00 0.765D+00
 Gap=     0.055 Goal=   None    Shift=    0.000
 RMSDP=7.09D-08 MaxDP=4.73D-06 DE=-2.36D-10 OVMax= 1.33D-05

 Cycle  17  Pass 1  IDiag  1:
 E= -1156.34481180531     Delta-E=       -0.000000000065 Rises=F Damp=F
 DIIS: error= 1.04D-07 at cycle   7 NSaved=   7.
 NSaved= 7 IEnMin= 7 EnMin= -1156.34481180531     IErMin= 7 ErrMin= 1.04D-07
 ErrMax= 1.04D-07 EMaxC= 1.00D-01 BMatC= 4.67D-12 BMatP= 1.66D-11
 IDIUse=1 WtCom= 1.00D+00 WtEn= 0.00D+00
 Coeff-Com:  0.620D-03-0.866D-02-0.166D-01-0.329D-01 0.325D-01 0.420D+00
 Coeff-Com:  0.605D+00
 Coeff:      0.620D-03-0.866D-02-0.166D-01-0.329D-01 0.325D-01 0.420D+00
 Coeff:      0.605D+00
 Gap=     0.055 Goal=   None    Shift=    0.000
 RMSDP=2.96D-08 MaxDP=1.98D-06 DE=-6.46D-11 OVMax= 5.48D-06

 Cycle  18  Pass 1  IDiag  1:
 E= -1156.34481180530     Delta-E=        0.000000000009 Rises=F Damp=F
 DIIS: error= 2.61D-08 at cycle   8 NSaved=   8.
 NSaved= 8 IEnMin= 7 EnMin= -1156.34481180531     IErMin= 8 ErrMin= 2.61D-08
 ErrMax= 2.61D-08 EMaxC= 1.00D-01 BMatC= 2.85D-13 BMatP= 4.67D-12
 IDIUse=1 WtCom= 1.00D+00 WtEn= 0.00D+00
 Coeff-Com:  0.267D-03-0.292D-02-0.570D-02-0.144D-01-0.121D-01 0.549D-01
 Coeff-Com:  0.223D+00 0.757D+00
 Coeff:      0.267D-03-0.292D-02-0.570D-02-0.144D-01-0.121D-01 0.549D-01
 Coeff:      0.223D+00 0.757D+00
 Gap=     0.055 Goal=   None    Shift=    0.000
 RMSDP=1.15D-08 MaxDP=7.56D-07 DE= 9.09D-12 OVMax= 2.13D-06

 Cycle  19  Pass 1  IDiag  1:
 E= -1156.34481180530     Delta-E=       -0.000000000001 Rises=F Damp=F
 DIIS: error= 1.58D-08 at cycle   9 NSaved=   9.
 NSaved= 9 IEnMin= 7 EnMin= -1156.34481180531     IErMin= 9 ErrMin= 1.58D-08
 ErrMax= 1.58D-08 EMaxC= 1.00D-01 BMatC= 6.96D-14 BMatP= 2.85D-13
 IDIUse=1 WtCom= 1.00D+00 WtEn= 0.00D+00
 Coeff-Com:  0.725D-04-0.423D-03-0.868D-03-0.366D-02-0.119D-01-0.331D-01
 Coeff-Com:  0.323D-01 0.407D+00 0.610D+00
 Coeff:      0.725D-04-0.423D-03-0.868D-03-0.366D-02-0.119D-01-0.331D-01
 Coeff:      0.323D-01 0.407D+00 0.610D+00
 Gap=     0.055 Goal=   None    Shift=    0.000
 RMSDP=3.42D-09 MaxDP=2.26D-07 DE=-9.09D-13 OVMax= 6.21D-07

 SCF Done:  E(RB3LYP) =  -1156.34481181     A.U. after   19 cycles
             Convg  =    0.3416D-08             -V/T =  2.0072
 KE= 1.148113178302D+03 PE=-5.584824180725D+03 EE= 1.838845417551D+03
 Leave Link  502 at Sat Oct  2 06:32:13 2021, MaxMem= 1879048192 cpu:     802.8
 (Enter /sw/target/amd/app/gaussian/Gaussian09RevA.02_gcc-4.9.2/g09/l508.exe)
 QCSCF skips out because SCF is already converged.
 Leave Link  508 at Sat Oct  2 06:32:25 2021, MaxMem= 1879048192 cpu:       0.0
 (Enter /sw/target/amd/app/gaussian/Gaussian09RevA.02_gcc-4.9.2/g09/l601.exe)
 Copying SCF densities to generalized density rwf, IOpCl= 0 IROHF=0.

 **********************************************************************

            Population analysis using the SCF density.

 **********************************************************************

 Orbital symmetries:
       Occupied  (A) (A) (A) (A) (A) (A) (A) (A) (A) (A) (A) (A)
                 (A) (A) (A) (A) (A) (A) (A) (A) (A) (A) (A) (A)
                 (A) (A) (A) (A) (A) (A) (A) (A) (A) (A) (A) (A)
                 (A) (A) (A) (A) (A) (A) (A) (A) (A) (A) (A) (A)
                 (A) (A) (A) (A) (A) (A) (A) (A) (A) (A) (A) (A)
                 (A) (A) (A) (A) (A) (A) (A) (A) (A) (A) (A) (A)
                 (A)
       Virtual   (A) (A) (A) (A) (A) (A) (A) (A) (A) (A) (A) (A)
                 (A) (A) (A) (A) (A) (A) (A) (A) (A) (A) (A) (A)
                 (A) (A) (A) (A) (A) (A) (A) (A) (A) (A) (A) (A)
                 (A) (A) (A) (A) (A) (A) (A) (A) (A) (A) (A) (A)
                 (A) (A) (A) (A) (A) (A) (A) (A) (A) (A) (A) (A)
                 (A) (A) (A) (A) (A) (A) (A) (A) (A) (A) (A) (A)
                 (A) (A) (A) (A) (A) (A) (A) (A) (A) (A) (A) (A)
                 (A) (A) (A) (A) (A) (A) (A) (A) (A) (A) (A) (A)
                 (A) (A) (A) (A) (A) (A) (A) (A) (A) (A) (A) (A)
                 (A) (A) (A) (A) (A) (A) (A) (A) (A) (A) (A) (A)
                 (A) (A) (A) (A) (A) (A) (A) (A) (A) (A) (A) (A)
                 (A) (A) (A) (A) (A) (A) (A) (A) (A) (A) (A) (A)
                 (A) (A) (A) (A) (A) (A) (A) (A) (A) (A) (A) (A)
                 (A) (A) (A) (A) (A) (A) (A) (A) (A) (A) (A) (A)
                 (A) (A) (A) (A) (A) (A) (A) (A) (A) (A) (A) (A)
                 (A) (A) (A) (A) (A) (A) (A) (A) (A) (A) (A) (A)
                 (A) (A) (A) (A) (A) (A) (A) (A) (A) (A) (A) (A)
                 (A) (A) (A) (A) (A) (A) (A) (A) (A) (A) (A) (A)
                 (A) (A) (A) (A) (A) (A) (A) (A) (A) (A) (A) (A)
                 (A) (A) (A) (A) (A) (A) (A) (A) (A) (A) (A) (A)
                 (A) (A) (A) (A) (A) (A) (A) (A) (A) (A) (A)
 The electronic state is 1-A.
 Alpha  occ. eigenvalues -- -101.31660 -14.46424 -14.46343 -10.32412 -10.28597
 Alpha  occ. eigenvalues --  -10.28449 -10.26346 -10.26162 -10.23105 -10.22958
 Alpha  occ. eigenvalues --  -10.22932 -10.22908 -10.21822 -10.21744 -10.21672
 Alpha  occ. eigenvalues --  -10.21669 -10.21298 -10.21201  -9.22850  -6.98683
 Alpha  occ. eigenvalues --   -6.98641  -6.98612  -1.10565  -0.99716  -0.88991
 Alpha  occ. eigenvalues --   -0.86970  -0.82263  -0.80419  -0.78945  -0.78844
 Alpha  occ. eigenvalues --   -0.77964  -0.70822  -0.67803  -0.65838  -0.65783
 Alpha  occ. eigenvalues --   -0.65626  -0.63316  -0.59922  -0.59532  -0.58546
 Alpha  occ. eigenvalues --   -0.56694  -0.53873  -0.52091  -0.51801  -0.50905
 Alpha  occ. eigenvalues --   -0.50334  -0.48864  -0.48705  -0.48445  -0.48297
 Alpha  occ. eigenvalues --   -0.47510  -0.47061  -0.44956  -0.43922  -0.43750
 Alpha  occ. eigenvalues --   -0.42268  -0.42110  -0.41414  -0.39727  -0.39563
 Alpha  occ. eigenvalues --   -0.38930  -0.38803  -0.36307  -0.36247  -0.36131
 Alpha  occ. eigenvalues --   -0.35375  -0.35231  -0.34385  -0.32610  -0.28944
 Alpha  occ. eigenvalues --   -0.11764  -0.11458  -0.11236
 Alpha virt. eigenvalues --   -0.05785   0.00067   0.02572   0.04567   0.04704
 Alpha virt. eigenvalues --    0.05536   0.06099   0.08285   0.08591   0.09359
 Alpha virt. eigenvalues --    0.09942   0.10914   0.11899   0.12052   0.12626
 Alpha virt. eigenvalues --    0.12897   0.13016   0.13493   0.13668   0.13910
 Alpha virt. eigenvalues --    0.14053   0.14300   0.14708   0.14941   0.15005
 Alpha virt. eigenvalues --    0.15509   0.16090   0.16892   0.17187   0.18999
 Alpha virt. eigenvalues --    0.19426   0.20292   0.20314   0.20387   0.20647
 Alpha virt. eigenvalues --    0.21962   0.22742   0.23025   0.23934   0.24724
 Alpha virt. eigenvalues --    0.24959   0.25389   0.25919   0.29982   0.32041
 Alpha virt. eigenvalues --    0.40388   0.42224   0.43293   0.46917   0.47302
 Alpha virt. eigenvalues --    0.47628   0.47921   0.48079   0.48156   0.48893
 Alpha virt. eigenvalues --    0.49113   0.50412   0.50583   0.52255   0.53049
 Alpha virt. eigenvalues --    0.53318   0.53616   0.54251   0.57393   0.57450
 Alpha virt. eigenvalues --    0.57987   0.58127   0.58731   0.61992   0.62053
 Alpha virt. eigenvalues --    0.62472   0.62994   0.63732   0.64107   0.64795
 Alpha virt. eigenvalues --    0.65811   0.68322   0.68422   0.68706   0.69378
 Alpha virt. eigenvalues --    0.69540   0.70599   0.71567   0.74484   0.75145
 Alpha virt. eigenvalues --    0.77183   0.77761   0.78004   0.78432   0.79132
 Alpha virt. eigenvalues --    0.81201   0.81659   0.81944   0.82089   0.82276
 Alpha virt. eigenvalues --    0.82704   0.82826   0.84971   0.85461   0.85519
 Alpha virt. eigenvalues --    0.85817   0.85987   0.86363   0.88138   0.88304
 Alpha virt. eigenvalues --    0.89014   0.89200   0.89687   0.89914   0.91179
 Alpha virt. eigenvalues --    0.93379   0.93569   0.93631   0.93723   0.93939
 Alpha virt. eigenvalues --    0.96690   0.96852   0.99902   1.02110   1.02174
 Alpha virt. eigenvalues --    1.03263   1.09368   1.09478   1.09544   1.10161
 Alpha virt. eigenvalues --    1.10554   1.10985   1.11365   1.13140   1.14177
 Alpha virt. eigenvalues --    1.14806   1.15226   1.20801   1.25205   1.26290
 Alpha virt. eigenvalues --    1.26502   1.29201   1.30735   1.31600   1.33092
 Alpha virt. eigenvalues --    1.33475   1.35150   1.35426   1.45484   1.46275
 Alpha virt. eigenvalues --    1.46753   1.46983   1.47272   1.51236   1.55932
 Alpha virt. eigenvalues --    1.57772   1.61093   1.62725   1.64638   1.66270
 Alpha virt. eigenvalues --    1.66507   1.67991   1.68245   1.68810   1.70138
 Alpha virt. eigenvalues --    1.72175   1.73139   1.82652   1.83450   1.83629
 Alpha virt. eigenvalues --    1.84427   1.85620   1.86152   1.87212   1.87440
[...]
    84    C    6  pz     Val( 2p)     1.14453
    85    C    6  pz     Ryd( 3p)     0.00295
    86    C    6  dxy    Ryd( 3d)     0.00097
    87    C    6  dxz    Ryd( 3d)     0.00038
    88    C    6  dyz    Ryd( 3d)     0.00084
    89    C    6  dx2y2  Ryd( 3d)     0.00051
    90    C    6  dz2    Ryd( 3d)     0.00085

    91    N    7  S      Cor( 1S)     1.99932
    92    N    7  S      Val( 2S)     1.16134
    93    N    7  S      Ryd( 3S)     0.00089
    94    N    7  S      Ryd( 4S)     0.00002
    95    N    7  px     Val( 2p)     1.30415
    96    N    7  px     Ryd( 3p)     0.00211
    97    N    7  py     Val( 2p)     1.30511
    98    N    7  py     Ryd( 3p)     0.00264
    99    N    7  pz     Val( 2p)     1.62180
   100    N    7  pz     Ryd( 3p)     0.00463
   101    N    7  dxy    Ryd( 3d)     0.00075
   102    N    7  dxz    Ryd( 3d)     0.00089
   103    N    7  dyz    Ryd( 3d)     0.00083
   104    N    7  dx2y2  Ryd( 3d)     0.00056
   105    N    7  dz2    Ryd( 3d)     0.00059

   106    C    8  S      Cor( 1S)     1.99912
   107    C    8  S      Val( 2S)     0.92217
   108    C    8  S      Ryd( 3S)     0.00099
   109    C    8  S      Ryd( 4S)     0.00003
   110    C    8  px     Val( 2p)     1.08948
   111    C    8  px     Ryd( 3p)     0.00391
   112    C    8  py     Val( 2p)     0.95788
   113    C    8  py     Ryd( 3p)     0.00229
   114    C    8  pz     Val( 2p)     1.11489
   115    C    8  pz     Ryd( 3p)     0.00077
   116    C    8  dxy    Ryd( 3d)     0.00105
   117    C    8  dxz    Ryd( 3d)     0.00105
   118    C    8  dyz    Ryd( 3d)     0.00090
   119    C    8  dx2y2  Ryd( 3d)     0.00091
   120    C    8  dz2    Ryd( 3d)     0.00050

   121    C    9  S      Cor( 1S)     1.99912
   122    C    9  S      Val( 2S)     0.92210
   123    C    9  S      Ryd( 3S)     0.00099
   124    C    9  S      Ryd( 4S)     0.00003
   125    C    9  px     Val( 2p)     1.08860
   126    C    9  px     Ryd( 3p)     0.00389
   127    C    9  py     Val( 2p)     0.95847
   128    C    9  py     Ryd( 3p)     0.00229
   129    C    9  pz     Val( 2p)     1.11580
   130    C    9  pz     Ryd( 3p)     0.00083
   131    C    9  dxy    Ryd( 3d)     0.00106
   132    C    9  dxz    Ryd( 3d)     0.00105
   133    C    9  dyz    Ryd( 3d)     0.00089
   134    C    9  dx2y2  Ryd( 3d)     0.00090
   135    C    9  dz2    Ryd( 3d)     0.00050

   136    N   10  S      Cor( 1S)     1.99932
   137    N   10  S      Val( 2S)     1.16127
   138    N   10  S      Ryd( 3S)     0.00089
   139    N   10  S      Ryd( 4S)     0.00002
   140    N   10  px     Val( 2p)     1.30404
   141    N   10  px     Ryd( 3p)     0.00212
   142    N   10  py     Val( 2p)     1.30508
   143    N   10  py     Ryd( 3p)     0.00264
   144    N   10  pz     Val( 2p)     1.62225
   145    N   10  pz     Ryd( 3p)     0.00465
   146    N   10  dxy    Ryd( 3d)     0.00076
   147    N   10  dxz    Ryd( 3d)     0.00089
   148    N   10  dyz    Ryd( 3d)     0.00083
   149    N   10  dx2y2  Ryd( 3d)     0.00056
   150    N   10  dz2    Ryd( 3d)     0.00059

   151    C   11  S      Cor( 1S)     1.99933
   152    C   11  S      Val( 2S)     0.84694
   153    C   11  S      Ryd( 3S)     0.00270
   154    C   11  S      Ryd( 4S)     0.00009
   155    C   11  px     Val( 2p)     0.76302
   156    C   11  px     Ryd( 3p)     0.00699
   157    C   11  py     Val( 2p)     1.07943
   158    C   11  py     Ryd( 3p)     0.00391
   159    C   11  pz     Val( 2p)     1.28920
   160    C   11  pz     Ryd( 3p)     0.01551
   161    C   11  dxy    Ryd( 3d)     0.00139
   162    C   11  dxz    Ryd( 3d)     0.00127
   163    C   11  dyz    Ryd( 3d)     0.00096
   164    C   11  dx2y2  Ryd( 3d)     0.00111
   165    C   11  dz2    Ryd( 3d)     0.00055

   166    C   12  S      Cor( 1S)     1.99920
   167    C   12  S      Val( 2S)     0.94183
   168    C   12  S      Ryd( 3S)     0.00175
   169    C   12  S      Ryd( 4S)     0.00003
   170    C   12  px     Val( 2p)     0.88178
   171    C   12  px     Ryd( 3p)     0.00288
   172    C   12  py     Val( 2p)     1.14902
   173    C   12  py     Ryd( 3p)     0.00643
   174    C   12  pz     Val( 2p)     1.05287
   175    C   12  pz     Ryd( 3p)     0.00253
   176    C   12  dxy    Ryd( 3d)     0.00114
   177    C   12  dxz    Ryd( 3d)     0.00108
   178    C   12  dyz    Ryd( 3d)     0.00082
   179    C   12  dx2y2  Ryd( 3d)     0.00091
   180    C   12  dz2    Ryd( 3d)     0.00115

   181    C   13  S      Cor( 1S)     1.99929
   182    C   13  S      Val( 2S)     1.03432
   183    C   13  S      Ryd( 3S)     0.00080
   184    C   13  S      Ryd( 4S)     0.00002
   185    C   13  px     Val( 2p)     1.09241
   186    C   13  px     Ryd( 3p)     0.00158
   187    C   13  py     Val( 2p)     1.19012
   188    C   13  py     Ryd( 3p)     0.00345
   189    C   13  pz     Val( 2p)     1.13852
   190    C   13  pz     Ryd( 3p)     0.00315
   191    C   13  dxy    Ryd( 3d)     0.00095
   192    C   13  dxz    Ryd( 3d)     0.00036
   193    C   13  dyz    Ryd( 3d)     0.00087
   194    C   13  dx2y2  Ryd( 3d)     0.00049
   195    C   13  dz2    Ryd( 3d)     0.00084

   196    C   14  S      Cor( 1S)     1.99933
   197    C   14  S      Val( 2S)     1.03310
   198    C   14  S      Ryd( 3S)     0.00059
   199    C   14  S      Ryd( 4S)     0.00002
   200    C   14  px     Val( 2p)     1.08451
   201    C   14  px     Ryd( 3p)     0.00143
   202    C   14  py     Val( 2p)     1.18681
   203    C   14  py     Ryd( 3p)     0.00290
   204    C   14  pz     Val( 2p)     1.14453
   205    C   14  pz     Ryd( 3p)     0.00295
   206    C   14  dxy    Ryd( 3d)     0.00097
   207    C   14  dxz    Ryd( 3d)     0.00038
   208    C   14  dyz    Ryd( 3d)     0.00084
   209    C   14  dx2y2  Ryd( 3d)     0.00051
   210    C   14  dz2    Ryd( 3d)     0.00085

   211    C   15  S      Cor( 1S)     1.99933
   212    C   15  S      Val( 2S)     1.03375
   213    C   15  S      Ryd( 3S)     0.00062
   214    C   15  S      Ryd( 4S)     0.00002
   215    C   15  px     Val( 2p)     1.23141
   216    C   15  px     Ryd( 3p)     0.00439
   217    C   15  py     Val( 2p)     1.15405
   218    C   15  py     Ryd( 3p)     0.00134
   219    C   15  pz     Val( 2p)     1.03064
   220    C   15  pz     Ryd( 3p)     0.00156
   221    C   15  dxy    Ryd( 3d)     0.00082
   222    C   15  dxz    Ryd( 3d)     0.00033
   223    C   15  dyz    Ryd( 3d)     0.00062
   224    C   15  dx2y2  Ryd( 3d)     0.00080
   225    C   15  dz2    Ryd( 3d)     0.00098

   226    C   16  S      Cor( 1S)     1.99933
   227    C   16  S      Val( 2S)     1.03310
   228    C   16  S      Ryd( 3S)     0.00059
   229    C   16  S      Ryd( 4S)     0.00002
   230    C   16  px     Val( 2p)     1.08451
   231    C   16  px     Ryd( 3p)     0.00143
   232    C   16  py     Val( 2p)     1.18693
   233    C   16  py     Ryd( 3p)     0.00290
   234    C   16  pz     Val( 2p)     1.14441
   235    C   16  pz     Ryd( 3p)     0.00295
   236    C   16  dxy    Ryd( 3d)     0.00097
   237    C   16  dxz    Ryd( 3d)     0.00038
   238    C   16  dyz    Ryd( 3d)     0.00084
   239    C   16  dx2y2  Ryd( 3d)     0.00051
   240    C   16  dz2    Ryd( 3d)     0.00085

   241    C   17  S      Cor( 1S)     1.99929
   242    C   17  S      Val( 2S)     1.03432
   243    C   17  S      Ryd( 3S)     0.00080
   244    C   17  S      Ryd( 4S)     0.00002
   245    C   17  px     Val( 2p)     1.09241
   246    C   17  px     Ryd( 3p)     0.00158
   247    C   17  py     Val( 2p)     1.18999
   248    C   17  py     Ryd( 3p)     0.00344
   249    C   17  pz     Val( 2p)     1.13864
   250    C   17  pz     Ryd( 3p)     0.00315
   251    C   17  dxy    Ryd( 3d)     0.00095
   252    C   17  dxz    Ryd( 3d)     0.00036
   253    C   17  dyz    Ryd( 3d)     0.00087
   254    C   17  dx2y2  Ryd( 3d)     0.00049
   255    C   17  dz2    Ryd( 3d)     0.00084

   256   Cl   18  S      Cor( 1S)     2.00005
   257   Cl   18  S      Cor( 2S)     2.00000
   258   Cl   18  S      Val( 3S)     1.99939
   259   Cl   18  S      Ryd( 4S)     0.00000
   260   Cl   18  S      Ryd( 5S)     0.00000
   261   Cl   18  px     Val( 3p)     1.99999
   262   Cl   18  px     Cor( 2p)     2.01784
   263   Cl   18  px     Ryd( 4p)     0.00000
   264   Cl   18  py     Val( 3p)     1.99999
   265   Cl   18  py     Cor( 2p)     2.02620
   266   Cl   18  py     Ryd( 4p)     0.00000
   267   Cl   18  pz     Cor( 2p)     2.00000
   268   Cl   18  pz     Val( 3p)     1.14584
   269   Cl   18  pz     Ryd( 4p)     0.00000
   270   Cl   18  dxy    Ryd( 3d)     0.00007
   271   Cl   18  dxz    Ryd( 3d)     0.00000
   272   Cl   18  dyz    Ryd( 3d)     0.00000
   273   Cl   18  dx2y2  Ryd( 3d)     0.00003
   274   Cl   18  dz2    Ryd( 3d)     0.00000

   275    H   19  S      Val( 1S)     0.75890
   276    H   19  S      Ryd( 2S)     0.00113

   277    H   20  S      Val( 1S)     0.77331
   278    H   20  S      Ryd( 2S)     0.00178

   279    H   21  S      Val( 1S)     0.75785
   280    H   21  S      Ryd( 2S)     0.00122

   281    H   22  S      Val( 1S)     0.77281
   282    H   22  S      Ryd( 2S)     0.00176

   283    H   23  S      Val( 1S)     0.77070
   284    H   23  S      Ryd( 2S)     0.00206

   285    H   24  S      Val( 1S)     0.75173
   286    H   24  S      Ryd( 2S)     0.00122

   287    H   25  S      Val( 1S)     0.75711
   288    H   25  S      Ryd( 2S)     0.00171

   289    H   26  S      Val( 1S)     0.77070
   290    H   26  S      Ryd( 2S)     0.00207

   291    H   27  S      Val( 1S)     0.75173
   292    H   27  S      Ryd( 2S)     0.00122

   293    H   28  S      Val( 1S)     0.75785
   294    H   28  S      Ryd( 2S)     0.00122

   295    H   29  S      Val( 1S)     0.77281
   296    H   29  S      Ryd( 2S)     0.00176

   297    H   30  S      Val( 1S)     0.74788
   298    H   30  S      Ryd( 2S)     0.00000

   299    H   31  S      Val( 1S)     0.74828
   300    H   31  S      Ryd( 2S)     0.00000

   301    H   32  S      Val( 1S)     0.77720
   302    H   32  S      Ryd( 2S)     0.00000

   303    H   33  S      Val( 1S)     0.75716
   304    H   33  S      Ryd( 2S)     0.00171

   305    H   34  S      Val( 1S)     0.75174
   306    H   34  S      Ryd( 2S)     0.00122

   307    H   35  S      Val( 1S)     0.77072
   308    H   35  S      Ryd( 2S)     0.00207

   309    H   36  S      Val( 1S)     0.77282
   310    H   36  S      Ryd( 2S)     0.00176

   311    H   37  S      Val( 1S)     0.75786
   312    H   37  S      Ryd( 2S)     0.00122

   313    H   38  S      Val( 1S)     0.75890
   314    H   38  S      Ryd( 2S)     0.00113

   315    H   39  S      Val( 1S)     0.77331
   316    H   39  S      Ryd( 2S)     0.00178

   317    H   40  S      Val( 1S)     0.77282
   318    H   40  S      Ryd( 2S)     0.00176

   319    H   41  S      Val( 1S)     0.75786
   320    H   41  S      Ryd( 2S)     0.00122

   321    H   42  S      Val( 1S)     0.75174
   322    H   42  S      Ryd( 2S)     0.00122

   323    H   43  S      Val( 1S)     0.77072
   324    H   43  S      Ryd( 2S)     0.00206


 Summary of Natural Population Analysis:                  
                                                          
                                       Natural Population 
                Natural  -----------------------------------------------
    Atom  No    Charge         Core      Valence    Rydberg      Total
 -----------------------------------------------------------------------
      C    1   -0.46066      1.99933     4.44986    0.01148     6.46066
      C    2   -0.45973      1.99933     4.44895    0.01145     6.45973
      C    3   -0.46718      1.99929     4.45536    0.01253     6.46718
      C    4   -0.04344      1.99920     4.02552    0.01872     6.04344
      C    5   -0.46718      1.99929     4.45537    0.01253     6.46718
      C    6   -0.45974      1.99933     4.44896    0.01145     6.45974
      N    7   -0.40564      1.99932     5.39240    0.01392     7.40564
      C    8   -0.09593      1.99912     4.08442    0.01239     6.09593
      C    9   -0.09654      1.99912     4.08497    0.01244     6.09654
      N   10   -0.40590      1.99932     5.39264    0.01394     7.40590
      C   11   -0.01239      1.99933     3.97859    0.03447     6.01239
      C   12   -0.04343      1.99920     4.02551    0.01872     6.04343
      C   13   -0.46718      1.99929     4.45536    0.01253     6.46718
      C   14   -0.45974      1.99933     4.44895    0.01145     6.45974
      C   15   -0.46065      1.99933     4.44985    0.01148     6.46065
      C   16   -0.45974      1.99933     4.44895    0.01145     6.45974
      C   17   -0.46717      1.99929     4.45536    0.01253     6.46717
     Cl   18   -0.18941     10.04409     7.14522    0.00010    17.18941
      H   19    0.23997      0.00000     0.75890    0.00113     0.76003
      H   20    0.22491      0.00000     0.77331    0.00178     0.77509
      H   21    0.24093      0.00000     0.75785    0.00122     0.75907
      H   22    0.22544      0.00000     0.77281    0.00176     0.77456
      H   23    0.22724      0.00000     0.77070    0.00206     0.77276
      H   24    0.24705      0.00000     0.75173    0.00122     0.75295
      H   25    0.24118      0.00000     0.75711    0.00171     0.75882
      H   26    0.22724      0.00000     0.77070    0.00207     0.77276
      H   27    0.24706      0.00000     0.75173    0.00122     0.75294
      H   28    0.24093      0.00000     0.75785    0.00122     0.75907
      H   29    0.22544      0.00000     0.77281    0.00176     0.77456
      H   30    0.25212      0.00000     0.74788    0.00000     0.74788
      H   31    0.25172      0.00000     0.74828    0.00000     0.74828
      H   32    0.22280      0.00000     0.77720    0.00000     0.77720
      H   33    0.24113      0.00000     0.75716    0.00171     0.75887
      H   34    0.24705      0.00000     0.75174    0.00122     0.75295
      H   35    0.22721      0.00000     0.77072    0.00207     0.77279
      H   36    0.22542      0.00000     0.77282    0.00176     0.77458
      H   37    0.24092      0.00000     0.75786    0.00122     0.75908
      H   38    0.23996      0.00000     0.75890    0.00113     0.76004
      H   39    0.22490      0.00000     0.77331    0.00178     0.77510
      H   40    0.22543      0.00000     0.77282    0.00176     0.77457
      H   41    0.24092      0.00000     0.75786    0.00122     0.75908
      H   42    0.24705      0.00000     0.75174    0.00122     0.75295
      H   43    0.22721      0.00000     0.77072    0.00206     0.77279
 =======================================================================
   * Total *   -0.02042     44.03182   101.71074    0.27786   146.02042

                                 Natural Population      
 --------------------------------------------------------
   Core                      44.03182 (100.0723% of  44)
   Valence                  101.71074 ( 99.7164% of 102)
   Natural Minimal Basis    145.74256 ( 99.8237% of 146)
   Natural Rydberg Basis      0.27786 (  0.1903% of 146)
 --------------------------------------------------------

    Atom  No          Natural Electron Configuration
 ----------------------------------------------------------------------------
      C    1      [core]2S( 1.03)2p( 3.42)3p( 0.01)
      C    2      [core]2S( 1.03)2p( 3.42)3p( 0.01)
      C    3      [core]2S( 1.03)2p( 3.42)3p( 0.01)
      C    4      [core]2S( 0.94)2p( 3.08)3p( 0.01)3d( 0.01)
      C    5      [core]2S( 1.03)2p( 3.42)3p( 0.01)
      C    6      [core]2S( 1.03)2p( 3.42)3p( 0.01)
      N    7      [core]2S( 1.16)2p( 4.23)3p( 0.01)
      C    8      [core]2S( 0.92)2p( 3.16)3p( 0.01)
      C    9      [core]2S( 0.92)2p( 3.16)3p( 0.01)
      N   10      [core]2S( 1.16)2p( 4.23)3p( 0.01)
      C   11      [core]2S( 0.85)2p( 3.13)3p( 0.03)3d( 0.01)
      C   12      [core]2S( 0.94)2p( 3.08)3p( 0.01)3d( 0.01)
      C   13      [core]2S( 1.03)2p( 3.42)3p( 0.01)
      C   14      [core]2S( 1.03)2p( 3.42)3p( 0.01)
      C   15      [core]2S( 1.03)2p( 3.42)3p( 0.01)
      C   16      [core]2S( 1.03)2p( 3.42)3p( 0.01)
      C   17      [core]2S( 1.03)2p( 3.42)3p( 0.01)
     Cl   18      [core]3S( 2.00)3p( 5.15)
      H   19            1S( 0.76)
      H   20            1S( 0.77)
      H   21            1S( 0.76)
      H   22            1S( 0.77)
      H   23            1S( 0.77)
      H   24            1S( 0.75)
      H   25            1S( 0.76)
      H   26            1S( 0.77)
      H   27            1S( 0.75)
      H   28            1S( 0.76)
      H   29            1S( 0.77)
      H   30            1S( 0.75)
      H   31            1S( 0.75)
      H   32            1S( 0.78)
      H   33            1S( 0.76)
      H   34            1S( 0.75)
      H   35            1S( 0.77)
      H   36            1S( 0.77)
      H   37            1S( 0.76)
      H   38            1S( 0.76)
      H   39            1S( 0.77)
      H   40            1S( 0.77)
      H   41            1S( 0.76)
      H   42            1S( 0.75)
      H   43            1S( 0.77)


 NBO analysis skipped by request.
 Leave Link  607 at Sun Oct  3 12:43:47 2021, MaxMem= 1879048192 cpu:      34.3
 (Enter /sw/target/amd/app/gaussian/Gaussian09RevA.02_gcc-4.9.2/g09/l9999.exe)
 1\1\GINC-HERMITE\SP\RTD-B3LYP-FC\6-31G(d)\C15H25Cl1N2\JSCHLEINITZ\03-O
 ct-2021\0\\#p TD(NStates=10, Root=1) b3lyp/6-31G* volume pop=NPA densi
 ty=current Geom=AllCheck Guess=Read\\C1CCC(CC1)n1cc[n+](c1)C1CCCCC1.[C
 l-]_conf_0\\0,1\C,0,-0.4459734475,0.1040591088,2.5651687969\C,0,0.0530
 948685,1.2646661529,1.6910880433\C,0,1.4320795347,0.9626084223,1.08147
 04581\C,0,1.3977525938,-0.3607592091,0.2997634773\C,0,0.9179032553,-1.
 5304285019,1.174529296\C,0,-0.4590300075,-1.2186150704,1.7838536339\N,
 0,2.7057783902,-0.6539407622,-0.3261693278\C,0,2.9337815171,-0.7522088
 974,-1.6862730026\C,0,4.2583622488,-1.031555302,-1.8531388398\N,0,4.82
 32499288,-1.1006724035,-0.5931491907\C,0,3.8647539505,-0.8686012085,0.
 3207420964\C,0,6.2477015108,-1.3840592458,-0.3116557129\C,0,6.41536589
 48,-2.6903239434,0.481555634\C,0,7.9043589823,-2.9831469366,0.72976609
 81\C,0,8.6047477756,-1.8055109266,1.4245577537\C,0,8.4166735896,-0.499
 9162989,0.637056509\C,0,6.9297099103,-0.1973134286,0.3884424014\Cl,0,3
 .1976095256,-0.9239297936,-4.7734896454\H,0,-1.4488731934,0.3252136945
 ,2.9487164289\H,0,0.2095674983,0.0016486346,3.4425178266\H,0,0.1070827
 137,2.1910193954,2.2745280664\H,0,-0.666464574,1.4486479116,0.88088303
 2\H,0,2.1779918026,0.8894126193,1.8863385965\H,0,1.7525155955,1.773946
 2758,0.417967279\H,0,0.7124431661,-0.2510005191,-0.5469627083\H,0,1.64
 39036274,-1.7005685251,1.9829401941\H,0,0.8818319941,-2.4475231334,0.5
 755136432\H,0,-0.766788049,-2.0465946543,2.4328401495\H,0,-1.204650954
 ,-1.1608214867,0.9783990332\H,0,2.2039640364,-0.6316890429,-2.47963290
 3\H,0,4.7654610114,-1.1717716174,-2.8012929777\H,0,4.0020407045,-0.856
 6001206,1.3891015467\H,0,6.697441109,-1.513820898,-1.3013785628\H,0,5.
 9399903857,-3.5147613313,-0.0620525723\H,0,5.8964980997,-2.5977758031,
 1.4468203638\H,0,8.3966854944,-3.1864216899,-0.231662611\H,0,8.0018325
 407,-3.8966606714,1.3276238529\H,0,9.6725658076,-2.0212299893,1.547246
 1654\H,0,8.1915744826,-1.6824926422,2.4365371462\H,0,8.9350416548,-0.5
 771045591,-0.3290632472\H,0,8.8760625805,0.3409020429,1.1694380676\H,0
 ,6.8109449438,0.7066802329,-0.2197334055\H,0,6.4307938848,-0.007911429
 1,1.3500751147\\Version=AM64L-G09RevA.02\State=1-A\HF=-1156.3571456\RM
 SD=5.527e-09\Dipole=0.1706407,0.0142986,1.3184537\Quadrupole=8.1999738
 ,0.7597499,-8.9597237,-1.6912927,-2.2478652,0.1217016\PG=C01 [X(C15H25
 Cl1N2)]\\@


 KNOWLEDGE IS EXPERIMENT'S DAUGHTER.
 -- LEONARDO DA VINCI, IN "PENSIERI" CA. 1492
 Job cpu time:  0 days  5 hours 28 minutes 10.6 seconds.
 File lengths (MBytes):  RWF=    308 Int=      0 D2E=      0 Chk=     48 Scr=      1
 Normal termination of Gaussian 09 at Sun Oct  3 12:45:04 2021.
