 Entering Gaussian System, Link 0=g09
 Input=C15H14O_5067_conf_0.com
 Output=C15H14O_5067_conf_0.log
 Initial command:
 /sw/target/amd/app/gaussian/Gaussian09RevA.02_gcc-4.9.2/g09/l1.exe /home/jschleinitz/gaussian/Gau-214438.inp -scrdir=/home/jschleinitz/gaussian/
 Entering Link 1 = /sw/target/amd/app/gaussian/Gaussian09RevA.02_gcc-4.9.2/g09/l1.exe PID=    214440.
  
 Copyright (c) 1988,1990,1992,1993,1995,1998,2003,2009, Gaussian, Inc.
                  All Rights Reserved.
  
 This is part of the Gaussian(R) 09 program.  It is based on
 the Gaussian(R) 03 system (copyright 2003, Gaussian, Inc.),
 the Gaussian(R) 98 system (copyright 1998, Gaussian, Inc.),
 the Gaussian(R) 94 system (copyright 1995, Gaussian, Inc.),
 the Gaussian 92(TM) system (copyright 1992, Gaussian, Inc.),
 the Gaussian 90(TM) system (copyright 1990, Gaussian, Inc.),
 the Gaussian 88(TM) system (copyright 1988, Gaussian, Inc.),
 the Gaussian 86(TM) system (copyright 1986, Carnegie Mellon
 University), and the Gaussian 82(TM) system (copyright 1983,
 Carnegie Mellon University). Gaussian is a federally registered
 trademark of Gaussian, Inc.
  
 This software contains proprietary and confidential information,
 including trade secrets, belonging to Gaussian, Inc.
  
 This software is provided under written license and may be
 used, copied, transmitted, or stored only in accord with that
 written license.
  
 The following legend is applicable only to US Government
 contracts under FAR:
  
                    RESTRICTED RIGHTS LEGEND
  
 Use, reproduction and disclosure by the US Government is
 subject to restrictions as set forth in subparagraphs (a)
 and (c) of the Commercial Computer Software - Restricted
 Rights clause in FAR 52.227-19.
  
 Gaussian, Inc.
 340 Quinnipiac St., Bldg. 40, Wallingford CT 06492
  
  
 ---------------------------------------------------------------
 Warning -- This program may not be used in any manner that
 competes with the business of Gaussian, Inc. or will provide
 assistance to any competitor of Gaussian, Inc.  The licensee
 of this program is prohibited from giving any competitor of
 Gaussian, Inc. access to this program.  By using this program,
 the user acknowledges that Gaussian, Inc. is engaged in the
 business of creating and licensing software in the field of
 computational chemistry and represents and warrants to the
 licensee that it is not a competitor of Gaussian, Inc. and that
 it will not use this program in any manner prohibited above.
 ---------------------------------------------------------------
  

 Cite this work as:
 Gaussian 09, Revision A.02,
 M. J. Frisch, G. W. Trucks, H. B. Schlegel, G. E. Scuseria, 
 M. A. Robb, J. R. Cheeseman, G. Scalmani, V. Barone, B. Mennucci, 
 G. A. Petersson, H. Nakatsuji, M. Caricato, X. Li, H. P. Hratchian, 
 A. F. Izmaylov, J. Bloino, G. Zheng, J. L. Sonnenberg, M. Hada, 
 M. Ehara, K. Toyota, R. Fukuda, J. Hasegawa, M. Ishida, T. Nakajima, 
 Y. Honda, O. Kitao, H. Nakai, T. Vreven, J. A. Montgomery, Jr., 
 J. E. Peralta, F. Ogliaro, M. Bearpark, J. J. Heyd, E. Brothers, 
 K. N. Kudin, V. N. Staroverov, R. Kobayashi, J. Normand, 
 K. Raghavachari, A. Rendell, J. C. Burant, S. S. Iyengar, J. Tomasi, 
 M. Cossi, N. Rega, J. M. Millam, M. Klene, J. E. Knox, J. B. Cross, 
 V. Bakken, C. Adamo, J. Jaramillo, R. Gomperts, R. E. Stratmann, 
 O. Yazyev, A. J. Austin, R. Cammi, C. Pomelli, J. W. Ochterski, 
 R. L. Martin, K. Morokuma, V. G. Zakrzewski, G. A. Voth, 
 P. Salvador, J. J. Dannenberg, S. Dapprich, A. D. Daniels, 
 O. Farkas, J. B. Foresman, J. V. Ortiz, J. Cioslowski, 
 and D. J. Fox, Gaussian, Inc., Wallingford CT, 2009.
 
 ******************************************
 Gaussian 09:  AM64L-G09RevA.02 11-Jun-2009
                28-Sep-2021 
 ******************************************
 %nproc=5
 Will use up to    5 processors via shared memory.
 %mem=10gb
 %chk=C15H14O_5067_conf_0.chk
 -----------------------------------
 #p opt b3lyp/6-31G* scf=(xqc,tight)
 -----------------------------------
 1/14=-1,18=20,19=15,26=3,38=1/1,3;
 2/9=110,12=2,17=6,18=5,40=1/2;
 3/5=1,6=6,7=1,11=2,16=1,25=1,30=1,71=1,74=-5/1,2,3;
 4//1;
 5/5=2,8=3,13=1,32=2,38=5/2,8;
 6/7=2,8=2,9=2,10=2,28=1/1;
 7//1,2,3,16;
 1/14=-1,18=20,19=15/3(2);
 2/9=110/2;
 99//99;
 2/9=110/2;
 3/5=1,6=6,7=1,11=2,16=1,25=1,30=1,71=1,74=-5/1,2,3;
 4/5=5,16=3/1;
 5/5=2,8=3,13=1,32=2,38=5/2,8;
 7//1,2,3,16;
 1/14=-1,18=20,19=15/3(-5);
 2/9=110/2;
 6/7=2,8=2,9=2,10=2,19=2,28=1/1;
 99/9=1/99;
 Leave Link    1 at Tue Sep 28 20:57:40 2021, MaxMem= 1342177280 cpu:       0.1
 (Enter /sw/target/amd/app/gaussian/Gaussian09RevA.02_gcc-4.9.2/g09/l101.exe)
 --------------------------------
 COc1ccc(cc1)/C=C/c1ccccc1_conf_0
 --------------------------------
 Symbolic Z-matrix:
 Charge =  0 Multiplicity = 1
 C                    -0.559    -2.62355   0.16625 
 O                     0.2205   -3.80802   0.25558 
 C                     1.40994  -3.71053   0.92306 
 C                     1.92926  -2.56095   1.5179 
 C                     3.16729  -2.60294   2.17427 
 C                     3.89575  -3.79567   2.25498 
 C                     3.37453  -4.93857   1.63443 
 C                     2.14043  -4.8972    0.98354 
 C                     5.20369  -3.80404   2.92876 
 C                     5.71113  -4.8855    3.54368 
 C                     7.02179  -4.94006   4.20582 
 C                     7.1902   -5.80979   5.29195 
 C                     8.43069  -5.93087   5.92211 
 C                     9.51852  -5.19081   5.46545 
 C                     9.36869  -4.33596   4.37548 
 C                     8.12807  -4.2163    3.74413 
 H                    -1.46839  -2.86293  -0.3928 
 H                    -0.02523  -1.84172  -0.38404 
 H                    -0.85958  -2.27458   1.15966 
 H                     1.40022  -1.61435   1.48966 
 H                     3.54922  -1.69104   2.62859 
 H                     3.92465  -5.87506   1.64066 
 H                     1.75137  -5.79756   0.51769 
 H                     5.74527  -2.86241   2.92036 
 H                     5.1397   -5.80936   3.59449 
 H                     6.35367  -6.39968   5.66053 
 H                     8.54612  -6.60556   6.76623 
 H                     10.48466  -5.28543   5.95399 
 H                     10.21904  -3.76706   4.00915 
 H                     8.04332  -3.564     2.87881 
 
 NAtoms=     30 NQM=     30 NQMF=      0 NMic=      0 NMicF=      0 NTot=     30.
                    Isotopes and Nuclear Properties:
 (Nuclear quadrupole moments (NQMom) in fm**2, nuclear magnetic moments (NMagM)
  in nuclear magnetons)

  Atom         1           2           3           4           5           6           7           8           9          10
 IAtWgt=          12          16          12          12          12          12          12          12          12          12
 AtmWgt=  12.0000000  15.9949146  12.0000000  12.0000000  12.0000000  12.0000000  12.0000000  12.0000000  12.0000000  12.0000000
 NucSpn=           0           0           0           0           0           0           0           0           0           0
 AtZEff=   0.0000000   0.0000000   0.0000000   0.0000000   0.0000000   0.0000000   0.0000000   0.0000000   0.0000000   0.0000000
 NQMom=    0.0000000   0.0000000   0.0000000   0.0000000   0.0000000   0.0000000   0.0000000   0.0000000   0.0000000   0.0000000
 NMagM=    0.0000000   0.0000000   0.0000000   0.0000000   0.0000000   0.0000000   0.0000000   0.0000000   0.0000000   0.0000000

  Atom        11          12          13          14          15          16          17          18          19          20
 IAtWgt=          12          12          12          12          12          12           1           1           1           1
 AtmWgt=  12.0000000  12.0000000  12.0000000  12.0000000  12.0000000  12.0000000   1.0078250   1.0078250   1.0078250   1.0078250
 NucSpn=           0           0           0           0           0           0           1           1           1           1
 AtZEff=   0.0000000   0.0000000   0.0000000   0.0000000   0.0000000   0.0000000   0.0000000   0.0000000   0.0000000   0.0000000
 NQMom=    0.0000000   0.0000000   0.0000000   0.0000000   0.0000000   0.0000000   0.0000000   0.0000000   0.0000000   0.0000000
 NMagM=    0.0000000   0.0000000   0.0000000   0.0000000   0.0000000   0.0000000   2.7928460   2.7928460   2.7928460   2.7928460

  Atom        21          22          23          24          25          26          27          28          29          30
 IAtWgt=           1           1           1           1           1           1           1           1           1           1
 AtmWgt=   1.0078250   1.0078250   1.0078250   1.0078250   1.0078250   1.0078250   1.0078250   1.0078250   1.0078250   1.0078250
 NucSpn=           1           1           1           1           1           1           1           1           1           1
 AtZEff=   0.0000000   0.0000000   0.0000000   0.0000000   0.0000000   0.0000000   0.0000000   0.0000000   0.0000000   0.0000000
 NQMom=    0.0000000   0.0000000   0.0000000   0.0000000   0.0000000   0.0000000   0.0000000   0.0000000   0.0000000   0.0000000
 NMagM=    2.7928460   2.7928460   2.7928460   2.7928460   2.7928460   2.7928460   2.7928460   2.7928460   2.7928460   2.7928460
 Leave Link  101 at Tue Sep 28 20:57:42 2021, MaxMem= 1342177280 cpu:       0.2
 (Enter /sw/target/amd/app/gaussian/Gaussian09RevA.02_gcc-4.9.2/g09/l103.exe)

 GradGradGradGradGradGradGradGradGradGradGradGradGradGradGradGradGradGrad
 Berny optimization.
 Initialization pass.
                           ----------------------------
                           !    Initial Parameters    !
                           ! (Angstroms and Degrees)  !
 --------------------------                            --------------------------
 ! Name  Definition              Value          Derivative Info.                !
 --------------------------------------------------------------------------------
 ! R1    R(1,2)                  1.4208         estimate D2E/DX2                !
 ! R2    R(1,17)                 1.094          estimate D2E/DX2                !
 ! R3    R(1,18)                 1.095          estimate D2E/DX2                !
 ! R4    R(1,19)                 1.095          estimate D2E/DX2                !
 ! R5    R(2,3)                  1.3674         estimate D2E/DX2                !
 ! R6    R(3,4)                  1.3946         estimate D2E/DX2                !
 ! R7    R(3,8)                  1.3948         estimate D2E/DX2                !
 ! R8    R(4,5)                  1.4019         estimate D2E/DX2                !
 ! R9    R(4,20)                 1.0848         estimate D2E/DX2                !
 ! R10   R(5,6)                  1.3999         estimate D2E/DX2                !
 ! R11   R(5,21)                 1.088          estimate D2E/DX2                !
 ! R12   R(6,7)                  1.4011         estimate D2E/DX2                !
 ! R13   R(6,9)                  1.4713         estimate D2E/DX2                !
 ! R14   R(7,8)                  1.3958         estimate D2E/DX2                !
 ! R15   R(7,22)                 1.0861         estimate D2E/DX2                !
 ! R16   R(8,23)                 1.0858         estimate D2E/DX2                !
 ! R17   R(9,10)                 1.3436         estimate D2E/DX2                !
 ! R18   R(9,24)                 1.0863         estimate D2E/DX2                !
 ! R19   R(10,11)                1.4694         estimate D2E/DX2                !
 ! R20   R(10,25)                1.0875         estimate D2E/DX2                !
 ! R21   R(11,12)                1.4016         estimate D2E/DX2                !
 ! R22   R(11,16)                1.4003         estimate D2E/DX2                !
 ! R23   R(12,13)                1.3966         estimate D2E/DX2                !
 ! R24   R(12,26)                1.0879         estimate D2E/DX2                !
 ! R25   R(13,14)                1.3927         estimate D2E/DX2                !
 ! R26   R(13,27)                1.0868         estimate D2E/DX2                !
 ! R27   R(14,15)                1.3933         estimate D2E/DX2                !
 ! R28   R(14,28)                1.0868         estimate D2E/DX2                !
 ! R29   R(15,16)                1.3972         estimate D2E/DX2                !
 ! R30   R(15,29)                1.0867         estimate D2E/DX2                !
 ! R31   R(16,30)                1.0869         estimate D2E/DX2                !
 ! A1    A(2,1,17)             107.8051         estimate D2E/DX2                !
 ! A2    A(2,1,18)             111.0642         estimate D2E/DX2                !
 ! A3    A(2,1,19)             111.0541         estimate D2E/DX2                !
 ! A4    A(17,1,18)            107.7361         estimate D2E/DX2                !
 ! A5    A(17,1,19)            107.768          estimate D2E/DX2                !
 ! A6    A(18,1,19)            111.2352         estimate D2E/DX2                !
 ! A7    A(1,2,3)              116.6474         estimate D2E/DX2                !
 ! A8    A(2,3,4)              126.2186         estimate D2E/DX2                !
 ! A9    A(2,3,8)              114.5867         estimate D2E/DX2                !
 ! A10   A(4,3,8)              119.1941         estimate D2E/DX2                !
 ! A11   A(3,4,5)              120.2552         estimate D2E/DX2                !
 ! A12   A(3,4,20)             121.7746         estimate D2E/DX2                !
 ! A13   A(5,4,20)             117.9701         estimate D2E/DX2                !
 ! A14   A(4,5,6)              120.8002         estimate D2E/DX2                !
 ! A15   A(4,5,21)             118.7112         estimate D2E/DX2                !
 ! A16   A(6,5,21)             120.4866         estimate D2E/DX2                !
 ! A17   A(5,6,7)              118.4172         estimate D2E/DX2                !
 ! A18   A(5,6,9)              119.5926         estimate D2E/DX2                !
 ! A19   A(7,6,9)              121.9312         estimate D2E/DX2                !
 ! A20   A(6,7,8)              120.7485         estimate D2E/DX2                !
 ! A21   A(6,7,22)             120.823          estimate D2E/DX2                !
 ! A22   A(8,7,22)             118.4263         estimate D2E/DX2                !
 ! A23   A(3,8,7)              120.5619         estimate D2E/DX2                !
 ! A24   A(3,8,23)             119.9479         estimate D2E/DX2                !
 ! A25   A(7,8,23)             119.4896         estimate D2E/DX2                !
 ! A26   A(6,9,10)             123.3613         estimate D2E/DX2                !
 ! A27   A(6,9,24)             115.768          estimate D2E/DX2                !
 ! A28   A(10,9,24)            120.861          estimate D2E/DX2                !
 ! A29   A(9,10,11)            124.9593         estimate D2E/DX2                !
 ! A30   A(9,10,25)            120.4464         estimate D2E/DX2                !
 ! A31   A(11,10,25)           114.5875         estimate D2E/DX2                !
 ! A32   A(10,11,12)           118.6464         estimate D2E/DX2                !
 ! A33   A(10,11,16)           122.4729         estimate D2E/DX2                !
 ! A34   A(12,11,16)           118.7705         estimate D2E/DX2                !
 ! A35   A(11,12,13)           120.6745         estimate D2E/DX2                !
 ! A36   A(11,12,26)           120.438          estimate D2E/DX2                !
 ! A37   A(13,12,26)           118.887          estimate D2E/DX2                !
 ! A38   A(12,13,14)           119.9842         estimate D2E/DX2                !
 ! A39   A(12,13,27)           119.9086         estimate D2E/DX2                !
 ! A40   A(14,13,27)           120.1069         estimate D2E/DX2                !
 ! A41   A(13,14,15)           119.9038         estimate D2E/DX2                !
 ! A42   A(13,14,28)           120.0483         estimate D2E/DX2                !
 ! A43   A(15,14,28)           120.0464         estimate D2E/DX2                !
 ! A44   A(14,15,16)           120.1021         estimate D2E/DX2                !
 ! A45   A(14,15,29)           120.0501         estimate D2E/DX2                !
 ! A46   A(16,15,29)           119.8458         estimate D2E/DX2                !
 ! A47   A(11,16,15)           120.5479         estimate D2E/DX2                !
 ! A48   A(11,16,30)           120.7348         estimate D2E/DX2                !
 ! A49   A(15,16,30)           118.7096         estimate D2E/DX2                !
 ! D1    D(17,1,2,3)           179.87           estimate D2E/DX2                !
 ! D2    D(18,1,2,3)            62.0585         estimate D2E/DX2                !
 ! D3    D(19,1,2,3)           -62.2855         estimate D2E/DX2                !
 ! D4    D(1,2,3,4)             -0.2291         estimate D2E/DX2                !
 ! D5    D(1,2,3,8)           -179.9284         estimate D2E/DX2                !
 ! D6    D(2,3,4,5)            179.9613         estimate D2E/DX2                !
 ! D7    D(2,3,4,20)            -0.1435         estimate D2E/DX2                !
 ! D8    D(8,3,4,5)             -0.3519         estimate D2E/DX2                !
 ! D9    D(8,3,4,20)           179.5432         estimate D2E/DX2                !
 ! D10   D(2,3,8,7)            179.9306         estimate D2E/DX2                !
 ! D11   D(2,3,8,23)             0.2119         estimate D2E/DX2                !
 ! D12   D(4,3,8,7)              0.2085         estimate D2E/DX2                !
 ! D13   D(4,3,8,23)          -179.5102         estimate D2E/DX2                !
 ! D14   D(3,4,5,6)             -0.58           estimate D2E/DX2                !
 ! D15   D(3,4,5,21)           179.9308         estimate D2E/DX2                !
 ! D16   D(20,4,5,6)           179.5209         estimate D2E/DX2                !
 ! D17   D(20,4,5,21)            0.0317         estimate D2E/DX2                !
 ! D18   D(4,5,6,7)              1.6215         estimate D2E/DX2                !
 ! D19   D(4,5,6,9)            178.8833         estimate D2E/DX2                !
 ! D20   D(21,5,6,7)          -178.8984         estimate D2E/DX2                !
 ! D21   D(21,5,6,9)            -1.6366         estimate D2E/DX2                !
 ! D22   D(5,6,7,8)             -1.7654         estimate D2E/DX2                !
 ! D23   D(5,6,7,22)           177.6886         estimate D2E/DX2                !
 ! D24   D(9,6,7,8)           -178.9598         estimate D2E/DX2                !
 ! D25   D(9,6,7,22)             0.4942         estimate D2E/DX2                !
 ! D26   D(5,6,9,10)           151.3151         estimate D2E/DX2                !
 ! D27   D(5,6,9,24)           -27.5612         estimate D2E/DX2                !
 ! D28   D(7,6,9,10)           -31.5226         estimate D2E/DX2                !
 ! D29   D(7,6,9,24)           149.6011         estimate D2E/DX2                !
 ! D30   D(6,7,8,3)              0.8703         estimate D2E/DX2                !
 ! D31   D(6,7,8,23)          -179.4097         estimate D2E/DX2                !
 ! D32   D(22,7,8,3)          -178.5966         estimate D2E/DX2                !
 ! D33   D(22,7,8,23)            1.1234         estimate D2E/DX2                !
 ! D34   D(6,9,10,11)          178.855          estimate D2E/DX2                !
 ! D35   D(6,9,10,25)           -2.1457         estimate D2E/DX2                !
 ! D36   D(24,9,10,11)          -2.3239         estimate D2E/DX2                !
 ! D37   D(24,9,10,25)         176.6754         estimate D2E/DX2                !
 ! D38   D(9,10,11,12)         150.3104         estimate D2E/DX2                !
 ! D39   D(9,10,11,16)         -33.5565         estimate D2E/DX2                !
 ! D40   D(25,10,11,12)        -28.7408         estimate D2E/DX2                !
 ! D41   D(25,10,11,16)        147.3922         estimate D2E/DX2                !
 ! D42   D(10,11,12,13)        177.6982         estimate D2E/DX2                !
 ! D43   D(10,11,12,26)         -2.5348         estimate D2E/DX2                !
 ! D44   D(16,11,12,13)          1.4198         estimate D2E/DX2                !
 ! D45   D(16,11,12,26)       -178.8132         estimate D2E/DX2                !
 ! D46   D(10,11,16,15)       -177.6307         estimate D2E/DX2                !
 ! D47   D(10,11,16,30)          1.3413         estimate D2E/DX2                !
 ! D48   D(12,11,16,15)         -1.5022         estimate D2E/DX2                !
 ! D49   D(12,11,16,30)        177.4698         estimate D2E/DX2                !
 ! D50   D(11,12,13,14)         -0.5064         estimate D2E/DX2                !
 ! D51   D(11,12,13,27)        179.7113         estimate D2E/DX2                !
 ! D52   D(26,12,13,14)        179.723          estimate D2E/DX2                !
 ! D53   D(26,12,13,27)         -0.0593         estimate D2E/DX2                !
 ! D54   D(12,13,14,15)         -0.3477         estimate D2E/DX2                !
 ! D55   D(12,13,14,28)       -179.9            estimate D2E/DX2                !
 ! D56   D(27,13,14,15)        179.4342         estimate D2E/DX2                !
 ! D57   D(27,13,14,28)         -0.1182         estimate D2E/DX2                !
 ! D58   D(13,14,15,16)          0.2642         estimate D2E/DX2                !
 ! D59   D(13,14,15,29)       -179.2109         estimate D2E/DX2                !
 ! D60   D(28,14,15,16)        179.8166         estimate D2E/DX2                !
 ! D61   D(28,14,15,29)          0.3414         estimate D2E/DX2                !
 ! D62   D(14,15,16,11)          0.6751         estimate D2E/DX2                !
 ! D63   D(14,15,16,30)       -178.3175         estimate D2E/DX2                !
 ! D64   D(29,15,16,11)       -179.8487         estimate D2E/DX2                !
 ! D65   D(29,15,16,30)          1.1587         estimate D2E/DX2                !
 --------------------------------------------------------------------------------
 Trust Radius=3.00D-01 FncErr=1.00D-07 GrdErr=1.00D-06
 Number of steps in this run= 155 maximum allowed number of steps= 180.
 GradGradGradGradGradGradGradGradGradGradGradGradGradGradGradGradGradGrad

 Leave Link  103 at Tue Sep 28 20:57:42 2021, MaxMem= 1342177280 cpu:       0.0
 (Enter /sw/target/amd/app/gaussian/Gaussian09RevA.02_gcc-4.9.2/g09/l202.exe)
                          Input orientation:                          
 ---------------------------------------------------------------------
 Center     Atomic      Atomic             Coordinates (Angstroms)
 Number     Number       Type             X           Y           Z
 ---------------------------------------------------------------------
      1          6           0       -0.559000   -2.623548    0.166246
      2          8           0        0.220502   -3.808018    0.255584
      3          6           0        1.409940   -3.710527    0.923057
      4          6           0        1.929259   -2.560954    1.517897
      5          6           0        3.167285   -2.602939    2.174272
      6          6           0        3.895752   -3.795668    2.254977
      7          6           0        3.374533   -4.938566    1.634426
      8          6           0        2.140426   -4.897203    0.983541
      9          6           0        5.203686   -3.804038    2.928760
     10          6           0        5.711134   -4.885501    3.543676
     11          6           0        7.021788   -4.940060    4.205822
     12          6           0        7.190195   -5.809790    5.291950
     13          6           0        8.430687   -5.930867    5.922107
     14          6           0        9.518523   -5.190805    5.465448
     15          6           0        9.368691   -4.335958    4.375480
     16          6           0        8.128067   -4.216302    3.744127
     17          1           0       -1.468391   -2.862928   -0.392802
     18          1           0       -0.025231   -1.841716   -0.384042
     19          1           0       -0.859578   -2.274584    1.159659
     20          1           0        1.400221   -1.614350    1.489656
     21          1           0        3.549216   -1.691037    2.628589
     22          1           0        3.924646   -5.875061    1.640661
     23          1           0        1.751374   -5.797565    0.517692
     24          1           0        5.745274   -2.862407    2.920362
     25          1           0        5.139705   -5.809356    3.594494
     26          1           0        6.353671   -6.399683    5.660527
     27          1           0        8.546118   -6.605556    6.766231
     28          1           0       10.484658   -5.285431    5.953990
     29          1           0       10.219045   -3.767062    4.009152
     30          1           0        8.043319   -3.564000    2.878815
 ---------------------------------------------------------------------
                    Distance matrix (angstroms):
                    1          2          3          4          5
     1  C    0.000000
     2  O    1.420765   0.000000
     3  C    2.372975   1.367401   0.000000
     4  C    2.832368   2.463423   1.394649   0.000000
     5  C    4.232941   3.717137   2.424986   1.401892   0.000000
     6  C    5.057814   4.183920   2.821440   2.436165   1.399921
     7  C    4.794533   3.623156   2.423583   2.784858   2.406147
     8  C    3.622758   2.324296   1.394800   2.405864   2.781354
     9  C    6.498738   5.654911   4.292331   3.775933   2.481697
    10  C    7.472486   6.489959   5.171894   4.879537   3.681919
    11  C    8.896783   7.946282   6.616732   6.230484   4.944342
    12  C    9.822169   8.828856   7.543573   7.244022   6.015614
    13  C   11.175096  10.199172   8.900074   8.545288   7.268065
    14  C   11.671710  10.747464   9.411358   8.949648   7.607043
    15  C   10.918289  10.046971   8.697822   8.164653   6.804859
    16  C    9.529072   8.652526   7.303936   6.791281   5.447636
    17  H    1.093998   2.041068   3.276385   3.909730   5.305371
    18  H    1.094983   2.082270   2.694564   2.820409   4.161321
    19  H    1.094985   2.082149   2.696038   2.826297   4.165679
    20  H    2.570688   2.779721   2.171425   1.084776   2.137411
    21  H    4.879564   4.603596   3.400542   2.148175   1.088045
    22  H    5.731432   4.462263   3.394689   3.870393   3.400753
    23  H    3.941538   2.523998   2.153282   3.392300   3.867130
    24  H    6.883755   6.206314   4.848057   4.076733   2.696294
    25  H    7.374109   6.273135   5.045077   5.017103   4.023503
    26  H    9.603714   8.575890   7.356335   7.174443   6.059892
    27  H   11.929768  10.933006   9.666898   9.364114   8.126431
    28  H   12.749352  11.832475  10.494814  10.014816   8.661753
    29  H   11.499643  10.679972   9.334212   8.739657   7.378976
    30  H    9.068758   8.254536   6.917238   6.343495   5.019535
                    6          7          8          9         10
     6  C    0.000000
     7  C    1.401060   0.000000
     8  C    2.431275   1.395845   0.000000
     9  C    1.471307   2.511624   3.789783   0.000000
    10  C    2.478728   3.017906   4.393676   1.343572   0.000000
    11  C    3.858436   4.462572   5.849156   2.495381   1.469431
    12  C    4.912560   5.356845   6.700401   3.681565   2.469492
    13  C    6.210681   6.703250   8.063826   4.888462   3.761076
    14  C    6.623374   7.244927   8.637709   5.193816   4.275819
    15  C    5.894192   6.618643   8.004253   4.441081   3.790991
    16  C    4.506327   5.250580   6.628447   3.063786   2.515864
    17  H    6.054319   5.645516   4.365336   7.512329   8.433994
    18  H    5.114338   5.022260   3.987023   6.493608   7.589300
    19  H    5.111417   5.024928   3.988630   6.498625   7.461547
    20  H    3.401697   3.869016   3.403113   4.618669   5.788213
    21  H    2.165444   3.400783   3.869157   2.700398   3.964326
    22  H    2.168431   1.086133   2.138096   2.753957   2.791458
    23  H    3.409415   2.149330   1.085831   4.658954   5.066373
    24  H    2.175878   3.403598   4.570186   1.086304   2.117214
    25  H    2.719680   2.777763   4.079801   2.113905   1.087484
    26  H    4.941662   5.217241   6.471714   3.939845   2.680794
    27  H    7.062067   7.473926   8.797208   5.809177   4.623914
    28  H    7.701673   8.326633   9.720200   6.263800   5.362470
    29  H    6.562163   7.338875   8.700323   5.130539   4.667851
    30  H    4.200614   5.023495   6.341423   2.850198   2.761791
                   11         12         13         14         15
    11  C    0.000000
    12  C    1.401593   0.000000
    13  C    2.431528   1.396631   0.000000
    14  C    2.807707   2.415440   1.392701   0.000000
    15  C    2.429337   2.785308   2.411564   1.393285   0.000000
    16  C    1.400300   2.411340   2.788353   2.417844   1.397166
    17  H    9.876486  10.769008  12.135983  12.666902  11.930997
    18  H    8.962536  10.001243  11.313321  11.684013  10.822202
    19  H    8.860011   9.714543  11.061570  11.608150  10.918253
    20  H    7.073890   8.098331   9.365170   9.721357   8.901216
    21  H    5.010247   6.108547   7.256183   7.478554   6.626728
    22  H    4.128749   4.898978   6.215972   6.810922   6.283764
    23  H    6.489598   7.237020   8.592944   9.229141   8.662698
    24  H    2.756544   4.049604   5.063335   5.112368   4.173472
    25  H    2.161397   2.661930   4.032755   4.801783   4.545895
    26  H    2.166344   1.087932   2.145276   3.393483   3.873067
    27  H    3.413672   2.155290   1.086772   2.153863   3.397557
    28  H    3.894463   3.400990   2.153230   1.086758   2.153735
    29  H    3.411313   3.871981   3.397010   2.153735   1.086711
    30  H    2.167490   3.405086   3.874757   3.393139   2.143020
                   16         17         18         19         20
    16  C    0.000000
    17  H   10.537448   0.000000
    18  H    9.442282   1.767955   0.000000
    19  H    9.551309   1.768315   1.807352   0.000000
    20  H    7.557559   3.651237   2.365238   2.377288   0.000000
    21  H    5.346706   5.973150   4.677106   4.683561   2.433358
    22  H    4.984455   6.503289   5.997401   6.006962   4.954713
    23  H    7.319323   4.450616   4.429243   4.431770   4.308980
    24  H    2.861699   7.938138   6.727527   6.860735   4.741735
    25  H    3.389767   8.261168   7.632003   7.376613   6.001013
    26  H    3.404147  10.504099   9.899609   9.450143   8.051847
    27  H    3.875102  12.866601  12.136251  11.775317  10.189123
    28  H    3.402947  13.748661  12.747061  12.678426  10.767270
    29  H    2.155051  12.521614  11.311600  11.536160   9.420917
    30  H    1.086943  10.083036   8.872091   9.158584   7.061279
                   21         22         23         24         25
    21  H    0.000000
    22  H    4.315438   0.000000
    23  H    4.954967   2.447483   0.000000
    24  H    2.505975   3.745451   5.508104   0.000000
    25  H    4.519201   2.301771   4.576858   3.083127   0.000000
    26  H    6.263303   4.725962   6.927657   4.515636   2.467933
    27  H    8.138895   6.939964   9.266371   6.053643   4.722023
    28  H    8.489895   7.873133  10.299799   6.126638   5.866025
    29  H    7.120565   7.047898   9.381614   4.692386   5.490228
    30  H    4.875200   4.882366   7.081828   2.403117   3.739625
                   26         27         28         29         30
    26  H    0.000000
    27  H    2.464100   0.000000
    28  H    4.288675   2.482016   0.000000
    29  H    4.959723   4.296186   2.481610   0.000000
    30  H    4.316703   4.961438   4.287209   2.460219   0.000000
 Stoichiometry    C15H14O
 Framework group  C1[X(C15H14O)]
 Deg. of freedom    84
 Full point group                 C1      NOp   1
 Largest Abelian subgroup         C1      NOp   1
 Largest concise Abelian subgroup C1      NOp   1
                         Standard orientation:                         
 ---------------------------------------------------------------------
 Center     Atomic      Atomic             Coordinates (Angstroms)
 Number     Number       Type             X           Y           Z
 ---------------------------------------------------------------------
      1          6           0       -6.018456    0.310809    0.344111
      2          8           0       -5.070877   -0.585567   -0.219074
      3          6           0       -3.754305   -0.231127   -0.115166
      4          6           0       -3.257147    0.925227    0.485437
      5          6           0       -1.876272    1.164213    0.522466
      6          6           0       -0.974832    0.245960   -0.028892
      7          6           0       -1.487207   -0.901038   -0.649245
      8          6           0       -2.861987   -1.140209   -0.683325
      9          6           0        0.467427    0.535166    0.002662
     10          6           0        1.411896   -0.419802    0.037317
     11          6           0        2.860211   -0.171715    0.045446
     12          6           0        3.696501   -1.095106    0.687654
     13          6           0        5.082872   -0.926303    0.680035
     14          6           0        5.647832    0.162609    0.020711
     15          6           0        4.828599    1.078072   -0.636578
     16          6           0        3.441830    0.908056   -0.630316
     17          1           0       -7.015173   -0.108827    0.178910
     18          1           0       -5.980748    1.286195   -0.152061
     19          1           0       -5.872438    0.409675    1.424804
     20          1           0       -3.913475    1.663666    0.933410
     21          1           0       -1.515955    2.074969    0.996319
     22          1           0       -0.825355   -1.620512   -1.122526
     23          1           0       -3.236210   -2.040584   -1.161142
     24          1           0        0.737953    1.587167    0.015574
     25          1           0        1.132471   -1.469968    0.078474
     26          1           0        3.274532   -1.954541    1.204288
     27          1           0        5.719347   -1.647402    1.185990
     28          1           0        6.726578    0.294088    0.012744
     29          1           0        5.267692    1.921525   -1.162623
     30          1           0        2.826017    1.620225   -1.173486
 ---------------------------------------------------------------------
 Rotational constants (GHZ):      2.5218316      0.1655247      0.1604829
 Leave Link  202 at Tue Sep 28 20:57:42 2021, MaxMem= 1342177280 cpu:       0.1
 (Enter /sw/target/amd/app/gaussian/Gaussian09RevA.02_gcc-4.9.2/g09/l301.exe)
 Standard basis: 6-31G(d) (6D, 7F)
 Ernie: Thresh=  0.10000D-02 Tol=  0.10000D-05 Strict=F.
 There are   268 symmetry adapted basis functions of A   symmetry.
 Integral buffers will be    131072 words long.
 Raffenetti 2 integral format.
 Two-electron integral symmetry is turned on.
   268 basis functions,   504 primitive gaussians,   268 cartesian basis functions
    56 alpha electrons       56 beta electrons
       nuclear repulsion energy       926.3155389910 Hartrees.
 IExCor=  402 DFT=T Ex+Corr=B3LYP ExCW=0 ScaHFX=  0.200000
 ScaDFX=  0.800000  0.720000  1.000000  0.810000 ScalE2=  1.000000  1.000000
 IRadAn=      0 IRanWt=     -1 IRanGd=            0 ICorTp=0
 NAtoms=   30 NActive=   30 NUniq=   30 SFac= 7.50D-01 NAtFMM=   80 NAOKFM=F Big=F
 Leave Link  301 at Tue Sep 28 20:57:43 2021, MaxMem= 1342177280 cpu:       0.1
 (Enter /sw/target/amd/app/gaussian/Gaussian09RevA.02_gcc-4.9.2/g09/l302.exe)
 NPDir=0 NMtPBC=     1 NCelOv=     1 NCel=       1 NClECP=     1 NCelD=      1
         NCelK=      1 NCelE2=     1 NClLst=     1 CellRange=     0.0.
 One-electron integrals computed using PRISM.
 NBasis=   268 RedAO= T  NBF=   268
 NBsUse=   268 1.00D-06 NBFU=   268
 Precomputing XC quadrature grid using
 IXCGrd= 2 IRadAn=           0 IRanWt=          -1 IRanGd=           0 AccXCQ= 1.00D-10.
 NRdTot=    1917 NPtTot=      244548 NUsed=      258370 NTot=      258402
 NSgBfM=   264   264   264   264   264 NAtAll=    30    30.
 Leave Link  302 at Tue Sep 28 20:57:46 2021, MaxMem= 1342177280 cpu:       2.6
 (Enter /sw/target/amd/app/gaussian/Gaussian09RevA.02_gcc-4.9.2/g09/l303.exe)
 DipDrv:  MaxL=1.
 Leave Link  303 at Tue Sep 28 20:57:46 2021, MaxMem= 1342177280 cpu:       0.2
 (Enter /sw/target/amd/app/gaussian/Gaussian09RevA.02_gcc-4.9.2/g09/l401.exe)
 Harris functional with IExCor=  402 diagonalized for initial guess.
 ExpMin= 1.61D-01 ExpMax= 5.48D+03 ExpMxC= 8.25D+02 IAcc=1 IRadAn=         1 AccDes= 0.00D+00
 HarFok:  IExCor=  402 AccDes= 0.00D+00 IRadAn=         1 IDoV= 1
 ScaDFX=  1.000000  1.000000  1.000000  1.000000
 FoFCou: FMM=F IPFlag=           0 FMFlag=      100000 FMFlg1=           0
         NFxFlg=           0 DoJE=T BraDBF=F KetDBF=T FulRan=T
         Omega=  0.000000  0.000000  1.000000  0.000000  0.000000 ICntrl=     500 IOpCl=  0
         NMat0=    1 NMatS0=    1 NMatT0=    0 NMatD0=    1 NMtDS0=    0 NMtDT0=    0
         I1Cent=           4 NGrid=           0.
 Petite list used in FoFCou.
 Harris En= -655.317860689394    
 Initial guess orbital symmetries:
       Occupied  (A) (A) (A) (A) (A) (A) (A) (A) (A) (A) (A) (A)
                 (A) (A) (A) (A) (A) (A) (A) (A) (A) (A) (A) (A)
                 (A) (A) (A) (A) (A) (A) (A) (A) (A) (A) (A) (A)
                 (A) (A) (A) (A) (A) (A) (A) (A) (A) (A) (A) (A)
                 (A) (A) (A) (A) (A) (A) (A) (A)
       Virtual   (A) (A) (A) (A) (A) (A) (A) (A) (A) (A) (A) (A)
                 (A) (A) (A) (A) (A) (A) (A) (A) (A) (A) (A) (A)
                 (A) (A) (A) (A) (A) (A) (A) (A) (A) (A) (A) (A)
                 (A) (A) (A) (A) (A) (A) (A) (A) (A) (A) (A) (A)
                 (A) (A) (A) (A) (A) (A) (A) (A) (A) (A) (A) (A)
                 (A) (A) (A) (A) (A) (A) (A) (A) (A) (A) (A) (A)
                 (A) (A) (A) (A) (A) (A) (A) (A) (A) (A) (A) (A)
                 (A) (A) (A) (A) (A) (A) (A) (A) (A) (A) (A) (A)
                 (A) (A) (A) (A) (A) (A) (A) (A) (A) (A) (A) (A)
                 (A) (A) (A) (A) (A) (A) (A) (A) (A) (A) (A) (A)
                 (A) (A) (A) (A) (A) (A) (A) (A) (A) (A) (A) (A)
                 (A) (A) (A) (A) (A) (A) (A) (A) (A) (A) (A) (A)
                 (A) (A) (A) (A) (A) (A) (A) (A) (A) (A) (A) (A)
                 (A) (A) (A) (A) (A) (A) (A) (A) (A) (A) (A) (A)
                 (A) (A) (A) (A) (A) (A) (A) (A) (A) (A) (A) (A)
                 (A) (A) (A) (A) (A) (A) (A) (A) (A) (A) (A) (A)
                 (A) (A) (A) (A) (A) (A) (A) (A) (A) (A) (A) (A)
                 (A) (A) (A) (A) (A) (A) (A) (A)
 The electronic state of the initial guess is 1-A.
 Leave Link  401 at Tue Sep 28 20:57:56 2021, MaxMem= 1342177280 cpu:      10.1
 (Enter /sw/target/amd/app/gaussian/Gaussian09RevA.02_gcc-4.9.2/g09/l502.exe)
 Closed shell SCF:
 Requested convergence on RMS density matrix=1.00D-08 within  64 cycles.
 Requested convergence on MAX density matrix=1.00D-06.
 Requested convergence on             energy=1.00D-06.
 No special actions if energy rises.
 Using DIIS extrapolation, IDIIS=  1040.
 Integral symmetry usage will be decided dynamically.
       258087 words used for storage of precomputed grid.
 Keep R1 ints in memory in canonical form, NReq=659890248.
 IEnd=      482733 IEndB=      482733 NGot=  1342177280 MDV=   692095755
 LenX=   692095755 LenY=   692023490
 Symmetry not used in FoFDir.
 MinBra= 0 MaxBra= 2 Meth= 1.
 IRaf=       0 NMat=   1 IRICut=       1 DoRegI=T DoRafI=F ISym2E= 0 JSym2E=0.
 Integral accuracy reduced to 1.0D-05 until final iterations.

 Cycle   1  Pass 0  IDiag  1:
 E= -654.860647163893    
 DIIS: error= 3.37D-02 at cycle   1 NSaved=   1.
 NSaved= 1 IEnMin= 1 EnMin= -654.860647163893     IErMin= 1 ErrMin= 3.37D-02
 ErrMax= 3.37D-02 EMaxC= 1.00D-01 BMatC= 3.27D-01 BMatP= 3.27D-01
 IDIUse=3 WtCom= 6.63D-01 WtEn= 3.37D-01
 Coeff-Com:  0.100D+01
 Coeff-En:   0.100D+01
 Coeff:      0.100D+01
 Gap=     0.178 Goal=   None    Shift=    0.000
 GapD=    0.178 DampG=1.000 DampE=0.500 DampFc=0.5000 IDamp=-1.
 Damping current iteration by 5.00D-01
 RMSDP=4.96D-03 MaxDP=1.22D-01              OVMax= 1.64D-01

 Cycle   2  Pass 0  IDiag  1:
 E= -655.040481872311     Delta-E=       -0.179834708418 Rises=F Damp=T
 DIIS: error= 6.45D-03 at cycle   2 NSaved=   2.
 NSaved= 2 IEnMin= 2 EnMin= -655.040481872311     IErMin= 2 ErrMin= 6.45D-03
 ErrMax= 6.45D-03 EMaxC= 1.00D-01 BMatC= 1.58D-02 BMatP= 3.27D-01
 IDIUse=3 WtCom= 9.35D-01 WtEn= 6.45D-02
 Coeff-Com: -0.191D-01 0.102D+01
 Coeff-En:   0.000D+00 0.100D+01
 Coeff:     -0.178D-01 0.102D+01
 Gap=     0.170 Goal=   None    Shift=    0.000
 RMSDP=1.23D-03 MaxDP=3.38D-02 DE=-1.80D-01 OVMax= 1.38D-01

 Cycle   3  Pass 0  IDiag  1:
 E= -655.220338834533     Delta-E=       -0.179856962222 Rises=F Damp=F
 DIIS: error= 5.49D-03 at cycle   3 NSaved=   3.
 NSaved= 3 IEnMin= 3 EnMin= -655.220338834533     IErMin= 3 ErrMin= 5.49D-03
 ErrMax= 5.49D-03 EMaxC= 1.00D-01 BMatC= 8.15D-03 BMatP= 1.58D-02
 IDIUse=3 WtCom= 9.45D-01 WtEn= 5.49D-02
 Coeff-Com: -0.420D-01 0.417D+00 0.625D+00
 Coeff-En:   0.000D+00 0.000D+00 0.100D+01
 Coeff:     -0.397D-01 0.394D+00 0.646D+00
 Gap=     0.167 Goal=   None    Shift=    0.000
 RMSDP=6.36D-04 MaxDP=2.91D-02 DE=-1.80D-01 OVMax= 5.47D-02

 Cycle   4  Pass 0  IDiag  1:
 E= -655.223762208332     Delta-E=       -0.003423373799 Rises=F Damp=F
 DIIS: error= 4.57D-03 at cycle   4 NSaved=   4.
 NSaved= 4 IEnMin= 4 EnMin= -655.223762208332     IErMin= 4 ErrMin= 4.57D-03
 ErrMax= 4.57D-03 EMaxC= 1.00D-01 BMatC= 4.81D-03 BMatP= 8.15D-03
 IDIUse=3 WtCom= 9.54D-01 WtEn= 4.57D-02
 Coeff-Com: -0.231D-01 0.115D+00 0.438D+00 0.470D+00
 Coeff-En:   0.000D+00 0.000D+00 0.398D+00 0.602D+00
 Coeff:     -0.220D-01 0.110D+00 0.437D+00 0.476D+00
 Gap=     0.163 Goal=   None    Shift=    0.000
 RMSDP=3.26D-04 MaxDP=1.16D-02 DE=-3.42D-03 OVMax= 3.00D-02

 Cycle   5  Pass 0  IDiag  1:
 E= -655.228847114811     Delta-E=       -0.005084906479 Rises=F Damp=F
 DIIS: error= 6.74D-04 at cycle   5 NSaved=   5.
 NSaved= 5 IEnMin= 5 EnMin= -655.228847114811     IErMin= 5 ErrMin= 6.74D-04
 ErrMax= 6.74D-04 EMaxC= 1.00D-01 BMatC= 1.96D-04 BMatP= 4.81D-03
 IDIUse=3 WtCom= 9.93D-01 WtEn= 6.74D-03
 Coeff-Com: -0.799D-02 0.268D-01 0.178D+00 0.250D+00 0.553D+00
 Coeff-En:   0.000D+00 0.000D+00 0.000D+00 0.000D+00 0.100D+01
 Coeff:     -0.793D-02 0.266D-01 0.177D+00 0.249D+00 0.556D+00
 Gap=     0.163 Goal=   None    Shift=    0.000
 RMSDP=7.75D-05 MaxDP=3.57D-03 DE=-5.08D-03 OVMax= 5.96D-03

 Cycle   6  Pass 0  IDiag  1:
 E= -655.229024813148     Delta-E=       -0.000177698337 Rises=F Damp=F
 DIIS: error= 2.48D-04 at cycle   6 NSaved=   6.
 NSaved= 6 IEnMin= 6 EnMin= -655.229024813148     IErMin= 6 ErrMin= 2.48D-04
 ErrMax= 2.48D-04 EMaxC= 1.00D-01 BMatC= 2.93D-05 BMatP= 1.96D-04
 IDIUse=3 WtCom= 9.98D-01 WtEn= 2.48D-03
 Coeff-Com: -0.233D-02 0.451D-02 0.595D-01 0.971D-01 0.336D+00 0.506D+00
 Coeff-En:   0.000D+00 0.000D+00 0.000D+00 0.000D+00 0.124D+00 0.876D+00
 Coeff:     -0.233D-02 0.450D-02 0.594D-01 0.968D-01 0.335D+00 0.507D+00
 Gap=     0.163 Goal=   None    Shift=    0.000
 RMSDP=2.57D-05 MaxDP=1.47D-03 DE=-1.78D-04 OVMax= 2.63D-03

 Cycle   7  Pass 0  IDiag  1:
 E= -655.229055827156     Delta-E=       -0.000031014007 Rises=F Damp=F
 DIIS: error= 5.53D-05 at cycle   7 NSaved=   7.
 NSaved= 7 IEnMin= 7 EnMin= -655.229055827156     IErMin= 7 ErrMin= 5.53D-05
 ErrMax= 5.53D-05 EMaxC= 1.00D-01 BMatC= 1.60D-06 BMatP= 2.93D-05
 IDIUse=1 WtCom= 1.00D+00 WtEn= 0.00D+00
 Coeff-Com: -0.870D-03 0.101D-02 0.244D-01 0.417D-01 0.162D+00 0.290D+00
 Coeff-Com:  0.481D+00
 Coeff:     -0.870D-03 0.101D-02 0.244D-01 0.417D-01 0.162D+00 0.290D+00
 Coeff:      0.481D+00
 Gap=     0.163 Goal=   None    Shift=    0.000
 RMSDP=5.70D-06 MaxDP=3.27D-04 DE=-3.10D-05 OVMax= 5.17D-04

 Initial convergence to 1.0D-05 achieved.  Increase integral accuracy.
 Cycle   8  Pass 1  IDiag  1:
 E= -655.229052221039     Delta-E=        0.000003606117 Rises=F Damp=F
 DIIS: error= 2.06D-05 at cycle   1 NSaved=   1.
 NSaved= 1 IEnMin= 1 EnMin= -655.229052221039     IErMin= 1 ErrMin= 2.06D-05
 ErrMax= 2.06D-05 EMaxC= 1.00D-01 BMatC= 1.71D-07 BMatP= 1.71D-07
 IDIUse=1 WtCom= 1.00D+00 WtEn= 0.00D+00
 Coeff-Com:  0.100D+01
 Coeff:      0.100D+01
 Gap=     0.163 Goal=   None    Shift=    0.000
 RMSDP=5.70D-06 MaxDP=3.27D-04 DE= 3.61D-06 OVMax= 3.18D-04

 Cycle   9  Pass 1  IDiag  1:
 E= -655.229052052731     Delta-E=        0.000000168307 Rises=F Damp=F
 DIIS: error= 2.40D-05 at cycle   2 NSaved=   2.
 NSaved= 2 IEnMin= 1 EnMin= -655.229052221039     IErMin= 1 ErrMin= 2.06D-05
 ErrMax= 2.40D-05 EMaxC= 1.00D-01 BMatC= 3.43D-07 BMatP= 1.71D-07
 IDIUse=1 WtCom= 1.00D+00 WtEn= 0.00D+00
 Coeff-Com:  0.599D+00 0.401D+00
 Coeff:      0.599D+00 0.401D+00
 Gap=     0.163 Goal=   None    Shift=    0.000
 RMSDP=2.87D-06 MaxDP=1.27D-04 DE= 1.68D-07 OVMax= 2.55D-04

 Cycle  10  Pass 1  IDiag  1:
 E= -655.229052412743     Delta-E=       -0.000000360012 Rises=F Damp=F
 DIIS: error= 7.54D-06 at cycle   3 NSaved=   3.
 NSaved= 3 IEnMin= 3 EnMin= -655.229052412743     IErMin= 3 ErrMin= 7.54D-06
 ErrMax= 7.54D-06 EMaxC= 1.00D-01 BMatC= 1.89D-08 BMatP= 1.71D-07
 IDIUse=1 WtCom= 1.00D+00 WtEn= 0.00D+00
 Coeff-Com:  0.998D-01 0.197D+00 0.703D+00
 Coeff:      0.998D-01 0.197D+00 0.703D+00
 Gap=     0.163 Goal=   None    Shift=    0.000
 RMSDP=7.98D-07 MaxDP=3.11D-05 DE=-3.60D-07 OVMax= 6.92D-05

 Cycle  11  Pass 1  IDiag  1:
 E= -655.229052428945     Delta-E=       -0.000000016202 Rises=F Damp=F
 DIIS: error= 3.30D-06 at cycle   4 NSaved=   4.
 NSaved= 4 IEnMin= 4 EnMin= -655.229052428945     IErMin= 4 ErrMin= 3.30D-06
 ErrMax= 3.30D-06 EMaxC= 1.00D-01 BMatC= 5.42D-09 BMatP= 1.89D-08
 IDIUse=1 WtCom= 1.00D+00 WtEn= 0.00D+00
 Coeff-Com: -0.764D-02 0.767D-01 0.444D+00 0.487D+00
 Coeff:     -0.764D-02 0.767D-01 0.444D+00 0.487D+00
 Gap=     0.163 Goal=   None    Shift=    0.000
 RMSDP=3.04D-07 MaxDP=1.15D-05 DE=-1.62D-08 OVMax= 1.95D-05

 Cycle  12  Pass 1  IDiag  1:
 E= -655.229052434236     Delta-E=       -0.000000005292 Rises=F Damp=F
 DIIS: error= 5.80D-07 at cycle   5 NSaved=   5.
 NSaved= 5 IEnMin= 5 EnMin= -655.229052434236     IErMin= 5 ErrMin= 5.80D-07
 ErrMax= 5.80D-07 EMaxC= 1.00D-01 BMatC= 1.61D-10 BMatP= 5.42D-09
 IDIUse=1 WtCom= 1.00D+00 WtEn= 0.00D+00
 Coeff-Com: -0.847D-02 0.306D-01 0.198D+00 0.249D+00 0.530D+00
 Coeff:     -0.847D-02 0.306D-01 0.198D+00 0.249D+00 0.530D+00
 Gap=     0.163 Goal=   None    Shift=    0.000
 RMSDP=7.12D-08 MaxDP=2.18D-06 DE=-5.29D-09 OVMax= 5.51D-06

 Cycle  13  Pass 1  IDiag  1:
 E= -655.229052434396     Delta-E=       -0.000000000159 Rises=F Damp=F
 DIIS: error= 3.11D-07 at cycle   6 NSaved=   6.
 NSaved= 6 IEnMin= 6 EnMin= -655.229052434396     IErMin= 6 ErrMin= 3.11D-07
 ErrMax= 3.11D-07 EMaxC= 1.00D-01 BMatC= 3.12D-11 BMatP= 1.61D-10
 IDIUse=1 WtCom= 1.00D+00 WtEn= 0.00D+00
 Coeff-Com: -0.468D-02 0.110D-01 0.780D-01 0.104D+00 0.332D+00 0.480D+00
 Coeff:     -0.468D-02 0.110D-01 0.780D-01 0.104D+00 0.332D+00 0.480D+00
 Gap=     0.163 Goal=   None    Shift=    0.000
 RMSDP=2.51D-08 MaxDP=9.95D-07 DE=-1.59D-10 OVMax= 2.23D-06

 Cycle  14  Pass 1  IDiag  1:
 E= -655.229052434423     Delta-E=       -0.000000000028 Rises=F Damp=F
 DIIS: error= 6.27D-08 at cycle   7 NSaved=   7.
 NSaved= 7 IEnMin= 7 EnMin= -655.229052434423     IErMin= 7 ErrMin= 6.27D-08
 ErrMax= 6.27D-08 EMaxC= 1.00D-01 BMatC= 9.17D-13 BMatP= 3.12D-11
 IDIUse=1 WtCom= 1.00D+00 WtEn= 0.00D+00
 Coeff-Com: -0.128D-02 0.231D-02 0.180D-01 0.234D-01 0.927D-01 0.205D+00
 Coeff-Com:  0.660D+00
 Coeff:     -0.128D-02 0.231D-02 0.180D-01 0.234D-01 0.927D-01 0.205D+00
 Coeff:      0.660D+00
 Gap=     0.163 Goal=   None    Shift=    0.000
 RMSDP=5.56D-09 MaxDP=1.48D-07 DE=-2.77D-11 OVMax= 4.93D-07

 SCF Done:  E(RB3LYP) =  -655.229052434     A.U. after   14 cycles
             Convg  =    0.5563D-08             -V/T =  2.0096
 KE= 6.489917773857D+02 PE=-3.372450172510D+03 EE= 1.141913803699D+03
 Leave Link  502 at Tue Sep 28 21:06:58 2021, MaxMem= 1342177280 cpu:     282.3
 (Enter /sw/target/amd/app/gaussian/Gaussian09RevA.02_gcc-4.9.2/g09/l508.exe)
 QCSCF skips out because SCF is already converged.
 Leave Link  508 at Tue Sep 28 21:07:00 2021, MaxMem= 1342177280 cpu:       0.0
 (Enter /sw/target/amd/app/gaussian/Gaussian09RevA.02_gcc-4.9.2/g09/l601.exe)
 Copying SCF densities to generalized density rwf, IOpCl= 0 IROHF=0.

 **********************************************************************

            Population analysis using the SCF density.

 **********************************************************************

 Orbital symmetries:
       Occupied  (A) (A) (A) (A) (A) (A) (A) (A) (A) (A) (A) (A)
                 (A) (A) (A) (A) (A) (A) (A) (A) (A) (A) (A) (A)
                 (A) (A) (A) (A) (A) (A) (A) (A) (A) (A) (A) (A)
                 (A) (A) (A) (A) (A) (A) (A) (A) (A) (A) (A) (A)
                 (A) (A) (A) (A) (A) (A) (A) (A)
       Virtual   (A) (A) (A) (A) (A) (A) (A) (A) (A) (A) (A) (A)
                 (A) (A) (A) (A) (A) (A) (A) (A) (A) (A) (A) (A)
                 (A) (A) (A) (A) (A) (A) (A) (A) (A) (A) (A) (A)
                 (A) (A) (A) (A) (A) (A) (A) (A) (A) (A) (A) (A)
                 (A) (A) (A) (A) (A) (A) (A) (A) (A) (A) (A) (A)
                 (A) (A) (A) (A) (A) (A) (A) (A) (A) (A) (A) (A)
                 (A) (A) (A) (A) (A) (A) (A) (A) (A) (A) (A) (A)
                 (A) (A) (A) (A) (A) (A) (A) (A) (A) (A) (A) (A)
                 (A) (A) (A) (A) (A) (A) (A) (A) (A) (A) (A) (A)
                 (A) (A) (A) (A) (A) (A) (A) (A) (A) (A) (A) (A)
                 (A) (A) (A) (A) (A) (A) (A) (A) (A) (A) (A) (A)
                 (A) (A) (A) (A) (A) (A) (A) (A) (A) (A) (A) (A)
                 (A) (A) (A) (A) (A) (A) (A) (A) (A) (A) (A) (A)
                 (A) (A) (A) (A) (A) (A) (A) (A) (A) (A) (A) (A)
                 (A) (A) (A) (A) (A) (A) (A) (A) (A) (A) (A) (A)
                 (A) (A) (A) (A) (A) (A) (A) (A) (A) (A) (A) (A)
                 (A) (A) (A) (A) (A) (A) (A) (A) (A) (A) (A) (A)
                 (A) (A) (A) (A) (A) (A) (A) (A)
 The electronic state is 1-A.
 Alpha  occ. eigenvalues --  -19.17822 -10.24515 -10.24055 -10.19255 -10.19015
 Alpha  occ. eigenvalues --  -10.18883 -10.18776 -10.18738 -10.18668 -10.18594
 Alpha  occ. eigenvalues --  -10.18564 -10.18453 -10.18438 -10.18432 -10.18417
 Alpha  occ. eigenvalues --  -10.18254  -1.06317  -0.85611  -0.84974  -0.79424
 Alpha  occ. eigenvalues --   -0.75891  -0.74526  -0.73936  -0.71854  -0.68695
 Alpha  occ. eigenvalues --   -0.62151  -0.61061  -0.60032  -0.58096  -0.55037
 Alpha  occ. eigenvalues --   -0.53098  -0.51019  -0.48002  -0.47823  -0.47075
 Alpha  occ. eigenvalues --   -0.45390  -0.44801  -0.43891  -0.42571  -0.41856
 Alpha  occ. eigenvalues --   -0.41497  -0.40470  -0.39206  -0.37768  -0.36359
 Alpha  occ. eigenvalues --   -0.35862  -0.35501  -0.33887  -0.33243  -0.32834
 Alpha  occ. eigenvalues --   -0.32462  -0.28538  -0.24856  -0.24535  -0.23970
 Alpha  occ. eigenvalues --   -0.19661
 Alpha virt. eigenvalues --   -0.03389  -0.00095   0.00338   0.02381   0.06971
 Alpha virt. eigenvalues --    0.09420   0.09999   0.10737   0.11333   0.13872
 Alpha virt. eigenvalues --    0.14587   0.14972   0.15267   0.16260   0.16615
 Alpha virt. eigenvalues --    0.16849   0.17700   0.17945   0.18646   0.19507
 Alpha virt. eigenvalues --    0.20820   0.21845   0.24837   0.26346   0.28799
 Alpha virt. eigenvalues --    0.30598   0.30970   0.32598   0.33628   0.33910
 Alpha virt. eigenvalues --    0.35158   0.35915   0.39774   0.42846   0.47190
 Alpha virt. eigenvalues --    0.49136   0.50383   0.51692   0.52603   0.53165
 Alpha virt. eigenvalues --    0.54451   0.54768   0.55205   0.55642   0.56846
 Alpha virt. eigenvalues --    0.57310   0.58008   0.58367   0.59574   0.59743
 Alpha virt. eigenvalues --    0.60120   0.60637   0.60761   0.61023   0.61467
 Alpha virt. eigenvalues --    0.61891   0.62542   0.63244   0.64171   0.65075
 Alpha virt. eigenvalues --    0.66228   0.67943   0.68265   0.69438   0.70971
 Alpha virt. eigenvalues --    0.73333   0.74802   0.77037   0.79632   0.82057
 Alpha virt. eigenvalues --    0.83024   0.83689   0.83918   0.84057   0.84413
 Alpha virt. eigenvalues --    0.85897   0.86164   0.86436   0.86973   0.88908
 Alpha virt. eigenvalues --    0.91342   0.91438   0.92101   0.93328   0.93442
 Alpha virt. eigenvalues --    0.93863   0.95993   0.96147   0.98601   0.99263
 Alpha virt. eigenvalues --    1.00714   1.01751   1.02121   1.04041   1.06299
 Alpha virt. eigenvalues --    1.07775   1.08700   1.12623   1.14258   1.15895
 Alpha virt. eigenvalues --    1.17275   1.17856   1.18442   1.19386   1.22192
 Alpha virt. eigenvalues --    1.23567   1.27533   1.28760   1.29965   1.33508
 Alpha virt. eigenvalues --    1.37667   1.41551   1.42199   1.44067   1.44299
 Alpha virt. eigenvalues --    1.44963   1.45918   1.46823   1.48015   1.49454
 Alpha virt. eigenvalues --    1.49924   1.51380   1.51959   1.52642   1.53506
 Alpha virt. eigenvalues --    1.61259   1.61610   1.68141   1.75689   1.79231
 Alpha virt. eigenvalues --    1.81487   1.81862   1.82660   1.82870   1.84499
 Alpha virt. eigenvalues --    1.86944   1.89129   1.90044   1.92201   1.94161
 Alpha virt. eigenvalues --    1.95455   1.98025   1.98350   1.98584   2.01629
 Alpha virt. eigenvalues --    2.02453   2.05227   2.05716   2.07519   2.10347
 Alpha virt. eigenvalues --    2.11111   2.12701   2.14017   2.14537   2.15247
 Alpha virt. eigenvalues --    2.15689   2.19676   2.20036   2.22465   2.24798
 Alpha virt. eigenvalues --    2.26761   2.27704   2.28685   2.30969   2.31429
 Alpha virt. eigenvalues --    2.32761   2.36192   2.37356   2.41539   2.43067
 Alpha virt. eigenvalues --    2.47946   2.52286   2.54056   2.57155   2.59258
 Alpha virt. eigenvalues --    2.61124   2.64495   2.65804   2.66697   2.67403
 Alpha virt. eigenvalues --    2.69641   2.73338   2.74725   2.75370   2.77088
 Alpha virt. eigenvalues --    2.77322   2.82385   2.87138   2.93901   2.94871
 Alpha virt. eigenvalues --    2.99565   3.06788   3.15978   3.20959   3.42573
 Alpha virt. eigenvalues --    3.44711   4.05358   4.09257   4.10216   4.11556
 Alpha virt. eigenvalues --    4.11965   4.12212   4.16546   4.21744   4.27547
 Alpha virt. eigenvalues --    4.31642   4.33340   4.36247   4.42367   4.52344
 Alpha virt. eigenvalues --    4.71504   4.77685
          Condensed to atoms (all electrons):
              1          2          3          4          5          6
     1  C    4.896343   0.248449  -0.043885  -0.006584   0.000332  -0.000005
     2  O    0.248449   8.199850   0.280732  -0.062573   0.003663   0.000133
     3  C   -0.043885   0.280732   4.509044   0.467626  -0.003450  -0.032198
     4  C   -0.006584  -0.062573   0.467626   5.125360   0.465139  -0.015514
     5  C    0.000332   0.003663  -0.003450   0.465139   5.025257   0.520788
     6  C   -0.000005   0.000133  -0.032198  -0.015514   0.520788   4.627647
     7  C   -0.000137   0.003261  -0.019657  -0.044611  -0.045968   0.532348
     8  C    0.004457  -0.055762   0.541500  -0.063592  -0.042967  -0.021774
     9  C   -0.000000   0.000000   0.000374   0.007123  -0.047912   0.370738
    10  C   -0.000000   0.000000   0.000026  -0.000255   0.004632  -0.016225
    11  C   -0.000000   0.000000   0.000000   0.000002  -0.000220   0.003670
    12  C    0.000000  -0.000000  -0.000000   0.000000   0.000000  -0.000250
    13  C   -0.000000  -0.000000   0.000000   0.000000   0.000000   0.000002
    14  C   -0.000000  -0.000000   0.000000   0.000000  -0.000000   0.000000
    15  C    0.000000  -0.000000  -0.000000   0.000000   0.000000  -0.000003
    16  C    0.000000   0.000000   0.000000  -0.000000  -0.000001   0.000487
    17  H    0.383900  -0.031149   0.003251   0.000172   0.000001  -0.000000
    18  H    0.364229  -0.036028  -0.004983   0.005072  -0.000132  -0.000009
    19  H    0.364476  -0.036187  -0.004810   0.005121  -0.000154   0.000002
    20  H    0.005802  -0.007241  -0.046222   0.351479  -0.036105   0.003250
    21  H   -0.000007  -0.000045   0.003164  -0.041642   0.353760  -0.041428
    22  H    0.000003  -0.000061   0.004411   0.000097   0.006579  -0.040272
    23  H   -0.000171  -0.000379  -0.036418   0.007368   0.000267   0.003896
    24  H    0.000000  -0.000000  -0.000001   0.000122  -0.007072  -0.040125
    25  H    0.000000  -0.000000  -0.000007  -0.000002   0.000216  -0.009396
    26  H   -0.000000  -0.000000   0.000000  -0.000000  -0.000000  -0.000003
    27  H    0.000000  -0.000000  -0.000000  -0.000000   0.000000  -0.000000
    28  H    0.000000   0.000000  -0.000000   0.000000  -0.000000   0.000000
    29  H    0.000000   0.000000   0.000000  -0.000000   0.000000  -0.000000
    30  H   -0.000000  -0.000000   0.000000  -0.000000  -0.000012  -0.000085
              7          8          9         10         11         12
     1  C   -0.000137   0.004457  -0.000000  -0.000000  -0.000000   0.000000
     2  O    0.003261  -0.055762   0.000000   0.000000   0.000000  -0.000000
     3  C   -0.019657   0.541500   0.000374   0.000026   0.000000  -0.000000
     4  C   -0.044611  -0.063592   0.007123  -0.000255   0.000002   0.000000
     5  C   -0.045968  -0.042967  -0.047912   0.004632  -0.000220   0.000000
     6  C    0.532348  -0.021774   0.370738  -0.016225   0.003670  -0.000250
     7  C    4.996554   0.500945  -0.062988  -0.010837   0.000561   0.000001
     8  C    0.500945   5.005365   0.007424   0.000226  -0.000005   0.000000
     9  C   -0.062988   0.007424   5.080789   0.560246  -0.016388   0.005242
    10  C   -0.010837   0.000226   0.560246   5.091025   0.369056  -0.047026
    11  C    0.000561  -0.000005  -0.016388   0.369056   4.620269   0.513503
    12  C    0.000001   0.000000   0.005242  -0.047026   0.513503   5.018647
    13  C   -0.000000  -0.000000  -0.000267   0.006443  -0.012032   0.512052
    14  C    0.000000   0.000000   0.000024   0.000518  -0.034444  -0.036109
    15  C    0.000000   0.000000   0.000180   0.007493  -0.015217  -0.046446
    16  C   -0.000011  -0.000000  -0.010775  -0.063581   0.540156  -0.050849
    17  H    0.000004  -0.000113  -0.000000   0.000000  -0.000000   0.000000
    18  H    0.000007   0.000021  -0.000000  -0.000000   0.000000  -0.000000
    19  H   -0.000005   0.000098   0.000000   0.000000  -0.000000   0.000000
    20  H    0.000817   0.004463  -0.000179   0.000002  -0.000000   0.000000
    21  H    0.005939   0.000444  -0.008828   0.000210   0.000001  -0.000000
    22  H    0.352249  -0.043382  -0.011277   0.005860  -0.000075  -0.000017
    23  H   -0.039112   0.344159  -0.000167  -0.000002   0.000000   0.000000
    24  H    0.005126  -0.000157   0.353977  -0.054109  -0.008283   0.000214
    25  H    0.003937  -0.000010  -0.053759   0.353760  -0.040417  -0.007515
    26  H   -0.000003  -0.000000   0.000281  -0.008914  -0.045752   0.355597
    27  H    0.000000   0.000000   0.000002  -0.000182   0.003457  -0.039074
    28  H    0.000000  -0.000000  -0.000000   0.000006   0.000659   0.004867
    29  H   -0.000000  -0.000000  -0.000002  -0.000194   0.003496   0.000858
    30  H    0.000012   0.000000   0.005655  -0.010921  -0.040790   0.006279
             13         14         15         16         17         18
     1  C   -0.000000  -0.000000   0.000000   0.000000   0.383900   0.364229
     2  O   -0.000000  -0.000000  -0.000000   0.000000  -0.031149  -0.036028
     3  C    0.000000   0.000000  -0.000000   0.000000   0.003251  -0.004983
     4  C    0.000000   0.000000   0.000000  -0.000000   0.000172   0.005072
     5  C    0.000000  -0.000000   0.000000  -0.000001   0.000001  -0.000132
     6  C    0.000002   0.000000  -0.000003   0.000487  -0.000000  -0.000009
     7  C   -0.000000   0.000000   0.000000  -0.000011   0.000004   0.000007
     8  C   -0.000000   0.000000   0.000000  -0.000000  -0.000113   0.000021
     9  C   -0.000267   0.000024   0.000180  -0.010775  -0.000000  -0.000000
    10  C    0.006443   0.000518   0.007493  -0.063581   0.000000  -0.000000
    11  C   -0.012032  -0.034444  -0.015217   0.540156  -0.000000   0.000000
    12  C    0.512052  -0.036109  -0.046446  -0.050849   0.000000  -0.000000
    13  C    4.872981   0.550189  -0.025930  -0.044763   0.000000  -0.000000
    14  C    0.550189   4.854016   0.550054  -0.037230   0.000000   0.000000
    15  C   -0.025930   0.550054   4.880985   0.510182   0.000000   0.000000
    16  C   -0.044763  -0.037230   0.510182   5.001180   0.000000   0.000000
    17  H    0.000000   0.000000   0.000000   0.000000   0.543500  -0.033815
    18  H   -0.000000   0.000000   0.000000   0.000000  -0.033815   0.597316
    19  H    0.000000   0.000000  -0.000000  -0.000000  -0.033887  -0.046425
    20  H   -0.000000  -0.000000   0.000000   0.000000  -0.000117   0.001775
    21  H   -0.000000   0.000000  -0.000000  -0.000002  -0.000000   0.000003
    22  H   -0.000000   0.000000   0.000000   0.000012  -0.000000   0.000000
    23  H   -0.000000  -0.000000  -0.000000  -0.000000  -0.000026   0.000027
    24  H   -0.000002  -0.000005  -0.000031   0.003687  -0.000000   0.000000
    25  H    0.000152   0.000005  -0.000174   0.005207   0.000000   0.000000
    26  H   -0.045980   0.004905   0.000340   0.005923  -0.000000  -0.000000
    27  H    0.356589  -0.043495   0.004660   0.000844   0.000000   0.000000
    28  H   -0.043709   0.358393  -0.043960   0.004887   0.000000   0.000000
    29  H    0.004645  -0.043442   0.356087  -0.038729   0.000000  -0.000000
    30  H    0.000267   0.004921  -0.046747   0.352298   0.000000   0.000000
             19         20         21         22         23         24
     1  C    0.364476   0.005802  -0.000007   0.000003  -0.000171   0.000000
     2  O   -0.036187  -0.007241  -0.000045  -0.000061  -0.000379  -0.000000
     3  C   -0.004810  -0.046222   0.003164   0.004411  -0.036418  -0.000001
     4  C    0.005121   0.351479  -0.041642   0.000097   0.007368   0.000122
     5  C   -0.000154  -0.036105   0.353760   0.006579   0.000267  -0.007072
     6  C    0.000002   0.003250  -0.041428  -0.040272   0.003896  -0.040125
     7  C   -0.000005   0.000817   0.005939   0.352249  -0.039112   0.005126
     8  C    0.000098   0.004463   0.000444  -0.043382   0.344159  -0.000157
     9  C    0.000000  -0.000179  -0.008828  -0.011277  -0.000167   0.353977
    10  C    0.000000   0.000002   0.000210   0.005860  -0.000002  -0.054109
    11  C   -0.000000  -0.000000   0.000001  -0.000075   0.000000  -0.008283
    12  C    0.000000   0.000000  -0.000000  -0.000017   0.000000   0.000214
    13  C    0.000000  -0.000000  -0.000000  -0.000000  -0.000000  -0.000002
    14  C    0.000000  -0.000000   0.000000   0.000000  -0.000000  -0.000005
    15  C   -0.000000   0.000000  -0.000000   0.000000  -0.000000  -0.000031
    16  C   -0.000000   0.000000  -0.000002   0.000012  -0.000000   0.003687
    17  H   -0.033887  -0.000117  -0.000000  -0.000000  -0.000026  -0.000000
    18  H   -0.046425   0.001775   0.000003   0.000000   0.000027   0.000000
    19  H    0.596736   0.001722   0.000000  -0.000000   0.000030  -0.000000
    20  H    0.001722   0.595219  -0.005574   0.000017  -0.000166  -0.000005
    21  H    0.000000  -0.005574   0.598614  -0.000177   0.000016   0.005237
    22  H   -0.000000   0.000017  -0.000177   0.595916  -0.006368   0.000027
    23  H    0.000030  -0.000166   0.000016  -0.006368   0.588804   0.000003
    24  H   -0.000000  -0.000005   0.005237   0.000027   0.000003   0.599758
    25  H   -0.000000   0.000000   0.000011   0.003607   0.000006   0.005956
    26  H    0.000000   0.000000   0.000000  -0.000001   0.000000   0.000011
    27  H   -0.000000   0.000000   0.000000   0.000000  -0.000000   0.000000
    28  H   -0.000000  -0.000000   0.000000   0.000000   0.000000  -0.000000
    29  H    0.000000  -0.000000   0.000000  -0.000000   0.000000   0.000005
    30  H   -0.000000   0.000000  -0.000001   0.000005  -0.000000   0.003235
             25         26         27         28         29         30
     1  C    0.000000  -0.000000   0.000000   0.000000   0.000000  -0.000000
     2  O   -0.000000  -0.000000  -0.000000   0.000000   0.000000  -0.000000
     3  C   -0.000007   0.000000  -0.000000  -0.000000   0.000000   0.000000
     4  C   -0.000002  -0.000000  -0.000000   0.000000  -0.000000  -0.000000
     5  C    0.000216  -0.000000   0.000000  -0.000000   0.000000  -0.000012
     6  C   -0.009396  -0.000003  -0.000000   0.000000  -0.000000  -0.000085
     7  C    0.003937  -0.000003   0.000000   0.000000  -0.000000   0.000012
     8  C   -0.000010  -0.000000   0.000000  -0.000000  -0.000000   0.000000
     9  C   -0.053759   0.000281   0.000002  -0.000000  -0.000002   0.005655
    10  C    0.353760  -0.008914  -0.000182   0.000006  -0.000194  -0.010921
    11  C   -0.040417  -0.045752   0.003457   0.000659   0.003496  -0.040790
    12  C   -0.007515   0.355597  -0.039074   0.004867   0.000858   0.006279
    13  C    0.000152  -0.045980   0.356589  -0.043709   0.004645   0.000267
    14  C    0.000005   0.004905  -0.043495   0.358393  -0.043442   0.004921
    15  C   -0.000174   0.000340   0.004660  -0.043960   0.356087  -0.046747
    16  C    0.005207   0.005923   0.000844   0.004887  -0.038729   0.352298
    17  H    0.000000  -0.000000   0.000000   0.000000   0.000000   0.000000
    18  H    0.000000  -0.000000   0.000000   0.000000  -0.000000   0.000000
    19  H   -0.000000   0.000000  -0.000000  -0.000000   0.000000  -0.000000
    20  H    0.000000   0.000000   0.000000  -0.000000  -0.000000   0.000000
    21  H    0.000011   0.000000   0.000000   0.000000   0.000000  -0.000001
    22  H    0.003607  -0.000001   0.000000   0.000000  -0.000000   0.000005
    23  H    0.000006   0.000000  -0.000000   0.000000   0.000000  -0.000000
    24  H    0.005956   0.000011   0.000000  -0.000000   0.000005   0.003235
    25  H    0.599691   0.005445  -0.000005  -0.000000   0.000003   0.000039
    26  H    0.005445   0.606995  -0.005608  -0.000189   0.000018  -0.000163
    27  H   -0.000005  -0.005608   0.600478  -0.005736  -0.000191   0.000018
    28  H   -0.000000  -0.000189  -0.005736   0.604105  -0.005746  -0.000186
    29  H    0.000003   0.000018  -0.000191  -0.005746   0.600427  -0.005614
    30  H    0.000039  -0.000163   0.000018  -0.000186  -0.005614   0.603123
 Mulliken atomic charges:
              1
     1  C   -0.217201
     2  O   -0.506662
     3  C    0.381503
     4  C   -0.199907
     5  C   -0.196640
     6  C    0.154327
     7  C   -0.178431
     8  C   -0.181339
     9  C   -0.179511
    10  C   -0.187258
    11  C    0.158793
    12  C   -0.189976
    13  C   -0.130637
    14  C   -0.128299
    15  C   -0.131471
    16  C   -0.178923
    17  H    0.168280
    18  H    0.152940
    19  H    0.153283
    20  H    0.131063
    21  H    0.130302
    22  H    0.132847
    23  H    0.138232
    24  H    0.132434
    25  H    0.133251
    26  H    0.127099
    27  H    0.128243
    28  H    0.126609
    29  H    0.128379
    30  H    0.128668
 Sum of Mulliken atomic charges =  -0.00000
 Mulliken charges with hydrogens summed into heavy atoms:
              1
     1  C    0.257303
     2  O   -0.506662
     3  C    0.381503
     4  C   -0.068843
     5  C   -0.066338
     6  C    0.154327
     7  C   -0.045584
     8  C   -0.043107
     9  C   -0.047077
    10  C   -0.054007
    11  C    0.158793
    12  C   -0.062876
    13  C   -0.002394
    14  C   -0.001690
    15  C   -0.003092
    16  C   -0.050255
 Sum of Mulliken charges with hydrogens summed into heavy atoms =  -0.00000
 Electronic spatial extent (au):  <R**2>=           6475.8369
 Charge=             -0.0000 electrons
 Dipole moment (field-independent basis, Debye):
    X=             -1.0934    Y=              0.9557    Z=              0.5405  Tot=              1.5496
 Quadrupole moment (field-independent basis, Debye-Ang):
   XX=            -76.1608   YY=            -87.3930   ZZ=            -95.4607
   XY=             -5.5695   XZ=             -3.5825   YZ=             -0.5326
 Traceless Quadrupole moment (field-independent basis, Debye-Ang):
   XX=             10.1774   YY=             -1.0549   ZZ=             -9.1225
   XY=             -5.5695   XZ=             -3.5825   YZ=             -0.5326
 Octapole moment (field-independent basis, Debye-Ang**2):
  XXX=            -80.6709  YYY=             -1.6565  ZZZ=             -0.2495  XYY=             -3.2279
  XXY=             32.0760  XXZ=             24.7503  XZZ=            -12.9113  YZZ=             -1.4344
  YYZ=             -0.5554  XYZ=            -18.9885
 Hexadecapole moment (field-independent basis, Debye-Ang**3):
 XXXX=          -6836.6655 YYYY=           -507.4269 ZZZZ=           -259.6533 XXXY=           -145.7984
 XXXZ=            -99.9280 YYYX=              8.2480 YYYZ=              1.4883 ZZZX=             -2.4309
 ZZZY=             -0.6765 XXYY=          -1384.7930 XXZZ=          -1402.7290 YYZZ=           -119.2486
 XXYZ=            -52.6574 YYXZ=              2.2706 ZZXY=              2.5407
 N-N= 9.263155389910D+02 E-N=-3.372450180363D+03  KE= 6.489917773857D+02
 No NMR shielding tensors so no spin-rotation constants.
 Leave Link  601 at Tue Sep 28 21:07:03 2021, MaxMem= 1342177280 cpu:       1.6
 (Enter /sw/target/amd/app/gaussian/Gaussian09RevA.02_gcc-4.9.2/g09/l701.exe)
 Compute integral first derivatives.
 ... and contract with generalized density number  0.
 Leave Link  701 at Tue Sep 28 21:07:05 2021, MaxMem= 1342177280 cpu:       1.6
 (Enter /sw/target/amd/app/gaussian/Gaussian09RevA.02_gcc-4.9.2/g09/l702.exe)
 L702 exits ... SP integral derivatives will be done elsewhere.
 Leave Link  702 at Tue Sep 28 21:07:05 2021, MaxMem= 1342177280 cpu:       0.1
 (Enter /sw/target/amd/app/gaussian/Gaussian09RevA.02_gcc-4.9.2/g09/l703.exe)
 Compute integral first derivatives, UseDBF=F ICtDFT=           0.
 Integral derivatives from FoFDir, PRISM(SPDF).
 Calling FoFJK, ICntrl=      2127 FMM=F ISym2X=0 I1Cent= 0 IOpClX= 0 NMat=1 NMatS=1 NMatT=0.
 FoFCou: FMM=F IPFlag=           0 FMFlag=      100000 FMFlg1=         800
         NFxFlg=           0 DoJE=F BraDBF=F KetDBF=F FulRan=T
         Omega=  0.000000  0.000000  1.000000  0.000000  0.000000 ICntrl=    2127 IOpCl=  0
         NMat0=    1 NMatS0=    1 NMatT0=    0 NMatD0=    1 NMtDS0=    0 NMtDT0=    0
         I1Cent=           0 NGrid=           0.
 Symmetry not used in FoFCou.
 Leave Link  703 at Tue Sep 28 21:08:28 2021, MaxMem= 1342177280 cpu:      92.3
 (Enter /sw/target/amd/app/gaussian/Gaussian09RevA.02_gcc-4.9.2/g09/l716.exe)
 Dipole        =-4.30187791D-01 3.76008099D-01 2.12653239D-01
 ***** Axes restored to original set *****
 -------------------------------------------------------------------
 Center     Atomic                   Forces (Hartrees/Bohr)
 Number     Number              X              Y              Z
 -------------------------------------------------------------------
      1        6          -0.004087094   -0.002627969   -0.003035980
      2        8          -0.002608555    0.006670417    0.000273616
      3        6          -0.003162996   -0.005176593   -0.002606654
      4        6           0.003306747    0.009043451    0.004522182
      5        6          -0.008835748   -0.003041537   -0.006521518
      6        6           0.011275910    0.006764295    0.001464688
      7        6          -0.013702738   -0.002163507   -0.005169344
      8        6           0.013330937   -0.008861136    0.005708095
      9        6          -0.009699620   -0.006095204   -0.003266728
     10        6           0.008967599    0.003826084    0.002542596
     11        6          -0.005844921   -0.005326434   -0.004705575
     12        6           0.007528219   -0.003466360    0.006025488
     13        6          -0.004411274   -0.000464542   -0.000302096
     14        6           0.004435405   -0.000095419    0.002188647
     15        6          -0.003732229    0.001836733   -0.001866508
     16        6           0.008843584    0.004293109    0.002191702
     17        1           0.002082450   -0.004087119    0.000012374
     18        1           0.001191129    0.003031755    0.002153124
     19        1           0.001809336    0.003288622    0.001224558
     20        1          -0.001542672   -0.001024297   -0.001030162
     21        1           0.000695897   -0.001390249   -0.000058008
     22        1           0.001462396    0.001330893    0.000486413
     23        1          -0.002132259    0.001813777   -0.001293642
     24        1           0.001939466    0.000982525    0.003002160
     25        1          -0.003695511    0.001271697    0.000482901
     26        1          -0.001090350    0.001086221   -0.001860191
     27        1          -0.000191121   -0.000035221    0.000161250
     28        1           0.000274968   -0.000216671   -0.000073665
     29        1          -0.000000310    0.000013052   -0.000410889
     30        1          -0.002406647   -0.001180374   -0.000238832
 -------------------------------------------------------------------
 Cartesian Forces:  Max     0.013702738 RMS     0.004432882
 Leave Link  716 at Tue Sep 28 21:08:29 2021, MaxMem= 1342177280 cpu:       0.0
 (Enter /sw/target/amd/app/gaussian/Gaussian09RevA.02_gcc-4.9.2/g09/l103.exe)

 GradGradGradGradGradGradGradGradGradGradGradGradGradGradGradGradGradGrad
 Berny optimization.
 Internal  Forces:  Max     0.008877186 RMS     0.002374906
 Search for a local minimum.
 Step number   1 out of a maximum of  155
 All quantities printed in internal units (Hartrees-Bohrs-Radians)
 RMS Force = .23749D-02 SwitMx=.10000D-02 MixMth= 1
 Mixed Optimization -- RFO/linear search
 Second derivative matrix not updated -- first step.
     Eigenvalues ---    0.01145   0.01170   0.01417   0.01793   0.01805
     Eigenvalues ---    0.02032   0.02048   0.02076   0.02083   0.02084
     Eigenvalues ---    0.02101   0.02107   0.02108   0.02110   0.02114
     Eigenvalues ---    0.02123   0.02130   0.02148   0.02150   0.02151
     Eigenvalues ---    0.02156   0.02159   0.02169   0.02182   0.02835
     Eigenvalues ---    0.10011   0.10551   0.15998   0.15998   0.15999
     Eigenvalues ---    0.15999   0.15999   0.15999   0.16000   0.16000
     Eigenvalues ---    0.16000   0.16000   0.16000   0.16000   0.16000
     Eigenvalues ---    0.16000   0.21997   0.21998   0.22000   0.22000
     Eigenvalues ---    0.22000   0.22967   0.23459   0.23993   0.24942
     Eigenvalues ---    0.24968   0.25000   0.25000   0.34243   0.34243
     Eigenvalues ---    0.34355   0.35040   0.35053   0.35105   0.35168
     Eigenvalues ---    0.35188   0.35190   0.35195   0.35243   0.35263
     Eigenvalues ---    0.35299   0.35423   0.35584   0.35808   0.41521
     Eigenvalues ---    0.41771   0.42015   0.42174   0.42345   0.45448
     Eigenvalues ---    0.45601   0.45929   0.46079   0.46139   0.46221
     Eigenvalues ---    0.46452   0.46697   0.51479   0.564121000.00000
     Eigenvalues --- 1000.000001000.000001000.000001000.000001000.00000
     Eigenvalues --- 1000.000001000.000001000.000001000.000001000.00000
     Eigenvalues --- 1000.000001000.000001000.000001000.000001000.00000
     Eigenvalues --- 1000.000001000.000001000.000001000.000001000.00000
     Eigenvalues --- 1000.000001000.000001000.000001000.000001000.00000
     Eigenvalues --- 1000.000001000.000001000.000001000.000001000.00000
     Eigenvalues --- 1000.000001000.000001000.000001000.000001000.00000
     Eigenvalues --- 1000.000001000.000001000.000001000.000001000.00000
     Eigenvalues --- 1000.000001000.000001000.000001000.000001000.00000
     Eigenvalues --- 1000.000001000.000001000.000001000.000001000.00000
     Eigenvalues --- 1000.000001000.000001000.000001000.000001000.00000
     Eigenvalues --- 1000.000001000.000001000.000001000.000001000.00000
 RFO step:  Lambda=-4.42145097D-03 EMin= 1.14549590D-02
 Linear search not attempted -- first point.
 Iteration  1 RMS(Cart)=  0.09739933 RMS(Int)=  0.00228418
 Iteration  2 RMS(Cart)=  0.00385065 RMS(Int)=  0.00013425
 Iteration  3 RMS(Cart)=  0.00000586 RMS(Int)=  0.00013423
 Iteration  4 RMS(Cart)=  0.00000000 RMS(Int)=  0.00013423
 Variable       Old X    -DE/DX   Delta X   Delta X   Delta X     New X
                                 (Linear)    (Quad)   (Total)
    R1        2.68486  -0.00090   0.00000  -0.00210  -0.00210   2.68276
    R2        2.06736  -0.00084   0.00000  -0.00242  -0.00242   2.06493
    R3        2.06922   0.00166   0.00000   0.00480   0.00480   2.07402
    R4        2.06922   0.00166   0.00000   0.00479   0.00479   2.07401
    R5        2.58401   0.00065   0.00000   0.00125   0.00125   2.58526
    R6        2.63550   0.00277   0.00000   0.00613   0.00609   2.64159
    R7        2.63579   0.00736   0.00000   0.01607   0.01602   2.65181
    R8        2.64919  -0.00403   0.00000  -0.00895  -0.00894   2.64025
    R9        2.04993  -0.00011   0.00000  -0.00032  -0.00032   2.04961
   R10        2.64547   0.00271   0.00000   0.00549   0.00554   2.65101
   R11        2.05611  -0.00095   0.00000  -0.00266  -0.00266   2.05344
   R12        2.64762   0.00596   0.00000   0.01274   0.01278   2.66040
   R13        2.78037   0.00261   0.00000   0.00724   0.00724   2.78761
   R14        2.63776  -0.00592   0.00000  -0.01251  -0.01252   2.62525
   R15        2.05249  -0.00040   0.00000  -0.00113  -0.00113   2.05136
   R16        2.05192  -0.00018   0.00000  -0.00052  -0.00052   2.05141
   R17        2.53898   0.00393   0.00000   0.00692   0.00692   2.54590
   R18        2.05282   0.00180   0.00000   0.00503   0.00503   2.05785
   R19        2.77682   0.00367   0.00000   0.01012   0.01012   2.78694
   R20        2.05505   0.00088   0.00000   0.00249   0.00249   2.05753
   R21        2.64863   0.00443   0.00000   0.00960   0.00968   2.65831
   R22        2.64618   0.00438   0.00000   0.00941   0.00949   2.65567
   R23        2.63925  -0.00157   0.00000  -0.00333  -0.00333   2.63592
   R24        2.05589  -0.00038   0.00000  -0.00107  -0.00107   2.05482
   R25        2.63182   0.00328   0.00000   0.00703   0.00695   2.63878
   R26        2.05370   0.00013   0.00000   0.00036   0.00036   2.05406
   R27        2.63293   0.00309   0.00000   0.00661   0.00653   2.63946
   R28        2.05368   0.00023   0.00000   0.00065   0.00065   2.05432
   R29        2.64026  -0.00188   0.00000  -0.00406  -0.00407   2.63619
   R30        2.05359   0.00014   0.00000   0.00040   0.00040   2.05399
   R31        2.05402  -0.00033   0.00000  -0.00093  -0.00093   2.05309
    A1        1.88155  -0.00621   0.00000  -0.03537  -0.03528   1.84627
    A2        1.93844   0.00190   0.00000   0.01028   0.01034   1.94878
    A3        1.93826   0.00177   0.00000   0.00950   0.00955   1.94781
    A4        1.88035   0.00310   0.00000   0.02129   0.02138   1.90173
    A5        1.88091   0.00313   0.00000   0.02143   0.02152   1.90243
    A6        1.94142  -0.00369   0.00000  -0.02671  -0.02667   1.91475
    A7        2.03588   0.00538   0.00000   0.02115   0.02115   2.05703
    A8        2.20293  -0.00577   0.00000  -0.02310  -0.02307   2.17986
    A9        1.99992   0.00557   0.00000   0.02149   0.02151   2.02143
   A10        2.08033   0.00020   0.00000   0.00159   0.00153   2.08186
   A11        2.09885  -0.00248   0.00000  -0.01128  -0.01128   2.08757
   A12        2.12537  -0.00093   0.00000  -0.00754  -0.00755   2.11782
   A13        2.05897   0.00341   0.00000   0.01882   0.01882   2.07779
   A14        2.10836   0.00501   0.00000   0.02074   0.02084   2.12920
   A15        2.07190  -0.00124   0.00000  -0.00269  -0.00275   2.06915
   A16        2.10289  -0.00377   0.00000  -0.01811  -0.01817   2.08472
   A17        2.06677  -0.00433   0.00000  -0.01809  -0.01817   2.04860
   A18        2.08728   0.00141   0.00000   0.00681   0.00652   2.09381
   A19        2.12810   0.00296   0.00000   0.01293   0.01264   2.14074
   A20        2.10746   0.00213   0.00000   0.00886   0.00892   2.11638
[...]
             N A T U R A L   A T O M I C   O R B I T A L   A N D
          N A T U R A L   B O N D   O R B I T A L   A N A L Y S I S
 ******************************Gaussian NBO Version 3.1******************************
       /RESON  / : Allow strongly delocalized NBO set

 Analyzing the CI density

 Job title: COc1ccc(cc1)/C=C/c1ccccc1_conf_0                                

 Storage needed:    218470 in NPA (1342172480 available)


 NATURAL POPULATIONS:  Natural atomic orbital occupancies 
                                                          
   NAO  Atom  No  lang   Type(AO)    Occupancy
 --------------------------------------------
     1    C    1  S      Cor( 1S)     1.99943
     2    C    1  S      Val( 2S)     1.10256
     3    C    1  S      Ryd( 3S)     0.00146
     4    C    1  S      Ryd( 4S)     0.00003
     5    C    1  px     Val( 2p)     1.00754
     6    C    1  px     Ryd( 3p)     0.00243
     7    C    1  py     Val( 2p)     0.96962
     8    C    1  py     Ryd( 3p)     0.00338
     9    C    1  pz     Val( 2p)     1.22885
    10    C    1  pz     Ryd( 3p)     0.00035
    11    C    1  dxy    Ryd( 3d)     0.00183
    12    C    1  dxz    Ryd( 3d)     0.00062
    13    C    1  dyz    Ryd( 3d)     0.00178
    14    C    1  dx2y2  Ryd( 3d)     0.00123
    15    C    1  dz2    Ryd( 3d)     0.00109

    16    O    2  S      Cor( 1S)     1.99975
    17    O    2  S      Val( 2S)     1.59266
    18    O    2  S      Ryd( 3S)     0.00080
    19    O    2  S      Ryd( 4S)     0.00006
    20    O    2  px     Val( 2p)     1.40067
    21    O    2  px     Ryd( 3p)     0.00104
    22    O    2  py     Val( 2p)     1.69221
    23    O    2  py     Ryd( 3p)     0.00221
    24    O    2  pz     Val( 2p)     1.78356
    25    O    2  pz     Ryd( 3p)     0.00235
    26    O    2  dxy    Ryd( 3d)     0.00131
    27    O    2  dxz    Ryd( 3d)     0.00059
    28    O    2  dyz    Ryd( 3d)     0.00149
    29    O    2  dx2y2  Ryd( 3d)     0.00133
    30    O    2  dz2    Ryd( 3d)     0.00077

    31    C    3  S      Cor( 1S)     1.99879
    32    C    3  S      Val( 2S)     0.83521
    33    C    3  S      Ryd( 3S)     0.00137
    34    C    3  S      Ryd( 4S)     0.00012
    35    C    3  px     Val( 2p)     0.76656
    36    C    3  px     Ryd( 3p)     0.00646
    37    C    3  py     Val( 2p)     1.07352
    38    C    3  py     Ryd( 3p)     0.00657
    39    C    3  pz     Val( 2p)     0.98239
    40    C    3  pz     Ryd( 3p)     0.00156
    41    C    3  dxy    Ryd( 3d)     0.00151
    42    C    3  dxz    Ryd( 3d)     0.00192
    43    C    3  dyz    Ryd( 3d)     0.00077
    44    C    3  dx2y2  Ryd( 3d)     0.00162
    45    C    3  dz2    Ryd( 3d)     0.00048

    46    C    4  S      Cor( 1S)     1.99903
    47    C    4  S      Val( 2S)     0.96135
    48    C    4  S      Ryd( 3S)     0.00064
    49    C    4  S      Ryd( 4S)     0.00005
    50    C    4  px     Val( 2p)     1.13012
    51    C    4  px     Ryd( 3p)     0.00389
    52    C    4  py     Val( 2p)     1.14811
    53    C    4  py     Ryd( 3p)     0.00414
    54    C    4  pz     Val( 2p)     1.05397
    55    C    4  pz     Ryd( 3p)     0.00101
    56    C    4  dxy    Ryd( 3d)     0.00084
    57    C    4  dxz    Ryd( 3d)     0.00052
    58    C    4  dyz    Ryd( 3d)     0.00048
    59    C    4  dx2y2  Ryd( 3d)     0.00055
    60    C    4  dz2    Ryd( 3d)     0.00045

    61    C    5  S      Cor( 1S)     1.99908
    62    C    5  S      Val( 2S)     0.95208
    63    C    5  S      Ryd( 3S)     0.00068
    64    C    5  S      Ryd( 4S)     0.00006
    65    C    5  px     Val( 2p)     1.06701
    66    C    5  px     Ryd( 3p)     0.00372
    67    C    5  py     Val( 2p)     1.17664
    68    C    5  py     Ryd( 3p)     0.00531
    69    C    5  pz     Val( 2p)     0.97889
    70    C    5  pz     Ryd( 3p)     0.00095
    71    C    5  dxy    Ryd( 3d)     0.00076
    72    C    5  dxz    Ryd( 3d)     0.00064
    73    C    5  dyz    Ryd( 3d)     0.00032
    74    C    5  dx2y2  Ryd( 3d)     0.00075
    75    C    5  dz2    Ryd( 3d)     0.00043

    76    C    6  S      Cor( 1S)     1.99903
    77    C    6  S      Val( 2S)     0.88614
    78    C    6  S      Ryd( 3S)     0.00041
    79    C    6  S      Ryd( 4S)     0.00006
    80    C    6  px     Val( 2p)     1.08816
    81    C    6  px     Ryd( 3p)     0.00529
    82    C    6  py     Val( 2p)     1.08581
    83    C    6  py     Ryd( 3p)     0.00601
    84    C    6  pz     Val( 2p)     0.95395
    85    C    6  pz     Ryd( 3p)     0.00092
    86    C    6  dxy    Ryd( 3d)     0.00080
    87    C    6  dxz    Ryd( 3d)     0.00096
    88    C    6  dyz    Ryd( 3d)     0.00055
    89    C    6  dx2y2  Ryd( 3d)     0.00065
    90    C    6  dz2    Ryd( 3d)     0.00034

    91    C    7  S      Cor( 1S)     1.99906
    92    C    7  S      Val( 2S)     0.94877
    93    C    7  S      Ryd( 3S)     0.00056
    94    C    7  S      Ryd( 4S)     0.00006
    95    C    7  px     Val( 2p)     1.10847
    96    C    7  px     Ryd( 3p)     0.00377
    97    C    7  py     Val( 2p)     1.14193
    98    C    7  py     Ryd( 3p)     0.00469
    99    C    7  pz     Val( 2p)     1.01659
   100    C    7  pz     Ryd( 3p)     0.00225
   101    C    7  dxy    Ryd( 3d)     0.00086
   102    C    7  dxz    Ryd( 3d)     0.00053
   103    C    7  dyz    Ryd( 3d)     0.00035
   104    C    7  dx2y2  Ryd( 3d)     0.00063
   105    C    7  dz2    Ryd( 3d)     0.00043

   106    C    8  S      Cor( 1S)     1.99905
   107    C    8  S      Val( 2S)     0.96487
   108    C    8  S      Ryd( 3S)     0.00086
   109    C    8  S      Ryd( 4S)     0.00005
   110    C    8  px     Val( 2p)     1.08772
   111    C    8  px     Ryd( 3p)     0.00520
   112    C    8  py     Val( 2p)     1.17435
   113    C    8  py     Ryd( 3p)     0.00491
   114    C    8  pz     Val( 2p)     1.00615
   115    C    8  pz     Ryd( 3p)     0.00070
   116    C    8  dxy    Ryd( 3d)     0.00087
   117    C    8  dxz    Ryd( 3d)     0.00065
   118    C    8  dyz    Ryd( 3d)     0.00040
   119    C    8  dx2y2  Ryd( 3d)     0.00054
   120    C    8  dz2    Ryd( 3d)     0.00045

   121    C    9  S      Cor( 1S)     1.99907
   122    C    9  S      Val( 2S)     0.93969
   123    C    9  S      Ryd( 3S)     0.00122
   124    C    9  S      Ryd( 4S)     0.00005
   125    C    9  px     Val( 2p)     1.04708
   126    C    9  px     Ryd( 3p)     0.00326
   127    C    9  py     Val( 2p)     1.18632
   128    C    9  py     Ryd( 3p)     0.00516
   129    C    9  pz     Val( 2p)     1.08005
   130    C    9  pz     Ryd( 3p)     0.00329
   131    C    9  dxy    Ryd( 3d)     0.00060
   132    C    9  dxz    Ryd( 3d)     0.00062
   133    C    9  dyz    Ryd( 3d)     0.00035
   134    C    9  dx2y2  Ryd( 3d)     0.00081
   135    C    9  dz2    Ryd( 3d)     0.00044

   136    C   10  S      Cor( 1S)     1.99907
   137    C   10  S      Val( 2S)     0.94713
   138    C   10  S      Ryd( 3S)     0.00119
   139    C   10  S      Ryd( 4S)     0.00005
   140    C   10  px     Val( 2p)     1.05941
   141    C   10  px     Ryd( 3p)     0.00320
   142    C   10  py     Val( 2p)     1.17869
   143    C   10  py     Ryd( 3p)     0.00499
   144    C   10  pz     Val( 2p)     0.97938
   145    C   10  pz     Ryd( 3p)     0.00280
   146    C   10  dxy    Ryd( 3d)     0.00065
   147    C   10  dxz    Ryd( 3d)     0.00089
   148    C   10  dyz    Ryd( 3d)     0.00032
   149    C   10  dx2y2  Ryd( 3d)     0.00082
   150    C   10  dz2    Ryd( 3d)     0.00045

   151    C   11  S      Cor( 1S)     1.99902
   152    C   11  S      Val( 2S)     0.87874
   153    C   11  S      Ryd( 3S)     0.00044
   154    C   11  S      Ryd( 4S)     0.00006
   155    C   11  px     Val( 2p)     1.07376
   156    C   11  px     Ryd( 3p)     0.00525
   157    C   11  py     Val( 2p)     1.09625
   158    C   11  py     Ryd( 3p)     0.00619
   159    C   11  pz     Val( 2p)     1.03546
   160    C   11  pz     Ryd( 3p)     0.00137
   161    C   11  dxy    Ryd( 3d)     0.00072
   162    C   11  dxz    Ryd( 3d)     0.00072
   163    C   11  dyz    Ryd( 3d)     0.00057
   164    C   11  dx2y2  Ryd( 3d)     0.00067
   165    C   11  dz2    Ryd( 3d)     0.00034

   166    C   12  S      Cor( 1S)     1.99907
   167    C   12  S      Val( 2S)     0.95182
   168    C   12  S      Ryd( 3S)     0.00053
   169    C   12  S      Ryd( 4S)     0.00005
   170    C   12  px     Val( 2p)     1.08036
   171    C   12  px     Ryd( 3p)     0.00362
   172    C   12  py     Val( 2p)     1.16479
   173    C   12  py     Ryd( 3p)     0.00483
   174    C   12  pz     Val( 2p)     0.98825
   175    C   12  pz     Ryd( 3p)     0.00093
   176    C   12  dxy    Ryd( 3d)     0.00079
   177    C   12  dxz    Ryd( 3d)     0.00068
   178    C   12  dyz    Ryd( 3d)     0.00030
   179    C   12  dx2y2  Ryd( 3d)     0.00073
   180    C   12  dz2    Ryd( 3d)     0.00043

   181    C   13  S      Cor( 1S)     1.99910
   182    C   13  S      Val( 2S)     0.95887
   183    C   13  S      Ryd( 3S)     0.00060
   184    C   13  S      Ryd( 4S)     0.00003
   185    C   13  px     Val( 2p)     1.11422
   186    C   13  px     Ryd( 3p)     0.00487
   187    C   13  py     Val( 2p)     1.14553
   188    C   13  py     Ryd( 3p)     0.00507
   189    C   13  pz     Val( 2p)     1.01892
   190    C   13  pz     Ryd( 3p)     0.00134
   191    C   13  dxy    Ryd( 3d)     0.00086
   192    C   13  dxz    Ryd( 3d)     0.00052
   193    C   13  dyz    Ryd( 3d)     0.00046
   194    C   13  dx2y2  Ryd( 3d)     0.00062
   195    C   13  dz2    Ryd( 3d)     0.00043

   196    C   14  S      Cor( 1S)     1.99909
   197    C   14  S      Val( 2S)     0.95997
   198    C   14  S      Ryd( 3S)     0.00052
   199    C   14  S      Ryd( 4S)     0.00003
   200    C   14  px     Val( 2p)     1.18793
   201    C   14  px     Ryd( 3p)     0.00476
   202    C   14  py     Val( 2p)     1.06196
   203    C   14  py     Ryd( 3p)     0.00465
   204    C   14  pz     Val( 2p)     1.02783
   205    C   14  pz     Ryd( 3p)     0.00281
   206    C   14  dxy    Ryd( 3d)     0.00065
   207    C   14  dxz    Ryd( 3d)     0.00032
   208    C   14  dyz    Ryd( 3d)     0.00051
   209    C   14  dx2y2  Ryd( 3d)     0.00086
   210    C   14  dz2    Ryd( 3d)     0.00043

   211    C   15  S      Cor( 1S)     1.99911
   212    C   15  S      Val( 2S)     0.96052
   213    C   15  S      Ryd( 3S)     0.00061
   214    C   15  S      Ryd( 4S)     0.00003
   215    C   15  px     Val( 2p)     1.08262
   216    C   15  px     Ryd( 3p)     0.00468
   217    C   15  py     Val( 2p)     1.17758
   218    C   15  py     Ryd( 3p)     0.00530
   219    C   15  pz     Val( 2p)     0.99433
   220    C   15  pz     Ryd( 3p)     0.00058
   221    C   15  dxy    Ryd( 3d)     0.00074
   222    C   15  dxz    Ryd( 3d)     0.00070
   223    C   15  dyz    Ryd( 3d)     0.00036
   224    C   15  dx2y2  Ryd( 3d)     0.00076
   225    C   15  dz2    Ryd( 3d)     0.00043

   226    C   16  S      Cor( 1S)     1.99905
   227    C   16  S      Val( 2S)     0.94564
   228    C   16  S      Ryd( 3S)     0.00054
   229    C   16  S      Ryd( 4S)     0.00005
   230    C   16  px     Val( 2p)     1.11324
   231    C   16  px     Ryd( 3p)     0.00374
   232    C   16  py     Val( 2p)     1.13350
   233    C   16  py     Ryd( 3p)     0.00442
   234    C   16  pz     Val( 2p)     1.03088
   235    C   16  pz     Ryd( 3p)     0.00271
   236    C   16  dxy    Ryd( 3d)     0.00089
   237    C   16  dxz    Ryd( 3d)     0.00048
   238    C   16  dyz    Ryd( 3d)     0.00036
   239    C   16  dx2y2  Ryd( 3d)     0.00060
   240    C   16  dz2    Ryd( 3d)     0.00043

   241    H   17  S      Val( 1S)     0.76575
   242    H   17  S      Ryd( 2S)     0.00056

   243    H   18  S      Val( 1S)     0.78895
   244    H   18  S      Ryd( 2S)     0.00200

   245    H   19  S      Val( 1S)     0.78894
   246    H   19  S      Ryd( 2S)     0.00200

   247    H   20  S      Val( 1S)     0.75754
   248    H   20  S      Ryd( 2S)     0.00088

   249    H   21  S      Val( 1S)     0.76040
   250    H   21  S      Ryd( 2S)     0.00117

   251    H   22  S      Val( 1S)     0.76097
   252    H   22  S      Ryd( 2S)     0.00123

   253    H   23  S      Val( 1S)     0.74841
   254    H   23  S      Ryd( 2S)     0.00123

   255    H   24  S      Val( 1S)     0.78089
   256    H   24  S      Ryd( 2S)     0.00143

   257    H   25  S      Val( 1S)     0.78472
   258    H   25  S      Ryd( 2S)     0.00160

   259    H   26  S      Val( 1S)     0.77367
   260    H   26  S      Ryd( 2S)     0.00127

   261    H   27  S      Val( 1S)     0.76746
   262    H   27  S      Ryd( 2S)     0.00094

   263    H   28  S      Val( 1S)     0.76988
   264    H   28  S      Ryd( 2S)     0.00106

   265    H   29  S      Val( 1S)     0.76757
   266    H   29  S      Ryd( 2S)     0.00097

   267    H   30  S      Val( 1S)     0.77563
   268    H   30  S      Ryd( 2S)     0.00133

 WARNING:  1 low occupancy (<1.9990e) core orbital  found on  C    3


 Summary of Natural Population Analysis:                  
                                                          
                                       Natural Population 
                Natural  -----------------------------------------------
    Atom  No    Charge         Core      Valence    Rydberg      Total
 -----------------------------------------------------------------------
      C    1   -0.32218      1.99943     4.30857    0.01418     6.32218
      O    2   -0.48079      1.99975     6.46910    0.01195     8.48079
      C    3    0.32117      1.99879     3.65767    0.02237     5.67883
      C    4   -0.30517      1.99903     4.29356    0.01257     6.30517
      C    5   -0.18735      1.99908     4.17463    0.01364     6.18735
      C    6   -0.02907      1.99903     4.01406    0.01598     6.02907
      C    7   -0.22895      1.99906     4.21575    0.01413     6.22895
      C    8   -0.24676      1.99905     4.23308    0.01464     6.24676
      C    9   -0.26800      1.99907     4.25314    0.01579     6.26800
      C   10   -0.17905      1.99907     4.16462    0.01537     6.17905
      C   11   -0.09955      1.99902     4.08421    0.01632     6.09955
      C   12   -0.19719      1.99907     4.18522    0.01290     6.19719
      C   13   -0.25145      1.99910     4.23754    0.01480     6.25145
      C   14   -0.25231      1.99909     4.23769    0.01553     6.25231
      C   15   -0.22835      1.99911     4.21505    0.01419     6.22835
      C   16   -0.23653      1.99905     4.22326    0.01422     6.23653
      H   17    0.23369      0.00000     0.76575    0.00056     0.76631
      H   18    0.20905      0.00000     0.78895    0.00200     0.79095
      H   19    0.20906      0.00000     0.78894    0.00200     0.79094
      H   20    0.24158      0.00000     0.75754    0.00088     0.75842
      H   21    0.23842      0.00000     0.76040    0.00117     0.76158
      H   22    0.23780      0.00000     0.76097    0.00123     0.76220
      H   23    0.25036      0.00000     0.74841    0.00123     0.74964
      H   24    0.21768      0.00000     0.78089    0.00143     0.78232
      H   25    0.21368      0.00000     0.78472    0.00160     0.78632
      H   26    0.22506      0.00000     0.77367    0.00127     0.77494
      H   27    0.23160      0.00000     0.76746    0.00094     0.76840
      H   28    0.22906      0.00000     0.76988    0.00106     0.77094
      H   29    0.23146      0.00000     0.76757    0.00097     0.76854
      H   30    0.22304      0.00000     0.77563    0.00133     0.77696
 =======================================================================
   * Total *   -0.00000     31.98579    79.75795    0.25626   112.00000

                                 Natural Population      
 --------------------------------------------------------
   Core                      31.98579 ( 99.9556% of  32)
   Valence                   79.75795 ( 99.6974% of  80)
   Natural Minimal Basis    111.74374 ( 99.7712% of 112)
   Natural Rydberg Basis      0.25626 (  0.2288% of 112)
 --------------------------------------------------------

    Atom  No          Natural Electron Configuration
 ----------------------------------------------------------------------------
      C    1      [core]2S( 1.10)2p( 3.21)3p( 0.01)3d( 0.01)
      O    2      [core]2S( 1.59)2p( 4.88)3p( 0.01)3d( 0.01)
      C    3      [core]2S( 0.84)2p( 2.82)3p( 0.01)3d( 0.01)
      C    4      [core]2S( 0.96)2p( 3.33)3p( 0.01)
      C    5      [core]2S( 0.95)2p( 3.22)3p( 0.01)
      C    6      [core]2S( 0.89)2p( 3.13)3p( 0.01)
      C    7      [core]2S( 0.95)2p( 3.27)3p( 0.01)
      C    8      [core]2S( 0.96)2p( 3.27)3p( 0.01)
      C    9      [core]2S( 0.94)2p( 3.31)3p( 0.01)
      C   10      [core]2S( 0.95)2p( 3.22)3p( 0.01)
      C   11      [core]2S( 0.88)2p( 3.21)3p( 0.01)
      C   12      [core]2S( 0.95)2p( 3.23)3p( 0.01)
      C   13      [core]2S( 0.96)2p( 3.28)3p( 0.01)
      C   14      [core]2S( 0.96)2p( 3.28)3p( 0.01)
      C   15      [core]2S( 0.96)2p( 3.25)3p( 0.01)
      C   16      [core]2S( 0.95)2p( 3.28)3p( 0.01)
      H   17            1S( 0.77)
      H   18            1S( 0.79)
      H   19            1S( 0.79)
      H   20            1S( 0.76)
      H   21            1S( 0.76)
      H   22            1S( 0.76)
      H   23            1S( 0.75)
      H   24            1S( 0.78)
      H   25            1S( 0.78)
      H   26            1S( 0.77)
      H   27            1S( 0.77)
      H   28            1S( 0.77)
      H   29            1S( 0.77)
      H   30            1S( 0.78)


 NBO analysis skipped by request.
 Leave Link  607 at Wed Sep 29 03:31:57 2021, MaxMem= 1342177280 cpu:      27.5
 (Enter /sw/target/amd/app/gaussian/Gaussian09RevA.02_gcc-4.9.2/g09/l9999.exe)
 1\1\GINC-HERMITE\SP\RTD-B3LYP-FC\6-31G(d)\C15H14O1\JSCHLEINITZ\29-Sep-
 2021\0\\#p TD(NStates=10, Root=1) b3lyp/6-31G* volume pop=NPA density=
 current Geom=AllCheck Guess=Read\\COc1ccc(cc1)/C=C/c1ccccc1_conf_0\\0,
 1\C,0,-0.4517506397,-2.5354741803,-0.0744892706\O,0,0.0533239198,-3.73
 37379313,0.4927390526\C,0,1.2871525641,-3.7030318038,1.0733728698\C,0,
 2.1065348759,-2.5726604302,1.156164504\C,0,3.3519266935,-2.6716936707,
 1.7776707\C,0,3.8213745701,-3.8739130991,2.3299881991\C,0,2.973061252,
 -4.9990255942,2.2314816065\C,0,1.7347694405,-4.9187729797,1.6184478065
 \C,0,5.1387321873,-3.8992404124,2.9662516906\C,0,5.7453591747,-4.95328
 71617,3.550974132\C,0,7.0657908229,-4.9734977056,4.1868570489\C,0,7.52
 60301102,-6.1779648832,4.7523537087\C,0,8.7718266662,-6.2609235854,5.3
 709898051\C,0,9.5950629385,-5.1366197851,5.4410930584\C,0,9.1558778523
 ,-3.9309855228,4.8849271284\C,0,7.9120234054,-3.8491964719,4.267522515
 5\H,0,-1.4355563372,-2.7854727443,-0.4757582734\H,0,0.1900057169,-2.17
 20905939,-0.888083053\H,0,-0.5581898886,-1.7450963562,0.6803581844\H,0
 ,1.7912677885,-1.6201397112,0.745821501\H,0,3.9789832614,-1.784691472,
 1.8351033077\H,0,3.289126309,-5.9534958723,2.6418473366\H,0,1.08676354
 18,-5.7867850293,1.5454037994\H,0,5.6588883504,-2.9422214237,2.9477913
 058\H,0,5.2262193579,-5.9106311235,3.5722937865\H,0,6.8907244598,-7.05
 96042903,4.7023483829\H,0,9.0991462533,-7.2052079792,5.7984618163\H,0,
 10.5673949259,-5.1963405955,5.9223668722\H,0,9.7887917356,-3.048463633
 2,4.9331981385\H,0,7.5948535652,-2.9012133222,3.8428569391\\Version=AM
 64L-G09RevA.02\State=1-A\HF=-655.2331192\RMSD=7.292e-09\Dipole=-1.6132
 479,0.7905953,-0.986853\Quadrupole=2.1128222,2.8872319,-5.0000541,-4.1
 650142,6.7966459,-5.5142056\PG=C01 [X(C15H14O1)]\\@


 YOU KNOW YOU'VE SPOKEN TOO LONG WHEN THE AUDIENCE STOPS LOOKING AT
 THEIR WATCHES AND STARTS SHAKING THEM.
 Job cpu time:  0 days  3 hours 48 minutes 34.3 seconds.
 File lengths (MBytes):  RWF=    232 Int=      0 D2E=      0 Chk=     32 Scr=      1
 Normal termination of Gaussian 09 at Wed Sep 29 03:32:00 2021.
