 Entering Gaussian System, Link 0=g09
 Input=C15H13N3O3_2849_conf_0.com
 Output=C15H13N3O3_2849_conf_0.log
 Initial command:
 /sw/target/amd/app/gaussian/Gaussian09RevA.02_gcc-4.9.2/g09/l1.exe /home/jschleinitz/gaussian/Gau-3298804.inp -scrdir=/home/jschleinitz/gaussian/
 Entering Link 1 = /sw/target/amd/app/gaussian/Gaussian09RevA.02_gcc-4.9.2/g09/l1.exe PID=   3298814.
  
 Copyright (c) 1988,1990,1992,1993,1995,1998,2003,2009, Gaussian, Inc.
                  All Rights Reserved.
  
 This is part of the Gaussian(R) 09 program.  It is based on
 the Gaussian(R) 03 system (copyright 2003, Gaussian, Inc.),
 the Gaussian(R) 98 system (copyright 1998, Gaussian, Inc.),
 the Gaussian(R) 94 system (copyright 1995, Gaussian, Inc.),
 the Gaussian 92(TM) system (copyright 1992, Gaussian, Inc.),
 the Gaussian 90(TM) system (copyright 1990, Gaussian, Inc.),
 the Gaussian 88(TM) system (copyright 1988, Gaussian, Inc.),
 the Gaussian 86(TM) system (copyright 1986, Carnegie Mellon
 University), and the Gaussian 82(TM) system (copyright 1983,
 Carnegie Mellon University). Gaussian is a federally registered
 trademark of Gaussian, Inc.
  
 This software contains proprietary and confidential information,
 including trade secrets, belonging to Gaussian, Inc.
  
 This software is provided under written license and may be
 used, copied, transmitted, or stored only in accord with that
 written license.
  
 The following legend is applicable only to US Government
 contracts under FAR:
  
                    RESTRICTED RIGHTS LEGEND
  
 Use, reproduction and disclosure by the US Government is
 subject to restrictions as set forth in subparagraphs (a)
 and (c) of the Commercial Computer Software - Restricted
 Rights clause in FAR 52.227-19.
  
 Gaussian, Inc.
 340 Quinnipiac St., Bldg. 40, Wallingford CT 06492
  
  
 ---------------------------------------------------------------
 Warning -- This program may not be used in any manner that
 competes with the business of Gaussian, Inc. or will provide
 assistance to any competitor of Gaussian, Inc.  The licensee
 of this program is prohibited from giving any competitor of
 Gaussian, Inc. access to this program.  By using this program,
 the user acknowledges that Gaussian, Inc. is engaged in the
 business of creating and licensing software in the field of
 computational chemistry and represents and warrants to the
 licensee that it is not a competitor of Gaussian, Inc. and that
 it will not use this program in any manner prohibited above.
 ---------------------------------------------------------------
  

 Cite this work as:
 Gaussian 09, Revision A.02,
 M. J. Frisch, G. W. Trucks, H. B. Schlegel, G. E. Scuseria, 
 M. A. Robb, J. R. Cheeseman, G. Scalmani, V. Barone, B. Mennucci, 
 G. A. Petersson, H. Nakatsuji, M. Caricato, X. Li, H. P. Hratchian, 
 A. F. Izmaylov, J. Bloino, G. Zheng, J. L. Sonnenberg, M. Hada, 
 M. Ehara, K. Toyota, R. Fukuda, J. Hasegawa, M. Ishida, T. Nakajima, 
 Y. Honda, O. Kitao, H. Nakai, T. Vreven, J. A. Montgomery, Jr., 
 J. E. Peralta, F. Ogliaro, M. Bearpark, J. J. Heyd, E. Brothers, 
 K. N. Kudin, V. N. Staroverov, R. Kobayashi, J. Normand, 
 K. Raghavachari, A. Rendell, J. C. Burant, S. S. Iyengar, J. Tomasi, 
 M. Cossi, N. Rega, J. M. Millam, M. Klene, J. E. Knox, J. B. Cross, 
 V. Bakken, C. Adamo, J. Jaramillo, R. Gomperts, R. E. Stratmann, 
 O. Yazyev, A. J. Austin, R. Cammi, C. Pomelli, J. W. Ochterski, 
 R. L. Martin, K. Morokuma, V. G. Zakrzewski, G. A. Voth, 
 P. Salvador, J. J. Dannenberg, S. Dapprich, A. D. Daniels, 
 O. Farkas, J. B. Foresman, J. V. Ortiz, J. Cioslowski, 
 and D. J. Fox, Gaussian, Inc., Wallingford CT, 2009.
 
 ******************************************
 Gaussian 09:  AM64L-G09RevA.02 11-Jun-2009
                28-Sep-2021 
 ******************************************
 %nproc=5
 Will use up to    5 processors via shared memory.
 %mem=10gb
 %chk=C15H13N3O3_2849_conf_0.chk
 -----------------------------------
 #p opt b3lyp/6-31G* scf=(xqc,tight)
 -----------------------------------
 1/14=-1,18=20,19=15,26=3,38=1/1,3;
 2/9=110,12=2,17=6,18=5,40=1/2;
 3/5=1,6=6,7=1,11=2,16=1,25=1,30=1,71=1,74=-5/1,2,3;
 4//1;
 5/5=2,8=3,13=1,32=2,38=5/2,8;
 6/7=2,8=2,9=2,10=2,28=1/1;
 7//1,2,3,16;
 1/14=-1,18=20,19=15/3(2);
 2/9=110/2;
 99//99;
 2/9=110/2;
 3/5=1,6=6,7=1,11=2,16=1,25=1,30=1,71=1,74=-5/1,2,3;
 4/5=5,16=3/1;
 5/5=2,8=3,13=1,32=2,38=5/2,8;
 7//1,2,3,16;
 1/14=-1,18=20,19=15/3(-5);
 2/9=110/2;
 6/7=2,8=2,9=2,10=2,19=2,28=1/1;
 99/9=1/99;
 Leave Link    1 at Tue Sep 28 15:18:14 2021, MaxMem= 1342177280 cpu:       0.1
 (Enter /sw/target/amd/app/gaussian/Gaussian09RevA.02_gcc-4.9.2/g09/l101.exe)
 ----------------------------------------
 COc1nc(Oc2ccc3c(c2)cccc3)nc(n1)OC_conf_0
 ----------------------------------------
 Symbolic Z-matrix:
 Charge =  0 Multiplicity = 1
 C                     0.46096  -0.2517    1.19098 
 O                     1.78893   0.14135   1.52157 
 C                     2.66412  -0.9218    1.59798 
 N                     2.21057  -2.154     1.427 
 C                     3.15611  -3.08996   1.41359 
 O                     2.80044  -4.40675   1.14428 
 C                     1.71622  -4.62863   0.32296 
 C                     0.94739  -5.75768   0.59543 
 C                    -0.16396  -6.05913  -0.19835 
 C                    -0.52422  -5.2258   -1.27223 
 C                     0.26748  -4.09295  -1.56086 
 C                     1.40108  -3.82904  -0.78025 
 C                    -0.09766  -3.24208  -2.61751 
 C                    -1.2307   -3.50956  -3.38454 
 C                    -2.00329  -4.63373  -3.11416 
 C                    -1.65225  -5.48875  -2.06642 
 N                     4.44748  -2.88684   1.6327 
 C                     4.76875  -1.61377   1.81941 
 N                     3.92885  -0.58432   1.7977 
 O                     6.11405  -1.39297   2.02776 
 C                     6.44532  -0.01551   2.14971 
 H                    -0.14537   0.65508   1.10506 
 H                     0.02534  -0.87129   1.98237 
 H                     0.42189  -0.76587   0.22351 
 H                     1.20593  -6.40682   1.42958 
 H                    -0.75438  -6.94196   0.03416 
 H                     2.02684  -2.97668  -1.03301 
 H                     0.49407  -2.35807  -2.84025 
 H                    -1.50735  -2.83753  -4.19256 
 H                    -2.88293  -4.84602  -3.71619 
 H                    -2.27212  -6.36151  -1.87058 
 H                     7.52656   0.05563   2.30089 
 H                     5.95817   0.43549   3.02135 
 H                     6.20167   0.5349    1.23429 
 
 NAtoms=     34 NQM=     34 NQMF=      0 NMic=      0 NMicF=      0 NTot=     34.
                    Isotopes and Nuclear Properties:
 (Nuclear quadrupole moments (NQMom) in fm**2, nuclear magnetic moments (NMagM)
  in nuclear magnetons)

  Atom         1           2           3           4           5           6           7           8           9          10
 IAtWgt=          12          16          12          14          12          16          12          12          12          12
 AtmWgt=  12.0000000  15.9949146  12.0000000  14.0030740  12.0000000  15.9949146  12.0000000  12.0000000  12.0000000  12.0000000
 NucSpn=           0           0           0           2           0           0           0           0           0           0
 AtZEff=   0.0000000   0.0000000   0.0000000   0.0000000   0.0000000   0.0000000   0.0000000   0.0000000   0.0000000   0.0000000
 NQMom=    0.0000000   0.0000000   0.0000000   2.0440000   0.0000000   0.0000000   0.0000000   0.0000000   0.0000000   0.0000000
 NMagM=    0.0000000   0.0000000   0.0000000   0.4037610   0.0000000   0.0000000   0.0000000   0.0000000   0.0000000   0.0000000

  Atom        11          12          13          14          15          16          17          18          19          20
 IAtWgt=          12          12          12          12          12          12          14          12          14          16
 AtmWgt=  12.0000000  12.0000000  12.0000000  12.0000000  12.0000000  12.0000000  14.0030740  12.0000000  14.0030740  15.9949146
 NucSpn=           0           0           0           0           0           0           2           0           2           0
 AtZEff=   0.0000000   0.0000000   0.0000000   0.0000000   0.0000000   0.0000000   0.0000000   0.0000000   0.0000000   0.0000000
 NQMom=    0.0000000   0.0000000   0.0000000   0.0000000   0.0000000   0.0000000   2.0440000   0.0000000   2.0440000   0.0000000
 NMagM=    0.0000000   0.0000000   0.0000000   0.0000000   0.0000000   0.0000000   0.4037610   0.0000000   0.4037610   0.0000000

  Atom        21          22          23          24          25          26          27          28          29          30
 IAtWgt=          12           1           1           1           1           1           1           1           1           1
 AtmWgt=  12.0000000   1.0078250   1.0078250   1.0078250   1.0078250   1.0078250   1.0078250   1.0078250   1.0078250   1.0078250
 NucSpn=           0           1           1           1           1           1           1           1           1           1
 AtZEff=   0.0000000   0.0000000   0.0000000   0.0000000   0.0000000   0.0000000   0.0000000   0.0000000   0.0000000   0.0000000
 NQMom=    0.0000000   0.0000000   0.0000000   0.0000000   0.0000000   0.0000000   0.0000000   0.0000000   0.0000000   0.0000000
 NMagM=    0.0000000   2.7928460   2.7928460   2.7928460   2.7928460   2.7928460   2.7928460   2.7928460   2.7928460   2.7928460

  Atom        31          32          33          34
 IAtWgt=           1           1           1           1
 AtmWgt=   1.0078250   1.0078250   1.0078250   1.0078250
 NucSpn=           1           1           1           1
 AtZEff=   0.0000000   0.0000000   0.0000000   0.0000000
 NQMom=    0.0000000   0.0000000   0.0000000   0.0000000
 NMagM=    2.7928460   2.7928460   2.7928460   2.7928460
 Leave Link  101 at Tue Sep 28 15:18:15 2021, MaxMem= 1342177280 cpu:       0.2
 (Enter /sw/target/amd/app/gaussian/Gaussian09RevA.02_gcc-4.9.2/g09/l103.exe)

 GradGradGradGradGradGradGradGradGradGradGradGradGradGradGradGradGradGrad
 Berny optimization.
 Initialization pass.
                           ----------------------------
                           !    Initial Parameters    !
                           ! (Angstroms and Degrees)  !
 --------------------------                            --------------------------
 ! Name  Definition              Value          Derivative Info.                !
 --------------------------------------------------------------------------------
 ! R1    R(1,2)                  1.4238         estimate D2E/DX2                !
 ! R2    R(1,22)                 1.0942         estimate D2E/DX2                !
 ! R3    R(1,23)                 1.0954         estimate D2E/DX2                !
 ! R4    R(1,24)                 1.0963         estimate D2E/DX2                !
 ! R5    R(2,3)                  1.3792         estimate D2E/DX2                !
 ! R6    R(3,4)                  1.3241         estimate D2E/DX2                !
 ! R7    R(3,19)                 1.3241         estimate D2E/DX2                !
 ! R8    R(4,5)                  1.3305         estimate D2E/DX2                !
 ! R9    R(5,6)                  1.3903         estimate D2E/DX2                !
 ! R10   R(5,17)                 1.3255         estimate D2E/DX2                !
 ! R11   R(6,7)                  1.3782         estimate D2E/DX2                !
 ! R12   R(7,8)                  1.3929         estimate D2E/DX2                !
 ! R13   R(7,12)                 1.3985         estimate D2E/DX2                !
 ! R14   R(8,9)                  1.3986         estimate D2E/DX2                !
 ! R15   R(8,25)                 1.0881         estimate D2E/DX2                !
 ! R16   R(9,10)                 1.4062         estimate D2E/DX2                !
 ! R17   R(9,26)                 1.0872         estimate D2E/DX2                !
 ! R18   R(10,11)                1.4119         estimate D2E/DX2                !
 ! R19   R(10,16)                1.4044         estimate D2E/DX2                !
 ! R20   R(11,12)                1.4014         estimate D2E/DX2                !
 ! R21   R(11,13)                1.4049         estimate D2E/DX2                !
 ! R22   R(12,27)                1.0872         estimate D2E/DX2                !
 ! R23   R(13,14)                1.3941         estimate D2E/DX2                !
 ! R24   R(13,28)                1.0868         estimate D2E/DX2                !
 ! R25   R(14,15)                1.3906         estimate D2E/DX2                !
 ! R26   R(14,29)                1.0868         estimate D2E/DX2                !
 ! R27   R(15,16)                1.3972         estimate D2E/DX2                !
 ! R28   R(15,30)                1.0869         estimate D2E/DX2                !
 ! R29   R(16,31)                1.0883         estimate D2E/DX2                !
 ! R30   R(17,18)                1.3262         estimate D2E/DX2                !
 ! R31   R(18,19)                1.3288         estimate D2E/DX2                !
 ! R32   R(18,20)                1.3791         estimate D2E/DX2                !
 ! R33   R(20,21)                1.422          estimate D2E/DX2                !
 ! R34   R(21,32)                1.0941         estimate D2E/DX2                !
 ! R35   R(21,33)                1.0957         estimate D2E/DX2                !
 ! R36   R(21,34)                1.0956         estimate D2E/DX2                !
 ! A1    A(2,1,22)             107.8361         estimate D2E/DX2                !
 ! A2    A(2,1,23)             111.0573         estimate D2E/DX2                !
 ! A3    A(2,1,24)             111.5678         estimate D2E/DX2                !
 ! A4    A(22,1,23)            107.7644         estimate D2E/DX2                !
 ! A5    A(22,1,24)            107.435          estimate D2E/DX2                !
 ! A6    A(23,1,24)            110.9832         estimate D2E/DX2                !
 ! A7    A(1,2,3)              113.0744         estimate D2E/DX2                !
 ! A8    A(2,3,4)              119.5277         estimate D2E/DX2                !
 ! A9    A(2,3,19)             114.7088         estimate D2E/DX2                !
 ! A10   A(4,3,19)             125.7193         estimate D2E/DX2                !
 ! A11   A(3,4,5)              114.3628         estimate D2E/DX2                !
 ! A12   A(4,5,6)              119.1052         estimate D2E/DX2                !
 ! A13   A(4,5,17)             125.6553         estimate D2E/DX2                !
 ! A14   A(6,5,17)             115.2388         estimate D2E/DX2                !
 ! A15   A(5,6,7)              117.981          estimate D2E/DX2                !
 ! A16   A(6,7,8)              116.6267         estimate D2E/DX2                !
 ! A17   A(6,7,12)             123.7352         estimate D2E/DX2                !
 ! A18   A(8,7,12)             119.5638         estimate D2E/DX2                !
 ! A19   A(7,8,9)              120.1524         estimate D2E/DX2                !
 ! A20   A(7,8,25)             120.1572         estimate D2E/DX2                !
 ! A21   A(9,8,25)             119.6898         estimate D2E/DX2                !
 ! A22   A(8,9,10)             120.6153         estimate D2E/DX2                !
 ! A23   A(8,9,26)             119.0232         estimate D2E/DX2                !
 ! A24   A(10,9,26)            120.3572         estimate D2E/DX2                !
 ! A25   A(9,10,11)            119.2054         estimate D2E/DX2                !
 ! A26   A(9,10,16)            121.7815         estimate D2E/DX2                !
 ! A27   A(11,10,16)           119.0131         estimate D2E/DX2                !
 ! A28   A(10,11,12)           119.3926         estimate D2E/DX2                !
 ! A29   A(10,11,13)           119.6005         estimate D2E/DX2                !
 ! A30   A(12,11,13)           121.0048         estimate D2E/DX2                !
 ! A31   A(7,12,11)            120.9314         estimate D2E/DX2                !
 ! A32   A(7,12,27)            120.1298         estimate D2E/DX2                !
 ! A33   A(11,12,27)           118.9279         estimate D2E/DX2                !
 ! A34   A(11,13,14)           120.5856         estimate D2E/DX2                !
 ! A35   A(11,13,28)           120.347          estimate D2E/DX2                !
 ! A36   A(14,13,28)           119.0632         estimate D2E/DX2                !
 ! A37   A(13,14,15)           119.9767         estimate D2E/DX2                !
 ! A38   A(13,14,29)           119.8226         estimate D2E/DX2                !
 ! A39   A(15,14,29)           120.2007         estimate D2E/DX2                !
 ! A40   A(14,15,16)           120.0619         estimate D2E/DX2                !
 ! A41   A(14,15,30)           119.9903         estimate D2E/DX2                !
 ! A42   A(16,15,30)           119.9475         estimate D2E/DX2                !
 ! A43   A(10,16,15)           120.7513         estimate D2E/DX2                !
 ! A44   A(10,16,31)           120.3909         estimate D2E/DX2                !
 ! A45   A(15,16,31)           118.8567         estimate D2E/DX2                !
 ! A46   A(5,17,18)            113.9782         estimate D2E/DX2                !
 ! A47   A(17,18,19)           126.035          estimate D2E/DX2                !
 ! A48   A(17,18,20)           114.2845         estimate D2E/DX2                !
 ! A49   A(19,18,20)           119.6701         estimate D2E/DX2                !
 ! A50   A(3,19,18)            114.1257         estimate D2E/DX2                !
 ! A51   A(18,20,21)           113.2847         estimate D2E/DX2                !
 ! A52   A(20,21,32)           107.7622         estimate D2E/DX2                !
 ! A53   A(20,21,33)           111.308          estimate D2E/DX2                !
 ! A54   A(20,21,34)           111.2958         estimate D2E/DX2                !
 ! A55   A(32,21,33)           107.6206         estimate D2E/DX2                !
 ! A56   A(32,21,34)           107.6129         estimate D2E/DX2                !
 ! A57   A(33,21,34)           111.0415         estimate D2E/DX2                !
 ! D1    D(22,1,2,3)          -177.2618         estimate D2E/DX2                !
 ! D2    D(23,1,2,3)            64.8774         estimate D2E/DX2                !
 ! D3    D(24,1,2,3)           -59.5106         estimate D2E/DX2                !
 ! D4    D(1,2,3,4)             -2.8722         estimate D2E/DX2                !
 ! D5    D(1,2,3,19)           174.8464         estimate D2E/DX2                !
 ! D6    D(2,3,4,5)            174.8098         estimate D2E/DX2                !
 ! D7    D(19,3,4,5)            -2.6373         estimate D2E/DX2                !
 ! D8    D(2,3,19,18)         -177.6087         estimate D2E/DX2                !
 ! D9    D(4,3,19,18)           -0.0538         estimate D2E/DX2                !
 ! D10   D(3,4,5,6)           -175.4054         estimate D2E/DX2                !
 ! D11   D(3,4,5,17)             4.2777         estimate D2E/DX2                !
 ! D12   D(4,5,6,7)             30.0266         estimate D2E/DX2                !
 ! D13   D(17,5,6,7)          -149.6888         estimate D2E/DX2                !
 ! D14   D(4,5,17,18)           -2.9478         estimate D2E/DX2                !
 ! D15   D(6,5,17,18)          176.7461         estimate D2E/DX2                !
 ! D16   D(5,6,7,8)           -146.8249         estimate D2E/DX2                !
 ! D17   D(5,6,7,12)            36.3317         estimate D2E/DX2                !
 ! D18   D(6,7,8,9)           -179.5047         estimate D2E/DX2                !
 ! D19   D(6,7,8,25)             0.7734         estimate D2E/DX2                !
 ! D20   D(12,7,8,9)            -2.5225         estimate D2E/DX2                !
 ! D21   D(12,7,8,25)          177.7555         estimate D2E/DX2                !
 ! D22   D(6,7,12,11)         -178.7136         estimate D2E/DX2                !
 ! D23   D(6,7,12,27)            0.0764         estimate D2E/DX2                !
 ! D24   D(8,7,12,11)            4.5307         estimate D2E/DX2                !
 ! D25   D(8,7,12,27)         -176.6794         estimate D2E/DX2                !
 ! D26   D(7,8,9,10)            -0.4154         estimate D2E/DX2                !
 ! D27   D(7,8,9,26)          -179.6633         estimate D2E/DX2                !
 ! D28   D(25,8,9,10)          179.3079         estimate D2E/DX2                !
 ! D29   D(25,8,9,26)            0.0599         estimate D2E/DX2                !
 ! D30   D(8,9,10,11)            1.3897         estimate D2E/DX2                !
 ! D31   D(8,9,10,16)         -178.5551         estimate D2E/DX2                !
 ! D32   D(26,9,10,11)        -179.3724         estimate D2E/DX2                !
 ! D33   D(26,9,10,16)           0.6828         estimate D2E/DX2                !
 ! D34   D(9,10,11,12)           0.5688         estimate D2E/DX2                !
 ! D35   D(9,10,11,13)        -178.9204         estimate D2E/DX2                !
 ! D36   D(16,10,11,12)       -179.4849         estimate D2E/DX2                !
 ! D37   D(16,10,11,13)          1.0259         estimate D2E/DX2                !
 ! D38   D(9,10,16,15)         178.9085         estimate D2E/DX2                !
 ! D39   D(9,10,16,31)          -0.7131         estimate D2E/DX2                !
 ! D40   D(11,10,16,15)         -1.0364         estimate D2E/DX2                !
 ! D41   D(11,10,16,31)        179.342          estimate D2E/DX2                !
 ! D42   D(10,11,12,7)          -3.5423         estimate D2E/DX2                !
 ! D43   D(10,11,12,27)        177.6535         estimate D2E/DX2                !
 ! D44   D(13,11,12,7)         175.9396         estimate D2E/DX2                !
 ! D45   D(13,11,12,27)         -2.8647         estimate D2E/DX2                !
 ! D46   D(10,11,13,14)         -0.2186         estimate D2E/DX2                !
 ! D47   D(10,11,13,28)        179.0257         estimate D2E/DX2                !
 ! D48   D(12,11,13,14)       -179.6994         estimate D2E/DX2                !
 ! D49   D(12,11,13,28)         -0.4551         estimate D2E/DX2                !
 ! D50   D(11,13,14,15)         -0.6035         estimate D2E/DX2                !
 ! D51   D(11,13,14,29)        179.38           estimate D2E/DX2                !
 ! D52   D(28,13,14,15)       -179.8574         estimate D2E/DX2                !
 ! D53   D(28,13,14,29)          0.1261         estimate D2E/DX2                !
 ! D54   D(13,14,15,16)          0.602          estimate D2E/DX2                !
 ! D55   D(13,14,15,30)       -179.596          estimate D2E/DX2                !
 ! D56   D(29,14,15,16)       -179.3814         estimate D2E/DX2                !
 ! D57   D(29,14,15,30)          0.4205         estimate D2E/DX2                !
 ! D58   D(14,15,16,10)          0.225          estimate D2E/DX2                !
 ! D59   D(14,15,16,31)        179.8523         estimate D2E/DX2                !
 ! D60   D(30,15,16,10)       -179.5771         estimate D2E/DX2                !
 ! D61   D(30,15,16,31)          0.0503         estimate D2E/DX2                !
 ! D62   D(5,17,18,19)          -0.2515         estimate D2E/DX2                !
 ! D63   D(5,17,18,20)        -179.063          estimate D2E/DX2                !
 ! D64   D(17,18,19,3)           1.6304         estimate D2E/DX2                !
 ! D65   D(20,18,19,3)        -179.6164         estimate D2E/DX2                !
 ! D66   D(17,18,20,21)        176.6359         estimate D2E/DX2                !
 ! D67   D(19,18,20,21)         -2.258          estimate D2E/DX2                !
 ! D68   D(18,20,21,32)       -179.4246         estimate D2E/DX2                !
 ! D69   D(18,20,21,33)         62.7918         estimate D2E/DX2                !
 ! D70   D(18,20,21,34)        -61.6571         estimate D2E/DX2                !
 --------------------------------------------------------------------------------
 Trust Radius=3.00D-01 FncErr=1.00D-07 GrdErr=1.00D-06
 Number of steps in this run= 173 maximum allowed number of steps= 204.
 GradGradGradGradGradGradGradGradGradGradGradGradGradGradGradGradGradGrad

 Leave Link  103 at Tue Sep 28 15:18:15 2021, MaxMem= 1342177280 cpu:       0.0
 (Enter /sw/target/amd/app/gaussian/Gaussian09RevA.02_gcc-4.9.2/g09/l202.exe)
                          Input orientation:                          
 ---------------------------------------------------------------------
 Center     Atomic      Atomic             Coordinates (Angstroms)
 Number     Number       Type             X           Y           Z
 ---------------------------------------------------------------------
      1          6           0        0.460961   -0.251699    1.190983
      2          8           0        1.788934    0.141348    1.521569
      3          6           0        2.664118   -0.921796    1.597980
      4          7           0        2.210570   -2.153998    1.427004
      5          6           0        3.156107   -3.089956    1.413588
      6          8           0        2.800439   -4.406752    1.144280
      7          6           0        1.716216   -4.628634    0.322962
      8          6           0        0.947387   -5.757685    0.595426
      9          6           0       -0.163962   -6.059134   -0.198354
     10          6           0       -0.524223   -5.225805   -1.272230
     11          6           0        0.267480   -4.092948   -1.560861
     12          6           0        1.401077   -3.829042   -0.780248
     13          6           0       -0.097660   -3.242085   -2.617513
     14          6           0       -1.230698   -3.509556   -3.384544
     15          6           0       -2.003290   -4.633732   -3.114163
     16          6           0       -1.652247   -5.488745   -2.066417
     17          7           0        4.447484   -2.886838    1.632703
     18          6           0        4.768750   -1.613775    1.819409
     19          7           0        3.928853   -0.584324    1.797703
     20          8           0        6.114053   -1.392969    2.027755
     21          6           0        6.445324   -0.015506    2.149710
     22          1           0       -0.145374    0.655083    1.105059
     23          1           0        0.025338   -0.871293    1.982372
     24          1           0        0.421891   -0.765873    0.223513
     25          1           0        1.205926   -6.406822    1.429584
     26          1           0       -0.754380   -6.941955    0.034159
     27          1           0        2.026836   -2.976683   -1.033006
     28          1           0        0.494073   -2.358074   -2.840251
     29          1           0       -1.507353   -2.837531   -4.192561
     30          1           0       -2.882925   -4.846020   -3.716188
     31          1           0       -2.272116   -6.361514   -1.870583
     32          1           0        7.526560    0.055629    2.300893
     33          1           0        5.958167    0.435491    3.021354
     34          1           0        6.201669    0.534896    1.234287
 ---------------------------------------------------------------------
                    Distance matrix (angstroms):
                    1          2          3          4          5
     1  C    0.000000
     2  O    1.423828   0.000000
     3  C    2.338499   1.379152   0.000000
     4  N    2.595300   2.335666   1.324108   0.000000
     5  C    3.920341   3.510292   2.230913   1.330503   0.000000
     6  O    4.768628   4.674474   3.517008   2.345800   1.390316
     7  C    4.635374   4.918809   4.032969   2.754472   2.372822
     8  C    5.559423   6.030301   5.228585   3.908159   3.558738
     9  C    6.003923   6.724426   6.133277   4.850801   4.736796
    10  C    5.637352   6.477835   6.076851   4.919446   5.031929
    11  C    4.729194   5.453940   5.077239   4.057396   4.265854
    12  C    4.191295   4.605735   3.962741   2.886695   2.905047
    13  C    4.874332   5.669114   5.548111   4.782256   5.182656
    14  C    5.866071   6.820354   6.833128   6.068843   6.514767
    15  C    6.618839   7.659789   7.600491   6.672922   7.035848
    16  C    6.519430   7.510880   7.274327   6.184325   6.401945
    17  N    4.799108   4.031148   2.653863   2.362869   1.325489
    18  C    4.561493   3.471090   2.226509   2.643882   2.223604
    19  N    3.536245   2.276424   1.324134   2.356649   2.650069
    20  O    5.827533   4.617035   3.508385   4.022096   3.465027
    21  C    6.065274   4.701184   3.927249   4.798812   4.562134
    22  H    1.094202   2.044249   3.259258   3.680361   5.002028
    23  H    1.095427   2.085198   2.667108   2.594032   3.879135
    24  H    1.096312   2.092083   2.634588   2.564109   3.780685
    25  H    6.204631   6.574716   5.678045   4.369877   3.847735
    26  H    6.897451   7.671638   7.097464   5.801334   5.659739
    27  H    3.850147   4.037891   3.398643   2.600426   2.697018
    28  H    4.548490   5.191267   5.144889   4.604071   5.071215
    29  H    6.288349   7.238129   7.389288   6.772715   7.296608
    30  H    7.507975   8.610123   8.626100   7.722894   8.115928
    31  H    7.360213   8.383677   8.123292   6.976513   7.138241
    32  H    7.158843   5.790945   5.009270   5.822876   5.457368
    33  H    5.834532   4.440538   3.836532   4.826168   4.781759
    34  H    5.794509   4.439554   3.842979   4.816240   4.737842
                    6          7          8          9         10
     6  O    0.000000
     7  C    1.378163   0.000000
     8  C    2.357978   1.392871   0.000000
     9  C    3.649754   2.419332   1.398590   0.000000
    10  C    4.190913   2.814395   2.436529   1.406213   0.000000
    11  C    3.719159   2.436101   2.807703   2.430731   1.411902
    12  C    2.448626   1.398475   2.412048   2.785903   2.428945
    13  C    4.889429   3.722776   4.212285   3.713824   2.434520
    14  C    6.129051   4.866440   5.063427   4.217828   2.811847
    15  C    6.423525   5.064443   4.871429   3.730528   2.435345
    16  C    5.595150   4.218468   3.730393   2.455605   1.404389
    17  N    2.293785   3.494151   4.644176   5.889113   6.215084
    18  C    3.482925   4.543863   5.768270   6.940045   7.114813
    19  N    4.038717   4.840151   6.090835   7.121019   7.127252
    20  O    4.565463   5.719862   6.913519   8.132781   8.345493
    21  C    5.794749   6.854372   8.100353   9.258590   9.350480
    22  H    5.856751   5.656400   6.525140   6.839586   6.354516
    23  H    4.571986   4.441882   5.162423   5.630727   5.464085
    24  H    4.445369   4.075057   5.033155   5.342265   4.798267
    25  H    2.573743   2.155681   1.088136   2.155843   3.418774
    26  H    4.505149   3.396868   2.147913   1.087212   2.169054
    27  H    2.717376   2.159647   3.398672   3.872692   3.409352
    28  H    5.039136   4.081053   4.854557   4.594613   3.423375
    29  H    7.035723   5.830043   6.121917   5.304443   3.898555
    30  H    7.491178   6.124875   5.838874   4.608641   3.417696
    31  H    6.216214   4.870452   4.100123   2.707785   2.168638
    32  H    6.602031   7.721050   8.943643  10.138080  10.270144
    33  H    6.077991   7.135883   8.327573   9.488263   9.618031
    34  H    5.999696   6.900133   8.222663   9.276580   9.203582
                   11         12         13         14         15
    11  C    0.000000
    12  C    1.401444   0.000000
    13  C    1.404923   2.442596   0.000000
    14  C    2.431193   3.716271   1.394149   0.000000
    15  C    2.803853   4.205283   2.411383   1.390603   0.000000
    16  C    2.426765   3.705622   2.787101   2.415026   1.397158
    17  N    5.396849   3.998833   6.232886   7.602781   8.197368
    18  C    6.150931   4.796545   6.783776   8.165077   8.906222
    19  N    6.082437   4.854243   6.539926   7.876143   8.701405
    20  O    7.372277   6.002622   7.973903   9.365804  10.140667
    21  C    8.280074   6.969371   8.714807  10.087500  10.973397
    22  H    5.460896   5.104241   5.389595   6.219219   7.016071
    23  H    4.795018   4.274693   5.176362   6.110797   6.651763
    24  H    3.778526   3.368879   3.804338   4.824616   5.655255
    25  H    3.895826   3.400940   5.300367   6.124305   5.838540
    26  H    3.421276   3.872917   4.599096   4.867830   4.098732
    27  H    2.149421   1.087188   2.663566   4.052803   4.828969
    28  H    2.167480   2.688869   1.086847   2.144062   3.389760
    29  H    3.413495   4.591943   2.152132   1.086760   2.152959
    30  H    3.890708   5.292133   3.396674   2.150809   1.086857
    31  H    3.419337   4.592885   3.875177   3.392682   2.145690
    32  H    9.209673   7.880713   9.653723  11.032873  11.921870
    33  H    8.595777   7.307906   9.055078  10.405706  11.257282
    34  H    8.027726   6.793231   8.293582   9.640087  10.627563
                   16         17         18         19         20
    16  C    0.000000
    17  N    7.593426   0.000000
    18  C    8.446552   1.326184   0.000000
    19  N    8.374571   2.365961   1.328783   0.000000
    20  O    9.687778   2.272701   1.379132   2.341352   0.000000
    21  C   10.644376   3.535988   2.339757   2.603860   1.421977
    22  H    7.076408   5.823913   5.459545   4.314536   6.650287
    23  H    6.366149   4.872377   4.803935   3.918403   6.111191
    24  H    5.643700   4.763371   4.707548   3.848353   6.004103
    25  H    4.608041   4.789493   5.984896   6.438270   7.041750
    26  H    2.707472   6.786656   7.879187   8.090873   9.052130
    27  H    4.573188   3.601889   4.184720   4.165808   5.346190
    28  H    3.873837   5.993026   6.367046   6.037758   7.497539
    29  H    3.401532   8.330438   8.776721   8.397174   9.943084
    30  H    2.156249   9.283529   9.981902   9.745018  11.218827
    31  H    1.088261   8.336630   9.259096   9.234948  10.498158
    32  H   11.578600   4.311068   3.259486   3.688663   2.041620
    33  H   10.904146   3.904919   2.656854   2.579818   2.086817
    34  H   10.433738   3.865769   2.648095   2.595339   2.086607
                   21         22         23         24         25
    21  C    0.000000
    22  H    6.706586   0.000000
    23  H    6.478934   1.768798   0.000000
    24  H    6.368284   1.765795   1.806087   0.000000
    25  H    8.295710   7.197349   5.686954   5.821479   0.000000
    26  H   10.212101   7.696279   6.423117   6.289949   2.465031
    27  H    6.198490   4.741260   4.187023   3.007053   4.301639
    28  H    8.112011   5.005345   5.068325   3.453544   5.927106
    29  H   10.556197   6.489847   6.659206   5.245518   7.190983
    30  H   12.031578   7.810297   7.531935   6.564347   6.755278
    31  H   11.507751   7.912655   7.089858   6.553938   4.794781
    32  H    1.094069   7.787678   7.564983   7.447597   9.081457
    33  H    1.095666   6.401065   6.163248   6.318350   8.481437
    34  H    1.095586   6.349496   6.378406   6.009950   8.554709
                   26         27         28         29         30
    26  H    0.000000
    27  H    4.959576   0.000000
    28  H    5.552732   2.449117   0.000000
    29  H    5.939565   4.742641   2.462586   0.000000
    30  H    4.794659   5.899122   4.285004   2.480556   0.000000
    31  H    2.503693   5.535305   4.961813   4.288927   2.464968
    32  H   11.076021   7.110327   9.039535  11.495516  12.984175
    33  H   10.411933   6.598191   8.486386  10.885184  12.306655
    34  H   10.282521   5.907710   7.586026  10.012640  11.661531
                   31         32         33         34
    31  H    0.000000
    32  H   12.433623   0.000000
    33  H   11.741716   1.767262   0.000000
    34  H   11.358068   1.767111   1.806317   0.000000
 Stoichiometry    C15H13N3O3
 Framework group  C1[X(C15H13N3O3)]
 Deg. of freedom    96
 Full point group                 C1      NOp   1
 Largest Abelian subgroup         C1      NOp   1
 Largest concise Abelian subgroup C1      NOp   1
                         Standard orientation:                         
 ---------------------------------------------------------------------
 Center     Atomic      Atomic             Coordinates (Angstroms)
 Number     Number       Type             X           Y           Z
 ---------------------------------------------------------------------
      1          6           0        0.792792    2.659048    1.495643
      2          8           0        2.100075    2.361372    1.016389
      3          6           0        2.244683    1.048153    0.620653
      4          7           0        1.232485    0.207180    0.767223
      5          6           0        1.444772   -1.001913    0.254130
      6          8           0        0.412174   -1.932805    0.266892
      7          6           0       -0.881967   -1.463934    0.198379
      8          6           0       -1.847992   -2.194968    0.885747
      9          6           0       -3.186692   -1.791067    0.857464
     10          6           0       -3.573071   -0.641769    0.145240
     11          6           0       -2.596888    0.087083   -0.568418
     12          6           0       -1.267194   -0.355549   -0.562420
     13          6           0       -2.969589    1.249357   -1.264135
     14          6           0       -4.293846    1.685209   -1.259088
     15          6           0       -5.261221    0.960531   -0.571481
     16          6           0       -4.905080   -0.197198    0.124850
     17          7           0        2.577388   -1.421649   -0.291693
     18          6           0        3.522765   -0.493569   -0.352454
     19          7           0        3.414238    0.761638    0.069852
     20          8           0        4.697238   -0.917767   -0.937838
     21          6           0        5.668491    0.113527   -1.060805
     22          1           0        0.759356    3.725625    1.737665
     23          1           0        0.573216    2.101243    2.412486
     24          1           0        0.030611    2.471861    0.730175
     25          1           0       -1.564001   -3.080375    1.450940
     26          1           0       -3.924640   -2.372101    1.405060
     27          1           0       -0.528956    0.189230   -1.145685
     28          1           0       -2.225240    1.828404   -1.804399
     29          1           0       -4.566565    2.591556   -1.793138
     30          1           0       -6.294841    1.296518   -0.572853
     31          1           0       -5.677492   -0.747841    0.658222
     32          1           0        6.552330   -0.316001   -1.541763
     33          1           0        5.975451    0.490488   -0.078889
     34          1           0        5.306321    0.927164   -1.698877
 ---------------------------------------------------------------------
 Rotational constants (GHZ):      0.6796975      0.1622538      0.1448604
 Leave Link  202 at Tue Sep 28 15:18:15 2021, MaxMem= 1342177280 cpu:       0.1
 (Enter /sw/target/amd/app/gaussian/Gaussian09RevA.02_gcc-4.9.2/g09/l301.exe)
 Standard basis: 6-31G(d) (6D, 7F)
 Ernie: Thresh=  0.10000D-02 Tol=  0.10000D-05 Strict=F.
 There are   341 symmetry adapted basis functions of A   symmetry.
 Integral buffers will be    131072 words long.
 Raffenetti 2 integral format.
 Two-electron integral symmetry is turned on.
   341 basis functions,   640 primitive gaussians,   341 cartesian basis functions
    74 alpha electrons       74 beta electrons
       nuclear repulsion energy      1582.3668071278 Hartrees.
 IExCor=  402 DFT=T Ex+Corr=B3LYP ExCW=0 ScaHFX=  0.200000
 ScaDFX=  0.800000  0.720000  1.000000  0.810000 ScalE2=  1.000000  1.000000
 IRadAn=      0 IRanWt=     -1 IRanGd=            0 ICorTp=0
 NAtoms=   34 NActive=   34 NUniq=   34 SFac= 7.50D-01 NAtFMM=   80 NAOKFM=F Big=F
 Leave Link  301 at Tue Sep 28 15:18:15 2021, MaxMem= 1342177280 cpu:       0.1
 (Enter /sw/target/amd/app/gaussian/Gaussian09RevA.02_gcc-4.9.2/g09/l302.exe)
 NPDir=0 NMtPBC=     1 NCelOv=     1 NCel=       1 NClECP=     1 NCelD=      1
         NCelK=      1 NCelE2=     1 NClLst=     1 CellRange=     0.0.
 One-electron integrals computed using PRISM.
 NBasis=   341 RedAO= T  NBF=   341
 NBsUse=   341 1.00D-06 NBFU=   341
 Precomputing XC quadrature grid using
 IXCGrd= 2 IRadAn=           0 IRanWt=          -1 IRanGd=           0 AccXCQ= 1.00D-10.
 NRdTot=    2173 NPtTot=      276756 NUsed=      292422 NTot=      292454
 NSgBfM=   338   338   338   338   338 NAtAll=    34    34.
 Leave Link  302 at Tue Sep 28 15:18:18 2021, MaxMem= 1342177280 cpu:       3.2
 (Enter /sw/target/amd/app/gaussian/Gaussian09RevA.02_gcc-4.9.2/g09/l303.exe)
 DipDrv:  MaxL=1.
 Leave Link  303 at Tue Sep 28 15:18:18 2021, MaxMem= 1342177280 cpu:       0.3
 (Enter /sw/target/amd/app/gaussian/Gaussian09RevA.02_gcc-4.9.2/g09/l401.exe)
 Harris functional with IExCor=  402 diagonalized for initial guess.
 ExpMin= 1.61D-01 ExpMax= 5.48D+03 ExpMxC= 8.25D+02 IAcc=1 IRadAn=         1 AccDes= 0.00D+00
 HarFok:  IExCor=  402 AccDes= 0.00D+00 IRadAn=         1 IDoV= 1
 ScaDFX=  1.000000  1.000000  1.000000  1.000000
 FoFCou: FMM=F IPFlag=           0 FMFlag=      100000 FMFlg1=           0
         NFxFlg=           0 DoJE=T BraDBF=F KetDBF=T FulRan=T
         Omega=  0.000000  0.000000  1.000000  0.000000  0.000000 ICntrl=     500 IOpCl=  0
         NMat0=    1 NMatS0=    1 NMatT0=    0 NMatD0=    1 NMtDS0=    0 NMtDT0=    0
         I1Cent=           4 NGrid=           0.
 Petite list used in FoFCou.
 Harris En= -969.430227464948    
 Initial guess orbital symmetries:
       Occupied  (A) (A) (A) (A) (A) (A) (A) (A) (A) (A) (A) (A)
                 (A) (A) (A) (A) (A) (A) (A) (A) (A) (A) (A) (A)
                 (A) (A) (A) (A) (A) (A) (A) (A) (A) (A) (A) (A)
                 (A) (A) (A) (A) (A) (A) (A) (A) (A) (A) (A) (A)
                 (A) (A) (A) (A) (A) (A) (A) (A) (A) (A) (A) (A)
                 (A) (A) (A) (A) (A) (A) (A) (A) (A) (A) (A) (A)
                 (A) (A)
       Virtual   (A) (A) (A) (A) (A) (A) (A) (A) (A) (A) (A) (A)
                 (A) (A) (A) (A) (A) (A) (A) (A) (A) (A) (A) (A)
                 (A) (A) (A) (A) (A) (A) (A) (A) (A) (A) (A) (A)
                 (A) (A) (A) (A) (A) (A) (A) (A) (A) (A) (A) (A)
                 (A) (A) (A) (A) (A) (A) (A) (A) (A) (A) (A) (A)
                 (A) (A) (A) (A) (A) (A) (A) (A) (A) (A) (A) (A)
                 (A) (A) (A) (A) (A) (A) (A) (A) (A) (A) (A) (A)
                 (A) (A) (A) (A) (A) (A) (A) (A) (A) (A) (A) (A)
                 (A) (A) (A) (A) (A) (A) (A) (A) (A) (A) (A) (A)
                 (A) (A) (A) (A) (A) (A) (A) (A) (A) (A) (A) (A)
                 (A) (A) (A) (A) (A) (A) (A) (A) (A) (A) (A) (A)
                 (A) (A) (A) (A) (A) (A) (A) (A) (A) (A) (A) (A)
                 (A) (A) (A) (A) (A) (A) (A) (A) (A) (A) (A) (A)
                 (A) (A) (A) (A) (A) (A) (A) (A) (A) (A) (A) (A)
                 (A) (A) (A) (A) (A) (A) (A) (A) (A) (A) (A) (A)
                 (A) (A) (A) (A) (A) (A) (A) (A) (A) (A) (A) (A)
                 (A) (A) (A) (A) (A) (A) (A) (A) (A) (A) (A) (A)
                 (A) (A) (A) (A) (A) (A) (A) (A) (A) (A) (A) (A)
                 (A) (A) (A) (A) (A) (A) (A) (A) (A) (A) (A) (A)
                 (A) (A) (A) (A) (A) (A) (A) (A) (A) (A) (A) (A)
                 (A) (A) (A) (A) (A) (A) (A) (A) (A) (A) (A) (A)
                 (A) (A) (A) (A) (A) (A) (A) (A) (A) (A) (A) (A)
                 (A) (A) (A)
 The electronic state of the initial guess is 1-A.
 Leave Link  401 at Tue Sep 28 15:18:30 2021, MaxMem= 1342177280 cpu:      14.2
 (Enter /sw/target/amd/app/gaussian/Gaussian09RevA.02_gcc-4.9.2/g09/l502.exe)
 Closed shell SCF:
 Requested convergence on RMS density matrix=1.00D-08 within  64 cycles.
 Requested convergence on MAX density matrix=1.00D-06.
 Requested convergence on             energy=1.00D-06.
 No special actions if energy rises.
 Using DIIS extrapolation, IDIIS=  1040.
 Integral symmetry usage will be decided dynamically.
       292103 words used for storage of precomputed grid.
 IEnd=      651095 IEndB=      651095 NGot=  1342177280 MDV=  1341647032
 LenX=  1341647032 LenY=  1341530310
 Fock matrices will be formed incrementally for  20 cycles.
 Integral accuracy reduced to 1.0D-05 until final iterations.

 Cycle   1  Pass 0  IDiag  1:
 FoFCou: FMM=F IPFlag=           0 FMFlag=      100000 FMFlg1=           0
         NFxFlg=           0 DoJE=F BraDBF=F KetDBF=F FulRan=T
         Omega=  0.000000  0.000000  1.000000  0.000000  0.000000 ICntrl=       0 IOpCl=  0
         NMat0=    1 NMatS0=    1 NMatT0=    0 NMatD0=    1 NMtDS0=    0 NMtDT0=    0
         I1Cent=           0 NGrid=           0.
 Symmetry not used in FoFCou.
 E= -968.905260419627    
 DIIS: error= 2.30D-02 at cycle   1 NSaved=   1.
 NSaved= 1 IEnMin= 1 EnMin= -968.905260419627     IErMin= 1 ErrMin= 2.30D-02
 ErrMax= 2.30D-02 EMaxC= 1.00D-01 BMatC= 4.71D-01 BMatP= 4.71D-01
 IDIUse=3 WtCom= 7.70D-01 WtEn= 2.30D-01
 Coeff-Com:  0.100D+01
 Coeff-En:   0.100D+01
 Coeff:      0.100D+01
 Gap=     0.180 Goal=   None    Shift=    0.000
 GapD=    0.180 DampG=1.000 DampE=0.500 DampFc=0.5000 IDamp=-1.
 Damping current iteration by 5.00D-01
 RMSDP=4.40D-03 MaxDP=1.53D-01              OVMax= 1.85D-01

 Cycle   2  Pass 0  IDiag  1:
 RMSU=  1.52D-03    CP:  9.76D-01
 E= -969.090228725529     Delta-E=       -0.184968305902 Rises=F Damp=T
 DIIS: error= 5.83D-03 at cycle   2 NSaved=   2.
 NSaved= 2 IEnMin= 2 EnMin= -969.090228725529     IErMin= 2 ErrMin= 5.83D-03
 ErrMax= 5.83D-03 EMaxC= 1.00D-01 BMatC= 3.63D-02 BMatP= 4.71D-01
 IDIUse=3 WtCom= 9.42D-01 WtEn= 5.83D-02
 Coeff-Com:  0.104D+00 0.896D+00
 Coeff-En:   0.170D+00 0.830D+00
 Coeff:      0.107D+00 0.893D+00
 Gap=     0.181 Goal=   None    Shift=    0.000
 RMSDP=1.42D-03 MaxDP=4.93D-02 DE=-1.85D-01 OVMax= 1.77D-01

 Cycle   3  Pass 0  IDiag  1:
 RMSU=  9.86D-04    CP:  9.63D-01  9.46D-01
 E= -969.326510161449     Delta-E=       -0.236281435920 Rises=F Damp=F
 DIIS: error= 4.81D-03 at cycle   3 NSaved=   3.
 NSaved= 3 IEnMin= 3 EnMin= -969.326510161449     IErMin= 3 ErrMin= 4.81D-03
 ErrMax= 4.81D-03 EMaxC= 1.00D-01 BMatC= 2.65D-02 BMatP= 3.63D-02
 IDIUse=3 WtCom= 9.52D-01 WtEn= 4.81D-02
 Coeff-Com:  0.390D-02 0.453D+00 0.543D+00
 Coeff-En:   0.000D+00 0.000D+00 0.100D+01
 Coeff:      0.372D-02 0.431D+00 0.565D+00
 Gap=     0.165 Goal=   None    Shift=    0.000
 RMSDP=7.92D-04 MaxDP=3.16D-02 DE=-2.36D-01 OVMax= 7.82D-02

 Cycle   4  Pass 0  IDiag  1:
 RMSU=  3.84D-04    CP:  9.66D-01  9.96D-01  5.96D-01
 E= -969.345556616881     Delta-E=       -0.019046455432 Rises=F Damp=F
 DIIS: error= 2.96D-03 at cycle   4 NSaved=   4.
 NSaved= 4 IEnMin= 4 EnMin= -969.345556616881     IErMin= 4 ErrMin= 2.96D-03
 ErrMax= 2.96D-03 EMaxC= 1.00D-01 BMatC= 7.96D-03 BMatP= 2.65D-02
 IDIUse=3 WtCom= 9.70D-01 WtEn= 2.96D-02
 Coeff-Com: -0.931D-02 0.143D+00 0.365D+00 0.502D+00
 Coeff-En:   0.000D+00 0.000D+00 0.263D+00 0.737D+00
 Coeff:     -0.904D-02 0.138D+00 0.362D+00 0.509D+00
 Gap=     0.160 Goal=   None    Shift=    0.000
 RMSDP=3.44D-04 MaxDP=1.42D-02 DE=-1.90D-02 OVMax= 3.74D-02

 Cycle   5  Pass 0  IDiag  1:
 RMSU=  1.02D-04    CP:  9.66D-01  9.71D-01  7.17D-01  5.26D-01
 E= -969.353332571637     Delta-E=       -0.007775954756 Rises=F Damp=F
 DIIS: error= 7.94D-04 at cycle   5 NSaved=   5.
 NSaved= 5 IEnMin= 5 EnMin= -969.353332571637     IErMin= 5 ErrMin= 7.94D-04
 ErrMax= 7.94D-04 EMaxC= 1.00D-01 BMatC= 6.84D-04 BMatP= 7.96D-03
 IDIUse=3 WtCom= 9.92D-01 WtEn= 7.94D-03
 Coeff-Com: -0.422D-02 0.254D-01 0.140D+00 0.294D+00 0.546D+00
 Coeff-En:   0.000D+00 0.000D+00 0.000D+00 0.340D-01 0.966D+00
 Coeff:     -0.419D-02 0.251D-01 0.139D+00 0.291D+00 0.549D+00
 Gap=     0.160 Goal=   None    Shift=    0.000
 RMSDP=8.43D-05 MaxDP=2.98D-03 DE=-7.78D-03 OVMax= 7.43D-03

 Cycle   6  Pass 0  IDiag  1:
 RMSU=  3.24D-05    CP:  9.66D-01  9.81D-01  7.03D-01  5.87D-01  6.13D-01
 E= -969.353973358915     Delta-E=       -0.000640787278 Rises=F Damp=F
 DIIS: error= 1.34D-04 at cycle   6 NSaved=   6.
 NSaved= 6 IEnMin= 6 EnMin= -969.353973358915     IErMin= 6 ErrMin= 1.34D-04
 ErrMax= 1.34D-04 EMaxC= 1.00D-01 BMatC= 3.01D-05 BMatP= 6.84D-04
 IDIUse=3 WtCom= 9.99D-01 WtEn= 1.34D-03
 Coeff-Com: -0.133D-02 0.275D-02 0.408D-01 0.101D+00 0.263D+00 0.595D+00
 Coeff-En:   0.000D+00 0.000D+00 0.000D+00 0.000D+00 0.000D+00 0.100D+01
 Coeff:     -0.133D-02 0.275D-02 0.407D-01 0.101D+00 0.262D+00 0.595D+00
 Gap=     0.160 Goal=   None    Shift=    0.000
 RMSDP=1.90D-05 MaxDP=8.26D-04 DE=-6.41D-04 OVMax= 1.39D-03

 Cycle   7  Pass 0  IDiag  1:
 RMSU=  8.71D-06    CP:  9.66D-01  9.80D-01  7.08D-01  5.88D-01  6.45D-01
                    CP:  7.43D-01
 E= -969.353997264529     Delta-E=       -0.000023905613 Rises=F Damp=F
 DIIS: error= 6.01D-05 at cycle   7 NSaved=   7.
 NSaved= 7 IEnMin= 7 EnMin= -969.353997264529     IErMin= 7 ErrMin= 6.01D-05
 ErrMax= 6.01D-05 EMaxC= 1.00D-01 BMatC= 3.75D-06 BMatP= 3.01D-05
 IDIUse=1 WtCom= 1.00D+00 WtEn= 0.00D+00
 Coeff-Com: -0.493D-03-0.350D-04 0.147D-01 0.395D-01 0.120D+00 0.348D+00
 Coeff-Com:  0.478D+00
 Coeff:     -0.493D-03-0.350D-04 0.147D-01 0.395D-01 0.120D+00 0.348D+00
 Coeff:      0.478D+00
 Gap=     0.160 Goal=   None    Shift=    0.000
 RMSDP=6.68D-06 MaxDP=2.79D-04 DE=-2.39D-05 OVMax= 6.10D-04

 Initial convergence to 1.0D-05 achieved.  Increase integral accuracy.
 Cycle   8  Pass 1  IDiag  1:
 E= -969.353990404330     Delta-E=        0.000006860198 Rises=F Damp=F
 DIIS: error= 2.54D-05 at cycle   1 NSaved=   1.
 NSaved= 1 IEnMin= 1 EnMin= -969.353990404330     IErMin= 1 ErrMin= 2.54D-05
 ErrMax= 2.54D-05 EMaxC= 1.00D-01 BMatC= 5.76D-07 BMatP= 5.76D-07
 IDIUse=1 WtCom= 1.00D+00 WtEn= 0.00D+00
 Coeff-Com:  0.100D+01
 Coeff:      0.100D+01
 Gap=     0.160 Goal=   None    Shift=    0.000
 RMSDP=6.68D-06 MaxDP=2.79D-04 DE= 6.86D-06 OVMax= 6.95D-04

 Cycle   9  Pass 1  IDiag  1:
 RMSU=  1.43D-05    CP:  1.00D+00
 E= -969.353989757289     Delta-E=        0.000000647041 Rises=F Damp=F
 DIIS: error= 3.98D-05 at cycle   2 NSaved=   2.
 NSaved= 2 IEnMin= 1 EnMin= -969.353990404330     IErMin= 1 ErrMin= 2.54D-05
 ErrMax= 3.98D-05 EMaxC= 1.00D-01 BMatC= 1.25D-06 BMatP= 5.76D-07
 IDIUse=1 WtCom= 1.00D+00 WtEn= 0.00D+00
 Coeff-Com:  0.611D+00 0.389D+00
 Coeff:      0.611D+00 0.389D+00
 Gap=     0.160 Goal=   None    Shift=    0.000
 RMSDP=4.13D-06 MaxDP=1.77D-04 DE= 6.47D-07 OVMax= 5.71D-04

 Cycle  10  Pass 1  IDiag  1:
 RMSU=  2.85D-06    CP:  1.00D+00  9.56D-01
 E= -969.353990931485     Delta-E=       -0.000001174196 Rises=F Damp=F
 DIIS: error= 1.12D-05 at cycle   3 NSaved=   3.
 NSaved= 3 IEnMin= 3 EnMin= -969.353990931485     IErMin= 3 ErrMin= 1.12D-05
 ErrMax= 1.12D-05 EMaxC= 1.00D-01 BMatC= 6.35D-08 BMatP= 5.76D-07
 IDIUse=1 WtCom= 1.00D+00 WtEn= 0.00D+00
 Coeff-Com:  0.583D-01 0.187D+00 0.755D+00
 Coeff:      0.583D-01 0.187D+00 0.755D+00
 Gap=     0.160 Goal=   None    Shift=    0.000
 RMSDP=1.12D-06 MaxDP=3.83D-05 DE=-1.17D-06 OVMax= 1.69D-04

 Cycle  11  Pass 1  IDiag  1:
 RMSU=  4.95D-07    CP:  1.00D+00  9.73D-01  7.99D-01
 E= -969.353990986266     Delta-E=       -0.000000054780 Rises=F Damp=F
 DIIS: error= 4.65D-06 at cycle   4 NSaved=   4.
 NSaved= 4 IEnMin= 4 EnMin= -969.353990986266     IErMin= 4 ErrMin= 4.65D-06
 ErrMax= 4.65D-06 EMaxC= 1.00D-01 BMatC= 1.38D-08 BMatP= 6.35D-08
 IDIUse=1 WtCom= 1.00D+00 WtEn= 0.00D+00
 Coeff-Com: -0.378D-02 0.890D-01 0.468D+00 0.447D+00
 Coeff:     -0.378D-02 0.890D-01 0.468D+00 0.447D+00
 Gap=     0.160 Goal=   None    Shift=    0.000
 RMSDP=4.26D-07 MaxDP=1.56D-05 DE=-5.48D-08 OVMax= 5.26D-05

 Cycle  12  Pass 1  IDiag  1:
 RMSU=  1.32D-07    CP:  1.00D+00  9.73D-01  8.37D-01  4.97D-01
 E= -969.353990999830     Delta-E=       -0.000000013564 Rises=F Damp=F
 DIIS: error= 8.03D-07 at cycle   5 NSaved=   5.
 NSaved= 5 IEnMin= 5 EnMin= -969.353990999830     IErMin= 5 ErrMin= 8.03D-07
 ErrMax= 8.03D-07 EMaxC= 1.00D-01 BMatC= 7.97D-10 BMatP= 1.38D-08
 IDIUse=1 WtCom= 1.00D+00 WtEn= 0.00D+00
 Coeff-Com: -0.530D-02 0.446D-01 0.248D+00 0.275D+00 0.438D+00
 Coeff:     -0.530D-02 0.446D-01 0.248D+00 0.275D+00 0.438D+00
 Gap=     0.160 Goal=   None    Shift=    0.000
 RMSDP=9.56D-08 MaxDP=3.42D-06 DE=-1.36D-08 OVMax= 1.03D-05

 Cycle  13  Pass 1  IDiag  1:
 RMSU=  4.10D-08    CP:  1.00D+00  9.74D-01  8.31D-01  5.21D-01  6.22D-01
 E= -969.353991000603     Delta-E=       -0.000000000773 Rises=F Damp=F
 DIIS: error= 1.28D-07 at cycle   6 NSaved=   6.
 NSaved= 6 IEnMin= 6 EnMin= -969.353991000603     IErMin= 6 ErrMin= 1.28D-07
 ErrMax= 1.28D-07 EMaxC= 1.00D-01 BMatC= 2.62D-11 BMatP= 7.97D-10
 IDIUse=1 WtCom= 1.00D+00 WtEn= 0.00D+00
 Coeff-Com: -0.224D-02 0.135D-01 0.792D-01 0.934D-01 0.208D+00 0.608D+00
 Coeff:     -0.224D-02 0.135D-01 0.792D-01 0.934D-01 0.208D+00 0.608D+00
 Gap=     0.160 Goal=   None    Shift=    0.000
 RMSDP=1.78D-08 MaxDP=1.01D-06 DE=-7.73D-10 OVMax= 1.06D-06

 Cycle  14  Pass 1  IDiag  1:
 RMSU=  1.07D-08    CP:  1.00D+00  9.74D-01  8.32D-01  5.20D-01  6.59D-01
                    CP:  8.95D-01
 E= -969.353991000631     Delta-E=       -0.000000000028 Rises=F Damp=F
 DIIS: error= 7.09D-08 at cycle   7 NSaved=   7.
 NSaved= 7 IEnMin= 7 EnMin= -969.353991000631     IErMin= 7 ErrMin= 7.09D-08
 ErrMax= 7.09D-08 EMaxC= 1.00D-01 BMatC= 3.67D-12 BMatP= 2.62D-11
 IDIUse=1 WtCom= 1.00D+00 WtEn= 0.00D+00
 Coeff-Com: -0.563D-03 0.216D-02 0.149D-01 0.184D-01 0.622D-01 0.319D+00
 Coeff-Com:  0.584D+00
 Coeff:     -0.563D-03 0.216D-02 0.149D-01 0.184D-01 0.622D-01 0.319D+00
 Coeff:      0.584D+00
 Gap=     0.160 Goal=   None    Shift=    0.000
 RMSDP=7.10D-09 MaxDP=3.17D-07 DE=-2.82D-11 OVMax= 4.75D-07

 SCF Done:  E(RB3LYP) =  -969.353991001     A.U. after   14 cycles
             Convg  =    0.7095D-08             -V/T =  2.0092
 KE= 9.604943741539D+02 PE=-5.420808014028D+03 EE= 1.908592841746D+03
 Leave Link  502 at Tue Sep 28 15:35:24 2021, MaxMem= 1342177280 cpu:     663.2
 (Enter /sw/target/amd/app/gaussian/Gaussian09RevA.02_gcc-4.9.2/g09/l508.exe)
 QCSCF skips out because SCF is already converged.
 Leave Link  508 at Tue Sep 28 15:35:25 2021, MaxMem= 1342177280 cpu:       0.0
 (Enter /sw/target/amd/app/gaussian/Gaussian09RevA.02_gcc-4.9.2/g09/l601.exe)
 Copying SCF densities to generalized density rwf, IOpCl= 0 IROHF=0.

 **********************************************************************

            Population analysis using the SCF density.

 **********************************************************************

 Orbital symmetries:
       Occupied  (A) (A) (A) (A) (A) (A) (A) (A) (A) (A) (A) (A)
                 (A) (A) (A) (A) (A) (A) (A) (A) (A) (A) (A) (A)
                 (A) (A) (A) (A) (A) (A) (A) (A) (A) (A) (A) (A)
                 (A) (A) (A) (A) (A) (A) (A) (A) (A) (A) (A) (A)
                 (A) (A) (A) (A) (A) (A) (A) (A) (A) (A) (A) (A)
                 (A) (A) (A) (A) (A) (A) (A) (A) (A) (A) (A) (A)
                 (A) (A)
       Virtual   (A) (A) (A) (A) (A) (A) (A) (A) (A) (A) (A) (A)
                 (A) (A) (A) (A) (A) (A) (A) (A) (A) (A) (A) (A)
                 (A) (A) (A) (A) (A) (A) (A) (A) (A) (A) (A) (A)
                 (A) (A) (A) (A) (A) (A) (A) (A) (A) (A) (A) (A)
                 (A) (A) (A) (A) (A) (A) (A) (A) (A) (A) (A) (A)
                 (A) (A) (A) (A) (A) (A) (A) (A) (A) (A) (A) (A)
                 (A) (A) (A) (A) (A) (A) (A) (A) (A) (A) (A) (A)
                 (A) (A) (A) (A) (A) (A) (A) (A) (A) (A) (A) (A)
                 (A) (A) (A) (A) (A) (A) (A) (A) (A) (A) (A) (A)
                 (A) (A) (A) (A) (A) (A) (A) (A) (A) (A) (A) (A)
                 (A) (A) (A) (A) (A) (A) (A) (A) (A) (A) (A) (A)
                 (A) (A) (A) (A) (A) (A) (A) (A) (A) (A) (A) (A)
                 (A) (A) (A) (A) (A) (A) (A) (A) (A) (A) (A) (A)
                 (A) (A) (A) (A) (A) (A) (A) (A) (A) (A) (A) (A)
                 (A) (A) (A) (A) (A) (A) (A) (A) (A) (A) (A) (A)
                 (A) (A) (A) (A) (A) (A) (A) (A) (A) (A) (A) (A)
                 (A) (A) (A) (A) (A) (A) (A) (A) (A) (A) (A) (A)
                 (A) (A) (A) (A) (A) (A) (A) (A) (A) (A) (A) (A)
                 (A) (A) (A) (A) (A) (A) (A) (A) (A) (A) (A) (A)
                 (A) (A) (A) (A) (A) (A) (A) (A) (A) (A) (A) (A)
                 (A) (A) (A) (A) (A) (A) (A) (A) (A) (A) (A) (A)
                 (A) (A) (A) (A) (A) (A) (A) (A) (A) (A) (A) (A)
                 (A) (A) (A)
 The electronic state is 1-A.
 Alpha  occ. eigenvalues --  -19.21146 -19.20304 -19.19989 -14.35019 -14.34651
 Alpha  occ. eigenvalues --  -14.34481 -10.34077 -10.33590 -10.33311 -10.25870
 Alpha  occ. eigenvalues --  -10.24204 -10.23887 -10.20076 -10.19910 -10.19747
 Alpha  occ. eigenvalues --  -10.19720 -10.19595 -10.19434 -10.19419 -10.19364
 Alpha  occ. eigenvalues --  -10.19249  -1.11358  -1.09593  -1.08748  -1.01273
 Alpha  occ. eigenvalues --   -0.91511  -0.91162  -0.88099  -0.82489  -0.77868
 Alpha  occ. eigenvalues --   -0.75821  -0.73719  -0.72771  -0.71719  -0.68279
 Alpha  occ. eigenvalues --   -0.64781  -0.63199  -0.61552  -0.60599  -0.58953
 Alpha  occ. eigenvalues --   -0.56741  -0.52968  -0.52307  -0.51377  -0.50810
 Alpha  occ. eigenvalues --   -0.50446  -0.47758  -0.46751  -0.46325  -0.45177
 Alpha  occ. eigenvalues --   -0.44385  -0.44262  -0.43630  -0.42175  -0.41945
 Alpha  occ. eigenvalues --   -0.41215  -0.40067  -0.39715  -0.38878  -0.37973
 Alpha  occ. eigenvalues --   -0.37328  -0.36200  -0.35852  -0.34937  -0.34464
 Alpha  occ. eigenvalues --   -0.33205  -0.31025  -0.29271  -0.29067  -0.28507
 Alpha  occ. eigenvalues --   -0.28188  -0.27909  -0.24320  -0.20959
 Alpha virt. eigenvalues --   -0.04953  -0.03332  -0.02469  -0.00232   0.02753
 Alpha virt. eigenvalues --    0.08410   0.09525   0.10260   0.11005   0.11444
 Alpha virt. eigenvalues --    0.12246   0.12695   0.13095   0.13649   0.15064
 Alpha virt. eigenvalues --    0.15519   0.15953   0.16197   0.16997   0.17345
 Alpha virt. eigenvalues --    0.17564   0.18010   0.19481   0.20630   0.21977
 Alpha virt. eigenvalues --    0.23758   0.24634   0.25952   0.27976   0.28764
 Alpha virt. eigenvalues --    0.29313   0.29744   0.30882   0.31786   0.33890
 Alpha virt. eigenvalues --    0.34510   0.37524   0.39765   0.41720   0.46770
 Alpha virt. eigenvalues --    0.47790   0.48598   0.49005   0.50813   0.50984
 Alpha virt. eigenvalues --    0.51707   0.52426   0.53180   0.53433   0.53698
 Alpha virt. eigenvalues --    0.54218   0.54424   0.54878   0.55483   0.56151
 Alpha virt. eigenvalues --    0.56694   0.57774   0.58208   0.58691   0.59031
 Alpha virt. eigenvalues --    0.60267   0.60564   0.61014   0.61445   0.61658
 Alpha virt. eigenvalues --    0.61941   0.62176   0.63087   0.63612   0.65031
 Alpha virt. eigenvalues --    0.65375   0.66949   0.67032   0.68092   0.68762
 Alpha virt. eigenvalues --    0.69304   0.70975   0.74457   0.77304   0.78296
 Alpha virt. eigenvalues --    0.79603   0.81946   0.82082   0.82587   0.83298
 Alpha virt. eigenvalues --    0.83447   0.83964   0.84361   0.84662   0.85316
 Alpha virt. eigenvalues --    0.85819   0.86159   0.87010   0.88658   0.89306
 Alpha virt. eigenvalues --    0.89943   0.91662   0.92157   0.93090   0.93601
 Alpha virt. eigenvalues --    0.94632   0.95025   0.95838   0.96884   0.97459
 Alpha virt. eigenvalues --    0.98759   1.01362   1.02179   1.03389   1.03801
 Alpha virt. eigenvalues --    1.05300   1.06008   1.07129   1.07793   1.09265
 Alpha virt. eigenvalues --    1.10847   1.12842   1.13799   1.15058   1.18124
 Alpha virt. eigenvalues --    1.19198   1.20343   1.22166   1.24542   1.25371
 Alpha virt. eigenvalues --    1.27031   1.28232   1.30939   1.31987   1.32816
 Alpha virt. eigenvalues --    1.35390   1.37779   1.37871   1.39233   1.40265
 Alpha virt. eigenvalues --    1.42407   1.44238   1.45632   1.45750   1.46827
 Alpha virt. eigenvalues --    1.47634   1.48261   1.48930   1.49229   1.49780
 Alpha virt. eigenvalues --    1.50046   1.50531   1.50807   1.51512   1.53747
 Alpha virt. eigenvalues --    1.54353   1.58531   1.59763   1.65609   1.69297
 Alpha virt. eigenvalues --    1.71957   1.74581   1.75952   1.78263   1.79095
 Alpha virt. eigenvalues --    1.80027   1.80993   1.82829   1.84002   1.84945
 Alpha virt. eigenvalues --    1.86067   1.87009   1.88611   1.90325   1.91642
 Alpha virt. eigenvalues --    1.94110   1.94609   1.95055   1.96781   1.97328
 Alpha virt. eigenvalues --    1.97488   1.98476   2.00123   2.01127   2.02821
 Alpha virt. eigenvalues --    2.03668   2.04876   2.07071   2.07347   2.08466
 Alpha virt. eigenvalues --    2.10695   2.11828   2.13578   2.14805   2.17625
 Alpha virt. eigenvalues --    2.18465   2.19132   2.20377   2.21270   2.22773
 Alpha virt. eigenvalues --    2.25324   2.26967   2.27266   2.28558   2.29081
 Alpha virt. eigenvalues --    2.30994   2.32712   2.32944   2.34261   2.36350
 Alpha virt. eigenvalues --    2.36943   2.40630   2.41968   2.43124   2.43632
 Alpha virt. eigenvalues --    2.46436   2.48937   2.50084   2.51956   2.54452
 Alpha virt. eigenvalues --    2.55624   2.59566   2.60731   2.61954   2.62098
 Alpha virt. eigenvalues --    2.63185   2.65434   2.66700   2.67290   2.69585
 Alpha virt. eigenvalues --    2.71702   2.74731   2.75521   2.76768   2.78290
 Alpha virt. eigenvalues --    2.79873   2.81689   2.85042   2.87066   2.88548
 Alpha virt. eigenvalues --    2.89998   2.91556   2.98999   3.04511   3.09827
 Alpha virt. eigenvalues --    3.19153   3.23148   3.30708   3.38926   3.46550
 Alpha virt. eigenvalues --    3.49859   4.01364   4.06478   4.08592   4.09262
 Alpha virt. eigenvalues --    4.10097   4.11411   4.11897   4.14548   4.16453
 Alpha virt. eigenvalues --    4.22218   4.26035   4.28362   4.29838   4.33419
 Alpha virt. eigenvalues --    4.37282   4.42003   4.52543   4.56276   4.66192
 Alpha virt. eigenvalues --    4.76279   4.87005
          Condensed to atoms (all electrons):
              1          2          3          4          5          6
     1  C    4.903895   0.224435  -0.031205  -0.006963   0.000548  -0.000012
     2  O    0.224435   8.187249   0.307954  -0.082733   0.001175  -0.000013
     3  C   -0.031205   0.307954   4.306048   0.391475  -0.040829   0.001281
     4  N   -0.006963  -0.082733   0.391475   7.025757   0.407188  -0.077164
     5  C    0.000548   0.001175  -0.040829   0.407188   4.350791   0.283274
     6  O   -0.000012  -0.000013   0.001281  -0.077164   0.283274   8.284542
     7  C   -0.000015   0.000007   0.000619  -0.003150  -0.019710   0.217101
     8  C    0.000003   0.000000  -0.000015  -0.000029  -0.000395  -0.048446
     9  C    0.000000   0.000000   0.000000  -0.000018  -0.000038   0.003124
    10  C   -0.000002  -0.000000   0.000000   0.000050   0.000056   0.000330
    11  C   -0.000139   0.000002   0.000005  -0.001193  -0.000067   0.003428
    12  C   -0.000343   0.000042  -0.000409  -0.003506  -0.003124  -0.044678
    13  C   -0.000091  -0.000000  -0.000002  -0.000050  -0.000023  -0.000059
    14  C   -0.000001   0.000000  -0.000000  -0.000000   0.000000   0.000000
    15  C    0.000000   0.000000  -0.000000  -0.000000  -0.000000  -0.000000
    16  C    0.000000  -0.000000  -0.000000   0.000000   0.000000   0.000001
    17  N    0.000083  -0.000203  -0.032395  -0.076403   0.452363  -0.079207
    18  C   -0.000070   0.001214  -0.042230  -0.030512  -0.044363   0.002058
    19  N    0.004576  -0.080992   0.466956  -0.075667  -0.032436  -0.000180
    20  O    0.000001  -0.000011   0.001672  -0.000202   0.001175  -0.000006
    21  C    0.000000  -0.000017   0.000615   0.000090  -0.000101   0.000000
    22  H    0.374058  -0.029980   0.004069   0.000990  -0.000005  -0.000000
    23  H    0.375541  -0.030933  -0.008384   0.006024  -0.000094  -0.000004
    24  H    0.371298  -0.030946  -0.007323   0.005364  -0.000080   0.000001
    25  H    0.000000   0.000000  -0.000000   0.000012   0.000122  -0.000996
    26  H   -0.000000  -0.000000  -0.000000  -0.000000  -0.000001  -0.000057
    27  H   -0.000090  -0.000049   0.000088   0.003386   0.005133  -0.006516
    28  H   -0.000019  -0.000000  -0.000002  -0.000024  -0.000004   0.000000
    29  H    0.000000   0.000000   0.000000   0.000000  -0.000000  -0.000000
    30  H    0.000000  -0.000000  -0.000000  -0.000000  -0.000000   0.000000
    31  H   -0.000000   0.000000   0.000000  -0.000000  -0.000000   0.000000
    32  H    0.000000  -0.000000  -0.000004   0.000001   0.000002  -0.000000
    33  H   -0.000000   0.000001   0.000006  -0.000008   0.000051   0.000000
    34  H   -0.000000  -0.000001   0.000026  -0.000013   0.000049   0.000000
              7          8          9         10         11         12
     1  C   -0.000015   0.000003   0.000000  -0.000002  -0.000139  -0.000343
     2  O    0.000007   0.000000   0.000000  -0.000000   0.000002   0.000042
     3  C    0.000619  -0.000015   0.000000   0.000000   0.000005  -0.000409
     4  N   -0.003150  -0.000029  -0.000018   0.000050  -0.001193  -0.003506
     5  C   -0.019710  -0.000395  -0.000038   0.000056  -0.000067  -0.003124
     6  O    0.217101  -0.048446   0.003124   0.000330   0.003428  -0.044678
     7  C    4.563829   0.506539  -0.002552  -0.034269   0.019919   0.451778
     8  C    0.506539   5.024105   0.479645  -0.008739  -0.035555  -0.059620
     9  C   -0.002552   0.479645   5.151933   0.444166  -0.024462  -0.078152
    10  C   -0.034269  -0.008739   0.444166   4.680517   0.488173  -0.037323
    11  C    0.019919  -0.035555  -0.024462   0.488173   4.692237   0.394157
    12  C    0.451778  -0.059620  -0.078152  -0.037323   0.394157   5.334608
    13  C    0.007511  -0.000353   0.016719  -0.028493   0.442667  -0.092046
    14  C   -0.000300   0.000055  -0.000725  -0.039605  -0.002223   0.008238
    15  C    0.000057  -0.000352   0.008528  -0.002826  -0.040248  -0.000684
    16  C   -0.000745   0.008857  -0.102679   0.441215  -0.025254   0.018596
    17  N    0.001286  -0.000216   0.000002   0.000000  -0.000021  -0.000072
    18  C    0.000041   0.000003  -0.000000  -0.000000  -0.000001   0.000097
    19  N    0.000054  -0.000000  -0.000000   0.000000  -0.000001  -0.000046
    20  O   -0.000000  -0.000000   0.000000  -0.000000   0.000000   0.000000
    21  C    0.000000   0.000000  -0.000000  -0.000000   0.000000  -0.000000
    22  H   -0.000000  -0.000000  -0.000000   0.000000   0.000001   0.000007
    23  H    0.000049   0.000002  -0.000001  -0.000000   0.000000   0.000066
    24  H   -0.000054  -0.000004  -0.000004   0.000009   0.000383   0.001264
    25  H   -0.035409   0.347265  -0.035317   0.002992   0.000528   0.006235
    26  H    0.003455  -0.040942   0.355703  -0.038533   0.004618   0.000405
    27  H   -0.041974   0.005151   0.000377   0.004788  -0.035788   0.343077
    28  H    0.000256   0.000013  -0.000187   0.004727  -0.041647  -0.009251
    29  H    0.000003  -0.000001   0.000010   0.001046   0.002838  -0.000204
    30  H   -0.000000   0.000003  -0.000193   0.002751   0.001020   0.000010
    31  H    0.000012   0.000194  -0.008188  -0.041186   0.004500  -0.000205
    32  H   -0.000000  -0.000000   0.000000  -0.000000   0.000000   0.000000
    33  H    0.000000   0.000000  -0.000000  -0.000000   0.000000   0.000000
    34  H    0.000000  -0.000000  -0.000000   0.000000  -0.000000  -0.000000
             13         14         15         16         17         18
     1  C   -0.000091  -0.000001   0.000000   0.000000   0.000083  -0.000070
     2  O   -0.000000   0.000000   0.000000  -0.000000  -0.000203   0.001214
     3  C   -0.000002  -0.000000  -0.000000  -0.000000  -0.032395  -0.042230
     4  N   -0.000050  -0.000000  -0.000000   0.000000  -0.076403  -0.030512
     5  C   -0.000023   0.000000  -0.000000   0.000000   0.452363  -0.044363
     6  O   -0.000059   0.000000  -0.000000   0.000001  -0.079207   0.002058
     7  C    0.007511  -0.000300   0.000057  -0.000745   0.001286   0.000041
     8  C   -0.000353   0.000055  -0.000352   0.008857  -0.000216   0.000003
     9  C    0.016719  -0.000725   0.008528  -0.102679   0.000002  -0.000000
    10  C   -0.028493  -0.039605  -0.002826   0.441215   0.000000  -0.000000
    11  C    0.442667  -0.002223  -0.040248  -0.025254  -0.000021  -0.000001
    12  C   -0.092046   0.008238  -0.000684   0.018596  -0.000072   0.000097
    13  C    5.130634   0.513761  -0.020945  -0.077160  -0.000000   0.000000
    14  C    0.513761   4.889516   0.507171  -0.018138   0.000000  -0.000000
    15  C   -0.020945   0.507171   4.898292   0.508094  -0.000000   0.000000
    16  C   -0.077160  -0.018138   0.508094   5.138953   0.000000  -0.000000
    17  N   -0.000000   0.000000  -0.000000   0.000000   6.907012   0.443818
    18  C    0.000000  -0.000000   0.000000  -0.000000   0.443818   4.337124
    19  N   -0.000000   0.000000  -0.000000   0.000000  -0.072904   0.383475
    20  O   -0.000000  -0.000000   0.000000  -0.000000  -0.078716   0.312531
    21  C   -0.000000  -0.000000   0.000000  -0.000000   0.004605  -0.031531
    22  H   -0.000000  -0.000000  -0.000000   0.000000   0.000001   0.000003
    23  H   -0.000003   0.000000   0.000000   0.000000  -0.000009   0.000044
    24  H    0.000616  -0.000002  -0.000000  -0.000002  -0.000021   0.000050
    25  H    0.000009  -0.000000   0.000003  -0.000165  -0.000008   0.000000
    26  H   -0.000195   0.000012   0.000181  -0.008319  -0.000000   0.000000
    27  H   -0.009059   0.000202   0.000014  -0.000192  -0.000299   0.000102
    28  H    0.354388  -0.044792   0.004653   0.000535  -0.000000   0.000000
    29  H   -0.036699   0.356858  -0.041819   0.004380   0.000000   0.000000
    30  H    0.004426  -0.042163   0.357523  -0.036481  -0.000000  -0.000000
    31  H    0.000608   0.004599  -0.044767   0.354885  -0.000000   0.000000
    32  H   -0.000000  -0.000000   0.000000  -0.000000  -0.000009   0.004180
    33  H   -0.000000  -0.000000   0.000000  -0.000000  -0.000158  -0.008122
    34  H    0.000000   0.000000  -0.000000   0.000000  -0.000099  -0.007690
             19         20         21         22         23         24
     1  C    0.004576   0.000001   0.000000   0.374058   0.375541   0.371298
     2  O   -0.080992  -0.000011  -0.000017  -0.029980  -0.030933  -0.030946
     3  C    0.466956   0.001672   0.000615   0.004069  -0.008384  -0.007323
     4  N   -0.075667  -0.000202   0.000090   0.000990   0.006024   0.005364
     5  C   -0.032436   0.001175  -0.000101  -0.000005  -0.000094  -0.000080
     6  O   -0.000180  -0.000006   0.000000  -0.000000  -0.000004   0.000001
     7  C    0.000054  -0.000000   0.000000  -0.000000   0.000049  -0.000054
     8  C   -0.000000  -0.000000   0.000000  -0.000000   0.000002  -0.000004
     9  C   -0.000000   0.000000  -0.000000  -0.000000  -0.000001  -0.000004
    10  C    0.000000  -0.000000  -0.000000   0.000000  -0.000000   0.000009
    11  C   -0.000001   0.000000   0.000000   0.000001   0.000000   0.000383
    12  C   -0.000046   0.000000  -0.000000   0.000007   0.000066   0.001264
    13  C   -0.000000  -0.000000  -0.000000  -0.000000  -0.000003   0.000616
    14  C    0.000000  -0.000000  -0.000000  -0.000000   0.000000  -0.000002
    15  C   -0.000000   0.000000   0.000000  -0.000000   0.000000  -0.000000
    16  C    0.000000  -0.000000  -0.000000   0.000000   0.000000  -0.000002
    17  N   -0.072904  -0.078716   0.004605   0.000001  -0.000009  -0.000021
    18  C    0.383475   0.312531  -0.031531   0.000003   0.000044   0.000050
    19  N    6.978476  -0.079994  -0.008540  -0.000011  -0.000181  -0.000070
    20  O   -0.079994   8.171240   0.226974  -0.000000   0.000000   0.000000
    21  C   -0.008540   0.226974   4.897605  -0.000000  -0.000000  -0.000000
    22  H   -0.000011  -0.000000  -0.000000   0.553037  -0.034012  -0.033974
    23  H   -0.000181   0.000000  -0.000000  -0.034012   0.555324  -0.035022
    24  H   -0.000070   0.000000  -0.000000  -0.033974  -0.035022   0.558400
    25  H   -0.000000  -0.000000   0.000000  -0.000000   0.000000  -0.000000
    26  H   -0.000000  -0.000000   0.000000  -0.000000   0.000000   0.000000
    27  H   -0.000049  -0.000000   0.000000  -0.000001  -0.000002   0.000715
    28  H   -0.000000   0.000000   0.000000  -0.000001  -0.000001   0.000335
    29  H   -0.000000  -0.000000   0.000000   0.000000   0.000000  -0.000001
    30  H   -0.000000   0.000000   0.000000  -0.000000  -0.000000  -0.000000
    31  H   -0.000000  -0.000000   0.000000  -0.000000   0.000000   0.000000
    32  H    0.000990  -0.030348   0.374608  -0.000000  -0.000000  -0.000000
    33  H    0.007073  -0.031066   0.374133   0.000000   0.000000  -0.000000
    34  H    0.006860  -0.031549   0.373827  -0.000000  -0.000000   0.000000
             25         26         27         28         29         30
     1  C    0.000000  -0.000000  -0.000090  -0.000019   0.000000   0.000000
     2  O    0.000000  -0.000000  -0.000049  -0.000000   0.000000  -0.000000
     3  C   -0.000000  -0.000000   0.000088  -0.000002   0.000000  -0.000000
     4  N    0.000012  -0.000000   0.003386  -0.000024   0.000000  -0.000000
     5  C    0.000122  -0.000001   0.005133  -0.000004  -0.000000  -0.000000
     6  O   -0.000996  -0.000057  -0.006516   0.000000  -0.000000   0.000000
     7  C   -0.035409   0.003455  -0.041974   0.000256   0.000003  -0.000000
     8  C    0.347265  -0.040942   0.005151   0.000013  -0.000001   0.000003
     9  C   -0.035317   0.355703   0.000377  -0.000187   0.000010  -0.000193
    10  C    0.002992  -0.038533   0.004788   0.004727   0.001046   0.002751
    11  C    0.000528   0.004618  -0.035788  -0.041647   0.002838   0.001020
    12  C    0.006235   0.000405   0.343077  -0.009251  -0.000204   0.000010
    13  C    0.000009  -0.000195  -0.009059   0.354388  -0.036699   0.004426
    14  C   -0.000000   0.000012   0.000202  -0.044792   0.356858  -0.042163
    15  C    0.000003   0.000181   0.000014   0.004653  -0.041819   0.357523
    16  C   -0.000165  -0.008319  -0.000192   0.000535   0.004380  -0.036481
    17  N   -0.000008  -0.000000  -0.000299  -0.000000   0.000000  -0.000000
    18  C    0.000000   0.000000   0.000102   0.000000   0.000000  -0.000000
    19  N   -0.000000  -0.000000  -0.000049  -0.000000  -0.000000  -0.000000
    20  O   -0.000000  -0.000000  -0.000000   0.000000  -0.000000   0.000000
    21  C    0.000000   0.000000   0.000000   0.000000   0.000000   0.000000
    22  H   -0.000000  -0.000000  -0.000001  -0.000001   0.000000  -0.000000
    23  H    0.000000   0.000000  -0.000002  -0.000001   0.000000  -0.000000
    24  H   -0.000000   0.000000   0.000715   0.000335  -0.000001  -0.000000
    25  H    0.573344  -0.005463  -0.000168  -0.000000   0.000000  -0.000000
    26  H   -0.005463   0.585100   0.000017   0.000003  -0.000000  -0.000010
    27  H   -0.000168   0.000017   0.588096   0.006463  -0.000013   0.000000
    28  H   -0.000000   0.000003   0.006463   0.600692  -0.005299  -0.000198
    29  H    0.000000  -0.000000  -0.000013  -0.005299   0.593072  -0.005231
    30  H   -0.000000  -0.000010   0.000000  -0.000198  -0.005231   0.593171
    31  H   -0.000010   0.005980   0.000003   0.000020  -0.000195  -0.005231
    32  H   -0.000000   0.000000  -0.000000   0.000000   0.000000   0.000000
    33  H    0.000000   0.000000   0.000000   0.000000  -0.000000   0.000000
    34  H    0.000000   0.000000  -0.000000  -0.000000   0.000000  -0.000000
             31         32         33         34
     1  C   -0.000000   0.000000  -0.000000  -0.000000
     2  O    0.000000  -0.000000   0.000001  -0.000001
     3  C    0.000000  -0.000004   0.000006   0.000026
     4  N   -0.000000   0.000001  -0.000008  -0.000013
     5  C   -0.000000   0.000002   0.000051   0.000049
     6  O    0.000000  -0.000000   0.000000   0.000000
     7  C    0.000012  -0.000000   0.000000   0.000000
     8  C    0.000194  -0.000000   0.000000  -0.000000
     9  C   -0.008188   0.000000  -0.000000  -0.000000
    10  C   -0.041186  -0.000000  -0.000000   0.000000
    11  C    0.004500   0.000000   0.000000  -0.000000
    12  C   -0.000205   0.000000   0.000000  -0.000000
    13  C    0.000608  -0.000000  -0.000000   0.000000
    14  C    0.004599  -0.000000  -0.000000   0.000000
    15  C   -0.044767   0.000000   0.000000  -0.000000
    16  C    0.354885  -0.000000  -0.000000   0.000000
    17  N   -0.000000  -0.000009  -0.000158  -0.000099
    18  C    0.000000   0.004180  -0.008122  -0.007690
    19  N   -0.000000   0.000990   0.007073   0.006860
    20  O   -0.000000  -0.030348  -0.031066  -0.031549
    21  C    0.000000   0.374608   0.374133   0.373827
    22  H   -0.000000  -0.000000   0.000000  -0.000000
    23  H    0.000000  -0.000000   0.000000  -0.000000
    24  H    0.000000  -0.000000  -0.000000   0.000000
    25  H   -0.000010  -0.000000   0.000000   0.000000
    26  H    0.005980   0.000000   0.000000   0.000000
    27  H    0.000003  -0.000000   0.000000  -0.000000
    28  H    0.000020   0.000000   0.000000  -0.000000
    29  H   -0.000195   0.000000  -0.000000   0.000000
    30  H   -0.005231   0.000000   0.000000  -0.000000
    31  H    0.597369  -0.000000  -0.000000   0.000000
    32  H   -0.000000   0.553215  -0.034182  -0.034190
    33  H   -0.000000  -0.034182   0.557667  -0.035461
    34  H    0.000000  -0.034190  -0.035461   0.560417
 Mulliken atomic charges:
              1
     1  C   -0.215488
     2  O   -0.466202
     3  C    0.681984
     4  N   -0.482701
     5  C    0.639342
     6  O   -0.537802
     7  C    0.365662
     8  C   -0.177168
     9  C   -0.207693
    10  C    0.160155
    11  C    0.152125
    12  C   -0.228914
    13  C   -0.206161
    14  C   -0.132465
    15  C   -0.132874
    16  C   -0.206381
    17  N   -0.468430
    18  C    0.679780
    19  N   -0.497390
    20  O   -0.461700
    21  C   -0.212269
    22  H    0.165817
    23  H    0.171596
    24  H    0.169067
    25  H    0.147028
    26  H    0.138049
    27  H    0.136589
    28  H    0.129341
    29  H    0.131255
    30  H    0.130604
    31  H    0.131613
    32  H    0.165738
    33  H    0.170067
    34  H    0.167826
 Sum of Mulliken atomic charges =  -0.00000
 Mulliken charges with hydrogens summed into heavy atoms:
              1
     1  C    0.290992
     2  O   -0.466202
     3  C    0.681984
     4  N   -0.482701
     5  C    0.639342
     6  O   -0.537802
     7  C    0.365662
     8  C   -0.030140
     9  C   -0.069644
    10  C    0.160155
    11  C    0.152125
    12  C   -0.092325
    13  C   -0.076820
    14  C   -0.001211
    15  C   -0.002270
    16  C   -0.074768
    17  N   -0.468430
    18  C    0.679780
    19  N   -0.497390
    20  O   -0.461700
    21  C    0.291362
 Sum of Mulliken charges with hydrogens summed into heavy atoms =  -0.00000
 Electronic spatial extent (au):  <R**2>=           7351.5064
 Charge=             -0.0000 electrons
 Dipole moment (field-independent basis, Debye):
    X=             -1.4026    Y=              2.3655    Z=              0.5502  Tot=              2.8046
 Quadrupole moment (field-independent basis, Debye-Ang):
   XX=           -104.4711   YY=           -119.9058   ZZ=           -116.1584
   XY=              3.0128   XZ=             -3.4603   YZ=             -5.7543
 Traceless Quadrupole moment (field-independent basis, Debye-Ang):
   XX=              9.0407   YY=             -6.3940   ZZ=             -2.6467
   XY=              3.0128   XZ=             -3.4603   YZ=             -5.7543
 Octapole moment (field-independent basis, Debye-Ang**2):
  XXX=             62.5923  YYY=             19.5628  ZZZ=              7.2834  XYY=            -26.6154
  XXY=             13.7933  XXZ=             -7.9620  XZZ=             25.4831  YZZ=              8.6340
  YYZ=             14.2016  XYZ=              6.6190
 Hexadecapole moment (field-independent basis, Debye-Ang**3):
 XXXX=          -6597.8376 YYYY=          -1490.6787 ZZZZ=           -608.4176 XXXY=             17.1983
 XXXZ=           -189.2879 YYYX=              9.1608 YYYZ=             -7.1296 ZZZX=            -28.8662
[...]
    82    O    6  py     Val( 2p)     1.72385
    83    O    6  py     Ryd( 3p)     0.00193
    84    O    6  pz     Val( 2p)     1.79088
    85    O    6  pz     Ryd( 3p)     0.00247
    86    O    6  dxy    Ryd( 3d)     0.00140
    87    O    6  dxz    Ryd( 3d)     0.00036
    88    O    6  dyz    Ryd( 3d)     0.00183
    89    O    6  dx2y2  Ryd( 3d)     0.00140
    90    O    6  dz2    Ryd( 3d)     0.00088

    91    C    7  S      Cor( 1S)     1.99870
    92    C    7  S      Val( 2S)     0.84926
    93    C    7  S      Ryd( 3S)     0.00152
    94    C    7  S      Ryd( 4S)     0.00012
    95    C    7  px     Val( 2p)     0.78241
    96    C    7  px     Ryd( 3p)     0.00670
    97    C    7  py     Val( 2p)     0.92526
    98    C    7  py     Ryd( 3p)     0.00478
    99    C    7  pz     Val( 2p)     1.05340
   100    C    7  pz     Ryd( 3p)     0.00419
   101    C    7  dxy    Ryd( 3d)     0.00143
   102    C    7  dxz    Ryd( 3d)     0.00139
   103    C    7  dyz    Ryd( 3d)     0.00087
   104    C    7  dx2y2  Ryd( 3d)     0.00122
   105    C    7  dz2    Ryd( 3d)     0.00131

   106    C    8  S      Cor( 1S)     1.99900
   107    C    8  S      Val( 2S)     0.95800
   108    C    8  S      Ryd( 3S)     0.00082
   109    C    8  S      Ryd( 4S)     0.00005
   110    C    8  px     Val( 2p)     1.13712
   111    C    8  px     Ryd( 3p)     0.00457
   112    C    8  py     Val( 2p)     1.07931
   113    C    8  py     Ryd( 3p)     0.00390
   114    C    8  pz     Val( 2p)     1.13120
   115    C    8  pz     Ryd( 3p)     0.00428
   116    C    8  dxy    Ryd( 3d)     0.00050
   117    C    8  dxz    Ryd( 3d)     0.00077
   118    C    8  dyz    Ryd( 3d)     0.00045
   119    C    8  dx2y2  Ryd( 3d)     0.00061
   120    C    8  dz2    Ryd( 3d)     0.00052

   121    C    9  S      Cor( 1S)     1.99907
   122    C    9  S      Val( 2S)     0.94738
   123    C    9  S      Ryd( 3S)     0.00064
   124    C    9  S      Ryd( 4S)     0.00005
   125    C    9  px     Val( 2p)     1.05796
   126    C    9  px     Ryd( 3p)     0.00415
   127    C    9  py     Val( 2p)     1.06213
   128    C    9  py     Ryd( 3p)     0.00362
   129    C    9  pz     Val( 2p)     1.12895
   130    C    9  pz     Ryd( 3p)     0.00436
   131    C    9  dxy    Ryd( 3d)     0.00066
   132    C    9  dxz    Ryd( 3d)     0.00065
   133    C    9  dyz    Ryd( 3d)     0.00060
   134    C    9  dx2y2  Ryd( 3d)     0.00052
   135    C    9  dz2    Ryd( 3d)     0.00053

   136    C   10  S      Cor( 1S)     1.99903
   137    C   10  S      Val( 2S)     0.87408
   138    C   10  S      Ryd( 3S)     0.00047
   139    C   10  S      Ryd( 4S)     0.00006
   140    C   10  px     Val( 2p)     1.08562
   141    C   10  px     Ryd( 3p)     0.00442
   142    C   10  py     Val( 2p)     1.01818
   143    C   10  py     Ryd( 3p)     0.00228
   144    C   10  pz     Val( 2p)     1.06387
   145    C   10  pz     Ryd( 3p)     0.00453
   146    C   10  dxy    Ryd( 3d)     0.00076
   147    C   10  dxz    Ryd( 3d)     0.00065
   148    C   10  dyz    Ryd( 3d)     0.00060
   149    C   10  dx2y2  Ryd( 3d)     0.00055
   150    C   10  dz2    Ryd( 3d)     0.00068

   151    C   11  S      Cor( 1S)     1.99903
   152    C   11  S      Val( 2S)     0.87288
   153    C   11  S      Ryd( 3S)     0.00049
   154    C   11  S      Ryd( 4S)     0.00007
   155    C   11  px     Val( 2p)     1.07574
   156    C   11  px     Ryd( 3p)     0.00457
   157    C   11  py     Val( 2p)     1.02066
   158    C   11  py     Ryd( 3p)     0.00237
   159    C   11  pz     Val( 2p)     1.06861
   160    C   11  pz     Ryd( 3p)     0.00459
   161    C   11  dxy    Ryd( 3d)     0.00076
   162    C   11  dxz    Ryd( 3d)     0.00065
   163    C   11  dyz    Ryd( 3d)     0.00058
   164    C   11  dx2y2  Ryd( 3d)     0.00057
   165    C   11  dz2    Ryd( 3d)     0.00068

   166    C   12  S      Cor( 1S)     1.99893
   167    C   12  S      Val( 2S)     0.95635
   168    C   12  S      Ryd( 3S)     0.00083
   169    C   12  S      Ryd( 4S)     0.00006
   170    C   12  px     Val( 2p)     1.05798
   171    C   12  px     Ryd( 3p)     0.00432
   172    C   12  py     Val( 2p)     1.07119
   173    C   12  py     Ryd( 3p)     0.00364
   174    C   12  pz     Val( 2p)     1.14200
   175    C   12  pz     Ryd( 3p)     0.00419
   176    C   12  dxy    Ryd( 3d)     0.00058
   177    C   12  dxz    Ryd( 3d)     0.00066
   178    C   12  dyz    Ryd( 3d)     0.00064
   179    C   12  dx2y2  Ryd( 3d)     0.00040
   180    C   12  dz2    Ryd( 3d)     0.00057

   181    C   13  S      Cor( 1S)     1.99906
   182    C   13  S      Val( 2S)     0.95222
   183    C   13  S      Ryd( 3S)     0.00064
   184    C   13  S      Ryd( 4S)     0.00004
   185    C   13  px     Val( 2p)     1.06105
   186    C   13  px     Ryd( 3p)     0.00401
   187    C   13  py     Val( 2p)     1.04695
   188    C   13  py     Ryd( 3p)     0.00337
   189    C   13  pz     Val( 2p)     1.11943
   190    C   13  pz     Ryd( 3p)     0.00426
   191    C   13  dxy    Ryd( 3d)     0.00066
   192    C   13  dxz    Ryd( 3d)     0.00067
   193    C   13  dyz    Ryd( 3d)     0.00061
   194    C   13  dx2y2  Ryd( 3d)     0.00050
   195    C   13  dz2    Ryd( 3d)     0.00052

   196    C   14  S      Cor( 1S)     1.99913
   197    C   14  S      Val( 2S)     0.96015
   198    C   14  S      Ryd( 3S)     0.00062
   199    C   14  S      Ryd( 4S)     0.00003
   200    C   14  px     Val( 2p)     1.12434
   201    C   14  px     Ryd( 3p)     0.00486
   202    C   14  py     Val( 2p)     1.06657
   203    C   14  py     Ryd( 3p)     0.00353
   204    C   14  pz     Val( 2p)     1.12746
   205    C   14  pz     Ryd( 3p)     0.00455
   206    C   14  dxy    Ryd( 3d)     0.00052
   207    C   14  dxz    Ryd( 3d)     0.00080
   208    C   14  dyz    Ryd( 3d)     0.00041
   209    C   14  dx2y2  Ryd( 3d)     0.00058
   210    C   14  dz2    Ryd( 3d)     0.00051

   211    C   15  S      Cor( 1S)     1.99911
   212    C   15  S      Val( 2S)     0.97206
   213    C   15  S      Ryd( 3S)     0.00058
   214    C   15  S      Ryd( 4S)     0.00004
   215    C   15  px     Val( 2p)     1.16241
   216    C   15  px     Ryd( 3p)     0.00464
   217    C   15  py     Val( 2p)     0.97855
   218    C   15  py     Ryd( 3p)     0.00239
   219    C   15  pz     Val( 2p)     1.03234
   220    C   15  pz     Ryd( 3p)     0.00389
   221    C   15  dxy    Ryd( 3d)     0.00064
   222    C   15  dxz    Ryd( 3d)     0.00059
   223    C   15  dyz    Ryd( 3d)     0.00058
   224    C   15  dx2y2  Ryd( 3d)     0.00058
   225    C   15  dz2    Ryd( 3d)     0.00083

   226    C   16  S      Cor( 1S)     1.99907
   227    C   16  S      Val( 2S)     0.95524
   228    C   16  S      Ryd( 3S)     0.00067
   229    C   16  S      Ryd( 4S)     0.00005
   230    C   16  px     Val( 2p)     1.05193
   231    C   16  px     Ryd( 3p)     0.00412
   232    C   16  py     Val( 2p)     1.05261
   233    C   16  py     Ryd( 3p)     0.00340
   234    C   16  pz     Val( 2p)     1.13892
   235    C   16  pz     Ryd( 3p)     0.00424
   236    C   16  dxy    Ryd( 3d)     0.00056
   237    C   16  dxz    Ryd( 3d)     0.00059
   238    C   16  dyz    Ryd( 3d)     0.00065
   239    C   16  dx2y2  Ryd( 3d)     0.00043
   240    C   16  dz2    Ryd( 3d)     0.00061

   241    N   17  S      Cor( 1S)     1.99926
   242    N   17  S      Val( 2S)     1.38927
   243    N   17  S      Ryd( 3S)     0.00079
   244    N   17  S      Ryd( 4S)     0.00002
   245    N   17  px     Val( 2p)     1.20582
   246    N   17  px     Ryd( 3p)     0.00265
   247    N   17  py     Val( 2p)     1.63760
   248    N   17  py     Ryd( 3p)     0.00323
   249    N   17  pz     Val( 2p)     1.30622
   250    N   17  pz     Ryd( 3p)     0.00121
   251    N   17  dxy    Ryd( 3d)     0.00389
   252    N   17  dxz    Ryd( 3d)     0.00028
   253    N   17  dyz    Ryd( 3d)     0.00420
   254    N   17  dx2y2  Ryd( 3d)     0.00342
   255    N   17  dz2    Ryd( 3d)     0.00244

   256    C   18  S      Cor( 1S)     1.99921
   257    C   18  S      Val( 2S)     0.74675
   258    C   18  S      Ryd( 3S)     0.00235
   259    C   18  S      Ryd( 4S)     0.00040
   260    C   18  px     Val( 2p)     0.76890
   261    C   18  px     Ryd( 3p)     0.00622
   262    C   18  py     Val( 2p)     0.83307
   263    C   18  py     Ryd( 3p)     0.01695
   264    C   18  pz     Val( 2p)     0.85132
   265    C   18  pz     Ryd( 3p)     0.00132
   266    C   18  dxy    Ryd( 3d)     0.00270
   267    C   18  dxz    Ryd( 3d)     0.00236
   268    C   18  dyz    Ryd( 3d)     0.00179
   269    C   18  dx2y2  Ryd( 3d)     0.00226
   270    C   18  dz2    Ryd( 3d)     0.00055

   271    N   19  S      Cor( 1S)     1.99926
   272    N   19  S      Val( 2S)     1.39220
   273    N   19  S      Ryd( 3S)     0.00087
   274    N   19  S      Ryd( 4S)     0.00005
   275    N   19  px     Val( 2p)     1.52622
   276    N   19  px     Ryd( 3p)     0.00294
   277    N   19  py     Val( 2p)     1.33957
   278    N   19  py     Ryd( 3p)     0.00247
   279    N   19  pz     Val( 2p)     1.33044
   280    N   19  pz     Ryd( 3p)     0.00096
   281    N   19  dxy    Ryd( 3d)     0.00344
   282    N   19  dxz    Ryd( 3d)     0.00274
   283    N   19  dyz    Ryd( 3d)     0.00144
   284    N   19  dx2y2  Ryd( 3d)     0.00360
   285    N   19  dz2    Ryd( 3d)     0.00240

   286    O   20  S      Cor( 1S)     1.99972
   287    O   20  S      Val( 2S)     1.59644
   288    O   20  S      Ryd( 3S)     0.00149
   289    O   20  S      Ryd( 4S)     0.00006
   290    O   20  px     Val( 2p)     1.37112
   291    O   20  px     Ryd( 3p)     0.00091
   292    O   20  py     Val( 2p)     1.73753
   293    O   20  py     Ryd( 3p)     0.00188
   294    O   20  pz     Val( 2p)     1.78125
   295    O   20  pz     Ryd( 3p)     0.00211
   296    O   20  dxy    Ryd( 3d)     0.00133
   297    O   20  dxz    Ryd( 3d)     0.00040
   298    O   20  dyz    Ryd( 3d)     0.00193
   299    O   20  dx2y2  Ryd( 3d)     0.00139
   300    O   20  dz2    Ryd( 3d)     0.00080

   301    C   21  S      Cor( 1S)     1.99941
   302    C   21  S      Val( 2S)     1.11073
   303    C   21  S      Ryd( 3S)     0.00147
   304    C   21  S      Ryd( 4S)     0.00003
   305    C   21  px     Val( 2p)     0.85553
   306    C   21  px     Ryd( 3p)     0.00251
   307    C   21  py     Val( 2p)     1.11254
   308    C   21  py     Ryd( 3p)     0.00313
   309    C   21  pz     Val( 2p)     1.22907
   310    C   21  pz     Ryd( 3p)     0.00033
   311    C   21  dxy    Ryd( 3d)     0.00194
   312    C   21  dxz    Ryd( 3d)     0.00085
   313    C   21  dyz    Ryd( 3d)     0.00128
   314    C   21  dx2y2  Ryd( 3d)     0.00102
   315    C   21  dz2    Ryd( 3d)     0.00119

   316    H   22  S      Val( 1S)     0.77400
   317    H   22  S      Ryd( 2S)     0.00059

   318    H   23  S      Val( 1S)     0.77712
   319    H   23  S      Ryd( 2S)     0.00141

   320    H   24  S      Val( 1S)     0.77712
   321    H   24  S      Ryd( 2S)     0.00134

   322    H   25  S      Val( 1S)     0.75292
   323    H   25  S      Ryd( 2S)     0.00084

   324    H   26  S      Val( 1S)     0.76520
   325    H   26  S      Ryd( 2S)     0.00110

   326    H   27  S      Val( 1S)     0.75067
   327    H   27  S      Ryd( 2S)     0.00140

   328    H   28  S      Val( 1S)     0.76605
   329    H   28  S      Ryd( 2S)     0.00112

   330    H   29  S      Val( 1S)     0.76297
   331    H   29  S      Ryd( 2S)     0.00078

   332    H   30  S      Val( 1S)     0.76235
   333    H   30  S      Ryd( 2S)     0.00084

   334    H   31  S      Val( 1S)     0.76509
   335    H   31  S      Ryd( 2S)     0.00114

   336    H   32  S      Val( 1S)     0.77408
   337    H   32  S      Ryd( 2S)     0.00060

   338    H   33  S      Val( 1S)     0.77767
   339    H   33  S      Ryd( 2S)     0.00135

   340    H   34  S      Val( 1S)     0.77756
   341    H   34  S      Ryd( 2S)     0.00135

 WARNING:  1 low occupancy (<1.9990e) core orbital  found on  C    7
           1 low occupancy (<1.9990e) core orbital  found on  C   12


 Summary of Natural Population Analysis:                  
                                                          
                                       Natural Population 
                Natural  -----------------------------------------------
    Atom  No    Charge         Core      Valence    Rydberg      Total
 -----------------------------------------------------------------------
      C    1   -0.32152      1.99941     4.30842    0.01369     6.32152
      O    2   -0.50033      1.99972     6.48864    0.01197     8.50033
      C    3    0.77247      1.99922     3.19259    0.03572     5.22753
      N    4   -0.63240      1.99924     5.61404    0.01912     7.63240
      C    5    0.76237      1.99916     3.20202    0.03646     5.23763
      O    6   -0.48380      1.99966     6.47198    0.01216     8.48380
      C    7    0.36743      1.99870     3.61034    0.02354     5.63257
      C    8   -0.32110      1.99900     4.30563    0.01647     6.32110
      C    9   -0.21129      1.99907     4.19642    0.01580     6.21129
      C   10   -0.05579      1.99903     4.04175    0.01501     6.05579
      C   11   -0.05225      1.99903     4.03790    0.01532     6.05225
      C   12   -0.24234      1.99893     4.22752    0.01589     6.24234
      C   13   -0.19401      1.99906     4.17965    0.01530     6.19401
      C   14   -0.29405      1.99913     4.27851    0.01641     6.29405
      C   15   -0.15923      1.99911     4.14537    0.01475     6.15923
      C   16   -0.21310      1.99907     4.19870    0.01533     6.21310
      N   17   -0.56032      1.99926     5.53891    0.02215     7.56032
      C   18    0.76387      1.99921     3.20004    0.03688     5.23613
      N   19   -0.60859      1.99926     5.58843    0.02090     7.60859
      O   20   -0.49835      1.99972     6.48635    0.01228     8.49835
      C   21   -0.32102      1.99941     4.30787    0.01374     6.32102
      H   22    0.22541      0.00000     0.77400    0.00059     0.77459
      H   23    0.22147      0.00000     0.77712    0.00141     0.77853
      H   24    0.22154      0.00000     0.77712    0.00134     0.77846
      H   25    0.24624      0.00000     0.75292    0.00084     0.75376
      H   26    0.23370      0.00000     0.76520    0.00110     0.76630
      H   27    0.24793      0.00000     0.75067    0.00140     0.75207
      H   28    0.23283      0.00000     0.76605    0.00112     0.76717
      H   29    0.23625      0.00000     0.76297    0.00078     0.76375
      H   30    0.23681      0.00000     0.76235    0.00084     0.76319
      H   31    0.23377      0.00000     0.76509    0.00114     0.76623
      H   32    0.22532      0.00000     0.77408    0.00060     0.77468
      H   33    0.22098      0.00000     0.77767    0.00135     0.77902
      H   34    0.22109      0.00000     0.77756    0.00135     0.77891
 =======================================================================
   * Total *   -0.00000     41.98340   105.60387    0.41273   148.00000

                                 Natural Population      
 --------------------------------------------------------
   Core                      41.98340 ( 99.9605% of  42)
   Valence                  105.60387 ( 99.6263% of 106)
   Natural Minimal Basis    147.58727 ( 99.7211% of 148)
   Natural Rydberg Basis      0.41273 (  0.2789% of 148)
 --------------------------------------------------------

    Atom  No          Natural Electron Configuration
 ----------------------------------------------------------------------------
      C    1      [core]2S( 1.11)2p( 3.20)3p( 0.01)3d( 0.01)
      O    2      [core]2S( 1.60)2p( 4.89)3d( 0.01)
      C    3      [core]2S( 0.74)2p( 2.45)3p( 0.02)3d( 0.01)
      N    4      [core]2S( 1.39)2p( 4.22)3d( 0.01)
      C    5      [core]2S( 0.74)2p( 2.46)3p( 0.02)3d( 0.01)
      O    6      [core]2S( 1.57)2p( 4.90)3p( 0.01)3d( 0.01)
      C    7      [core]2S( 0.85)2p( 2.76)3p( 0.02)3d( 0.01)
      C    8      [core]2S( 0.96)2p( 3.35)3p( 0.01)
      C    9      [core]2S( 0.95)2p( 3.25)3p( 0.01)
      C   10      [core]2S( 0.87)2p( 3.17)3p( 0.01)
      C   11      [core]2S( 0.87)2p( 3.17)3p( 0.01)
      C   12      [core]2S( 0.96)2p( 3.27)3p( 0.01)
      C   13      [core]2S( 0.95)2p( 3.23)3p( 0.01)
      C   14      [core]2S( 0.96)2p( 3.32)3p( 0.01)
      C   15      [core]2S( 0.97)2p( 3.17)3p( 0.01)
      C   16      [core]2S( 0.96)2p( 3.24)3p( 0.01)
      N   17      [core]2S( 1.39)2p( 4.15)3p( 0.01)3d( 0.01)
      C   18      [core]2S( 0.75)2p( 2.45)3p( 0.02)3d( 0.01)
      N   19      [core]2S( 1.39)2p( 4.20)3p( 0.01)3d( 0.01)
      O   20      [core]2S( 1.60)2p( 4.89)3d( 0.01)
      C   21      [core]2S( 1.11)2p( 3.20)3p( 0.01)3d( 0.01)
      H   22            1S( 0.77)
      H   23            1S( 0.78)
      H   24            1S( 0.78)
      H   25            1S( 0.75)
      H   26            1S( 0.77)
      H   27            1S( 0.75)
      H   28            1S( 0.77)
      H   29            1S( 0.76)
      H   30            1S( 0.76)
      H   31            1S( 0.77)
      H   32            1S( 0.77)
      H   33            1S( 0.78)
      H   34            1S( 0.78)


 NBO analysis skipped by request.
 Leave Link  607 at Wed Sep 29 04:26:04 2021, MaxMem= 1342177280 cpu:      25.1
 (Enter /sw/target/amd/app/gaussian/Gaussian09RevA.02_gcc-4.9.2/g09/l9999.exe)
 1\1\GINC-HERMITE\SP\RTD-B3LYP-FC\6-31G(d)\C15H13N3O3\JSCHLEINITZ\29-Se
 p-2021\0\\#p TD(NStates=10, Root=1) b3lyp/6-31G* volume pop=NPA densit
 y=current Geom=AllCheck Guess=Read\\COc1nc(Oc2ccc3c(c2)cccc3)nc(n1)OC_
 conf_0\\0,1\C,0,0.4916870608,-0.3131252943,1.8600075187\O,0,1.84952118
 48,-0.0736599164,2.2607253558\C,0,2.7788533609,-0.9237906479,1.8251753
 167\N,0,2.4119609393,-1.9477256709,1.051630087\C,0,3.4356163101,-2.726
 5293575,0.6817776533\O,0,3.1886550356,-3.7872503313,-0.1113976644\C,0,
 1.8751783011,-4.0981554496,-0.474905308\C,0,1.0043963349,-4.676676545,
 0.4773101482\C,0,-0.2532187715,-5.0699000317,0.0861510683\C,0,-0.69004
 07259,-4.9103549051,-1.2577107011\C,0,0.210393921,-4.3331493068,-2.211
 9593903\C,0,1.5047051363,-3.932014369,-1.784718161\C,0,-0.2217945849,-
 4.1788307962,-3.5564179874\C,0,-1.4840272834,-4.5732726328,-3.94012746
 2\C,0,-2.3742458817,-5.1432331547,-2.9974631637\C,0,-1.9840183928,-5.3
 078146919,-1.6872744179\N,0,4.7128995676,-2.5743915356,1.0018030272\C,
 0,4.9339775537,-1.5052326555,1.7787387984\N,0,4.0219300915,-0.64083091
 65,2.2282809035\O,0,6.2119420555,-1.3287558702,2.1114364727\C,0,6.5320
 143767,-0.2037877393,2.9428550318\H,0,-0.0833129432,0.4899250501,2.322
 3781422\H,0,0.1466384971,-1.2873224816,2.215709955\H,0,0.3953206399,-0
 .2783568631,0.771848555\H,0,1.3446282957,-4.8053374956,1.4993934786\H,
 0,-0.9317623207,-5.5170822403,0.8084294057\H,0,2.2056003198,-3.4989138
 46,-2.492029532\H,0,0.4627858076,-3.7419200053,-4.2794251349\H,0,-1.80
 19913385,-4.4488254244,-4.9717145465\H,0,-3.3671010257,-5.4513017585,-
 3.3135239251\H,0,-2.6639907336,-5.7466961582,-0.96076277\H,0,7.6126103
 333,-0.2553052145,3.0809749526\H,0,6.017555808,-0.2718304595,3.9049098
 324\H,0,6.2506218476,0.7331532404,2.4552700536\\Version=AM64L-G09RevA.
 02\State=1-A\HF=-969.3700176\RMSD=9.126e-09\Dipole=-1.1347367,0.450744
 2,0.0506182\Quadrupole=1.8749545,-4.1909732,2.3160188,7.3778398,3.5334
 212,0.4966969\PG=C01 [X(C15H13N3O3)]\\@


 WE HAVE LEARNED THAT NOTHING IS SIMPLE AND
 RATIONAL EXCEPT WHAT WE OURSELVES HAVE INVENTED;
 THAT GOD THINKS IN TERMS NEITHER OF EUCLID OR RIEMANN; THAT SCIENCE HAS "EXPLAINED" NOTHING;
 THAT THE MORE WE KNOW THE MORE FANTASTIC THE WORLD BECOMES
 AND THE PROFOUNDER THE SURROUNDING DARKNESS.
   --  ALDOUS HUXLEY
 Job cpu time:  0 days  6 hours  4 minutes 46.4 seconds.
 File lengths (MBytes):  RWF=    380 Int=      0 D2E=      0 Chk=     52 Scr=      1
 Normal termination of Gaussian 09 at Wed Sep 29 04:26:12 2021.
