 Entering Gaussian System, Link 0=g09
 Input=C15H21NO3_6df1_conf_0.com
 Output=C15H21NO3_6df1_conf_0.log
 Initial command:
 /sw/target/amd/app/gaussian/Gaussian09RevA.02_gcc-4.9.2/g09/l1.exe /home/jschleinitz/gaussian/Gau-3706424.inp -scrdir=/home/jschleinitz/gaussian/
 Entering Link 1 = /sw/target/amd/app/gaussian/Gaussian09RevA.02_gcc-4.9.2/g09/l1.exe PID=   3706426.
  
 Copyright (c) 1988,1990,1992,1993,1995,1998,2003,2009, Gaussian, Inc.
                  All Rights Reserved.
  
 This is part of the Gaussian(R) 09 program.  It is based on
 the Gaussian(R) 03 system (copyright 2003, Gaussian, Inc.),
 the Gaussian(R) 98 system (copyright 1998, Gaussian, Inc.),
 the Gaussian(R) 94 system (copyright 1995, Gaussian, Inc.),
 the Gaussian 92(TM) system (copyright 1992, Gaussian, Inc.),
 the Gaussian 90(TM) system (copyright 1990, Gaussian, Inc.),
 the Gaussian 88(TM) system (copyright 1988, Gaussian, Inc.),
 the Gaussian 86(TM) system (copyright 1986, Carnegie Mellon
 University), and the Gaussian 82(TM) system (copyright 1983,
 Carnegie Mellon University). Gaussian is a federally registered
 trademark of Gaussian, Inc.
  
 This software contains proprietary and confidential information,
 including trade secrets, belonging to Gaussian, Inc.
  
 This software is provided under written license and may be
 used, copied, transmitted, or stored only in accord with that
 written license.
  
 The following legend is applicable only to US Government
 contracts under FAR:
  
                    RESTRICTED RIGHTS LEGEND
  
 Use, reproduction and disclosure by the US Government is
 subject to restrictions as set forth in subparagraphs (a)
 and (c) of the Commercial Computer Software - Restricted
 Rights clause in FAR 52.227-19.
  
 Gaussian, Inc.
 340 Quinnipiac St., Bldg. 40, Wallingford CT 06492
  
  
 ---------------------------------------------------------------
 Warning -- This program may not be used in any manner that
 competes with the business of Gaussian, Inc. or will provide
 assistance to any competitor of Gaussian, Inc.  The licensee
 of this program is prohibited from giving any competitor of
 Gaussian, Inc. access to this program.  By using this program,
 the user acknowledges that Gaussian, Inc. is engaged in the
 business of creating and licensing software in the field of
 computational chemistry and represents and warrants to the
 licensee that it is not a competitor of Gaussian, Inc. and that
 it will not use this program in any manner prohibited above.
 ---------------------------------------------------------------
  

 Cite this work as:
 Gaussian 09, Revision A.02,
 M. J. Frisch, G. W. Trucks, H. B. Schlegel, G. E. Scuseria, 
 M. A. Robb, J. R. Cheeseman, G. Scalmani, V. Barone, B. Mennucci, 
 G. A. Petersson, H. Nakatsuji, M. Caricato, X. Li, H. P. Hratchian, 
 A. F. Izmaylov, J. Bloino, G. Zheng, J. L. Sonnenberg, M. Hada, 
 M. Ehara, K. Toyota, R. Fukuda, J. Hasegawa, M. Ishida, T. Nakajima, 
 Y. Honda, O. Kitao, H. Nakai, T. Vreven, J. A. Montgomery, Jr., 
 J. E. Peralta, F. Ogliaro, M. Bearpark, J. J. Heyd, E. Brothers, 
 K. N. Kudin, V. N. Staroverov, R. Kobayashi, J. Normand, 
 K. Raghavachari, A. Rendell, J. C. Burant, S. S. Iyengar, J. Tomasi, 
 M. Cossi, N. Rega, J. M. Millam, M. Klene, J. E. Knox, J. B. Cross, 
 V. Bakken, C. Adamo, J. Jaramillo, R. Gomperts, R. E. Stratmann, 
 O. Yazyev, A. J. Austin, R. Cammi, C. Pomelli, J. W. Ochterski, 
 R. L. Martin, K. Morokuma, V. G. Zakrzewski, G. A. Voth, 
 P. Salvador, J. J. Dannenberg, S. Dapprich, A. D. Daniels, 
 O. Farkas, J. B. Foresman, J. V. Ortiz, J. Cioslowski, 
 and D. J. Fox, Gaussian, Inc., Wallingford CT, 2009.
 
 ******************************************
 Gaussian 09:  AM64L-G09RevA.02 11-Jun-2009
                30-Sep-2021 
 ******************************************
 %nproc=6
 Will use up to    6 processors via shared memory.
 %mem=12gb
 %chk=C15H21NO3_6df1_conf_0.chk
 -----------------------------------
 #p opt b3lyp/6-31G* scf=(xqc,tight)
 -----------------------------------
 1/14=-1,18=20,19=15,26=3,38=1/1,3;
 2/9=110,12=2,17=6,18=5,40=1/2;
 3/5=1,6=6,7=1,11=2,16=1,25=1,30=1,71=1,74=-5/1,2,3;
 4//1;
 5/5=2,8=3,13=1,32=2,38=5/2,8;
 6/7=2,8=2,9=2,10=2,28=1/1;
 7//1,2,3,16;
 1/14=-1,18=20,19=15/3(2);
 2/9=110/2;
 99//99;
 2/9=110/2;
 3/5=1,6=6,7=1,11=2,16=1,25=1,30=1,71=1,74=-5/1,2,3;
 4/5=5,16=3/1;
 5/5=2,8=3,13=1,32=2,38=5/2,8;
 7//1,2,3,16;
 1/14=-1,18=20,19=15/3(-5);
 2/9=110/2;
 6/7=2,8=2,9=2,10=2,19=2,28=1/1;
 99/9=1/99;
 Leave Link    1 at Thu Sep 30 16:13:26 2021, MaxMem= 1610612736 cpu:       0.1
 (Enter /sw/target/amd/app/gaussian/Gaussian09RevA.02_gcc-4.9.2/g09/l101.exe)
 ---------------------------------------
 CCN(C(=O)Oc1cccc2c1OC(C2)(C)C)CC_conf_0
 ---------------------------------------
 Symbolic Z-matrix:
 Charge =  0 Multiplicity = 1
 C                     2.50123   0.11482   1.24319 
 C                     1.98115   1.44664   0.72795 
 N                     1.81281   1.47001  -0.72395 
 C                     0.58226   1.12726  -1.28028 
 O                    -0.41253   0.84779  -0.62369 
 O                     0.62198   1.16163  -2.67562 
 C                    -0.52414   1.23358  -3.49056 
 C                    -1.69644   1.87901  -3.0917 
 C                    -2.74977   2.04596  -4.00469 
 C                    -2.62641   1.60216  -5.32369 
 C                    -1.44738   0.98091  -5.70308 
 C                    -0.4172    0.7872   -4.79878 
 O                     0.67973   0.16798  -5.34068 
 C                     0.31402  -0.15147  -6.71508 
 C                    -1.04203   0.51138  -7.04643 
 C                     0.22203  -1.67567  -6.85457 
 C                     1.42995   0.38078  -7.61787 
 C                     2.96599   1.81078  -1.55572 
 C                     3.72441   0.59246  -2.05574 
 H                     2.56939   0.12954   2.33539 
 H                     3.50089  -0.0999    0.85779 
 H                     1.84079  -0.7069    0.94924 
 H                     2.65905   2.25775   1.01763 
 H                     1.01767   1.6558    1.20615 
 H                    -1.80336   2.27827  -2.08758 
 H                    -3.65981   2.5486   -3.68523 
 H                    -3.43095   1.76019  -6.03513 
 H                    -1.76669  -0.19075  -7.47031 
 H                    -0.92946   1.36325  -7.72571 
 H                    -0.55312  -2.08587  -6.19723 
 H                     1.16349  -2.15528  -6.56457 
 H                    -0.0117   -1.96688  -7.88476 
 H                     1.57644   1.45557  -7.46377 
 H                     1.21037   0.20563  -8.67585 
 H                     2.38624  -0.09839  -7.37802 
 H                     3.63108   2.46958  -0.98751 
 H                     2.62073   2.39205  -2.41877 
 H                     4.05218  -0.04725  -1.2337 
 H                     4.61439   0.90709  -2.60918 
 H                     3.10608  -0.01676  -2.7224 
 
 NAtoms=     40 NQM=     40 NQMF=      0 NMic=      0 NMicF=      0 NTot=     40.
                    Isotopes and Nuclear Properties:
 (Nuclear quadrupole moments (NQMom) in fm**2, nuclear magnetic moments (NMagM)
  in nuclear magnetons)

  Atom         1           2           3           4           5           6           7           8           9          10
 IAtWgt=          12          12          14          12          16          16          12          12          12          12
 AtmWgt=  12.0000000  12.0000000  14.0030740  12.0000000  15.9949146  15.9949146  12.0000000  12.0000000  12.0000000  12.0000000
 NucSpn=           0           0           2           0           0           0           0           0           0           0
 AtZEff=   0.0000000   0.0000000   0.0000000   0.0000000   0.0000000   0.0000000   0.0000000   0.0000000   0.0000000   0.0000000
 NQMom=    0.0000000   0.0000000   2.0440000   0.0000000   0.0000000   0.0000000   0.0000000   0.0000000   0.0000000   0.0000000
 NMagM=    0.0000000   0.0000000   0.4037610   0.0000000   0.0000000   0.0000000   0.0000000   0.0000000   0.0000000   0.0000000

  Atom        11          12          13          14          15          16          17          18          19          20
 IAtWgt=          12          12          16          12          12          12          12          12          12           1
 AtmWgt=  12.0000000  12.0000000  15.9949146  12.0000000  12.0000000  12.0000000  12.0000000  12.0000000  12.0000000   1.0078250
 NucSpn=           0           0           0           0           0           0           0           0           0           1
 AtZEff=   0.0000000   0.0000000   0.0000000   0.0000000   0.0000000   0.0000000   0.0000000   0.0000000   0.0000000   0.0000000
 NQMom=    0.0000000   0.0000000   0.0000000   0.0000000   0.0000000   0.0000000   0.0000000   0.0000000   0.0000000   0.0000000
 NMagM=    0.0000000   0.0000000   0.0000000   0.0000000   0.0000000   0.0000000   0.0000000   0.0000000   0.0000000   2.7928460

  Atom        21          22          23          24          25          26          27          28          29          30
 IAtWgt=           1           1           1           1           1           1           1           1           1           1
 AtmWgt=   1.0078250   1.0078250   1.0078250   1.0078250   1.0078250   1.0078250   1.0078250   1.0078250   1.0078250   1.0078250
 NucSpn=           1           1           1           1           1           1           1           1           1           1
 AtZEff=   0.0000000   0.0000000   0.0000000   0.0000000   0.0000000   0.0000000   0.0000000   0.0000000   0.0000000   0.0000000
 NQMom=    0.0000000   0.0000000   0.0000000   0.0000000   0.0000000   0.0000000   0.0000000   0.0000000   0.0000000   0.0000000
 NMagM=    2.7928460   2.7928460   2.7928460   2.7928460   2.7928460   2.7928460   2.7928460   2.7928460   2.7928460   2.7928460

  Atom        31          32          33          34          35          36          37          38          39          40
 IAtWgt=           1           1           1           1           1           1           1           1           1           1
 AtmWgt=   1.0078250   1.0078250   1.0078250   1.0078250   1.0078250   1.0078250   1.0078250   1.0078250   1.0078250   1.0078250
 NucSpn=           1           1           1           1           1           1           1           1           1           1
 AtZEff=   0.0000000   0.0000000   0.0000000   0.0000000   0.0000000   0.0000000   0.0000000   0.0000000   0.0000000   0.0000000
 NQMom=    0.0000000   0.0000000   0.0000000   0.0000000   0.0000000   0.0000000   0.0000000   0.0000000   0.0000000   0.0000000
 NMagM=    2.7928460   2.7928460   2.7928460   2.7928460   2.7928460   2.7928460   2.7928460   2.7928460   2.7928460   2.7928460
 Leave Link  101 at Thu Sep 30 16:13:26 2021, MaxMem= 1610612736 cpu:       0.2
 (Enter /sw/target/amd/app/gaussian/Gaussian09RevA.02_gcc-4.9.2/g09/l103.exe)

 GradGradGradGradGradGradGradGradGradGradGradGradGradGradGradGradGradGrad
 Berny optimization.
 Initialization pass.
                           ----------------------------
                           !    Initial Parameters    !
                           ! (Angstroms and Degrees)  !
 --------------------------                            --------------------------
 ! Name  Definition              Value          Derivative Info.                !
 --------------------------------------------------------------------------------
 ! R1    R(1,2)                  1.5198         estimate D2E/DX2                !
 ! R2    R(1,20)                 1.0944         estimate D2E/DX2                !
 ! R3    R(1,21)                 1.0927         estimate D2E/DX2                !
 ! R4    R(1,22)                 1.0944         estimate D2E/DX2                !
 ! R5    R(2,3)                  1.4618         estimate D2E/DX2                !
 ! R6    R(2,23)                 1.0961         estimate D2E/DX2                !
 ! R7    R(2,24)                 1.0958         estimate D2E/DX2                !
 ! R8    R(3,4)                  1.3933         estimate D2E/DX2                !
 ! R9    R(3,18)                 1.4621         estimate D2E/DX2                !
 ! R10   R(4,5)                  1.2243         estimate D2E/DX2                !
 ! R11   R(4,6)                  1.3963         estimate D2E/DX2                !
 ! R12   R(6,7)                  1.4081         estimate D2E/DX2                !
 ! R13   R(7,8)                  1.3964         estimate D2E/DX2                !
 ! R14   R(7,12)                 1.3864         estimate D2E/DX2                !
 ! R15   R(8,9)                  1.4039         estimate D2E/DX2                !
 ! R16   R(8,25)                 1.0859         estimate D2E/DX2                !
 ! R17   R(9,10)                 1.3971         estimate D2E/DX2                !
 ! R18   R(9,26)                 1.0876         estimate D2E/DX2                !
 ! R19   R(10,11)                1.3856         estimate D2E/DX2                !
 ! R20   R(10,27)                1.0855         estimate D2E/DX2                !
 ! R21   R(11,12)                1.3844         estimate D2E/DX2                !
 ! R22   R(11,15)                1.4796         estimate D2E/DX2                !
 ! R23   R(12,13)                1.3713         estimate D2E/DX2                !
 ! R24   R(13,14)                1.4577         estimate D2E/DX2                !
 ! R25   R(14,15)                1.5453         estimate D2E/DX2                !
 ! R26   R(14,16)                1.5333         estimate D2E/DX2                !
 ! R27   R(14,17)                1.5309         estimate D2E/DX2                !
 ! R28   R(15,28)                1.0944         estimate D2E/DX2                !
 ! R29   R(15,29)                1.0953         estimate D2E/DX2                !
 ! R30   R(16,30)                1.096          estimate D2E/DX2                !
 ! R31   R(16,31)                1.0957         estimate D2E/DX2                !
 ! R32   R(16,32)                1.0958         estimate D2E/DX2                !
 ! R33   R(17,33)                1.0956         estimate D2E/DX2                !
 ! R34   R(17,34)                1.0946         estimate D2E/DX2                !
 ! R35   R(17,35)                1.0962         estimate D2E/DX2                !
 ! R36   R(18,19)                1.5197         estimate D2E/DX2                !
 ! R37   R(18,36)                1.0951         estimate D2E/DX2                !
 ! R38   R(18,37)                1.0963         estimate D2E/DX2                !
 ! R39   R(19,38)                1.092          estimate D2E/DX2                !
 ! R40   R(19,39)                1.0942         estimate D2E/DX2                !
 ! R41   R(19,40)                1.0945         estimate D2E/DX2                !
 ! A1    A(2,1,20)             110.3562         estimate D2E/DX2                !
 ! A2    A(2,1,21)             111.451          estimate D2E/DX2                !
 ! A3    A(2,1,22)             111.124          estimate D2E/DX2                !
 ! A4    A(20,1,21)            107.3174         estimate D2E/DX2                !
 ! A5    A(20,1,22)            108.4043         estimate D2E/DX2                !
 ! A6    A(21,1,22)            108.0477         estimate D2E/DX2                !
 ! A7    A(1,2,3)              112.9636         estimate D2E/DX2                !
 ! A8    A(1,2,23)             110.3189         estimate D2E/DX2                !
 ! A9    A(1,2,24)             108.6761         estimate D2E/DX2                !
 ! A10   A(3,2,23)             108.7772         estimate D2E/DX2                !
 ! A11   A(3,2,24)             109.2167         estimate D2E/DX2                !
 ! A12   A(23,2,24)            106.6916         estimate D2E/DX2                !
 ! A13   A(2,3,4)              119.6275         estimate D2E/DX2                !
 ! A14   A(2,3,18)             118.5498         estimate D2E/DX2                !
 ! A15   A(4,3,18)             121.7877         estimate D2E/DX2                !
 ! A16   A(3,4,5)              124.0331         estimate D2E/DX2                !
 ! A17   A(3,4,6)              111.5819         estimate D2E/DX2                !
 ! A18   A(5,4,6)              124.379          estimate D2E/DX2                !
 ! A19   A(4,6,7)              123.8088         estimate D2E/DX2                !
 ! A20   A(6,7,8)              122.7934         estimate D2E/DX2                !
 ! A21   A(6,7,12)             117.8306         estimate D2E/DX2                !
 ! A22   A(8,7,12)             118.8873         estimate D2E/DX2                !
 ! A23   A(7,8,9)              119.9399         estimate D2E/DX2                !
 ! A24   A(7,8,25)             121.1135         estimate D2E/DX2                !
 ! A25   A(9,8,25)             118.9319         estimate D2E/DX2                !
 ! A26   A(8,9,10)             120.6599         estimate D2E/DX2                !
 ! A27   A(8,9,26)             119.4548         estimate D2E/DX2                !
 ! A28   A(10,9,26)            119.8674         estimate D2E/DX2                !
 ! A29   A(9,10,11)            118.4273         estimate D2E/DX2                !
 ! A30   A(9,10,27)            120.4676         estimate D2E/DX2                !
 ! A31   A(11,10,27)           121.0946         estimate D2E/DX2                !
 ! A32   A(10,11,12)           121.1355         estimate D2E/DX2                !
 ! A33   A(10,11,15)           128.6055         estimate D2E/DX2                !
 ! A34   A(12,11,15)           110.1685         estimate D2E/DX2                !
 ! A35   A(7,12,11)            120.9255         estimate D2E/DX2                !
 ! A36   A(7,12,13)            125.4499         estimate D2E/DX2                !
 ! A37   A(11,12,13)           113.5979         estimate D2E/DX2                !
 ! A38   A(12,13,14)           105.7166         estimate D2E/DX2                !
 ! A39   A(13,14,15)           109.1672         estimate D2E/DX2                !
 ! A40   A(13,14,16)           108.5826         estimate D2E/DX2                !
 ! A41   A(13,14,17)           107.2744         estimate D2E/DX2                !
 ! A42   A(15,14,16)           110.7467         estimate D2E/DX2                !
 ! A43   A(15,14,17)           111.3513         estimate D2E/DX2                !
 ! A44   A(16,14,17)           109.6145         estimate D2E/DX2                !
 ! A45   A(11,15,14)           100.4771         estimate D2E/DX2                !
 ! A46   A(11,15,28)           111.9514         estimate D2E/DX2                !
 ! A47   A(11,15,29)           110.1446         estimate D2E/DX2                !
 ! A48   A(14,15,28)           112.8855         estimate D2E/DX2                !
 ! A49   A(14,15,29)           112.1099         estimate D2E/DX2                !
 ! A50   A(28,15,29)           109.0746         estimate D2E/DX2                !
 ! A51   A(14,16,30)           111.0948         estimate D2E/DX2                !
 ! A52   A(14,16,31)           111.0697         estimate D2E/DX2                !
 ! A53   A(14,16,32)           111.2535         estimate D2E/DX2                !
 ! A54   A(30,16,31)           106.5672         estimate D2E/DX2                !
 ! A55   A(30,16,32)           108.2725         estimate D2E/DX2                !
 ! A56   A(31,16,32)           108.4086         estimate D2E/DX2                !
 ! A57   A(14,17,33)           110.8294         estimate D2E/DX2                !
 ! A58   A(14,17,34)           111.5989         estimate D2E/DX2                !
 ! A59   A(14,17,35)           110.7878         estimate D2E/DX2                !
 ! A60   A(33,17,34)           108.6462         estimate D2E/DX2                !
 ! A61   A(33,17,35)           106.3439         estimate D2E/DX2                !
 ! A62   A(34,17,35)           108.4538         estimate D2E/DX2                !
 ! A63   A(3,18,19)            113.1995         estimate D2E/DX2                !
 ! A64   A(3,18,36)            108.9074         estimate D2E/DX2                !
 ! A65   A(3,18,37)            108.8454         estimate D2E/DX2                !
 ! A66   A(19,18,36)           110.4822         estimate D2E/DX2                !
 ! A67   A(19,18,37)           108.8566         estimate D2E/DX2                !
 ! A68   A(36,18,37)           106.3066         estimate D2E/DX2                !
 ! A69   A(18,19,38)           111.8237         estimate D2E/DX2                !
 ! A70   A(18,19,39)           109.9863         estimate D2E/DX2                !
 ! A71   A(18,19,40)           111.3894         estimate D2E/DX2                !
 ! A72   A(38,19,39)           107.7617         estimate D2E/DX2                !
 ! A73   A(38,19,40)           107.5796         estimate D2E/DX2                !
 ! A74   A(39,19,40)           108.1479         estimate D2E/DX2                !
 ! D1    D(20,1,2,3)          -177.521          estimate D2E/DX2                !
 ! D2    D(20,1,2,23)           60.4944         estimate D2E/DX2                !
 ! D3    D(20,1,2,24)          -56.1508         estimate D2E/DX2                !
 ! D4    D(21,1,2,3)            63.3416         estimate D2E/DX2                !
 ! D5    D(21,1,2,23)          -58.643          estimate D2E/DX2                !
 ! D6    D(21,1,2,24)         -175.2882         estimate D2E/DX2                !
 ! D7    D(22,1,2,3)           -57.2324         estimate D2E/DX2                !
 ! D8    D(22,1,2,23)         -179.2169         estimate D2E/DX2                !
 ! D9    D(22,1,2,24)           64.1379         estimate D2E/DX2                !
 ! D10   D(1,2,3,4)             92.0877         estimate D2E/DX2                !
 ! D11   D(1,2,3,18)           -85.7983         estimate D2E/DX2                !
 ! D12   D(23,2,3,4)          -145.0657         estimate D2E/DX2                !
 ! D13   D(23,2,3,18)           37.0483         estimate D2E/DX2                !
 ! D14   D(24,2,3,4)           -28.9763         estimate D2E/DX2                !
 ! D15   D(24,2,3,18)          153.1377         estimate D2E/DX2                !
 ! D16   D(2,3,4,5)              2.9241         estimate D2E/DX2                !
 ! D17   D(2,3,4,6)           -177.9375         estimate D2E/DX2                !
 ! D18   D(18,3,4,5)          -179.2606         estimate D2E/DX2                !
 ! D19   D(18,3,4,6)            -0.1221         estimate D2E/DX2                !
 ! D20   D(2,3,18,19)           94.8479         estimate D2E/DX2                !
 ! D21   D(2,3,18,36)          -28.4651         estimate D2E/DX2                !
 ! D22   D(2,3,18,37)         -143.965          estimate D2E/DX2                !
 ! D23   D(4,3,18,19)          -82.9902         estimate D2E/DX2                !
 ! D24   D(4,3,18,36)          153.6968         estimate D2E/DX2                !
 ! D25   D(4,3,18,37)           38.1969         estimate D2E/DX2                !
 ! D26   D(3,4,6,7)           -161.4945         estimate D2E/DX2                !
 ! D27   D(5,4,6,7)             17.6404         estimate D2E/DX2                !
 ! D28   D(4,6,7,8)             30.907          estimate D2E/DX2                !
 ! D29   D(4,6,7,12)          -157.2115         estimate D2E/DX2                !
 ! D30   D(6,7,8,9)            172.8611         estimate D2E/DX2                !
 ! D31   D(6,7,8,25)            -5.7305         estimate D2E/DX2                !
 ! D32   D(12,7,8,9)             1.0614         estimate D2E/DX2                !
 ! D33   D(12,7,8,25)         -177.5302         estimate D2E/DX2                !
 ! D34   D(6,7,12,11)         -171.8326         estimate D2E/DX2                !
 ! D35   D(6,7,12,13)            6.1637         estimate D2E/DX2                !
 ! D36   D(8,7,12,11)            0.3749         estimate D2E/DX2                !
 ! D37   D(8,7,12,13)          178.3713         estimate D2E/DX2                !
 ! D38   D(7,8,9,10)            -1.6288         estimate D2E/DX2                !
 ! D39   D(7,8,9,26)           179.9158         estimate D2E/DX2                !
 ! D40   D(25,8,9,10)          176.9935         estimate D2E/DX2                !
 ! D41   D(25,8,9,26)           -1.462          estimate D2E/DX2                !
 ! D42   D(8,9,10,11)            0.7303         estimate D2E/DX2                !
 ! D43   D(8,9,10,27)         -178.1073         estimate D2E/DX2                !
 ! D44   D(26,9,10,11)         179.1795         estimate D2E/DX2                !
 ! D45   D(26,9,10,27)           0.3418         estimate D2E/DX2                !
 ! D46   D(9,10,11,12)           0.7198         estimate D2E/DX2                !
 ! D47   D(9,10,11,15)        -175.4649         estimate D2E/DX2                !
 ! D48   D(27,10,11,12)        179.5499         estimate D2E/DX2                !
 ! D49   D(27,10,11,15)          3.3652         estimate D2E/DX2                !
 ! D50   D(10,11,12,7)          -1.2902         estimate D2E/DX2                !
 ! D51   D(10,11,12,13)       -179.5091         estimate D2E/DX2                !
 ! D52   D(15,11,12,7)         175.5343         estimate D2E/DX2                !
 ! D53   D(15,11,12,13)         -2.6846         estimate D2E/DX2                !
 ! D54   D(10,11,15,14)       -176.2844         estimate D2E/DX2                !
 ! D55   D(10,11,15,28)        -56.2228         estimate D2E/DX2                !
 ! D56   D(10,11,15,29)         65.3209         estimate D2E/DX2                !
 ! D57   D(12,11,15,14)          7.1942         estimate D2E/DX2                !
 ! D58   D(12,11,15,28)        127.2558         estimate D2E/DX2                !
 ! D59   D(12,11,15,29)       -111.2005         estimate D2E/DX2                !
 ! D60   D(7,12,13,14)         178.2662         estimate D2E/DX2                !
 ! D61   D(11,12,13,14)         -3.6094         estimate D2E/DX2                !
 ! D62   D(12,13,14,15)          8.2395         estimate D2E/DX2                !
 ! D63   D(12,13,14,16)       -112.5921         estimate D2E/DX2                !
 ! D64   D(12,13,14,17)        129.0204         estimate D2E/DX2                !
 ! D65   D(13,14,15,11)         -9.3241         estimate D2E/DX2                !
 ! D66   D(13,14,15,28)       -128.7106         estimate D2E/DX2                !
 ! D67   D(13,14,15,29)        107.6223         estimate D2E/DX2                !
 ! D68   D(16,14,15,11)        110.1769         estimate D2E/DX2                !
 ! D69   D(16,14,15,28)         -9.2097         estimate D2E/DX2                !
 ! D70   D(16,14,15,29)       -132.8768         estimate D2E/DX2                !
 ! D71   D(17,14,15,11)       -127.5809         estimate D2E/DX2                !
 ! D72   D(17,14,15,28)        113.0326         estimate D2E/DX2                !
 ! D73   D(17,14,15,29)        -10.6345         estimate D2E/DX2                !
 ! D74   D(13,14,16,30)         61.5914         estimate D2E/DX2                !
 ! D75   D(13,14,16,31)        -56.842          estimate D2E/DX2                !
 ! D76   D(13,14,16,32)       -177.7032         estimate D2E/DX2                !
 ! D77   D(15,14,16,30)        -58.2603         estimate D2E/DX2                !
 ! D78   D(15,14,16,31)       -176.6937         estimate D2E/DX2                !
 ! D79   D(15,14,16,32)         62.4451         estimate D2E/DX2                !
 ! D80   D(17,14,16,30)        178.4886         estimate D2E/DX2                !
 ! D81   D(17,14,16,31)         60.0552         estimate D2E/DX2                !
 ! D82   D(17,14,16,32)        -60.806          estimate D2E/DX2                !
 ! D83   D(13,14,17,33)        -56.9498         estimate D2E/DX2                !
 ! D84   D(13,14,17,34)       -178.184          estimate D2E/DX2                !
 ! D85   D(13,14,17,35)         60.8557         estimate D2E/DX2                !
 ! D86   D(15,14,17,33)         62.4393         estimate D2E/DX2                !
 ! D87   D(15,14,17,34)        -58.7948         estimate D2E/DX2                !
 ! D88   D(15,14,17,35)       -179.7551         estimate D2E/DX2                !
 ! D89   D(16,14,17,33)       -174.6669         estimate D2E/DX2                !
 ! D90   D(16,14,17,34)         64.099          estimate D2E/DX2                !
 ! D91   D(16,14,17,35)        -56.8614         estimate D2E/DX2                !
 ! D92   D(3,18,19,38)         -56.2138         estimate D2E/DX2                !
 ! D93   D(3,18,19,39)        -175.9042         estimate D2E/DX2                !
 ! D94   D(3,18,19,40)          64.2014         estimate D2E/DX2                !
 ! D95   D(36,18,19,38)         66.2271         estimate D2E/DX2                !
 ! D96   D(36,18,19,39)        -53.4633         estimate D2E/DX2                !
 ! D97   D(36,18,19,40)       -173.3577         estimate D2E/DX2                !
 ! D98   D(37,18,19,38)       -177.3946         estimate D2E/DX2                !
 ! D99   D(37,18,19,39)         62.915          estimate D2E/DX2                !
 ! D100  D(37,18,19,40)        -56.9794         estimate D2E/DX2                !
 --------------------------------------------------------------------------------
 Trust Radius=3.00D-01 FncErr=1.00D-07 GrdErr=1.00D-06
 Number of steps in this run= 225 maximum allowed number of steps= 240.
 GradGradGradGradGradGradGradGradGradGradGradGradGradGradGradGradGradGrad

 Leave Link  103 at Thu Sep 30 16:13:26 2021, MaxMem= 1610612736 cpu:       0.0
 (Enter /sw/target/amd/app/gaussian/Gaussian09RevA.02_gcc-4.9.2/g09/l202.exe)
                          Input orientation:                          
 ---------------------------------------------------------------------
 Center     Atomic      Atomic             Coordinates (Angstroms)
 Number     Number       Type             X           Y           Z
 ---------------------------------------------------------------------
      1          6           0        2.501232    0.114817    1.243187
      2          6           0        1.981146    1.446641    0.727945
      3          7           0        1.812805    1.470013   -0.723952
      4          6           0        0.582261    1.127256   -1.280276
      5          8           0       -0.412528    0.847789   -0.623693
      6          8           0        0.621981    1.161629   -2.675621
      7          6           0       -0.524137    1.233582   -3.490555
      8          6           0       -1.696441    1.879009   -3.091700
      9          6           0       -2.749771    2.045956   -4.004689
     10          6           0       -2.626409    1.602156   -5.323687
     11          6           0       -1.447378    0.980906   -5.703079
     12          6           0       -0.417199    0.787202   -4.798785
     13          8           0        0.679728    0.167976   -5.340684
     14          6           0        0.314016   -0.151475   -6.715083
     15          6           0       -1.042030    0.511377   -7.046428
     16          6           0        0.222031   -1.675670   -6.854567
     17          6           0        1.429954    0.380780   -7.617868
     18          6           0        2.965992    1.810784   -1.555725
     19          6           0        3.724407    0.592456   -2.055743
     20          1           0        2.569385    0.129543    2.335386
     21          1           0        3.500887   -0.099900    0.857791
     22          1           0        1.840790   -0.706897    0.949237
     23          1           0        2.659048    2.257752    1.017626
     24          1           0        1.017670    1.655803    1.206149
     25          1           0       -1.803357    2.278271   -2.087576
     26          1           0       -3.659807    2.548596   -3.685228
     27          1           0       -3.430947    1.760189   -6.035132
     28          1           0       -1.766689   -0.190752   -7.470311
     29          1           0       -0.929461    1.363245   -7.725707
     30          1           0       -0.553120   -2.085872   -6.197226
     31          1           0        1.163492   -2.155279   -6.564569
     32          1           0       -0.011705   -1.966880   -7.884755
     33          1           0        1.576441    1.455571   -7.463771
     34          1           0        1.210366    0.205634   -8.675850
     35          1           0        2.386244   -0.098391   -7.378017
     36          1           0        3.631077    2.469582   -0.987507
     37          1           0        2.620727    2.392047   -2.418771
     38          1           0        4.052176   -0.047251   -1.233698
     39          1           0        4.614394    0.907088   -2.609178
     40          1           0        3.106080   -0.016758   -2.722403
 ---------------------------------------------------------------------
                    Distance matrix (angstroms):
                    1          2          3          4          5
     1  C    0.000000
     2  C    1.519776   0.000000
     3  N    2.485986   1.461811   0.000000
     4  C    3.327965   2.468165   1.393277   0.000000
     5  O    3.537299   2.813400   2.312860   1.224258   0.000000
     6  O    4.470398   3.675980   2.306985   1.396334   2.319292
     7  C    5.728246   4.910965   3.629228   2.474016   2.894856
     8  C    6.286817   5.319894   4.253036   3.006471   2.966969
     9  C    7.670888   6.718524   5.649074   4.401007   4.281290
    10  C    8.463375   7.607628   6.393876   5.183654   5.249790
    11  C    8.036930   7.302723   5.971577   4.868474   5.185442
    12  C    6.743498   6.060665   4.695041   3.673481   4.175534
    13  O    6.831402   6.336949   4.928831   4.173323   4.889292
    14  C    8.257657   7.793072   6.385080   5.589655   6.215419
    15  C    9.023840   8.393759   7.003055   6.022137   6.462273
    16  C    8.600827   8.386764   7.071798   6.249711   6.752356
    17  C    8.929539   8.431635   6.989927   6.437459   7.247849
    18  C    3.305483   2.513498   1.462125   2.495046   3.634616
    19  C    3.550668   3.393746   2.489577   3.280311   4.385224
    20  H    1.094422   2.159776   3.424736   4.244656   4.261904
    21  H    1.092678   2.172156   2.795739   3.820421   4.290422
    22  H    1.094442   2.169422   2.745775   3.149403   3.157308
    23  H    2.160545   1.096069   2.090395   3.297184   3.757193
    24  H    2.139384   1.095770   2.095721   2.579002   2.458998
    25  H    5.856962   4.789700   3.948339   2.769069   2.474599
    26  H    8.256571   7.246431   6.315219   5.079286   4.776042
    27  H    9.532677   8.667657   7.469256   6.254207   6.263147
    28  H    9.707398   9.161808   7.815644   6.750648   7.056097
    29  H    9.683454   8.941075   7.520372   6.624543   7.139434
    30  H    8.338576   8.176745   6.942526   5.982448   6.300033
    31  H    8.240385   8.174543   6.904865   6.247929   6.840780
    32  H    9.693691   9.476402   8.149735   7.317487   7.797824
    33  H    8.857990   8.201712   6.743978   6.271507   7.149271
    34  H   10.003093   9.516594   8.074297   7.479199   8.239137
    35  H    8.624607   8.261831   6.860416   6.476033   7.372196
    36  H    3.434745   2.590649   2.091581   3.344075   4.371878
    37  H    4.313930   3.347340   2.091721   2.655412   3.848074
    38  H    2.926885   3.220081   2.752583   3.663598   4.594212
    39  H    4.464736   4.285033   3.423428   4.251182   5.405146
    40  H    4.013609   3.913044   2.806573   3.123806   4.187198
                    6          7          8          9         10
     6  O    0.000000
     7  C    1.408147   0.000000
     8  C    2.462282   1.396409   0.000000
     9  C    3.730571   2.424403   1.403896   0.000000
    10  C    4.214066   2.813498   2.433774   1.397116   0.000000
    11  C    3.671567   2.410702   2.772710   2.390625   1.385643
    12  C    2.393306   1.386418   2.396380   2.766936   2.412526
    13  O    2.844861   2.451078   3.692118   4.131967   3.603846
    14  C    4.258678   3.608111   4.614511   4.643461   3.695579
    15  C    4.721833   3.665245   4.235392   3.810969   2.582226
    16  C    5.066933   4.509666   5.520457   5.550127   4.604492
    17  C    5.068367   4.645476   5.701336   5.770440   4.817583
    18  C    2.677678   4.032087   4.909394   6.222754   6.746556
    19  C    3.214538   4.529884   5.666923   6.915636   7.213308
    20  H    5.474283   6.688076   7.121177   8.494857   9.371567
    21  H    4.729118   6.073475   6.821053   8.204823   8.868564
    22  H    4.256346   5.391669   5.960544   7.293341   8.039725
    23  H    4.357890   5.612957   6.000024   7.384025   8.281191
    24  H    3.933055   4.961297   5.087998   6.441945   7.478031
    25  H    2.734036   2.167056   1.085867   2.150579   3.406899
    26  H    4.612667   3.405817   2.157645   1.087598   2.155970
    27  H    5.298189   3.898940   3.418541   2.160640   1.085546
    28  H    5.524828   4.405806   4.843664   4.240266   2.926027
    29  H    5.286869   4.256479   4.725282   4.198285   2.950663
    30  H    4.932426   4.283186   5.164471   5.167639   4.320087
    31  H    5.139944   4.876682   6.042807   6.286254   5.479184
    32  H    6.109353   5.460269   6.372015   6.217296   5.112120
    33  H    4.891194   4.499795   5.477779   5.570450   4.718623
    34  H    6.104332   5.563493   6.514019   6.394467   5.282813
    35  H    5.178107   5.035556   6.241068   6.508165   5.677924
    36  H    3.689869   5.005872   5.758372   7.070931   7.662312
    37  H    2.361120   3.518655   4.399316   5.610451   6.049372
    38  H    3.912388   5.260853   6.341076   7.637171   8.003253
    39  H    4.001071   5.223784   6.403444   7.581252   7.764078
    40  H    2.749824   3.915595   5.176342   6.339560   6.499923
                   11         12         13         14         15
    11  C    0.000000
    12  C    1.384391   0.000000
    13  O    2.305811   1.371257   0.000000
    14  C    2.325714   2.255658   1.457659   0.000000
    15  C    1.479645   2.349126   2.447844   1.545323   0.000000
    16  C    3.342192   3.271177   2.429066   1.533326   2.533344
    17  C    3.507935   3.394759   2.407009   1.530892   2.540533
    18  C    6.112861   4.796993   4.717174   6.123921   6.921020
    19  C    6.340450   4.971429   4.499009   5.821825   6.901625
    20  H    9.026413   7.761996   7.905335   9.331487  10.060146
    21  H    8.288455   6.937953   6.815554   8.216278   9.137200
    22  H    7.610128   6.353786   6.455739   7.834624   8.586355
    23  H    7.978781   6.742139   6.979468   8.431983   9.043051
    24  H    7.366776   6.234785   6.722265   8.155201   8.582372
    25  H    3.857686   3.390483   4.604538   5.639216   5.318999
    26  H    3.379973   3.854481   5.219143   5.679937   4.722360
    27  H    2.156870   3.399696   4.462628   4.259289   2.879093
    28  H    2.144260   3.148741   3.263274   2.213876   1.094437
    29  H    2.122603   3.026733   3.115525   2.204988   1.095341
    30  H    3.232493   3.198229   2.708027   2.182200   2.775946
    31  H    4.170667   3.778198   2.670101   2.181627   3.493933
    32  H    3.938313   4.156033   3.392343   2.184016   2.811782
    33  H    3.531122   3.394624   2.639980   2.176429   2.814617
    34  H    4.062267   4.244859   3.377326   2.185309   2.796745
    35  H    4.320527   3.911011   2.670931   2.176333   3.497832
    36  H    7.088264   5.809026   5.740906   7.118845   7.898292
    37  H    5.415485   4.179592   4.153498   5.499883   6.194184
    38  H    7.160836   5.777670   5.318558   6.635532   7.749247
    39  H    6.806082   5.488687   4.846546   6.039227   7.200063
    40  H    5.532969   4.167878   3.574452   4.873937   6.015225
                   16         17         18         19         20
    16  C    0.000000
    17  C    2.504135   0.000000
    18  C    6.911036   6.415130   0.000000
    19  C    6.359225   6.020510   1.519715   0.000000
    20  H    9.655263  10.021411   4.257300   4.564031   0.000000
    21  H    8.527275   8.738226   3.124401   3.002998   1.761711
    22  H    8.028591   8.645641   3.725538   3.777068   1.775357
    23  H    9.131390   8.922188   2.629853   3.654284   2.504756
    24  H    8.758248   8.925185   3.383478   4.370019   2.452032
    25  H    6.516138   6.681235   4.821628   5.779201   6.580311
    26  H    6.554220   6.787544   6.998597   7.810783   8.994579
    27  H    5.081421   5.294921   7.809512   8.270322  10.427299
    28  H    2.557171   3.250684   7.834969   7.751328  10.726407
    29  H    3.364494   2.558067   7.310507   7.375709  10.723317
    30  H    1.096003   3.469175   7.007968   6.528596   9.352196
    31  H    1.095661   2.758992   6.638312   5.868377   9.295490
    32  H    1.095775   2.767872   7.949468   7.381471  10.747479
    33  H    3.465577   1.095619   6.079641   5.882643   9.938197
    34  H    2.798782   1.094633   7.506991   7.091956  11.095045
    35  H    2.728668   1.096185   6.154684   5.531234   9.717802
    36  H    7.951547   7.291757   1.095091   2.161814   4.200546
    37  H    6.478916   5.700328   1.096323   2.142061   5.265317
    38  H    6.993993   6.914975   2.176188   1.091979   3.868886
    39  H    6.632256   5.958576   2.154915   1.094239   5.406972
    40  H    5.305140   5.189702   2.172711   1.094488   5.088287
                   21         22         23         24         25
    21  H    0.000000
    22  H    1.769952   0.000000
    23  H    2.508537   3.076258   0.000000
    24  H    3.061080   2.515130   1.758410   0.000000
    25  H    6.516585   5.604754   5.436521   4.381128   0.000000
    26  H    8.884205   7.895130   7.882218   6.826525   2.464138
    27  H    9.951012   9.091707   9.331506   8.499250   4.301240
    28  H    9.854587   9.174372   9.880658   9.297493   5.922100
    29  H    9.769606   9.338867   9.493335   9.146308   5.778364
    30  H    8.375699   7.661874   9.013278   8.442599   6.123567
    31  H    8.048566   7.682046   8.899506   8.656192   6.964340
    32  H    9.605000   9.113655  10.209448   9.840121   7.405310
    33  H    8.681668   8.690504   8.587760   8.690215   6.403386
    34  H    9.809696   9.688779  10.013658   9.989696   7.535497
    35  H    8.310894   8.367255   8.724256   8.867812   7.154722
    36  H    3.166119   4.128696   2.238364   3.507743   5.547957
    37  H    4.209553   4.642762   3.439234   4.031364   4.437923
    38  H    2.163565   3.176565   3.510314   4.249879   6.358021
    39  H    3.778067   4.791675   4.336055   5.296576   6.583292
    40  H    3.602856   3.944387   4.400119   4.753150   5.456440
                   26         27         28         29         30
    26  H    0.000000
    27  H    2.489179   0.000000
    28  H    5.041308   2.938651   0.000000
    29  H    5.018497   3.045167   1.783560   0.000000
    30  H    6.118818   4.806282   2.585531   3.791345   0.000000
    31  H    7.326750   6.059708   3.642210   4.255433   1.756848
    32  H    7.164789   5.385477   2.531079   3.457934   1.776244
    33  H    6.549076   5.216104   3.726518   2.521246   4.322150
    34  H    7.356247   5.561638   3.236248   2.611838   3.808472
    35  H    7.562934   6.252789   4.154985   3.640215   3.739547
    36  H    7.774377   8.709417   8.845338   8.211323   8.087079
    37  H    6.408864   7.078141   7.172052   6.467290   6.663467
    38  H    8.498419   9.072913   8.530834   8.303758   7.071163
    39  H    8.503813   8.785924   8.096548   7.557862   6.966714
    40  H    7.299679   7.540851   6.805643   6.574424   5.453933
                   31         32         33         34         35
    31  H    0.000000
    32  H    1.777491   0.000000
    33  H    3.743972   3.796394   0.000000
    34  H    3.167588   2.615168   1.779182   0.000000
    35  H    2.527372   3.081914   1.754403   1.777495   0.000000
    36  H    7.653884   8.973521   6.869625   8.372330   6.998765
    37  H    6.323713   7.470403   5.236368   6.776471   5.554402
    38  H    6.419226   8.027245   6.870339   7.970286   6.366365
    39  H    6.077165   7.582361   5.753005   6.991706   5.358868
    40  H    4.807199   6.338252   5.195009   6.251937   4.711642
                   36         37         38         39         40
    36  H    0.000000
    37  H    1.753663   0.000000
    38  H    2.563666   3.066533   0.000000
    39  H    2.457258   2.493204   1.766012   0.000000
    40  H    3.076909   2.475904   1.764163   1.772377   0.000000
 Stoichiometry    C15H21NO3
 Framework group  C1[X(C15H21NO3)]
 Deg. of freedom   114
 Full point group                 C1      NOp   1
 Largest Abelian subgroup         C1      NOp   1
 Largest concise Abelian subgroup C1      NOp   1
                         Standard orientation:                         
 ---------------------------------------------------------------------
 Center     Atomic      Atomic             Coordinates (Angstroms)
 Number     Number       Type             X           Y           Z
 ---------------------------------------------------------------------
      1          6           0        5.055744   -0.511268    1.108256
      2          6           0        4.517806    0.252370   -0.090575
      3          7           0        3.122726   -0.065411   -0.390002
      4          6           0        2.105573    0.707253    0.166425
      5          8           0        2.298699    1.691788    0.867995
      6          8           0        0.843294    0.229797   -0.191955
      7          6           0       -0.337024    0.992656   -0.103794
      8          6           0       -0.355172    2.379438   -0.266473
      9          6           0       -1.580339    3.063127   -0.316038
     10          6           0       -2.788744    2.366273   -0.238030
     11          6           0       -2.747708    0.988602   -0.095393
     12          6           0       -1.542100    0.312761   -0.016107
     13          8           0       -1.681528   -1.045335    0.112265
     14          6           0       -3.115757   -1.287821    0.206904
     15          6           0       -3.872945    0.027863   -0.082341
     16          6           0       -3.432988   -1.798232    1.617554
     17          6           0       -3.462927   -2.368187   -0.820672
     18          6           0        2.835693   -1.223733   -1.234815
     19          6           0        2.544425   -2.486357   -0.440788
     20          1           0        6.086041   -0.209484    1.320794
     21          1           0        5.063542   -1.588470    0.925170
     22          1           0        4.449685   -0.323277    1.999971
     23          1           0        5.125570    0.043914   -0.978572
     24          1           0        4.608520    1.326190    0.107906
     25          1           0        0.565975    2.943291   -0.379020
     26          1           0       -1.585234    4.143443   -0.441597
     27          1           0       -3.734395    2.894800   -0.307398
     28          1           0       -4.610835    0.272467    0.688036
     29          1           0       -4.367367    0.012694   -1.059628
     30          1           0       -3.168155   -1.052415    2.375736
     31          1           0       -2.854213   -2.699067    1.849912
     32          1           0       -4.497763   -2.033849    1.724607
     33          1           0       -3.156764   -2.061513   -1.826950
     34          1           0       -4.536074   -2.583714   -0.831813
     35          1           0       -2.924460   -3.298192   -0.604415
     36          1           0        3.678869   -1.384652   -1.914803
     37          1           0        1.969698   -0.995056   -1.867019
     38          1           0        3.360170   -2.734010    0.241594
     39          1           0        2.409361   -3.332973   -1.120759
     40          1           0        1.633810   -2.380710    0.157145
 ---------------------------------------------------------------------
 Rotational constants (GHZ):      0.6369444      0.2181608      0.1771535
 Leave Link  202 at Thu Sep 30 16:13:27 2021, MaxMem= 1610612736 cpu:       0.1
 (Enter /sw/target/amd/app/gaussian/Gaussian09RevA.02_gcc-4.9.2/g09/l301.exe)
 Standard basis: 6-31G(d) (6D, 7F)
 Ernie: Thresh=  0.10000D-02 Tol=  0.10000D-05 Strict=F.
 There are   327 symmetry adapted basis functions of A   symmetry.
 Integral buffers will be    131072 words long.
 Raffenetti 2 integral format.
 Two-electron integral symmetry is turned on.
   327 basis functions,   616 primitive gaussians,   327 cartesian basis functions
    71 alpha electrons       71 beta electrons
       nuclear repulsion energy      1485.1384051925 Hartrees.
 IExCor=  402 DFT=T Ex+Corr=B3LYP ExCW=0 ScaHFX=  0.200000
 ScaDFX=  0.800000  0.720000  1.000000  0.810000 ScalE2=  1.000000  1.000000
 IRadAn=      0 IRanWt=     -1 IRanGd=            0 ICorTp=0
 NAtoms=   40 NActive=   40 NUniq=   40 SFac= 7.50D-01 NAtFMM=   80 NAOKFM=F Big=F
 Leave Link  301 at Thu Sep 30 16:13:27 2021, MaxMem= 1610612736 cpu:       0.1
 (Enter /sw/target/amd/app/gaussian/Gaussian09RevA.02_gcc-4.9.2/g09/l302.exe)
 NPDir=0 NMtPBC=     1 NCelOv=     1 NCel=       1 NClECP=     1 NCelD=      1
         NCelK=      1 NCelE2=     1 NClLst=     1 CellRange=     0.0.
 One-electron integrals computed using PRISM.
 NBasis=   327 RedAO= T  NBF=   327
 NBsUse=   327 1.00D-06 NBFU=   327
 Precomputing XC quadrature grid using
 IXCGrd= 2 IRadAn=           0 IRanWt=          -1 IRanGd=           0 AccXCQ= 1.00D-10.
 NRdTot=    2545 NPtTot=      324256 NUsed=      342604 NTot=      342636
 NSgBfM=   324   326   326   326   326 NAtAll=    40    40.
 Leave Link  302 at Thu Sep 30 16:13:32 2021, MaxMem= 1610612736 cpu:       4.2
 (Enter /sw/target/amd/app/gaussian/Gaussian09RevA.02_gcc-4.9.2/g09/l303.exe)
 DipDrv:  MaxL=1.
 Leave Link  303 at Thu Sep 30 16:13:33 2021, MaxMem= 1610612736 cpu:       0.3
 (Enter /sw/target/amd/app/gaussian/Gaussian09RevA.02_gcc-4.9.2/g09/l401.exe)
 Harris functional with IExCor=  402 diagonalized for initial guess.
 ExpMin= 1.61D-01 ExpMax= 5.48D+03 ExpMxC= 8.25D+02 IAcc=1 IRadAn=         1 AccDes= 0.00D+00
 HarFok:  IExCor=  402 AccDes= 0.00D+00 IRadAn=         1 IDoV= 1
 ScaDFX=  1.000000  1.000000  1.000000  1.000000
 FoFCou: FMM=F IPFlag=           0 FMFlag=      100000 FMFlg1=           0
         NFxFlg=           0 DoJE=T BraDBF=F KetDBF=T FulRan=T
         Omega=  0.000000  0.000000  1.000000  0.000000  0.000000 ICntrl=     500 IOpCl=  0
         NMat0=    1 NMatS0=    1 NMatT0=    0 NMatD0=    1 NMtDS0=    0 NMtDT0=    0
         I1Cent=           4 NGrid=           0.
 Petite list used in FoFCou.
 Harris En= -864.832606418429    
 Initial guess orbital symmetries:
       Occupied  (A) (A) (A) (A) (A) (A) (A) (A) (A) (A) (A) (A)
                 (A) (A) (A) (A) (A) (A) (A) (A) (A) (A) (A) (A)
                 (A) (A) (A) (A) (A) (A) (A) (A) (A) (A) (A) (A)
                 (A) (A) (A) (A) (A) (A) (A) (A) (A) (A) (A) (A)
                 (A) (A) (A) (A) (A) (A) (A) (A) (A) (A) (A) (A)
                 (A) (A) (A) (A) (A) (A) (A) (A) (A) (A) (A)
       Virtual   (A) (A) (A) (A) (A) (A) (A) (A) (A) (A) (A) (A)
                 (A) (A) (A) (A) (A) (A) (A) (A) (A) (A) (A) (A)
                 (A) (A) (A) (A) (A) (A) (A) (A) (A) (A) (A) (A)
                 (A) (A) (A) (A) (A) (A) (A) (A) (A) (A) (A) (A)
                 (A) (A) (A) (A) (A) (A) (A) (A) (A) (A) (A) (A)
                 (A) (A) (A) (A) (A) (A) (A) (A) (A) (A) (A) (A)
                 (A) (A) (A) (A) (A) (A) (A) (A) (A) (A) (A) (A)
                 (A) (A) (A) (A) (A) (A) (A) (A) (A) (A) (A) (A)
                 (A) (A) (A) (A) (A) (A) (A) (A) (A) (A) (A) (A)
                 (A) (A) (A) (A) (A) (A) (A) (A) (A) (A) (A) (A)
                 (A) (A) (A) (A) (A) (A) (A) (A) (A) (A) (A) (A)
                 (A) (A) (A) (A) (A) (A) (A) (A) (A) (A) (A) (A)
                 (A) (A) (A) (A) (A) (A) (A) (A) (A) (A) (A) (A)
                 (A) (A) (A) (A) (A) (A) (A) (A) (A) (A) (A) (A)
                 (A) (A) (A) (A) (A) (A) (A) (A) (A) (A) (A) (A)
                 (A) (A) (A) (A) (A) (A) (A) (A) (A) (A) (A) (A)
                 (A) (A) (A) (A) (A) (A) (A) (A) (A) (A) (A) (A)
                 (A) (A) (A) (A) (A) (A) (A) (A) (A) (A) (A) (A)
                 (A) (A) (A) (A) (A) (A) (A) (A) (A) (A) (A) (A)
                 (A) (A) (A) (A) (A) (A) (A) (A) (A) (A) (A) (A)
                 (A) (A) (A) (A) (A) (A) (A) (A) (A) (A) (A) (A)
                 (A) (A) (A) (A)
 The electronic state of the initial guess is 1-A.
 Leave Link  401 at Thu Sep 30 16:13:46 2021, MaxMem= 1610612736 cpu:      16.9
 (Enter /sw/target/amd/app/gaussian/Gaussian09RevA.02_gcc-4.9.2/g09/l502.exe)
 Closed shell SCF:
 Requested convergence on RMS density matrix=1.00D-08 within  64 cycles.
 Requested convergence on MAX density matrix=1.00D-06.
 Requested convergence on             energy=1.00D-06.
 No special actions if energy rises.
 Using DIIS extrapolation, IDIIS=  1040.
 Integral symmetry usage will be decided dynamically.
       342231 words used for storage of precomputed grid.
 Keep R1 ints in memory in canonical form, NReq=1456324637.
 IEnd=      673005 IEndB=      673005 NGot=  1610612736 MDV=   172043178
 LenX=   172043178 LenY=   171935808
 Symmetry not used in FoFDir.
 MinBra= 0 MaxBra= 2 Meth= 1.
 IRaf=       0 NMat=   1 IRICut=       1 DoRegI=T DoRafI=F ISym2E= 0 JSym2E=0.
 Integral accuracy reduced to 1.0D-05 until final iterations.

 Cycle   1  Pass 0  IDiag  1:
 E= -864.098991859252    
 DIIS: error= 3.42D-02 at cycle   1 NSaved=   1.
 NSaved= 1 IEnMin= 1 EnMin= -864.098991859252     IErMin= 1 ErrMin= 3.42D-02
 ErrMax= 3.42D-02 EMaxC= 1.00D-01 BMatC= 5.93D-01 BMatP= 5.93D-01
 IDIUse=3 WtCom= 6.58D-01 WtEn= 3.42D-01
 Coeff-Com:  0.100D+01
 Coeff-En:   0.100D+01
 Coeff:      0.100D+01
 Gap=     0.235 Goal=   None    Shift=    0.000
 GapD=    0.235 DampG=1.000 DampE=0.500 DampFc=0.5000 IDamp=-1.
 Damping current iteration by 5.00D-01
 RMSDP=5.13D-03 MaxDP=2.00D-01              OVMax= 2.34D-01

 Cycle   2  Pass 0  IDiag  1:
 E= -864.309697918730     Delta-E=       -0.210706059478 Rises=F Damp=T
 DIIS: error= 1.09D-02 at cycle   2 NSaved=   2.
 NSaved= 2 IEnMin= 2 EnMin= -864.309697918730     IErMin= 2 ErrMin= 1.09D-02
 ErrMax= 1.09D-02 EMaxC= 1.00D-01 BMatC= 6.73D-02 BMatP= 5.93D-01
 IDIUse=3 WtCom= 8.91D-01 WtEn= 1.09D-01
 Coeff-Com:  0.165D+00 0.835D+00
 Coeff-En:   0.253D+00 0.747D+00
 Coeff:      0.175D+00 0.825D+00
 Gap=     0.220 Goal=   None    Shift=    0.000
 RMSDP=1.62D-03 MaxDP=7.05D-02 DE=-2.11D-01 OVMax= 1.76D-01

 Cycle   3  Pass 0  IDiag  1:
 E= -864.608025255365     Delta-E=       -0.298327336635 Rises=F Damp=F
 DIIS: error= 1.42D-02 at cycle   3 NSaved=   3.
 NSaved= 3 IEnMin= 3 EnMin= -864.608025255365     IErMin= 2 ErrMin= 1.09D-02
 ErrMax= 1.42D-02 EMaxC= 1.00D-01 BMatC= 9.00D-02 BMatP= 6.73D-02
 IDIUse=2 WtCom= 0.00D+00 WtEn= 1.00D+00
 Coeff-En:   0.000D+00 0.000D+00 0.100D+01
 Coeff:      0.000D+00 0.000D+00 0.100D+01
 Gap=     0.238 Goal=   None    Shift=    0.000
 RMSDP=2.84D-03 MaxDP=1.58D-01 DE=-2.98D-01 OVMax= 2.53D-01

 Cycle   4  Pass 0  IDiag  1:
 E= -864.224249918166     Delta-E=        0.383775337199 Rises=F Damp=F
 DIIS: error= 3.84D-02 at cycle   4 NSaved=   4.
 NSaved= 4 IEnMin= 3 EnMin= -864.608025255365     IErMin= 2 ErrMin= 1.09D-02
 ErrMax= 3.84D-02 EMaxC= 1.00D-01 BMatC= 5.65D-01 BMatP= 6.73D-02
 IDIUse=2 WtCom= 0.00D+00 WtEn= 1.00D+00
 Coeff-En:   0.000D+00 0.000D+00 0.802D+00 0.198D+00
 Coeff:      0.000D+00 0.000D+00 0.802D+00 0.198D+00
 Gap=     0.238 Goal=   None    Shift=    0.000
 RMSDP=1.51D-03 MaxDP=8.41D-02 DE= 3.84D-01 OVMax= 1.33D-01

 Cycle   5  Pass 0  IDiag  1:
 E= -864.651442725735     Delta-E=       -0.427192807569 Rises=F Damp=F
 DIIS: error= 9.02D-03 at cycle   5 NSaved=   5.
 NSaved= 5 IEnMin= 5 EnMin= -864.651442725735     IErMin= 5 ErrMin= 9.02D-03
 ErrMax= 9.02D-03 EMaxC= 1.00D-01 BMatC= 4.01D-02 BMatP= 6.73D-02
 IDIUse=3 WtCom= 9.10D-01 WtEn= 9.02D-02
 Coeff-Com: -0.227D-02 0.389D-01 0.340D+00-0.578D-01 0.681D+00
 Coeff-En:   0.000D+00 0.000D+00 0.349D+00 0.000D+00 0.651D+00
 Coeff:     -0.207D-02 0.354D-01 0.341D+00-0.526D-01 0.679D+00
 Gap=     0.208 Goal=   None    Shift=    0.000
 RMSDP=6.03D-04 MaxDP=2.64D-02 DE=-4.27D-01 OVMax= 4.74D-02

 Cycle   6  Pass 0  IDiag  1:
 E= -864.684870288377     Delta-E=       -0.033427562642 Rises=F Damp=F
 DIIS: error= 1.22D-03 at cycle   6 NSaved=   6.
 NSaved= 6 IEnMin= 6 EnMin= -864.684870288377     IErMin= 6 ErrMin= 1.22D-03
 ErrMax= 1.22D-03 EMaxC= 1.00D-01 BMatC= 7.31D-04 BMatP= 4.01D-02
 IDIUse=3 WtCom= 9.88D-01 WtEn= 1.22D-02
 Coeff-Com: -0.584D-02 0.207D-01 0.172D+00-0.623D-01 0.469D+00 0.406D+00
 Coeff-En:   0.000D+00 0.000D+00 0.000D+00 0.000D+00 0.000D+00 0.100D+01
 Coeff:     -0.577D-02 0.205D-01 0.170D+00-0.616D-01 0.464D+00 0.413D+00
 Gap=     0.208 Goal=   None    Shift=    0.000
 RMSDP=9.34D-05 MaxDP=3.89D-03 DE=-3.34D-02 OVMax= 1.12D-02

 Cycle   7  Pass 0  IDiag  1:
 E= -864.685587644927     Delta-E=       -0.000717356550 Rises=F Damp=F
 DIIS: error= 1.45D-04 at cycle   7 NSaved=   7.
 NSaved= 7 IEnMin= 7 EnMin= -864.685587644927     IErMin= 7 ErrMin= 1.45D-04
 ErrMax= 1.45D-04 EMaxC= 1.00D-01 BMatC= 1.52D-05 BMatP= 7.31D-04
 IDIUse=3 WtCom= 9.99D-01 WtEn= 1.45D-03
 Coeff-Com: -0.982D-03 0.253D-02 0.373D-01-0.156D-01 0.102D+00 0.136D+00
 Coeff-Com:  0.739D+00
 Coeff-En:   0.000D+00 0.000D+00 0.000D+00 0.000D+00 0.000D+00 0.000D+00
 Coeff-En:   0.100D+01
 Coeff:     -0.981D-03 0.253D-02 0.373D-01-0.156D-01 0.102D+00 0.136D+00
 Coeff:      0.739D+00
 Gap=     0.208 Goal=   None    Shift=    0.000
 RMSDP=1.42D-05 MaxDP=5.22D-04 DE=-7.17D-04 OVMax= 1.10D-03

 Cycle   8  Pass 0  IDiag  1:
 E= -864.685600667651     Delta-E=       -0.000013022724 Rises=F Damp=F
 DIIS: error= 5.06D-05 at cycle   8 NSaved=   8.
 NSaved= 8 IEnMin= 8 EnMin= -864.685600667651     IErMin= 8 ErrMin= 5.06D-05
 ErrMax= 5.06D-05 EMaxC= 1.00D-01 BMatC= 2.04D-06 BMatP= 1.52D-05
 IDIUse=1 WtCom= 1.00D+00 WtEn= 0.00D+00
 Coeff-Com:  0.328D-04-0.681D-03 0.933D-02-0.372D-02 0.220D-01 0.463D-01
 Coeff-Com:  0.412D+00 0.515D+00
 Coeff:      0.328D-04-0.681D-03 0.933D-02-0.372D-02 0.220D-01 0.463D-01
 Coeff:      0.412D+00 0.515D+00
 Gap=     0.208 Goal=   None    Shift=    0.000
 RMSDP=4.70D-06 MaxDP=2.51D-04 DE=-1.30D-05 OVMax= 2.42D-04

 Initial convergence to 1.0D-05 achieved.  Increase integral accuracy.
 Cycle   9  Pass 1  IDiag  1:
 E= -864.685575928268     Delta-E=        0.000024739384 Rises=F Damp=F
 DIIS: error= 3.44D-05 at cycle   1 NSaved=   1.
 NSaved= 1 IEnMin= 1 EnMin= -864.685575928268     IErMin= 1 ErrMin= 3.44D-05
 ErrMax= 3.44D-05 EMaxC= 1.00D-01 BMatC= 3.19D-07 BMatP= 3.19D-07
 IDIUse=1 WtCom= 1.00D+00 WtEn= 0.00D+00
 Coeff-Com:  0.100D+01
 Coeff:      0.100D+01
 Gap=     0.208 Goal=   None    Shift=    0.000
 RMSDP=4.70D-06 MaxDP=2.51D-04 DE= 2.47D-05 OVMax= 2.32D-04

 Cycle  10  Pass 1  IDiag  1:
 E= -864.685575979261     Delta-E=       -0.000000050994 Rises=F Damp=F
 DIIS: error= 3.53D-05 at cycle   2 NSaved=   2.
 NSaved= 2 IEnMin= 2 EnMin= -864.685575979261     IErMin= 1 ErrMin= 3.44D-05
 ErrMax= 3.53D-05 EMaxC= 1.00D-01 BMatC= 4.05D-07 BMatP= 3.19D-07
 IDIUse=1 WtCom= 1.00D+00 WtEn= 0.00D+00
 Coeff-Com:  0.537D+00 0.463D+00
 Coeff:      0.537D+00 0.463D+00
 Gap=     0.208 Goal=   None    Shift=    0.000
 RMSDP=2.51D-06 MaxDP=1.71D-04 DE=-5.10D-08 OVMax= 2.17D-04

 Cycle  11  Pass 1  IDiag  1:
 E= -864.685576254822     Delta-E=       -0.000000275561 Rises=F Damp=F
 DIIS: error= 1.21D-05 at cycle   3 NSaved=   3.
 NSaved= 3 IEnMin= 3 EnMin= -864.685576254822     IErMin= 3 ErrMin= 1.21D-05
 ErrMax= 1.21D-05 EMaxC= 1.00D-01 BMatC= 4.59D-08 BMatP= 3.19D-07
 IDIUse=1 WtCom= 1.00D+00 WtEn= 0.00D+00
 Coeff-Com:  0.105D-01 0.248D+00 0.742D+00
 Coeff:      0.105D-01 0.248D+00 0.742D+00
 Gap=     0.208 Goal=   None    Shift=    0.000
 RMSDP=8.35D-07 MaxDP=4.40D-05 DE=-2.76D-07 OVMax= 7.62D-05

 Cycle  12  Pass 1  IDiag  1:
 E= -864.685576285020     Delta-E=       -0.000000030197 Rises=F Damp=F
 DIIS: error= 2.94D-06 at cycle   4 NSaved=   4.
 NSaved= 4 IEnMin= 4 EnMin= -864.685576285020     IErMin= 4 ErrMin= 2.94D-06
 ErrMax= 2.94D-06 EMaxC= 1.00D-01 BMatC= 6.78D-09 BMatP= 4.59D-08
 IDIUse=1 WtCom= 1.00D+00 WtEn= 0.00D+00
 Coeff-Com: -0.124D-01 0.139D+00 0.471D+00 0.403D+00
 Coeff:     -0.124D-01 0.139D+00 0.471D+00 0.403D+00
 Gap=     0.208 Goal=   None    Shift=    0.000
 RMSDP=2.84D-07 MaxDP=1.09D-05 DE=-3.02D-08 OVMax= 2.46D-05

 Cycle  13  Pass 1  IDiag  1:
 E= -864.685576291125     Delta-E=       -0.000000006106 Rises=F Damp=F
 DIIS: error= 8.68D-07 at cycle   5 NSaved=   5.
 NSaved= 5 IEnMin= 5 EnMin= -864.685576291125     IErMin= 5 ErrMin= 8.68D-07
 ErrMax= 8.68D-07 EMaxC= 1.00D-01 BMatC= 4.06D-10 BMatP= 6.78D-09
 IDIUse=1 WtCom= 1.00D+00 WtEn= 0.00D+00
 Coeff-Com: -0.833D-02 0.573D-01 0.205D+00 0.240D+00 0.506D+00
 Coeff:     -0.833D-02 0.573D-01 0.205D+00 0.240D+00 0.506D+00
 Gap=     0.208 Goal=   None    Shift=    0.000
 RMSDP=6.96D-08 MaxDP=3.36D-06 DE=-6.11D-09 OVMax= 4.66D-06

 Cycle  14  Pass 1  IDiag  1:
 E= -864.685576291435     Delta-E=       -0.000000000310 Rises=F Damp=F
 DIIS: error= 2.32D-07 at cycle   6 NSaved=   6.
 NSaved= 6 IEnMin= 6 EnMin= -864.685576291435     IErMin= 6 ErrMin= 2.32D-07
 ErrMax= 2.32D-07 EMaxC= 1.00D-01 BMatC= 2.95D-11 BMatP= 4.06D-10
 IDIUse=1 WtCom= 1.00D+00 WtEn= 0.00D+00
 Coeff-Com: -0.361D-02 0.202D-01 0.748D-01 0.997D-01 0.279D+00 0.530D+00
 Coeff:     -0.361D-02 0.202D-01 0.748D-01 0.997D-01 0.279D+00 0.530D+00
 Gap=     0.208 Goal=   None    Shift=    0.000
 RMSDP=1.71D-08 MaxDP=9.01D-07 DE=-3.10D-10 OVMax= 1.06D-06

 Cycle  15  Pass 1  IDiag  1:
 E= -864.685576291448     Delta-E=       -0.000000000013 Rises=F Damp=F
 DIIS: error= 6.87D-08 at cycle   7 NSaved=   7.
 NSaved= 7 IEnMin= 7 EnMin= -864.685576291448     IErMin= 7 ErrMin= 6.87D-08
 ErrMax= 6.87D-08 EMaxC= 1.00D-01 BMatC= 2.93D-12 BMatP= 2.95D-11
 IDIUse=1 WtCom= 1.00D+00 WtEn= 0.00D+00
 Coeff-Com: -0.660D-03 0.236D-02 0.999D-02 0.172D-01 0.687D-01 0.273D+00
 Coeff-Com:  0.629D+00
 Coeff:     -0.660D-03 0.236D-02 0.999D-02 0.172D-01 0.687D-01 0.273D+00
 Coeff:      0.629D+00
 Gap=     0.208 Goal=   None    Shift=    0.000
 RMSDP=7.51D-09 MaxDP=3.21D-07 DE=-1.27D-11 OVMax= 9.35D-07

 SCF Done:  E(RB3LYP) =  -864.685576291     A.U. after   15 cycles
             Convg  =    0.7515D-08             -V/T =  2.0095
 KE= 8.565843930549D+02 PE=-4.981756482862D+03 EE= 1.775348108324D+03
 Leave Link  502 at Thu Sep 30 16:29:49 2021, MaxMem= 1610612736 cpu:     561.7
 (Enter /sw/target/amd/app/gaussian/Gaussian09RevA.02_gcc-4.9.2/g09/l508.exe)
 QCSCF skips out because SCF is already converged.
 Leave Link  508 at Thu Sep 30 16:29:55 2021, MaxMem= 1610612736 cpu:       0.0
 (Enter /sw/target/amd/app/gaussian/Gaussian09RevA.02_gcc-4.9.2/g09/l601.exe)
 Copying SCF densities to generalized density rwf, IOpCl= 0 IROHF=0.

 **********************************************************************

            Population analysis using the SCF density.

 **********************************************************************

 Orbital symmetries:
       Occupied  (A) (A) (A) (A) (A) (A) (A) (A) (A) (A) (A) (A)
                 (A) (A) (A) (A) (A) (A) (A) (A) (A) (A) (A) (A)
                 (A) (A) (A) (A) (A) (A) (A) (A) (A) (A) (A) (A)
                 (A) (A) (A) (A) (A) (A) (A) (A) (A) (A) (A) (A)
                 (A) (A) (A) (A) (A) (A) (A) (A) (A) (A) (A) (A)
                 (A) (A) (A) (A) (A) (A) (A) (A) (A) (A) (A)
       Virtual   (A) (A) (A) (A) (A) (A) (A) (A) (A) (A) (A) (A)
                 (A) (A) (A) (A) (A) (A) (A) (A) (A) (A) (A) (A)
                 (A) (A) (A) (A) (A) (A) (A) (A) (A) (A) (A) (A)
                 (A) (A) (A) (A) (A) (A) (A) (A) (A) (A) (A) (A)
                 (A) (A) (A) (A) (A) (A) (A) (A) (A) (A) (A) (A)
                 (A) (A) (A) (A) (A) (A) (A) (A) (A) (A) (A) (A)
                 (A) (A) (A) (A) (A) (A) (A) (A) (A) (A) (A) (A)
                 (A) (A) (A) (A) (A) (A) (A) (A) (A) (A) (A) (A)
                 (A) (A) (A) (A) (A) (A) (A) (A) (A) (A) (A) (A)
                 (A) (A) (A) (A) (A) (A) (A) (A) (A) (A) (A) (A)
                 (A) (A) (A) (A) (A) (A) (A) (A) (A) (A) (A) (A)
                 (A) (A) (A) (A) (A) (A) (A) (A) (A) (A) (A) (A)
                 (A) (A) (A) (A) (A) (A) (A) (A) (A) (A) (A) (A)
                 (A) (A) (A) (A) (A) (A) (A) (A) (A) (A) (A) (A)
                 (A) (A) (A) (A) (A) (A) (A) (A) (A) (A) (A) (A)
                 (A) (A) (A) (A) (A) (A) (A) (A) (A) (A) (A) (A)
                 (A) (A) (A) (A) (A) (A) (A) (A) (A) (A) (A) (A)
                 (A) (A) (A) (A) (A) (A) (A) (A) (A) (A) (A) (A)
                 (A) (A) (A) (A) (A) (A) (A) (A) (A) (A) (A) (A)
                 (A) (A) (A) (A) (A) (A) (A) (A) (A) (A) (A) (A)
                 (A) (A) (A) (A) (A) (A) (A) (A) (A) (A) (A) (A)
                 (A) (A) (A) (A)
 The electronic state is 1-A.
 Alpha  occ. eigenvalues --  -19.19045 -19.17082 -19.11420 -14.36135 -10.33240
 Alpha  occ. eigenvalues --  -10.25227 -10.24775 -10.23735 -10.21918 -10.21901
 Alpha  occ. eigenvalues --  -10.19258 -10.18543 -10.18401 -10.18292 -10.18121
 Alpha  occ. eigenvalues --  -10.17913 -10.17878 -10.17507 -10.17241  -1.08950
 Alpha  occ. eigenvalues --   -1.06309  -1.00443  -0.93168  -0.85083  -0.81334
 Alpha  occ. eigenvalues --   -0.77059  -0.76361  -0.74887  -0.72908  -0.69385
 Alpha  occ. eigenvalues --   -0.68331  -0.65794  -0.63189  -0.60968  -0.60056
 Alpha  occ. eigenvalues --   -0.57121  -0.55158  -0.52489  -0.50462  -0.48314
 Alpha  occ. eigenvalues --   -0.47733  -0.47209  -0.46486  -0.45996  -0.44349
 Alpha  occ. eigenvalues --   -0.43830  -0.42648  -0.42565  -0.41894  -0.41213
 Alpha  occ. eigenvalues --   -0.40704  -0.40216  -0.39242  -0.38856  -0.38093
 Alpha  occ. eigenvalues --   -0.37948  -0.37391  -0.36627  -0.36305  -0.36128
 Alpha  occ. eigenvalues --   -0.35457  -0.35073  -0.34264  -0.33347  -0.32414
 Alpha  occ. eigenvalues --   -0.31642  -0.30325  -0.26495  -0.23652  -0.22865
 Alpha  occ. eigenvalues --   -0.20690
 Alpha virt. eigenvalues --    0.00071   0.01924   0.05104   0.07682   0.09249
 Alpha virt. eigenvalues --    0.10032   0.11164   0.11659   0.12728   0.13341
 Alpha virt. eigenvalues --    0.13818   0.14127   0.14579   0.15205   0.15752
 Alpha virt. eigenvalues --    0.15972   0.16756   0.16977   0.17325   0.17760
 Alpha virt. eigenvalues --    0.18122   0.18415   0.18933   0.19251   0.19678
 Alpha virt. eigenvalues --    0.20366   0.21007   0.21582   0.22920   0.23340
 Alpha virt. eigenvalues --    0.23718   0.24622   0.26092   0.26925   0.27610
 Alpha virt. eigenvalues --    0.27859   0.30434   0.34151   0.35039   0.36251
 Alpha virt. eigenvalues --    0.37576   0.39078   0.40306   0.46964   0.48333
 Alpha virt. eigenvalues --    0.48966   0.50180   0.50478   0.50849   0.52545
 Alpha virt. eigenvalues --    0.53152   0.53582   0.54846   0.55035   0.55345
 Alpha virt. eigenvalues --    0.56731   0.57251   0.58850   0.59092   0.59527
 Alpha virt. eigenvalues --    0.59852   0.61172   0.61507   0.61945   0.62141
 Alpha virt. eigenvalues --    0.63018   0.64803   0.65271   0.65682   0.66162
 Alpha virt. eigenvalues --    0.67365   0.67737   0.69485   0.69966   0.70068
 Alpha virt. eigenvalues --    0.72088   0.74214   0.75996   0.77243   0.78368
 Alpha virt. eigenvalues --    0.79248   0.79936   0.81249   0.82259   0.82405
 Alpha virt. eigenvalues --    0.82901   0.84662   0.85103   0.86397   0.86794
 Alpha virt. eigenvalues --    0.88562   0.88670   0.89113   0.89195   0.89749
 Alpha virt. eigenvalues --    0.90298   0.90607   0.90895   0.91876   0.92021
 Alpha virt. eigenvalues --    0.93079   0.93805   0.94872   0.95862   0.96649
 Alpha virt. eigenvalues --    0.96793   0.97797   0.98422   0.99016   1.00424
 Alpha virt. eigenvalues --    1.00725   1.01566   1.03000   1.03564   1.06228
 Alpha virt. eigenvalues --    1.08556   1.09780   1.11321   1.12368   1.12964
 Alpha virt. eigenvalues --    1.13646   1.14736   1.16992   1.17912   1.19418
 Alpha virt. eigenvalues --    1.23907   1.24502   1.26041   1.27829   1.30518
 Alpha virt. eigenvalues --    1.34336   1.35254   1.36415   1.38938   1.41290
 Alpha virt. eigenvalues --    1.41579   1.45063   1.45901   1.47628   1.49121
 Alpha virt. eigenvalues --    1.50574   1.52708   1.55010   1.57943   1.63298
 Alpha virt. eigenvalues --    1.65142   1.65515   1.67992   1.69192   1.70932
 Alpha virt. eigenvalues --    1.74191   1.74749   1.76421   1.77133   1.77838
 Alpha virt. eigenvalues --    1.79571   1.80336   1.81214   1.81611   1.82288
 Alpha virt. eigenvalues --    1.84136   1.84805   1.86423   1.87017   1.88199
 Alpha virt. eigenvalues --    1.89604   1.90261   1.91139   1.92771   1.94080
 Alpha virt. eigenvalues --    1.95311   1.96051   1.97061   1.99701   2.01391
 Alpha virt. eigenvalues --    2.01741   2.02060   2.04433   2.05832   2.06095
 Alpha virt. eigenvalues --    2.08336   2.09484   2.10216   2.12239   2.13632
 Alpha virt. eigenvalues --    2.14251   2.15395   2.16678   2.17992   2.22592
 Alpha virt. eigenvalues --    2.23691   2.24917   2.25140   2.25815   2.28134
 Alpha virt. eigenvalues --    2.28477   2.29096   2.31388   2.31776   2.32445
 Alpha virt. eigenvalues --    2.33123   2.33476   2.34495   2.35925   2.38515
 Alpha virt. eigenvalues --    2.39616   2.42360   2.43758   2.48019   2.49813
 Alpha virt. eigenvalues --    2.52270   2.55780   2.58394   2.59854   2.60160
 Alpha virt. eigenvalues --    2.62281   2.63807   2.65520   2.67622   2.68516
 Alpha virt. eigenvalues --    2.69825   2.71264   2.73179   2.73896   2.75375
 Alpha virt. eigenvalues --    2.77385   2.81074   2.85955   2.88618   2.92708
 Alpha virt. eigenvalues --    2.96152   2.98944   3.07100   3.12739   3.19945
 Alpha virt. eigenvalues --    3.33823   3.48778   4.00489   4.05135   4.10303
 Alpha virt. eigenvalues --    4.13856   4.15993   4.18192   4.20024   4.25267
 Alpha virt. eigenvalues --    4.30252   4.32454   4.33775   4.39178   4.42527
 Alpha virt. eigenvalues --    4.45683   4.50430   4.52487   4.63697   4.72331
 Alpha virt. eigenvalues --    4.99259
          Condensed to atoms (all electrons):
              1          2          3          4          5          6
     1  C    5.123105   0.374223  -0.065320  -0.003749  -0.001492  -0.000088
     2  C    0.374223   4.870619   0.300410  -0.026530   0.000563   0.002468
     3  N   -0.065320   0.300410   6.987308   0.321145  -0.088224  -0.088809
     4  C   -0.003749  -0.026530   0.321145   4.163179   0.543455   0.249065
     5  O   -0.001492   0.000563  -0.088224   0.543455   8.098486  -0.068503
     6  O   -0.000088   0.002468  -0.088809   0.249065  -0.068503   8.363535
     7  C    0.000000  -0.000015   0.001753  -0.007182  -0.001771   0.202775
     8  C    0.000000  -0.000007   0.000183  -0.000956   0.001027  -0.056509
     9  C   -0.000000  -0.000000  -0.000002   0.000211   0.000232   0.003163
    10  C    0.000000   0.000000   0.000000  -0.000002  -0.000001   0.000208
    11  C    0.000000  -0.000000   0.000002  -0.000024  -0.000002   0.003352
    12  C   -0.000000   0.000002  -0.000254   0.000361  -0.000282  -0.048679
    13  O    0.000000  -0.000000  -0.000000   0.000009  -0.000000   0.000010
    14  C    0.000000   0.000000  -0.000000   0.000001   0.000000  -0.000019
    15  C   -0.000000   0.000000  -0.000000   0.000002  -0.000000  -0.000094
    16  C   -0.000000   0.000000   0.000000  -0.000000  -0.000000   0.000001
    17  C   -0.000000  -0.000000  -0.000000  -0.000000   0.000000  -0.000002
    18  C    0.002945  -0.042677   0.289299  -0.029439   0.002361  -0.001624
    19  C   -0.001746   0.002890  -0.066422  -0.001444  -0.000077  -0.003203
    20  H    0.356811  -0.027323   0.004890   0.000032  -0.000037   0.000000
    21  H    0.375287  -0.034084  -0.002761  -0.000065   0.000001  -0.000000
    22  H    0.379442  -0.029901  -0.004630   0.003294   0.002144  -0.000030
    23  H   -0.051031   0.375340  -0.041023   0.004511   0.000529  -0.000038
    24  H   -0.043675   0.376841  -0.036257  -0.002312   0.012831   0.000229
    25  H   -0.000001   0.000004  -0.000327   0.002287   0.010343  -0.006720
    26  H    0.000000   0.000000  -0.000000  -0.000011  -0.000001  -0.000044
    27  H    0.000000  -0.000000   0.000000   0.000000   0.000000   0.000002
    28  H    0.000000  -0.000000   0.000000  -0.000000  -0.000000   0.000000
    29  H    0.000000  -0.000000  -0.000000   0.000000   0.000000   0.000001
    30  H    0.000000  -0.000000  -0.000000   0.000000   0.000000  -0.000000
    31  H   -0.000000  -0.000000   0.000000  -0.000000  -0.000000   0.000000
    32  H    0.000000  -0.000000  -0.000000   0.000000   0.000000   0.000000
    33  H   -0.000000   0.000000   0.000000  -0.000000  -0.000000   0.000001
    34  H   -0.000000   0.000000   0.000000   0.000000   0.000000   0.000000
    35  H    0.000000  -0.000000   0.000000   0.000000  -0.000000   0.000000
    36  H   -0.000818  -0.006745  -0.036947   0.003387  -0.000067   0.000401
    37  H   -0.000190   0.003114  -0.035369  -0.005509   0.000132   0.009710
    38  H   -0.000211   0.000413  -0.001945   0.000034  -0.000005   0.000034
    39  H   -0.000001  -0.000166   0.004895   0.000026   0.000000   0.000022
    40  H    0.000208  -0.000209  -0.002992   0.001937  -0.000039   0.005255
              7          8          9         10         11         12
     1  C    0.000000   0.000000  -0.000000   0.000000   0.000000  -0.000000
     2  C   -0.000015  -0.000007  -0.000000   0.000000  -0.000000   0.000002
     3  N    0.001753   0.000183  -0.000002   0.000000   0.000002  -0.000254
     4  C   -0.007182  -0.000956   0.000211  -0.000002  -0.000024   0.000361
     5  O   -0.001771   0.001027   0.000232  -0.000001  -0.000002  -0.000282
     6  O    0.202775  -0.056509   0.003163   0.000208   0.003352  -0.048679
     7  C    4.727175   0.510511  -0.005668  -0.049841  -0.039437   0.436995
     8  C    0.510511   5.011214   0.503891  -0.034722  -0.038776  -0.055088
     9  C   -0.005668   0.503891   4.914209   0.501916  -0.002687  -0.046866
    10  C   -0.049841  -0.034722   0.501916   5.027793   0.506009  -0.014270
    11  C   -0.039437  -0.038776  -0.002687   0.506009   4.827785   0.511158
    12  C    0.436995  -0.055088  -0.046866  -0.014270   0.511158   4.749060
    13  O   -0.059974   0.003663  -0.000225   0.007406  -0.044195   0.232032
    14  C    0.003770   0.000001  -0.000304   0.007092  -0.043518  -0.034894
    15  C    0.013487   0.000218   0.007232  -0.081024   0.308494  -0.067329
    16  C   -0.000343  -0.000006   0.000011  -0.000197  -0.000098   0.000633
    17  C   -0.000250   0.000010   0.000004  -0.000244   0.001041   0.003476
    18  C    0.000286   0.000027  -0.000001   0.000000  -0.000000  -0.000050
    19  C    0.000030  -0.000006  -0.000000   0.000000  -0.000000   0.000034
    20  H    0.000000   0.000000   0.000000  -0.000000  -0.000000   0.000000
    21  H    0.000000  -0.000000  -0.000000   0.000000  -0.000000   0.000000
    22  H    0.000000  -0.000000   0.000000   0.000000   0.000000   0.000000
    23  H    0.000000   0.000000   0.000000   0.000000   0.000000   0.000000
    24  H    0.000002  -0.000005   0.000000   0.000000  -0.000000   0.000000
    25  H   -0.033223   0.350886  -0.038139   0.004618   0.000402   0.004874
    26  H    0.003468  -0.037438   0.356911  -0.038826   0.003243   0.000935
    27  H    0.000435   0.004774  -0.044174   0.359238  -0.044977   0.004826
    28  H   -0.000260   0.000027  -0.000037  -0.001518  -0.021313   0.001638
    29  H   -0.000344   0.000050   0.000023  -0.001834  -0.026820  -0.001672
    30  H   -0.000080  -0.000002   0.000001  -0.000139   0.000641   0.002968
    31  H    0.000009   0.000000  -0.000000   0.000004  -0.000197  -0.000255
    32  H    0.000003   0.000000   0.000000   0.000005   0.000229  -0.000232
    33  H   -0.000036  -0.000003   0.000002  -0.000047  -0.000454   0.001639
    34  H    0.000001  -0.000000   0.000000   0.000004   0.000358  -0.000235
    35  H    0.000004   0.000000  -0.000000   0.000003  -0.000123  -0.000279
    36  H   -0.000006   0.000002   0.000000  -0.000000   0.000000  -0.000001
    37  H   -0.000027  -0.000040   0.000002   0.000000  -0.000001  -0.000001
    38  H    0.000002   0.000000   0.000000  -0.000000  -0.000000  -0.000001
    39  H   -0.000003   0.000000   0.000000  -0.000000   0.000000   0.000001
    40  H   -0.000100   0.000015  -0.000000  -0.000000   0.000004  -0.000029
             13         14         15         16         17         18
     1  C    0.000000   0.000000  -0.000000  -0.000000  -0.000000   0.002945
     2  C   -0.000000   0.000000   0.000000   0.000000  -0.000000  -0.042677
     3  N   -0.000000  -0.000000  -0.000000   0.000000  -0.000000   0.289299
     4  C    0.000009   0.000001   0.000002  -0.000000  -0.000000  -0.029439
     5  O   -0.000000   0.000000  -0.000000  -0.000000   0.000000   0.002361
     6  O    0.000010  -0.000019  -0.000094   0.000001  -0.000002  -0.001624
     7  C   -0.059974   0.003770   0.013487  -0.000343  -0.000250   0.000286
     8  C    0.003663   0.000001   0.000218  -0.000006   0.000010   0.000027
     9  C   -0.000225  -0.000304   0.007232   0.000011   0.000004  -0.000001
    10  C    0.007406   0.007092  -0.081024  -0.000197  -0.000244   0.000000
    11  C   -0.044195  -0.043518   0.308494  -0.000098   0.001041  -0.000000
    12  C    0.232032  -0.034894  -0.067329   0.000633   0.003476  -0.000050
    13  O    8.342206   0.227051  -0.066836  -0.050587  -0.051572  -0.000007
    14  C    0.227051   4.637410   0.335890   0.382042   0.386442   0.000000
    15  C   -0.066836   0.335890   5.344554  -0.057847  -0.050796  -0.000000
    16  C   -0.050587   0.382042  -0.057847   5.173602  -0.077879  -0.000000
    17  C   -0.051572   0.386442  -0.050796  -0.077879   5.167268  -0.000000
    18  C   -0.000007   0.000000  -0.000000  -0.000000  -0.000000   4.882527
    19  C   -0.000133   0.000003  -0.000000  -0.000000  -0.000000   0.372746
    20  H   -0.000000  -0.000000   0.000000  -0.000000   0.000000  -0.000228
    21  H   -0.000000   0.000000  -0.000000  -0.000000   0.000000   0.002146
    22  H   -0.000000  -0.000000  -0.000000   0.000000   0.000000  -0.000324
    23  H   -0.000000  -0.000000  -0.000000   0.000000   0.000000  -0.007192
    24  H   -0.000000   0.000000   0.000000   0.000000  -0.000000   0.003692
    25  H   -0.000035   0.000002   0.000003  -0.000000  -0.000000  -0.000012
    26  H    0.000001   0.000003  -0.000198   0.000000  -0.000000   0.000000
    27  H   -0.000050   0.000004  -0.008300  -0.000004  -0.000000  -0.000000
    28  H    0.002336  -0.028018   0.350386  -0.007470   0.004202   0.000000
    29  H    0.002486  -0.030399   0.352508   0.005700  -0.008390  -0.000000
    30  H   -0.001126  -0.025652  -0.004860   0.363950   0.005810  -0.000000
    31  H    0.000031  -0.025998   0.005443   0.366857  -0.006213  -0.000000
    32  H    0.003339  -0.023656  -0.003227   0.353447  -0.000543   0.000000
    33  H    0.000414  -0.025730  -0.004836   0.005861   0.361897  -0.000000
    34  H    0.003321  -0.024879  -0.004132   0.000962   0.355565  -0.000000
    35  H   -0.000270  -0.026337   0.005353  -0.006402   0.366379  -0.000000
    36  H    0.000000   0.000000  -0.000000  -0.000000   0.000000   0.373220
    37  H    0.000050  -0.000001   0.000000   0.000000   0.000000   0.379011
    38  H    0.000001  -0.000000   0.000000   0.000000   0.000000  -0.035340
    39  H   -0.000001  -0.000000  -0.000000   0.000000   0.000000  -0.027177
    40  H    0.000923  -0.000016   0.000001   0.000001   0.000002  -0.029886
             19         20         21         22         23         24
     1  C   -0.001746   0.356811   0.375287   0.379442  -0.051031  -0.043675
     2  C    0.002890  -0.027323  -0.034084  -0.029901   0.375340   0.376841
     3  N   -0.066422   0.004890  -0.002761  -0.004630  -0.041023  -0.036257
     4  C   -0.001444   0.000032  -0.000065   0.003294   0.004511  -0.002312
[...]
    94    C    7  S      Ryd( 4S)     0.00014
    95    C    7  px     Val( 2p)     0.80327
    96    C    7  px     Ryd( 3p)     0.00642
    97    C    7  py     Val( 2p)     1.03028
    98    C    7  py     Ryd( 3p)     0.00598
    99    C    7  pz     Val( 2p)     1.08475
   100    C    7  pz     Ryd( 3p)     0.00601
   101    C    7  dxy    Ryd( 3d)     0.00168
   102    C    7  dxz    Ryd( 3d)     0.00119
   103    C    7  dyz    Ryd( 3d)     0.00099
   104    C    7  dx2y2  Ryd( 3d)     0.00127
   105    C    7  dz2    Ryd( 3d)     0.00056

   106    C    8  S      Cor( 1S)     1.99906
   107    C    8  S      Val( 2S)     0.96178
   108    C    8  S      Ryd( 3S)     0.00075
   109    C    8  S      Ryd( 4S)     0.00006
   110    C    8  px     Val( 2p)     1.14995
   111    C    8  px     Ryd( 3p)     0.00447
   112    C    8  py     Val( 2p)     1.09772
   113    C    8  py     Ryd( 3p)     0.00466
   114    C    8  pz     Val( 2p)     1.09886
   115    C    8  pz     Ryd( 3p)     0.00565
   116    C    8  dxy    Ryd( 3d)     0.00063
   117    C    8  dxz    Ryd( 3d)     0.00048
   118    C    8  dyz    Ryd( 3d)     0.00058
   119    C    8  dx2y2  Ryd( 3d)     0.00070
   120    C    8  dz2    Ryd( 3d)     0.00045

   121    C    9  S      Cor( 1S)     1.99914
   122    C    9  S      Val( 2S)     0.96986
   123    C    9  S      Ryd( 3S)     0.00052
   124    C    9  S      Ryd( 4S)     0.00004
   125    C    9  px     Val( 2p)     1.04902
   126    C    9  px     Ryd( 3p)     0.00462
   127    C    9  py     Val( 2p)     1.18698
   128    C    9  py     Ryd( 3p)     0.00476
   129    C    9  pz     Val( 2p)     0.93196
   130    C    9  pz     Ryd( 3p)     0.00216
   131    C    9  dxy    Ryd( 3d)     0.00065
   132    C    9  dxz    Ryd( 3d)     0.00095
   133    C    9  dyz    Ryd( 3d)     0.00034
   134    C    9  dx2y2  Ryd( 3d)     0.00092
   135    C    9  dz2    Ryd( 3d)     0.00054

   136    C   10  S      Cor( 1S)     1.99905
   137    C   10  S      Val( 2S)     0.94570
   138    C   10  S      Ryd( 3S)     0.00075
   139    C   10  S      Ryd( 4S)     0.00003
   140    C   10  px     Val( 2p)     1.17138
   141    C   10  px     Ryd( 3p)     0.00420
   142    C   10  py     Val( 2p)     1.06658
   143    C   10  py     Ryd( 3p)     0.00479
   144    C   10  pz     Val( 2p)     1.10295
   145    C   10  pz     Ryd( 3p)     0.00666
   146    C   10  dxy    Ryd( 3d)     0.00067
   147    C   10  dxz    Ryd( 3d)     0.00042
   148    C   10  dyz    Ryd( 3d)     0.00059
   149    C   10  dx2y2  Ryd( 3d)     0.00075
   150    C   10  dz2    Ryd( 3d)     0.00042

   151    C   11  S      Cor( 1S)     1.99901
   152    C   11  S      Val( 2S)     0.87236
   153    C   11  S      Ryd( 3S)     0.00100
   154    C   11  S      Ryd( 4S)     0.00006
   155    C   11  px     Val( 2p)     1.03568
   156    C   11  px     Ryd( 3p)     0.00501
   157    C   11  py     Val( 2p)     1.09374
   158    C   11  py     Ryd( 3p)     0.00378
   159    C   11  pz     Val( 2p)     1.10217
   160    C   11  pz     Ryd( 3p)     0.00519
   161    C   11  dxy    Ryd( 3d)     0.00060
   162    C   11  dxz    Ryd( 3d)     0.00058
   163    C   11  dyz    Ryd( 3d)     0.00079
   164    C   11  dx2y2  Ryd( 3d)     0.00077
   165    C   11  dz2    Ryd( 3d)     0.00040

   166    C   12  S      Cor( 1S)     1.99864
   167    C   12  S      Val( 2S)     0.83625
   168    C   12  S      Ryd( 3S)     0.00201
   169    C   12  S      Ryd( 4S)     0.00017
   170    C   12  px     Val( 2p)     1.08643
   171    C   12  px     Ryd( 3p)     0.00536
   172    C   12  py     Val( 2p)     0.75257
   173    C   12  py     Ryd( 3p)     0.00742
   174    C   12  pz     Val( 2p)     0.98639
   175    C   12  pz     Ryd( 3p)     0.00234
   176    C   12  dxy    Ryd( 3d)     0.00146
   177    C   12  dxz    Ryd( 3d)     0.00135
   178    C   12  dyz    Ryd( 3d)     0.00174
   179    C   12  dx2y2  Ryd( 3d)     0.00175
   180    C   12  dz2    Ryd( 3d)     0.00069

   181    O   13  S      Cor( 1S)     1.99975
   182    O   13  S      Val( 2S)     1.61560
   183    O   13  S      Ryd( 3S)     0.00091
   184    O   13  S      Ryd( 4S)     0.00013
   185    O   13  px     Val( 2p)     1.63506
   186    O   13  px     Ryd( 3p)     0.00236
   187    O   13  py     Val( 2p)     1.50117
   188    O   13  py     Ryd( 3p)     0.00130
   189    O   13  pz     Val( 2p)     1.66576
   190    O   13  pz     Ryd( 3p)     0.00237
   191    O   13  dxy    Ryd( 3d)     0.00118
   192    O   13  dxz    Ryd( 3d)     0.00106
   193    O   13  dyz    Ryd( 3d)     0.00126
   194    O   13  dx2y2  Ryd( 3d)     0.00137
   195    O   13  dz2    Ryd( 3d)     0.00082

   196    C   14  S      Cor( 1S)     1.99902
   197    C   14  S      Val( 2S)     0.91251
   198    C   14  S      Ryd( 3S)     0.00143
   199    C   14  S      Ryd( 4S)     0.00004
   200    C   14  px     Val( 2p)     0.75770
   201    C   14  px     Ryd( 3p)     0.00500
   202    C   14  py     Val( 2p)     1.01650
   203    C   14  py     Ryd( 3p)     0.00441
   204    C   14  pz     Val( 2p)     1.01116
   205    C   14  pz     Ryd( 3p)     0.00379
   206    C   14  dxy    Ryd( 3d)     0.00140
   207    C   14  dxz    Ryd( 3d)     0.00132
   208    C   14  dyz    Ryd( 3d)     0.00099
   209    C   14  dx2y2  Ryd( 3d)     0.00136
   210    C   14  dz2    Ryd( 3d)     0.00126

   211    C   15  S      Cor( 1S)     1.99919
   212    C   15  S      Val( 2S)     1.03331
   213    C   15  S      Ryd( 3S)     0.00063
   214    C   15  S      Ryd( 4S)     0.00002
   215    C   15  px     Val( 2p)     1.15461
   216    C   15  px     Ryd( 3p)     0.00221
   217    C   15  py     Val( 2p)     1.02704
   218    C   15  py     Ryd( 3p)     0.00226
   219    C   15  pz     Val( 2p)     1.25331
   220    C   15  pz     Ryd( 3p)     0.00342
   221    C   15  dxy    Ryd( 3d)     0.00078
   222    C   15  dxz    Ryd( 3d)     0.00138
   223    C   15  dyz    Ryd( 3d)     0.00050
   224    C   15  dx2y2  Ryd( 3d)     0.00045
   225    C   15  dz2    Ryd( 3d)     0.00068

   226    C   16  S      Cor( 1S)     1.99930
   227    C   16  S      Val( 2S)     1.10184
   228    C   16  S      Ryd( 3S)     0.00061
   229    C   16  S      Ryd( 4S)     0.00002
   230    C   16  px     Val( 2p)     1.24710
   231    C   16  px     Ryd( 3p)     0.00155
   232    C   16  py     Val( 2p)     1.24120
   233    C   16  py     Ryd( 3p)     0.00267
   234    C   16  pz     Val( 2p)     1.09292
   235    C   16  pz     Ryd( 3p)     0.00175
   236    C   16  dxy    Ryd( 3d)     0.00101
   237    C   16  dxz    Ryd( 3d)     0.00044
   238    C   16  dyz    Ryd( 3d)     0.00076
   239    C   16  dx2y2  Ryd( 3d)     0.00040
   240    C   16  dz2    Ryd( 3d)     0.00071

   241    C   17  S      Cor( 1S)     1.99930
   242    C   17  S      Val( 2S)     1.09813
   243    C   17  S      Ryd( 3S)     0.00053
   244    C   17  S      Ryd( 4S)     0.00002
   245    C   17  px     Val( 2p)     1.23663
   246    C   17  px     Ryd( 3p)     0.00177
   247    C   17  py     Val( 2p)     1.15630
   248    C   17  py     Ryd( 3p)     0.00217
   249    C   17  pz     Val( 2p)     1.19076
   250    C   17  pz     Ryd( 3p)     0.00238
   251    C   17  dxy    Ryd( 3d)     0.00096
   252    C   17  dxz    Ryd( 3d)     0.00031
   253    C   17  dyz    Ryd( 3d)     0.00063
   254    C   17  dx2y2  Ryd( 3d)     0.00042
   255    C   17  dz2    Ryd( 3d)     0.00097

   256    C   18  S      Cor( 1S)     1.99935
   257    C   18  S      Val( 2S)     1.01751
   258    C   18  S      Ryd( 3S)     0.00140
   259    C   18  S      Ryd( 4S)     0.00003
   260    C   18  px     Val( 2p)     1.22030
   261    C   18  px     Ryd( 3p)     0.00511
   262    C   18  py     Val( 2p)     0.97296
   263    C   18  py     Ryd( 3p)     0.00222
   264    C   18  pz     Val( 2p)     1.03160
   265    C   18  pz     Ryd( 3p)     0.00156
   266    C   18  dxy    Ryd( 3d)     0.00062
   267    C   18  dxz    Ryd( 3d)     0.00073
   268    C   18  dyz    Ryd( 3d)     0.00137
   269    C   18  dx2y2  Ryd( 3d)     0.00117
   270    C   18  dz2    Ryd( 3d)     0.00100

   271    C   19  S      Cor( 1S)     1.99944
   272    C   19  S      Val( 2S)     1.11092
   273    C   19  S      Ryd( 3S)     0.00044
   274    C   19  S      Ryd( 4S)     0.00001
   275    C   19  px     Val( 2p)     1.22329
   276    C   19  px     Ryd( 3p)     0.00130
   277    C   19  py     Val( 2p)     1.12010
   278    C   19  py     Ryd( 3p)     0.00108
   279    C   19  pz     Val( 2p)     1.22834
   280    C   19  pz     Ryd( 3p)     0.00124
   281    C   19  dxy    Ryd( 3d)     0.00045
   282    C   19  dxz    Ryd( 3d)     0.00057
   283    C   19  dyz    Ryd( 3d)     0.00104
   284    C   19  dx2y2  Ryd( 3d)     0.00074
   285    C   19  dz2    Ryd( 3d)     0.00043

   286    H   20  S      Val( 1S)     0.76616
   287    H   20  S      Ryd( 2S)     0.00094

   288    H   21  S      Val( 1S)     0.77797
   289    H   21  S      Ryd( 2S)     0.00102

   290    H   22  S      Val( 1S)     0.75432
   291    H   22  S      Ryd( 2S)     0.00132

   292    H   23  S      Val( 1S)     0.77362
   293    H   23  S      Ryd( 2S)     0.00145

   294    H   24  S      Val( 1S)     0.74368
   295    H   24  S      Ryd( 2S)     0.00207

   296    H   25  S      Val( 1S)     0.75154
   297    H   25  S      Ryd( 2S)     0.00097

   298    H   26  S      Val( 1S)     0.76536
   299    H   26  S      Ryd( 2S)     0.00081

   300    H   27  S      Val( 1S)     0.76903
   301    H   27  S      Ryd( 2S)     0.00088

   302    H   28  S      Val( 1S)     0.75382
   303    H   28  S      Ryd( 2S)     0.00338

   304    H   29  S      Val( 1S)     0.75930
   305    H   29  S      Ryd( 2S)     0.00447

   306    H   30  S      Val( 1S)     0.74960
   307    H   30  S      Ryd( 2S)     0.00110

   308    H   31  S      Val( 1S)     0.75610
   309    H   31  S      Ryd( 2S)     0.00115

   310    H   32  S      Val( 1S)     0.75768
   311    H   32  S      Ryd( 2S)     0.00076

   312    H   33  S      Val( 1S)     0.75376
   313    H   33  S      Ryd( 2S)     0.00103

   314    H   34  S      Val( 1S)     0.75596
   315    H   34  S      Ryd( 2S)     0.00068

   316    H   35  S      Val( 1S)     0.75630
   317    H   35  S      Ryd( 2S)     0.00119

   318    H   36  S      Val( 1S)     0.76951
   319    H   36  S      Ryd( 2S)     0.00150

   320    H   37  S      Val( 1S)     0.75007
   321    H   37  S      Ryd( 2S)     0.00184

   322    H   38  S      Val( 1S)     0.77579
   323    H   38  S      Ryd( 2S)     0.00105

   324    H   39  S      Val( 1S)     0.76819
   325    H   39  S      Ryd( 2S)     0.00101

   326    H   40  S      Val( 1S)     0.75195
   327    H   40  S      Ryd( 2S)     0.00173

 WARNING:  1 low occupancy (<1.9990e) core orbital  found on  C    7
           1 low occupancy (<1.9990e) core orbital  found on  C   12


 Summary of Natural Population Analysis:                  
                                                          
                                       Natural Population 
                Natural  -----------------------------------------------
    Atom  No    Charge         Core      Valence    Rydberg      Total
 -----------------------------------------------------------------------
      C    1   -0.68768      1.99945     4.68097    0.00727     6.68768
      C    2   -0.25179      1.99935     4.23675    0.01569     6.25179
      N    3   -0.50055      1.99930     5.48811    0.01314     7.50055
      C    4    0.93749      1.99937     3.01740    0.04575     5.06251
      O    5   -0.64404      1.99978     6.62522    0.01904     8.64404
      O    6   -0.54989      1.99970     6.53917    0.01102     8.54989
      C    7    0.23307      1.99865     3.74249    0.02579     5.76693
      C    8   -0.32579      1.99906     4.30830    0.01843     6.32579
      C    9   -0.15245      1.99914     4.13782    0.01549     6.15245
      C   10   -0.30492      1.99905     4.28660    0.01927     6.30492
      C   11   -0.12111      1.99901     4.10394    0.01816     6.12111
      C   12    0.31543      1.99864     3.66164    0.02429     5.68457
      O   13   -0.43010      1.99975     6.41759    0.01276     8.43010
      C   14    0.28209      1.99902     3.69787    0.02101     5.71791
      C   15   -0.47982      1.99919     4.46828    0.01235     6.47982
      C   16   -0.69228      1.99930     4.68307    0.00991     6.69228
      C   17   -0.69127      1.99930     4.68182    0.01014     6.69127
      C   18   -0.25694      1.99935     4.24237    0.01522     6.25694
      C   19   -0.68940      1.99944     4.68265    0.00731     6.68940
      H   20    0.23291      0.00000     0.76616    0.00094     0.76709
      H   21    0.22101      0.00000     0.77797    0.00102     0.77899
      H   22    0.24436      0.00000     0.75432    0.00132     0.75564
      H   23    0.22493      0.00000     0.77362    0.00145     0.77507
      H   24    0.25425      0.00000     0.74368    0.00207     0.74575
      H   25    0.24749      0.00000     0.75154    0.00097     0.75251
      H   26    0.23383      0.00000     0.76536    0.00081     0.76617
      H   27    0.23010      0.00000     0.76903    0.00088     0.76990
      H   28    0.24280      0.00000     0.75382    0.00338     0.75720
      H   29    0.23622      0.00000     0.75930    0.00447     0.76378
      H   30    0.24930      0.00000     0.74960    0.00110     0.75070
      H   31    0.24274      0.00000     0.75610    0.00115     0.75726
      H   32    0.24156      0.00000     0.75768    0.00076     0.75844
      H   33    0.24521      0.00000     0.75376    0.00103     0.75479
      H   34    0.24336      0.00000     0.75596    0.00068     0.75664
      H   35    0.24251      0.00000     0.75630    0.00119     0.75749
      H   36    0.22899      0.00000     0.76951    0.00150     0.77101
      H   37    0.24809      0.00000     0.75007    0.00184     0.75191
      H   38    0.22316      0.00000     0.77579    0.00105     0.77684
      H   39    0.23080      0.00000     0.76819    0.00101     0.76920
      H   40    0.24632      0.00000     0.75195    0.00173     0.75368
 =======================================================================
   * Total *    0.00000     37.98584   103.66177    0.35239   142.00000

                                 Natural Population      
 --------------------------------------------------------
   Core                      37.98584 ( 99.9627% of  38)
   Valence                  103.66177 ( 99.6748% of 104)
   Natural Minimal Basis    141.64761 ( 99.7518% of 142)
   Natural Rydberg Basis      0.35239 (  0.2482% of 142)
 --------------------------------------------------------

    Atom  No          Natural Electron Configuration
 ----------------------------------------------------------------------------
      C    1      [core]2S( 1.11)2p( 3.57)
      C    2      [core]2S( 1.02)2p( 3.22)3p( 0.01)
      N    3      [core]2S( 1.21)2p( 4.28)3p( 0.01)
      C    4      [core]2S( 0.70)2p( 2.32)3p( 0.03)3d( 0.01)
      O    5      [core]2S( 1.70)2p( 4.92)3d( 0.02)
      O    6      [core]2S( 1.60)2p( 4.94)3d( 0.01)
      C    7      [core]2S( 0.82)2p( 2.92)3p( 0.02)3d( 0.01)
      C    8      [core]2S( 0.96)2p( 3.35)3p( 0.01)
      C    9      [core]2S( 0.97)2p( 3.17)3p( 0.01)
      C   10      [core]2S( 0.95)2p( 3.34)3p( 0.02)
      C   11      [core]2S( 0.87)2p( 3.23)3p( 0.01)
      C   12      [core]2S( 0.84)2p( 2.83)3p( 0.02)3d( 0.01)
      O   13      [core]2S( 1.62)2p( 4.80)3p( 0.01)3d( 0.01)
      C   14      [core]2S( 0.91)2p( 2.79)3p( 0.01)3d( 0.01)
      C   15      [core]2S( 1.03)2p( 3.43)3p( 0.01)
      C   16      [core]2S( 1.10)2p( 3.58)3p( 0.01)
      C   17      [core]2S( 1.10)2p( 3.58)3p( 0.01)
      C   18      [core]2S( 1.02)2p( 3.22)3p( 0.01)
      C   19      [core]2S( 1.11)2p( 3.57)
      H   20            1S( 0.77)
      H   21            1S( 0.78)
      H   22            1S( 0.75)
      H   23            1S( 0.77)
      H   24            1S( 0.74)
      H   25            1S( 0.75)
      H   26            1S( 0.77)
      H   27            1S( 0.77)
      H   28            1S( 0.75)
      H   29            1S( 0.76)
      H   30            1S( 0.75)
      H   31            1S( 0.76)
      H   32            1S( 0.76)
      H   33            1S( 0.75)
      H   34            1S( 0.76)
      H   35            1S( 0.76)
      H   36            1S( 0.77)
      H   37            1S( 0.75)
      H   38            1S( 0.78)
      H   39            1S( 0.77)
      H   40            1S( 0.75)


 NBO analysis skipped by request.
 Leave Link  607 at Fri Oct  1 05:05:15 2021, MaxMem= 1610612736 cpu:      26.2
 (Enter /sw/target/amd/app/gaussian/Gaussian09RevA.02_gcc-4.9.2/g09/l9999.exe)
 1\1\GINC-HERMITE\SP\RTD-B3LYP-FC\6-31G(d)\C15H21N1O3\JSCHLEINITZ\01-Oc
 t-2021\0\\#p TD(NStates=10, Root=1) b3lyp/6-31G* volume pop=NPA densit
 y=current Geom=AllCheck Guess=Read\\CCN(C(=O)Oc1cccc2c1OC(C2)(C)C)CC_c
 onf_0\\0,1\C,0,2.2449889973,-0.5165318862,0.5631050625\C,0,1.970279340
 1,0.9894093903,0.5118990177\N,0,1.8207558471,1.529084462,-0.8444187084
 \C,0,0.5917383717,1.404663739,-1.4201202802\O,0,-0.3877389639,0.903487
 9355,-0.9009294506\O,0,0.5977225973,1.9517875019,-2.689901708\C,0,-0.5
 305960426,1.7994121713,-3.4840492227\C,0,-1.7775382461,2.3325332472,-3
 .1539569723\C,0,-2.8542421016,2.206514364,-4.0352589406\C,0,-2.6997425
 902,1.5539559672,-5.2648429827\C,0,-1.4564214107,1.0260858585,-5.59301
 59893\C,0,-0.3859057287,1.1463126274,-4.7062169518\O,0,0.7710848802,0.
 5831149905,-5.1526800473\C,0,0.4641281749,-0.1792966248,-6.3783920295\
 C,0,-0.9497101115,0.3096665095,-6.8221638551\C,0,0.4559752474,-1.65807
 66241,-5.9866085453\C,0,1.5629001059,0.1446467081,-7.3841488244\C,0,2.
 9874489319,2.0469183547,-1.5730625534\C,0,3.6193947394,1.0545853725,-2
 .5555019658\H,0,2.3133200452,-0.8511489674,1.6051118076\H,0,3.18414712
 51,-0.7753772043,0.0624393317\H,0,1.4287473189,-1.0629210362,0.0816251
 117\H,0,2.7817594989,1.5450605896,0.9944856432\H,0,1.0473468908,1.2088
 318119,1.0544973448\H,0,-1.8969225976,2.8294854456,-2.1981638518\H,0,-
 3.8194978489,2.6198437974,-3.7585209447\H,0,-3.5398110756,1.4632490399
 ,-5.9485897565\H,0,-1.5836767472,-0.5317305543,-7.1243243085\H,0,-0.88
 27653579,0.9894669145,-7.6824886773\H,0,-0.3248869312,-1.8542903771,-5
 .2441021869\H,0,1.4206826909,-1.9447474552,-5.5559310577\H,0,0.2645279
 158,-2.2877052321,-6.8633456403\H,0,1.5815040944,1.2176171832,-7.60054
 73449\H,0,1.3929691918,-0.3961694395,-8.3220921838\H,0,2.5434178225,-0
 .145501796,-6.9924933202\H,0,3.7188670834,2.3470897633,-0.8151740095\H
 ,0,2.6879089278,2.9523400499,-2.1072671709\H,0,3.9637407368,0.14882609
 07,-2.0448501253\H,0,4.4853711845,1.5176887134,-3.0440159375\H,0,2.902
 0792507,0.7703447163,-3.3305009829\\Version=AM64L-G09RevA.02\State=1-A
 \HF=-864.6964715\RMSD=7.363e-09\Dipole=1.1313597,-0.3549872,-0.9031944
 \Quadrupole=-1.2035643,-2.8753697,4.078934,-0.2616753,5.7411326,5.1551
 974\PG=C01 [X(C15H21N1O3)]\\@


 LORD, MAN... WERE YE BUT WHYLES WHERE I AM, 
 THE GENTILES YE WAD NE'ER ENVY 'EM.         
 IT'S TRUE, THEY NEEDNA STARVE OR SWEAT,     
 THRO' WINTER'S CAULD OR SIMMER'S HEAT...    
 THEY'VE NAE SAIR WARK TO CRAZE THEIR BANES, 
 AND FILL AULD AGE WITH GRIPS AN' GRANES...  
                                             
 BUT HUMAN BODIES ARE SIC FOOLS              
 FOR A' THEIR COLLEGES AND SCHOOLS,          
 THAT WHEN NAE REAL ILLS PERPLEX THEM,       
 THEY MAK ENOW THEMSELVES TO VEX THEM,       
 AN' AYE THE LESS THEY HAE TO STURT THEM,    
 IN LIKE PROPORTION LESS WILL HURT THEM....  
                                             
                (ROBERT BURNS 'THE TWA DOGS')
 Job cpu time:  0 days  7 hours  4 minutes 31.7 seconds.
 File lengths (MBytes):  RWF=    359 Int=      0 D2E=      0 Chk=     49 Scr=      1
 Normal termination of Gaussian 09 at Fri Oct  1 05:05:18 2021.
