 Entering Gaussian System, Link 0=g09
 Input=C15H17NO_d02c_conf_0.com
 Output=C15H17NO_d02c_conf_0.log
 Initial command:
 /sw/target/amd/app/gaussian/Gaussian09RevA.02_gcc-4.9.2/g09/l1.exe /home/jschleinitz/gaussian/Gau-3298032.inp -scrdir=/home/jschleinitz/gaussian/
 Entering Link 1 = /sw/target/amd/app/gaussian/Gaussian09RevA.02_gcc-4.9.2/g09/l1.exe PID=   3298034.
  
 Copyright (c) 1988,1990,1992,1993,1995,1998,2003,2009, Gaussian, Inc.
                  All Rights Reserved.
  
 This is part of the Gaussian(R) 09 program.  It is based on
 the Gaussian(R) 03 system (copyright 2003, Gaussian, Inc.),
 the Gaussian(R) 98 system (copyright 1998, Gaussian, Inc.),
 the Gaussian(R) 94 system (copyright 1995, Gaussian, Inc.),
 the Gaussian 92(TM) system (copyright 1992, Gaussian, Inc.),
 the Gaussian 90(TM) system (copyright 1990, Gaussian, Inc.),
 the Gaussian 88(TM) system (copyright 1988, Gaussian, Inc.),
 the Gaussian 86(TM) system (copyright 1986, Carnegie Mellon
 University), and the Gaussian 82(TM) system (copyright 1983,
 Carnegie Mellon University). Gaussian is a federally registered
 trademark of Gaussian, Inc.
  
 This software contains proprietary and confidential information,
 including trade secrets, belonging to Gaussian, Inc.
  
 This software is provided under written license and may be
 used, copied, transmitted, or stored only in accord with that
 written license.
  
 The following legend is applicable only to US Government
 contracts under FAR:
  
                    RESTRICTED RIGHTS LEGEND
  
 Use, reproduction and disclosure by the US Government is
 subject to restrictions as set forth in subparagraphs (a)
 and (c) of the Commercial Computer Software - Restricted
 Rights clause in FAR 52.227-19.
  
 Gaussian, Inc.
 340 Quinnipiac St., Bldg. 40, Wallingford CT 06492
  
  
 ---------------------------------------------------------------
 Warning -- This program may not be used in any manner that
 competes with the business of Gaussian, Inc. or will provide
 assistance to any competitor of Gaussian, Inc.  The licensee
 of this program is prohibited from giving any competitor of
 Gaussian, Inc. access to this program.  By using this program,
 the user acknowledges that Gaussian, Inc. is engaged in the
 business of creating and licensing software in the field of
 computational chemistry and represents and warrants to the
 licensee that it is not a competitor of Gaussian, Inc. and that
 it will not use this program in any manner prohibited above.
 ---------------------------------------------------------------
  

 Cite this work as:
 Gaussian 09, Revision A.02,
 M. J. Frisch, G. W. Trucks, H. B. Schlegel, G. E. Scuseria, 
 M. A. Robb, J. R. Cheeseman, G. Scalmani, V. Barone, B. Mennucci, 
 G. A. Petersson, H. Nakatsuji, M. Caricato, X. Li, H. P. Hratchian, 
 A. F. Izmaylov, J. Bloino, G. Zheng, J. L. Sonnenberg, M. Hada, 
 M. Ehara, K. Toyota, R. Fukuda, J. Hasegawa, M. Ishida, T. Nakajima, 
 Y. Honda, O. Kitao, H. Nakai, T. Vreven, J. A. Montgomery, Jr., 
 J. E. Peralta, F. Ogliaro, M. Bearpark, J. J. Heyd, E. Brothers, 
 K. N. Kudin, V. N. Staroverov, R. Kobayashi, J. Normand, 
 K. Raghavachari, A. Rendell, J. C. Burant, S. S. Iyengar, J. Tomasi, 
 M. Cossi, N. Rega, J. M. Millam, M. Klene, J. E. Knox, J. B. Cross, 
 V. Bakken, C. Adamo, J. Jaramillo, R. Gomperts, R. E. Stratmann, 
 O. Yazyev, A. J. Austin, R. Cammi, C. Pomelli, J. W. Ochterski, 
 R. L. Martin, K. Morokuma, V. G. Zakrzewski, G. A. Voth, 
 P. Salvador, J. J. Dannenberg, S. Dapprich, A. D. Daniels, 
 O. Farkas, J. B. Foresman, J. V. Ortiz, J. Cioslowski, 
 and D. J. Fox, Gaussian, Inc., Wallingford CT, 2009.
 
 ******************************************
 Gaussian 09:  AM64L-G09RevA.02 11-Jun-2009
                28-Sep-2021 
 ******************************************
 %nproc=5
 Will use up to    5 processors via shared memory.
 %mem=10gb
 %chk=C15H17NO_d02c_conf_0.chk
 -----------------------------------
 #p opt b3lyp/6-31G* scf=(xqc,tight)
 -----------------------------------
 1/14=-1,18=20,19=15,26=3,38=1/1,3;
 2/9=110,12=2,17=6,18=5,40=1/2;
 3/5=1,6=6,7=1,11=2,16=1,25=1,30=1,71=1,74=-5/1,2,3;
 4//1;
 5/5=2,8=3,13=1,32=2,38=5/2,8;
 6/7=2,8=2,9=2,10=2,28=1/1;
 7//1,2,3,16;
 1/14=-1,18=20,19=15/3(2);
 2/9=110/2;
 99//99;
 2/9=110/2;
 3/5=1,6=6,7=1,11=2,16=1,25=1,30=1,71=1,74=-5/1,2,3;
 4/5=5,16=3/1;
 5/5=2,8=3,13=1,32=2,38=5/2,8;
 7//1,2,3,16;
 1/14=-1,18=20,19=15/3(-5);
 2/9=110/2;
 6/7=2,8=2,9=2,10=2,19=2,28=1/1;
 99/9=1/99;
 Leave Link    1 at Tue Sep 28 15:18:09 2021, MaxMem= 1342177280 cpu:       0.1
 (Enter /sw/target/amd/app/gaussian/Gaussian09RevA.02_gcc-4.9.2/g09/l101.exe)
 ----------------------------------
 COc1ccc2c(c1)ccc(c2)N1CCCC1_conf_0
 ----------------------------------
 Symbolic Z-matrix:
 Charge =  0 Multiplicity = 1
 C                     1.50926  -0.85524  -0.78993 
 O                     2.56939  -0.47216   0.07788 
 C                     3.09642  -1.45405   0.87198 
 C                     2.67448  -2.78118   0.91448 
 C                     3.30063  -3.68928   1.77254 
 C                     4.3589   -3.28937   2.6002 
 C                     4.79318  -1.95096   2.5573 
 C                     4.1507   -1.04609   1.69439 
 C                     5.86177  -1.56501   3.37335 
 C                     6.49148  -2.49288   4.21371 
 C                     6.07102  -3.82671   4.29587 
 C                     4.99899  -4.19697   3.46798 
 N                     6.68234  -4.7375    5.12731 
 C                     5.99665  -5.91838   5.65236 
 C                     6.75309  -6.23748   6.94036 
 C                     8.16481  -5.76649   6.63285 
 C                     7.9238   -4.4783    5.85125 
 H                     1.20934   0.02589  -1.36364 
 H                     0.63714  -1.19466  -0.2203 
 H                     1.83813  -1.61973  -1.50221 
 H                     1.8625   -3.14577   0.29466 
 H                     2.95429  -4.72052   1.7869 
 H                     4.47516  -0.00786   1.65303 
 H                     6.21902  -0.53808   3.36542 
 H                     7.31392  -2.13548   4.82615 
 H                     4.66051  -5.22986   3.47138 
 H                     6.08108  -6.74688   4.94007 
 H                     4.93875  -5.73726   5.8726 
 H                     6.7025   -7.29571   7.20814 
 H                     6.33986  -5.65204   7.77155 
 H                     8.67697  -6.5038    6.00284 
 H                     8.76532  -5.60359   7.53112 
 H                     8.75866  -4.27177   5.17181 
 H                     7.80148  -3.63983   6.54572 
 
 NAtoms=     34 NQM=     34 NQMF=      0 NMic=      0 NMicF=      0 NTot=     34.
                    Isotopes and Nuclear Properties:
 (Nuclear quadrupole moments (NQMom) in fm**2, nuclear magnetic moments (NMagM)
  in nuclear magnetons)

  Atom         1           2           3           4           5           6           7           8           9          10
 IAtWgt=          12          16          12          12          12          12          12          12          12          12
 AtmWgt=  12.0000000  15.9949146  12.0000000  12.0000000  12.0000000  12.0000000  12.0000000  12.0000000  12.0000000  12.0000000
 NucSpn=           0           0           0           0           0           0           0           0           0           0
 AtZEff=   0.0000000   0.0000000   0.0000000   0.0000000   0.0000000   0.0000000   0.0000000   0.0000000   0.0000000   0.0000000
 NQMom=    0.0000000   0.0000000   0.0000000   0.0000000   0.0000000   0.0000000   0.0000000   0.0000000   0.0000000   0.0000000
 NMagM=    0.0000000   0.0000000   0.0000000   0.0000000   0.0000000   0.0000000   0.0000000   0.0000000   0.0000000   0.0000000

  Atom        11          12          13          14          15          16          17          18          19          20
 IAtWgt=          12          12          14          12          12          12          12           1           1           1
 AtmWgt=  12.0000000  12.0000000  14.0030740  12.0000000  12.0000000  12.0000000  12.0000000   1.0078250   1.0078250   1.0078250
 NucSpn=           0           0           2           0           0           0           0           1           1           1
 AtZEff=   0.0000000   0.0000000   0.0000000   0.0000000   0.0000000   0.0000000   0.0000000   0.0000000   0.0000000   0.0000000
 NQMom=    0.0000000   0.0000000   2.0440000   0.0000000   0.0000000   0.0000000   0.0000000   0.0000000   0.0000000   0.0000000
 NMagM=    0.0000000   0.0000000   0.4037610   0.0000000   0.0000000   0.0000000   0.0000000   2.7928460   2.7928460   2.7928460

  Atom        21          22          23          24          25          26          27          28          29          30
 IAtWgt=           1           1           1           1           1           1           1           1           1           1
 AtmWgt=   1.0078250   1.0078250   1.0078250   1.0078250   1.0078250   1.0078250   1.0078250   1.0078250   1.0078250   1.0078250
 NucSpn=           1           1           1           1           1           1           1           1           1           1
 AtZEff=   0.0000000   0.0000000   0.0000000   0.0000000   0.0000000   0.0000000   0.0000000   0.0000000   0.0000000   0.0000000
 NQMom=    0.0000000   0.0000000   0.0000000   0.0000000   0.0000000   0.0000000   0.0000000   0.0000000   0.0000000   0.0000000
 NMagM=    2.7928460   2.7928460   2.7928460   2.7928460   2.7928460   2.7928460   2.7928460   2.7928460   2.7928460   2.7928460

  Atom        31          32          33          34
 IAtWgt=           1           1           1           1
 AtmWgt=   1.0078250   1.0078250   1.0078250   1.0078250
 NucSpn=           1           1           1           1
 AtZEff=   0.0000000   0.0000000   0.0000000   0.0000000
 NQMom=    0.0000000   0.0000000   0.0000000   0.0000000
 NMagM=    2.7928460   2.7928460   2.7928460   2.7928460
 Leave Link  101 at Tue Sep 28 15:18:09 2021, MaxMem= 1342177280 cpu:       0.2
 (Enter /sw/target/amd/app/gaussian/Gaussian09RevA.02_gcc-4.9.2/g09/l103.exe)

 GradGradGradGradGradGradGradGradGradGradGradGradGradGradGradGradGradGrad
 Berny optimization.
 Initialization pass.
                           ----------------------------
                           !    Initial Parameters    !
                           ! (Angstroms and Degrees)  !
 --------------------------                            --------------------------
 ! Name  Definition              Value          Derivative Info.                !
 --------------------------------------------------------------------------------
 ! R1    R(1,2)                  1.4226         estimate D2E/DX2                !
 ! R2    R(1,18)                 1.0934         estimate D2E/DX2                !
 ! R3    R(1,19)                 1.0956         estimate D2E/DX2                !
 ! R4    R(1,20)                 1.0954         estimate D2E/DX2                !
 ! R5    R(2,3)                  1.3684         estimate D2E/DX2                !
 ! R6    R(3,4)                  1.3932         estimate D2E/DX2                !
 ! R7    R(3,8)                  1.398          estimate D2E/DX2                !
 ! R8    R(4,5)                  1.3975         estimate D2E/DX2                !
 ! R9    R(4,21)                 1.0846         estimate D2E/DX2                !
 ! R10   R(5,6)                  1.4017         estimate D2E/DX2                !
 ! R11   R(5,22)                 1.0879         estimate D2E/DX2                !
 ! R12   R(6,7)                  1.4078         estimate D2E/DX2                !
 ! R13   R(6,12)                 1.4094         estimate D2E/DX2                !
 ! R14   R(7,8)                  1.4058         estimate D2E/DX2                !
 ! R15   R(7,9)                  1.3988         estimate D2E/DX2                !
 ! R16   R(8,23)                 1.0885         estimate D2E/DX2                !
 ! R17   R(9,10)                 1.4013         estimate D2E/DX2                !
 ! R18   R(9,24)                 1.0873         estimate D2E/DX2                !
 ! R19   R(10,11)                1.4009         estimate D2E/DX2                !
 ! R20   R(10,25)                1.0859         estimate D2E/DX2                !
 ! R21   R(11,12)                1.4042         estimate D2E/DX2                !
 ! R22   R(11,13)                1.3764         estimate D2E/DX2                !
 ! R23   R(12,26)                1.0869         estimate D2E/DX2                !
 ! R24   R(13,14)                1.463          estimate D2E/DX2                !
 ! R25   R(13,17)                1.4603         estimate D2E/DX2                !
 ! R26   R(14,15)                1.5274         estimate D2E/DX2                !
 ! R27   R(14,27)                1.0959         estimate D2E/DX2                !
 ! R28   R(14,28)                1.0957         estimate D2E/DX2                !
 ! R29   R(15,16)                1.5197         estimate D2E/DX2                !
 ! R30   R(15,29)                1.0928         estimate D2E/DX2                !
 ! R31   R(15,30)                1.0974         estimate D2E/DX2                !
 ! R32   R(16,17)                1.5259         estimate D2E/DX2                !
 ! R33   R(16,31)                1.0967         estimate D2E/DX2                !
 ! R34   R(16,32)                1.0927         estimate D2E/DX2                !
 ! R35   R(17,33)                1.096          estimate D2E/DX2                !
 ! R36   R(17,34)                1.0956         estimate D2E/DX2                !
 ! A1    A(2,1,18)             107.9084         estimate D2E/DX2                !
 ! A2    A(2,1,19)             111.0678         estimate D2E/DX2                !
 ! A3    A(2,1,20)             111.1536         estimate D2E/DX2                !
 ! A4    A(18,1,19)            107.7054         estimate D2E/DX2                !
 ! A5    A(18,1,20)            107.6735         estimate D2E/DX2                !
 ! A6    A(19,1,20)            111.1525         estimate D2E/DX2                !
 ! A7    A(1,2,3)              116.6033         estimate D2E/DX2                !
 ! A8    A(2,3,4)              125.7722         estimate D2E/DX2                !
 ! A9    A(2,3,8)              114.9903         estimate D2E/DX2                !
 ! A10   A(4,3,8)              119.2373         estimate D2E/DX2                !
 ! A11   A(3,4,5)              120.1332         estimate D2E/DX2                !
 ! A12   A(3,4,21)             121.9704         estimate D2E/DX2                !
 ! A13   A(5,4,21)             117.8964         estimate D2E/DX2                !
 ! A14   A(4,5,6)              121.0251         estimate D2E/DX2                !
 ! A15   A(4,5,22)             118.7774         estimate D2E/DX2                !
 ! A16   A(6,5,22)             120.1972         estimate D2E/DX2                !
 ! A17   A(5,6,7)              119.0881         estimate D2E/DX2                !
 ! A18   A(5,6,12)             121.5127         estimate D2E/DX2                !
 ! A19   A(7,6,12)             119.3988         estimate D2E/DX2                !
 ! A20   A(6,7,8)              119.3198         estimate D2E/DX2                !
 ! A21   A(6,7,9)              118.6983         estimate D2E/DX2                !
 ! A22   A(8,7,9)              121.9806         estimate D2E/DX2                !
 ! A23   A(3,8,7)              121.1948         estimate D2E/DX2                !
 ! A24   A(3,8,23)             118.7361         estimate D2E/DX2                !
 ! A25   A(7,8,23)             120.0682         estimate D2E/DX2                !
 ! A26   A(7,9,10)             120.6929         estimate D2E/DX2                !
 ! A27   A(7,9,24)             120.4854         estimate D2E/DX2                !
 ! A28   A(10,9,24)            118.8217         estimate D2E/DX2                !
 ! A29   A(9,10,11)            122.0543         estimate D2E/DX2                !
 ! A30   A(9,10,25)            117.4282         estimate D2E/DX2                !
 ! A31   A(11,10,25)           120.5028         estimate D2E/DX2                !
 ! A32   A(10,11,12)           116.4624         estimate D2E/DX2                !
 ! A33   A(10,11,13)           122.1501         estimate D2E/DX2                !
 ! A34   A(12,11,13)           121.3815         estimate D2E/DX2                !
 ! A35   A(6,12,11)            122.6783         estimate D2E/DX2                !
 ! A36   A(6,12,26)            118.1921         estimate D2E/DX2                !
 ! A37   A(11,12,26)           119.1091         estimate D2E/DX2                !
 ! A38   A(11,13,14)           122.87           estimate D2E/DX2                !
 ! A39   A(11,13,17)           124.0272         estimate D2E/DX2                !
 ! A40   A(14,13,17)           111.3339         estimate D2E/DX2                !
 ! A41   A(13,14,15)           103.8362         estimate D2E/DX2                !
 ! A42   A(13,14,27)           109.9292         estimate D2E/DX2                !
 ! A43   A(13,14,28)           113.0325         estimate D2E/DX2                !
 ! A44   A(15,14,27)           110.6103         estimate D2E/DX2                !
 ! A45   A(15,14,28)           110.0725         estimate D2E/DX2                !
 ! A46   A(27,14,28)           109.2701         estimate D2E/DX2                !
 ! A47   A(14,15,16)           102.9842         estimate D2E/DX2                !
 ! A48   A(14,15,29)           112.7072         estimate D2E/DX2                !
 ! A49   A(14,15,30)           109.9223         estimate D2E/DX2                !
 ! A50   A(16,15,29)           113.1245         estimate D2E/DX2                !
 ! A51   A(16,15,30)           109.7384         estimate D2E/DX2                !
 ! A52   A(29,15,30)           108.2753         estimate D2E/DX2                !
 ! A53   A(15,16,17)           102.625          estimate D2E/DX2                !
 ! A54   A(15,16,31)           109.9806         estimate D2E/DX2                !
 ! A55   A(15,16,32)           112.9781         estimate D2E/DX2                !
 ! A56   A(17,16,31)           110.3074         estimate D2E/DX2                !
 ! A57   A(17,16,32)           112.4584         estimate D2E/DX2                !
 ! A58   A(31,16,32)           108.4094         estimate D2E/DX2                !
 ! A59   A(13,17,16)           103.79           estimate D2E/DX2                !
 ! A60   A(13,17,33)           111.9431         estimate D2E/DX2                !
 ! A61   A(13,17,34)           110.8039         estimate D2E/DX2                !
 ! A62   A(16,17,33)           110.8731         estimate D2E/DX2                !
 ! A63   A(16,17,34)           109.8183         estimate D2E/DX2                !
 ! A64   A(33,17,34)           109.4986         estimate D2E/DX2                !
 ! D1    D(18,1,2,3)          -179.1322         estimate D2E/DX2                !
 ! D2    D(19,1,2,3)            63.0288         estimate D2E/DX2                !
 ! D3    D(20,1,2,3)           -61.2831         estimate D2E/DX2                !
 ! D4    D(1,2,3,4)             -0.8866         estimate D2E/DX2                !
 ! D5    D(1,2,3,8)            178.9584         estimate D2E/DX2                !
 ! D6    D(2,3,4,5)            179.9168         estimate D2E/DX2                !
 ! D7    D(2,3,4,21)            -0.0483         estimate D2E/DX2                !
 ! D8    D(8,3,4,5)              0.0778         estimate D2E/DX2                !
 ! D9    D(8,3,4,21)          -179.8873         estimate D2E/DX2                !
 ! D10   D(2,3,8,7)           -179.6289         estimate D2E/DX2                !
 ! D11   D(2,3,8,23)             0.0129         estimate D2E/DX2                !
 ! D12   D(4,3,8,7)              0.2271         estimate D2E/DX2                !
 ! D13   D(4,3,8,23)           179.8689         estimate D2E/DX2                !
 ! D14   D(3,4,5,6)             -0.1113         estimate D2E/DX2                !
 ! D15   D(3,4,5,22)          -179.9163         estimate D2E/DX2                !
 ! D16   D(21,4,5,6)           179.8552         estimate D2E/DX2                !
 ! D17   D(21,4,5,22)            0.0502         estimate D2E/DX2                !
 ! D18   D(4,5,6,7)             -0.1572         estimate D2E/DX2                !
 ! D19   D(4,5,6,12)          -179.9065         estimate D2E/DX2                !
 ! D20   D(22,5,6,7)           179.645          estimate D2E/DX2                !
 ! D21   D(22,5,6,12)           -0.1043         estimate D2E/DX2                !
 ! D22   D(5,6,7,8)              0.4526         estimate D2E/DX2                !
 ! D23   D(5,6,7,9)           -179.1415         estimate D2E/DX2                !
 ! D24   D(12,6,7,8)          -179.7927         estimate D2E/DX2                !
 ! D25   D(12,6,7,9)             0.6132         estimate D2E/DX2                !
 ! D26   D(5,6,12,11)          179.2413         estimate D2E/DX2                !
 ! D27   D(5,6,12,26)            0.9051         estimate D2E/DX2                !
 ! D28   D(7,6,12,11)           -0.5072         estimate D2E/DX2                !
 ! D29   D(7,6,12,26)         -178.8434         estimate D2E/DX2                !
 ! D30   D(6,7,8,3)             -0.4946         estimate D2E/DX2                !
 ! D31   D(6,7,8,23)           179.8684         estimate D2E/DX2                !
 ! D32   D(9,7,8,3)            179.0857         estimate D2E/DX2                !
 ! D33   D(9,7,8,23)            -0.5513         estimate D2E/DX2                !
 ! D34   D(6,7,9,10)             0.2345         estimate D2E/DX2                !
 ! D35   D(6,7,9,24)          -179.8265         estimate D2E/DX2                !
 ! D36   D(8,7,9,10)          -179.3483         estimate D2E/DX2                !
 ! D37   D(8,7,9,24)             0.5907         estimate D2E/DX2                !
 ! D38   D(7,9,10,11)           -1.2541         estimate D2E/DX2                !
 ! D39   D(7,9,10,25)         -179.8628         estimate D2E/DX2                !
 ! D40   D(24,9,10,11)         178.8059         estimate D2E/DX2                !
 ! D41   D(24,9,10,25)           0.1972         estimate D2E/DX2                !
 ! D42   D(9,10,11,12)           1.3267         estimate D2E/DX2                !
 ! D43   D(9,10,11,13)        -179.5526         estimate D2E/DX2                !
 ! D44   D(25,10,11,12)        179.8935         estimate D2E/DX2                !
 ! D45   D(25,10,11,13)         -0.9858         estimate D2E/DX2                !
 ! D46   D(10,11,12,6)          -0.4505         estimate D2E/DX2                !
 ! D47   D(10,11,12,26)        177.871          estimate D2E/DX2                !
 ! D48   D(13,11,12,6)        -179.5785         estimate D2E/DX2                !
 ! D49   D(13,11,12,26)         -1.257          estimate D2E/DX2                !
 ! D50   D(10,11,13,14)        154.4196         estimate D2E/DX2                !
 ! D51   D(10,11,13,17)         -9.1056         estimate D2E/DX2                !
 ! D52   D(12,11,13,14)        -26.5024         estimate D2E/DX2                !
 ! D53   D(12,11,13,17)        169.9724         estimate D2E/DX2                !
 ! D54   D(11,13,14,15)       -154.7773         estimate D2E/DX2                !
 ! D55   D(11,13,14,27)         86.8685         estimate D2E/DX2                !
 ! D56   D(11,13,14,28)        -35.516          estimate D2E/DX2                !
 ! D57   D(17,13,14,15)         10.6076         estimate D2E/DX2                !
 ! D58   D(17,13,14,27)       -107.7466         estimate D2E/DX2                !
 ! D59   D(17,13,14,28)        129.8689         estimate D2E/DX2                !
 ! D60   D(11,13,17,16)        179.1364         estimate D2E/DX2                !
 ! D61   D(11,13,17,33)        -61.2329         estimate D2E/DX2                !
 ! D62   D(11,13,17,34)         61.316          estimate D2E/DX2                !
 ! D63   D(14,13,17,16)         13.9522         estimate D2E/DX2                !
 ! D64   D(14,13,17,33)        133.583          estimate D2E/DX2                !
 ! D65   D(14,13,17,34)       -103.8681         estimate D2E/DX2                !
 ! D66   D(13,14,15,16)        -30.8925         estimate D2E/DX2                !
 ! D67   D(13,14,15,29)       -153.127          estimate D2E/DX2                !
 ! D68   D(13,14,15,30)         85.9936         estimate D2E/DX2                !
 ! D69   D(27,14,15,16)         86.991          estimate D2E/DX2                !
 ! D70   D(27,14,15,29)        -35.2435         estimate D2E/DX2                !
 ! D71   D(27,14,15,30)       -156.1229         estimate D2E/DX2                !
 ! D72   D(28,14,15,16)       -152.1578         estimate D2E/DX2                !
 ! D73   D(28,14,15,29)         85.6077         estimate D2E/DX2                !
 ! D74   D(28,14,15,30)        -35.2716         estimate D2E/DX2                !
 ! D75   D(14,15,16,17)         39.3185         estimate D2E/DX2                !
 ! D76   D(14,15,16,31)        -78.0603         estimate D2E/DX2                !
 ! D77   D(14,15,16,32)        160.6637         estimate D2E/DX2                !
 ! D78   D(29,15,16,17)        161.2717         estimate D2E/DX2                !
 ! D79   D(29,15,16,31)         43.8929         estimate D2E/DX2                !
 ! D80   D(29,15,16,32)        -77.3831         estimate D2E/DX2                !
 ! D81   D(30,15,16,17)        -77.6981         estimate D2E/DX2                !
 ! D82   D(30,15,16,31)        164.9231         estimate D2E/DX2                !
 ! D83   D(30,15,16,32)         43.6471         estimate D2E/DX2                !
 ! D84   D(15,16,17,13)        -32.8061         estimate D2E/DX2                !
 ! D85   D(15,16,17,33)       -153.1636         estimate D2E/DX2                !
 ! D86   D(15,16,17,34)         85.6958         estimate D2E/DX2                !
 ! D87   D(31,16,17,13)         84.3401         estimate D2E/DX2                !
 ! D88   D(31,16,17,33)        -36.0174         estimate D2E/DX2                !
 ! D89   D(31,16,17,34)       -157.158          estimate D2E/DX2                !
 ! D90   D(32,16,17,13)       -154.506          estimate D2E/DX2                !
 ! D91   D(32,16,17,33)         85.1365         estimate D2E/DX2                !
 ! D92   D(32,16,17,34)        -36.0041         estimate D2E/DX2                !
 --------------------------------------------------------------------------------
 Trust Radius=3.00D-01 FncErr=1.00D-07 GrdErr=1.00D-06
 Number of steps in this run= 202 maximum allowed number of steps= 204.
 GradGradGradGradGradGradGradGradGradGradGradGradGradGradGradGradGradGrad

 Leave Link  103 at Tue Sep 28 15:18:10 2021, MaxMem= 1342177280 cpu:       0.0
 (Enter /sw/target/amd/app/gaussian/Gaussian09RevA.02_gcc-4.9.2/g09/l202.exe)
                          Input orientation:                          
 ---------------------------------------------------------------------
 Center     Atomic      Atomic             Coordinates (Angstroms)
 Number     Number       Type             X           Y           Z
 ---------------------------------------------------------------------
      1          6           0        1.509263   -0.855239   -0.789933
      2          8           0        2.569388   -0.472163    0.077875
      3          6           0        3.096425   -1.454053    0.871983
      4          6           0        2.674484   -2.781180    0.914483
      5          6           0        3.300633   -3.689280    1.772542
      6          6           0        4.358896   -3.289368    2.600201
      7          6           0        4.793182   -1.950957    2.557304
      8          6           0        4.150699   -1.046095    1.694393
      9          6           0        5.861766   -1.565012    3.373345
     10          6           0        6.491477   -2.492878    4.213707
     11          6           0        6.071017   -3.826706    4.295870
     12          6           0        4.998989   -4.196974    3.467984
     13          7           0        6.682343   -4.737501    5.127306
     14          6           0        5.996647   -5.918383    5.652359
     15          6           0        6.753090   -6.237479    6.940363
     16          6           0        8.164811   -5.766493    6.632849
     17          6           0        7.923800   -4.478305    5.851249
     18          1           0        1.209338    0.025891   -1.363636
     19          1           0        0.637143   -1.194657   -0.220301
     20          1           0        1.838125   -1.619734   -1.502213
     21          1           0        1.862501   -3.145768    0.294662
     22          1           0        2.954291   -4.720521    1.786896
     23          1           0        4.475162   -0.007855    1.653030
     24          1           0        6.219021   -0.538077    3.365421
     25          1           0        7.313921   -2.135482    4.826152
     26          1           0        4.660515   -5.229856    3.471382
     27          1           0        6.081075   -6.746877    4.940068
     28          1           0        4.938747   -5.737263    5.872600
     29          1           0        6.702502   -7.295710    7.208137
     30          1           0        6.339858   -5.652036    7.771549
     31          1           0        8.676969   -6.503799    6.002840
     32          1           0        8.765325   -5.603590    7.531123
     33          1           0        8.758657   -4.271772    5.171811
     34          1           0        7.801478   -3.639832    6.545724
 ---------------------------------------------------------------------
                    Distance matrix (angstroms):
                    1          2          3          4          5
     1  C    0.000000
     2  O    1.422570   0.000000
     3  C    2.374790   1.368387   0.000000
     4  C    2.823477   2.458153   1.393236   0.000000
     5  C    4.219843   3.708970   2.418460   1.397488   0.000000
     6  C    5.053553   4.183433   2.819388   2.436625   1.401738
     7  C    4.815467   3.644127   2.442581   2.806601   2.421842
     8  C    3.631183   2.333039   1.397957   2.407902   2.777616
     9  C    6.064730   4.784788   3.730447   4.205215   3.692491
    10  C    7.248499   6.047411   4.875721   5.053458   4.191915
    11  C    7.450142   6.426962   5.118660   4.905440   3.749813
    12  C    6.440127   5.591959   4.228780   3.732045   2.452894
    13  N    8.766210   7.785002   6.461239   6.134982   4.877414
    14  C    9.342118   8.513653   7.154965   6.582270   5.224019
    15  C   10.780710   9.891207   8.548543   8.055573   6.717079
    16  C   11.113705  10.114662   8.801889   8.470862   7.183149
    17  C    9.918578   8.834633   7.565893   7.403189   6.215471
    18  H    1.093380   2.043465   3.278617   3.900786   5.292601
    19  H    1.095572   2.084342   2.703413   2.820558   4.157974
    20  H    1.095420   2.085268   2.692132   2.808714   4.140770
    21  H    2.558837   2.773959   2.172042   1.084628   2.132547
    22  H    4.865035   4.595373   3.395155   2.144864   1.087941
    23  H    3.934805   2.515684   2.145329   3.388100   3.866095
    24  H    6.288830   4.912445   4.099616   4.858225   4.580866
    25  H    8.177621   6.915443   5.821260   6.102659   5.276864
    26  H    6.872152   6.206798   4.843546   4.059318   2.666216
    27  H    9.404562   8.680144   7.312417   6.598254   5.207012
    28  H    8.943426   8.180096   6.837120   6.200664   4.867045
    29  H   11.507325  10.699722   9.342140   8.730177   7.356952
    30  H   10.938139  10.012000   8.703271   8.288313   7.005525
    31  H   11.376468  10.430167   9.108683   8.705119   7.397427
    32  H   12.018205  10.966863   9.679836   9.425723   8.166314
    33  H    9.988434   8.870866   7.647805   7.573894   6.456342
    34  H   10.057723   8.901795   7.688074   7.663826   6.560741
                    6          7          8          9         10
     6  C    0.000000
     7  C    1.407760   0.000000
     8  C    2.428191   1.405765   0.000000
     9  C    2.414493   1.398839   2.452734   0.000000
    10  C    2.790287   2.433425   3.730867   1.401314   0.000000
    11  C    2.468883   2.859004   4.264634   2.451550   1.400940
    12  C    1.409437   2.432341   3.713928   2.771383   2.384862
    13  N    3.725823   4.235406   5.640974   3.716775   2.430930
    14  C    4.348519   5.173796   6.543104   4.915683   3.748154
    15  C    5.767194   6.436359   7.825797   5.945589   4.639518
    16  C    6.073170   6.521984   7.923611   5.794897   4.401006
    17  C    4.969047   5.199839   6.579955   4.345028   2.945337
    18  H    6.051666   5.667949   4.376335   6.827522   8.084056
    19  H    5.118056   5.055664   4.004149   6.352019   7.457817
    20  H    5.096250   5.032072   3.986897   6.321689   7.422116
    21  H    3.401193   3.890502   3.406424   5.288781   6.100213
    22  H    2.163926   3.412555   3.865405   4.574655   4.833579
    23  H    3.417452   2.166678   1.088544   2.703126   4.098528
    24  H    3.408113   2.163863   2.707096   1.087331   2.148272
    25  H    3.875369   3.396446   4.582646   2.131862   1.085926
    26  H    2.148354   3.406511   4.573999   3.857940   3.375577
    27  H    4.516110   5.507911   6.838105   5.417974   4.335036
    28  H    4.127592   5.034728   6.331310   4.950345   3.960925
    29  H    6.540362   7.337720   8.716121   6.946464   5.663774
    30  H    6.020735   6.578643   7.933406   6.023001   4.760410
    31  H    6.368381   6.905352   8.296769   6.263484   4.905594
    32  H    7.006157   7.338837   8.725420   6.482892   5.084502
    33  H    5.190009   5.286475   6.612919   4.353505   3.036862
    34  H    5.247986   5.273485   6.602353   4.258092   2.910311
                   11         12         13         14         15
    11  C    0.000000
    12  C    1.404186   0.000000
    13  N    1.376428   2.424706   0.000000
    14  C    2.494135   2.954669   1.462991   0.000000
    15  C    3.642855   4.392943   2.354169   1.527410   0.000000
    16  C    3.688933   4.743648   2.350149   2.384401   1.519654
    17  C    2.505313   3.783335   1.460306   2.413981   2.377273
    18  H    8.396930   7.452422   9.735298  10.367107  11.786407
    19  H    7.539925   6.453143   8.814368   9.248027  10.682227
    20  H    7.510384   6.429314   8.782792   9.325213  10.805440
    21  H    5.846789   4.583946   7.008490   7.313239   8.811463
    22  H    4.099736   2.698323   5.005696   5.062865   6.579533
    23  H    4.910700   4.595342   6.269911   7.296841   8.482515
    24  H    3.420924   3.858306   4.577562   5.850404   6.748972
    25  H    2.164774   3.384269   2.694455   4.090008   4.648741
    26  H    2.153632   1.086933   2.659377   2.648770   4.174686
    27  H    2.990400   3.136870   2.105748   1.095851   2.170776
    28  H    2.723663   2.856273   2.143621   1.095656   2.163833
    29  H    4.573190   5.147122   3.297681   2.194472   1.092756
    30  H    3.935029   4.736645   2.818810   2.163261   1.097440
    31  H    4.107501   5.027373   2.804443   2.765805   2.156661
    32  H    4.569844   5.716026   3.296553   3.360718   2.190868
    33  H    2.861602   4.128405   2.128371   3.251300   3.318746
    34  H    2.844514   4.199624   2.114060   3.040939   2.828892
                   16         17         18         19         20
    16  C    0.000000
    17  C    1.525915   0.000000
    18  H   12.077836  10.836344   0.000000
    19  H   11.159442  10.037004   1.767586   0.000000
    20  H   11.108637   9.963949   1.767104   1.807304   0.000000
    21  H    9.314501   8.330105   3.638131   2.360832   2.357570
    22  H    7.192137   6.424457   5.958116   4.672230   4.656066
    23  H    8.460143   7.035841   4.446012   4.432636   4.416749
    24  H    6.465178   4.960949   6.912233   6.666773   6.637476
    25  H    4.143961   2.628991   8.958289   8.422067   8.384422
    26  H    4.750047   4.108239   7.931639   6.789615   6.762804
    27  H    2.858079   3.061422  10.456620   9.332361   9.262462
    28  H    3.314562   3.239749   9.974245   8.732841   8.997542
    29  H    2.192671   3.357155  12.540175  11.366315  11.478199
    30  H    2.154111   2.752103  11.916908  10.782340  11.069224
    31  H    1.096739   2.166303  12.355863  11.469668  11.267196
    32  H    1.092726   2.190070  12.957652  12.066093  12.060612
    33  H    2.172896   1.096028  10.870796  10.222647   9.973448
    34  H    2.159234   1.095580  10.929402  10.153112  10.218203
                   21         22         23         24         25
    21  H    0.000000
    22  H    2.428706   0.000000
    23  H    4.303215   4.953805   0.000000
    24  H    5.933707   5.535615   2.500892   0.000000
    25  H    7.160520   5.909811   4.759627   2.425746   0.000000
    26  H    4.718458   2.451145   5.532635   4.944994   4.295476
    27  H    7.234926   4.881126   7.667985   6.406851   4.774709
    28  H    6.876956   4.654547   7.130624   5.912409   4.439519
    29  H    9.404454   7.076053   9.430434   7.788827   5.716261
    30  H    9.068183   6.938721   8.530542   6.751381   4.689384
    31  H    9.502454   7.328254   8.875433   6.970461   4.724901
    32  H   10.298360   8.218519   9.179854   7.035351   4.631546
    33  H    8.521234   6.734217   6.993650   4.863464   2.602014
    34  H    8.636627   6.878194   6.942196   4.715865   2.336174
                   26         27         28         29         30
    26  H    0.000000
    27  H    2.544874   0.000000
    28  H    2.469964   1.787134   0.000000
    29  H    4.732949   2.414855   2.706150   0.000000
    30  H    4.635716   3.046790   2.361436   1.774995   0.000000
    31  H    4.915600   2.815535   3.818225   2.445074   3.052199
    32  H    5.785382   3.902033   4.172680   2.687532   2.437835
    33  H    4.539180   3.653668   4.150961   4.185522   3.809771
    34  H    4.673908   3.897646   3.612138   3.874530   2.772715
                   31         32         33         34
    31  H    0.000000
    32  H    1.775903   0.000000
    33  H    2.383112   2.709269   0.000000
    34  H    3.043602   2.399241   1.789742   0.000000
 Stoichiometry    C15H17NO
 Framework group  C1[X(C15H17NO)]
 Deg. of freedom    96
 Full point group                 C1      NOp   1
 Largest Abelian subgroup         C1      NOp   1
 Largest concise Abelian subgroup C1      NOp   1
                         Standard orientation:                         
 ---------------------------------------------------------------------
 Center     Atomic      Atomic             Coordinates (Angstroms)
 Number     Number       Type             X           Y           Z
 ---------------------------------------------------------------------
      1          6           0       -5.871802   -0.522318    0.000204
      2          8           0       -4.882458    0.493063    0.118124
      3          6           0       -3.577398    0.089017    0.040343
      4          6           0       -3.139592   -1.223196   -0.125578
      5          6           0       -1.772095   -1.503440   -0.191839
      6          6           0       -0.819345   -0.479739   -0.096068
      7          6           0       -1.256103    0.848710    0.065960
      8          6           0       -2.634301    1.116352    0.137461
      9          6           0       -0.298912    1.865910    0.142376
     10          6           0        1.067962    1.569921    0.054474
     11          6           0        1.536935    0.257301   -0.085975
     12          6           0        0.562199   -0.750474   -0.163543
     13          7           0        2.879406   -0.036505   -0.163443
     14          6           0        3.432268   -1.333302    0.227715
     15          6           0        4.881182   -1.017342    0.593503
     16          6           0        5.216928    0.150328   -0.319279
     17          6           0        3.929392    0.969061   -0.300770
     18          1           0       -6.853183   -0.044785    0.066041
     19          1           0       -5.796219   -1.243137    0.821779
     20          1           0       -5.810244   -1.023215   -0.972040
     21          1           0       -3.832367   -2.053701   -0.207686
     22          1           0       -1.454783   -2.535765   -0.323116
     23          1           0       -2.985439    2.138808    0.264798
     24          1           0       -0.603774    2.901764    0.270257
     25          1           0        1.764889    2.399921    0.122508
     26          1           0        0.877119   -1.780703   -0.308031
     27          1           0        3.390812   -2.027767   -0.618977
     28          1           0        2.916222   -1.778096    1.085803
     29          1           0        5.546776   -1.873314    0.457818
     30          1           0        4.941057   -0.697591    1.641619
     31          1           0        5.422019   -0.213622   -1.333338
     32          1           0        6.081552    0.724302    0.022813
     33          1           0        3.822374    1.549466   -1.224325
     34          1           0        3.933101    1.647729    0.559283
 ---------------------------------------------------------------------
 Rotational constants (GHZ):      1.8378289      0.1903848      0.1748584
 Leave Link  202 at Tue Sep 28 15:18:10 2021, MaxMem= 1342177280 cpu:       0.1
 (Enter /sw/target/amd/app/gaussian/Gaussian09RevA.02_gcc-4.9.2/g09/l301.exe)
 Standard basis: 6-31G(d) (6D, 7F)
 Ernie: Thresh=  0.10000D-02 Tol=  0.10000D-05 Strict=F.
 There are   289 symmetry adapted basis functions of A   symmetry.
 Integral buffers will be    131072 words long.
 Raffenetti 2 integral format.
 Two-electron integral symmetry is turned on.
   289 basis functions,   544 primitive gaussians,   289 cartesian basis functions
    61 alpha electrons       61 beta electrons
       nuclear repulsion energy      1128.7955051837 Hartrees.
 IExCor=  402 DFT=T Ex+Corr=B3LYP ExCW=0 ScaHFX=  0.200000
 ScaDFX=  0.800000  0.720000  1.000000  0.810000 ScalE2=  1.000000  1.000000
 IRadAn=      0 IRanWt=     -1 IRanGd=            0 ICorTp=0
 NAtoms=   34 NActive=   34 NUniq=   34 SFac= 7.50D-01 NAtFMM=   80 NAOKFM=F Big=F
 Leave Link  301 at Tue Sep 28 15:18:10 2021, MaxMem= 1342177280 cpu:       0.1
 (Enter /sw/target/amd/app/gaussian/Gaussian09RevA.02_gcc-4.9.2/g09/l302.exe)
 NPDir=0 NMtPBC=     1 NCelOv=     1 NCel=       1 NClECP=     1 NCelD=      1
         NCelK=      1 NCelE2=     1 NClLst=     1 CellRange=     0.0.
 One-electron integrals computed using PRISM.
 NBasis=   289 RedAO= T  NBF=   289
 NBsUse=   289 1.00D-06 NBFU=   289
 Precomputing XC quadrature grid using
 IXCGrd= 2 IRadAn=           0 IRanWt=          -1 IRanGd=           0 AccXCQ= 1.00D-10.
 NRdTot=    2172 NPtTot=      276952 NUsed=      292611 NTot=      292643
 NSgBfM=   285   285   285   285   285 NAtAll=    34    34.
 Leave Link  302 at Tue Sep 28 15:18:12 2021, MaxMem= 1342177280 cpu:       3.1
 (Enter /sw/target/amd/app/gaussian/Gaussian09RevA.02_gcc-4.9.2/g09/l303.exe)
 DipDrv:  MaxL=1.
 Leave Link  303 at Tue Sep 28 15:18:12 2021, MaxMem= 1342177280 cpu:       0.2
 (Enter /sw/target/amd/app/gaussian/Gaussian09RevA.02_gcc-4.9.2/g09/l401.exe)
 Harris functional with IExCor=  402 diagonalized for initial guess.
 ExpMin= 1.61D-01 ExpMax= 5.48D+03 ExpMxC= 8.25D+02 IAcc=1 IRadAn=         1 AccDes= 0.00D+00
 HarFok:  IExCor=  402 AccDes= 0.00D+00 IRadAn=         1 IDoV= 1
 ScaDFX=  1.000000  1.000000  1.000000  1.000000
 FoFCou: FMM=F IPFlag=           0 FMFlag=      100000 FMFlg1=           0
         NFxFlg=           0 DoJE=T BraDBF=F KetDBF=T FulRan=T
         Omega=  0.000000  0.000000  1.000000  0.000000  0.000000 ICntrl=     500 IOpCl=  0
         NMat0=    1 NMatS0=    1 NMatT0=    0 NMatD0=    1 NMtDS0=    0 NMtDT0=    0
         I1Cent=           4 NGrid=           0.
 Petite list used in FoFCou.
 Harris En= -711.876372427603    
 Initial guess orbital symmetries:
       Occupied  (A) (A) (A) (A) (A) (A) (A) (A) (A) (A) (A) (A)
                 (A) (A) (A) (A) (A) (A) (A) (A) (A) (A) (A) (A)
                 (A) (A) (A) (A) (A) (A) (A) (A) (A) (A) (A) (A)
                 (A) (A) (A) (A) (A) (A) (A) (A) (A) (A) (A) (A)
                 (A) (A) (A) (A) (A) (A) (A) (A) (A) (A) (A) (A)
                 (A)
       Virtual   (A) (A) (A) (A) (A) (A) (A) (A) (A) (A) (A) (A)
                 (A) (A) (A) (A) (A) (A) (A) (A) (A) (A) (A) (A)
                 (A) (A) (A) (A) (A) (A) (A) (A) (A) (A) (A) (A)
                 (A) (A) (A) (A) (A) (A) (A) (A) (A) (A) (A) (A)
                 (A) (A) (A) (A) (A) (A) (A) (A) (A) (A) (A) (A)
                 (A) (A) (A) (A) (A) (A) (A) (A) (A) (A) (A) (A)
                 (A) (A) (A) (A) (A) (A) (A) (A) (A) (A) (A) (A)
                 (A) (A) (A) (A) (A) (A) (A) (A) (A) (A) (A) (A)
                 (A) (A) (A) (A) (A) (A) (A) (A) (A) (A) (A) (A)
                 (A) (A) (A) (A) (A) (A) (A) (A) (A) (A) (A) (A)
                 (A) (A) (A) (A) (A) (A) (A) (A) (A) (A) (A) (A)
                 (A) (A) (A) (A) (A) (A) (A) (A) (A) (A) (A) (A)
                 (A) (A) (A) (A) (A) (A) (A) (A) (A) (A) (A) (A)
                 (A) (A) (A) (A) (A) (A) (A) (A) (A) (A) (A) (A)
                 (A) (A) (A) (A) (A) (A) (A) (A) (A) (A) (A) (A)
                 (A) (A) (A) (A) (A) (A) (A) (A) (A) (A) (A) (A)
                 (A) (A) (A) (A) (A) (A) (A) (A) (A) (A) (A) (A)
                 (A) (A) (A) (A) (A) (A) (A) (A) (A) (A) (A) (A)
                 (A) (A) (A) (A) (A) (A) (A) (A) (A) (A) (A) (A)
 The electronic state of the initial guess is 1-A.
 Leave Link  401 at Tue Sep 28 15:18:18 2021, MaxMem= 1342177280 cpu:      13.0
 (Enter /sw/target/amd/app/gaussian/Gaussian09RevA.02_gcc-4.9.2/g09/l502.exe)
 Closed shell SCF:
 Requested convergence on RMS density matrix=1.00D-08 within  64 cycles.
 Requested convergence on MAX density matrix=1.00D-06.
 Requested convergence on             energy=1.00D-06.
 No special actions if energy rises.
 Using DIIS extrapolation, IDIIS=  1040.
 Integral symmetry usage will be decided dynamically.
       292292 words used for storage of precomputed grid.
 Keep R1 ints in memory in canonical form, NReq=890782154.
 IEnd=      552320 IEndB=      552320 NGot=  1342177280 MDV=   463677502
 LenX=   463677502 LenY=   463593540
 Symmetry not used in FoFDir.
 MinBra= 0 MaxBra= 2 Meth= 1.
 IRaf=       0 NMat=   1 IRICut=       1 DoRegI=T DoRafI=F ISym2E= 0 JSym2E=0.
 Integral accuracy reduced to 1.0D-05 until final iterations.

 Cycle   1  Pass 0  IDiag  1:
 E= -711.400418307699    
 DIIS: error= 3.35D-02 at cycle   1 NSaved=   1.
 NSaved= 1 IEnMin= 1 EnMin= -711.400418307699     IErMin= 1 ErrMin= 3.35D-02
 ErrMax= 3.35D-02 EMaxC= 1.00D-01 BMatC= 3.59D-01 BMatP= 3.59D-01
 IDIUse=3 WtCom= 6.65D-01 WtEn= 3.35D-01
 Coeff-Com:  0.100D+01
 Coeff-En:   0.100D+01
 Coeff:      0.100D+01
 Gap=     0.160 Goal=   None    Shift=    0.000
 GapD=    0.160 DampG=1.000 DampE=0.500 DampFc=0.5000 IDamp=-1.
 Damping current iteration by 5.00D-01
 RMSDP=5.21D-03 MaxDP=1.36D-01              OVMax= 1.77D-01

 Cycle   2  Pass 0  IDiag  1:
 E= -711.586854022836     Delta-E=       -0.186435715137 Rises=F Damp=T
 DIIS: error= 6.94D-03 at cycle   2 NSaved=   2.
 NSaved= 2 IEnMin= 2 EnMin= -711.586854022836     IErMin= 2 ErrMin= 6.94D-03
 ErrMax= 6.94D-03 EMaxC= 1.00D-01 BMatC= 2.03D-02 BMatP= 3.59D-01
 IDIUse=3 WtCom= 9.31D-01 WtEn= 6.94D-02
 Coeff-Com:  0.186D-01 0.981D+00
 Coeff-En:   0.278D-01 0.972D+00
 Coeff:      0.192D-01 0.981D+00
 Gap=     0.143 Goal=   None    Shift=    0.000
 RMSDP=1.65D-03 MaxDP=4.34D-02 DE=-1.86D-01 OVMax= 1.25D-01

 Cycle   3  Pass 0  IDiag  1:
 E= -711.783765868186     Delta-E=       -0.196911845350 Rises=F Damp=F
 DIIS: error= 5.68D-03 at cycle   3 NSaved=   3.
 NSaved= 3 IEnMin= 3 EnMin= -711.783765868186     IErMin= 3 ErrMin= 5.68D-03
 ErrMax= 5.68D-03 EMaxC= 1.00D-01 BMatC= 1.44D-02 BMatP= 2.03D-02
 IDIUse=3 WtCom= 9.43D-01 WtEn= 5.68D-02
 Coeff-Com: -0.327D-01 0.458D+00 0.574D+00
 Coeff-En:   0.000D+00 0.000D+00 0.100D+01
 Coeff:     -0.308D-01 0.432D+00 0.598D+00
 Gap=     0.139 Goal=   None    Shift=    0.000
 RMSDP=7.73D-04 MaxDP=3.00D-02 DE=-1.97D-01 OVMax= 5.84D-02

 Cycle   4  Pass 0  IDiag  1:
 E= -711.792992120775     Delta-E=       -0.009226252588 Rises=F Damp=F
 DIIS: error= 4.23D-03 at cycle   4 NSaved=   4.
 NSaved= 4 IEnMin= 4 EnMin= -711.792992120775     IErMin= 4 ErrMin= 4.23D-03
 ErrMax= 4.23D-03 EMaxC= 1.00D-01 BMatC= 5.64D-03 BMatP= 1.44D-02
 IDIUse=3 WtCom= 9.58D-01 WtEn= 4.23D-02
 Coeff-Com: -0.204D-01 0.123D+00 0.393D+00 0.505D+00
 Coeff-En:   0.000D+00 0.000D+00 0.315D+00 0.685D+00
 Coeff:     -0.195D-01 0.118D+00 0.389D+00 0.512D+00
 Gap=     0.138 Goal=   None    Shift=    0.000
 RMSDP=3.31D-04 MaxDP=1.17D-02 DE=-9.23D-03 OVMax= 2.51D-02

 Cycle   5  Pass 0  IDiag  1:
 E= -711.798818958268     Delta-E=       -0.005826837493 Rises=F Damp=F
 DIIS: error= 7.17D-04 at cycle   5 NSaved=   5.
 NSaved= 5 IEnMin= 5 EnMin= -711.798818958268     IErMin= 5 ErrMin= 7.17D-04
 ErrMax= 7.17D-04 EMaxC= 1.00D-01 BMatC= 2.45D-04 BMatP= 5.64D-03
 IDIUse=3 WtCom= 9.93D-01 WtEn= 7.17D-03
 Coeff-Com: -0.673D-02 0.252D-01 0.151D+00 0.262D+00 0.569D+00
 Coeff-En:   0.000D+00 0.000D+00 0.000D+00 0.000D+00 0.100D+01
 Coeff:     -0.668D-02 0.250D-01 0.150D+00 0.260D+00 0.572D+00
 Gap=     0.139 Goal=   None    Shift=    0.000
 RMSDP=7.40D-05 MaxDP=2.06D-03 DE=-5.83D-03 OVMax= 4.73D-03

 Cycle   6  Pass 0  IDiag  1:
 E= -711.799044277894     Delta-E=       -0.000225319626 Rises=F Damp=F
 DIIS: error= 2.25D-04 at cycle   6 NSaved=   6.
 NSaved= 6 IEnMin= 6 EnMin= -711.799044277894     IErMin= 6 ErrMin= 2.25D-04
 ErrMax= 2.25D-04 EMaxC= 1.00D-01 BMatC= 2.56D-05 BMatP= 2.45D-04
 IDIUse=3 WtCom= 9.98D-01 WtEn= 2.25D-03
 Coeff-Com: -0.178D-02 0.280D-02 0.475D-01 0.961D-01 0.317D+00 0.538D+00
 Coeff-En:   0.000D+00 0.000D+00 0.000D+00 0.000D+00 0.327D-01 0.967D+00
 Coeff:     -0.177D-02 0.280D-02 0.474D-01 0.959D-01 0.317D+00 0.539D+00
 Gap=     0.138 Goal=   None    Shift=    0.000
 RMSDP=2.20D-05 MaxDP=1.11D-03 DE=-2.25D-04 OVMax= 2.04D-03

 Cycle   7  Pass 0  IDiag  1:
 E= -711.799067519387     Delta-E=       -0.000023241493 Rises=F Damp=F
 DIIS: error= 7.95D-05 at cycle   7 NSaved=   7.
 NSaved= 7 IEnMin= 7 EnMin= -711.799067519387     IErMin= 7 ErrMin= 7.95D-05
 ErrMax= 7.95D-05 EMaxC= 1.00D-01 BMatC= 1.79D-06 BMatP= 2.56D-05
 IDIUse=1 WtCom= 1.00D+00 WtEn= 0.00D+00
 Coeff-Com: -0.654D-03 0.471D-03 0.203D-01 0.426D-01 0.159D+00 0.310D+00
 Coeff-Com:  0.469D+00
 Coeff:     -0.654D-03 0.471D-03 0.203D-01 0.426D-01 0.159D+00 0.310D+00
 Coeff:      0.469D+00
 Gap=     0.138 Goal=   None    Shift=    0.000
 RMSDP=6.77D-06 MaxDP=3.42D-04 DE=-2.32D-05 OVMax= 8.23D-04

 Initial convergence to 1.0D-05 achieved.  Increase integral accuracy.
 Cycle   8  Pass 1  IDiag  1:
 E= -711.799098780718     Delta-E=       -0.000031261330 Rises=F Damp=F
 DIIS: error= 1.92D-05 at cycle   1 NSaved=   1.
 NSaved= 1 IEnMin= 1 EnMin= -711.799098780718     IErMin= 1 ErrMin= 1.92D-05
 ErrMax= 1.92D-05 EMaxC= 1.00D-01 BMatC= 2.78D-07 BMatP= 2.78D-07
 IDIUse=1 WtCom= 1.00D+00 WtEn= 0.00D+00
 Coeff-Com:  0.100D+01
 Coeff:      0.100D+01
 Gap=     0.138 Goal=   None    Shift=    0.000
 RMSDP=6.77D-06 MaxDP=3.42D-04 DE=-3.13D-05 OVMax= 6.89D-04

 Cycle   9  Pass 1  IDiag  1:
 E= -711.799098357649     Delta-E=        0.000000423069 Rises=F Damp=F
 DIIS: error= 4.07D-05 at cycle   2 NSaved=   2.
 NSaved= 2 IEnMin= 1 EnMin= -711.799098780718     IErMin= 1 ErrMin= 1.92D-05
 ErrMax= 4.07D-05 EMaxC= 1.00D-01 BMatC= 6.76D-07 BMatP= 2.78D-07
 IDIUse=1 WtCom= 1.00D+00 WtEn= 0.00D+00
 Coeff-Com:  0.625D+00 0.375D+00
 Coeff:      0.625D+00 0.375D+00
 Gap=     0.138 Goal=   None    Shift=    0.000
 RMSDP=4.06D-06 MaxDP=1.38D-04 DE= 4.23D-07 OVMax= 5.74D-04

 Cycle  10  Pass 1  IDiag  1:
 E= -711.799099079513     Delta-E=       -0.000000721864 Rises=F Damp=F
 DIIS: error= 8.48D-06 at cycle   3 NSaved=   3.
 NSaved= 3 IEnMin= 3 EnMin= -711.799099079513     IErMin= 3 ErrMin= 8.48D-06
 ErrMax= 8.48D-06 EMaxC= 1.00D-01 BMatC= 2.51D-08 BMatP= 2.78D-07
 IDIUse=1 WtCom= 1.00D+00 WtEn= 0.00D+00
 Coeff-Com:  0.429D-01 0.163D+00 0.794D+00
 Coeff:      0.429D-01 0.163D+00 0.794D+00
 Gap=     0.138 Goal=   None    Shift=    0.000
 RMSDP=8.82D-07 MaxDP=3.56D-05 DE=-7.22D-07 OVMax= 1.20D-04

 Cycle  11  Pass 1  IDiag  1:
 E= -711.799099103387     Delta-E=       -0.000000023874 Rises=F Damp=F
 DIIS: error= 3.25D-06 at cycle   4 NSaved=   4.
 NSaved= 4 IEnMin= 4 EnMin= -711.799099103387     IErMin= 4 ErrMin= 3.25D-06
 ErrMax= 3.25D-06 EMaxC= 1.00D-01 BMatC= 5.13D-09 BMatP= 2.51D-08
 IDIUse=1 WtCom= 1.00D+00 WtEn= 0.00D+00
 Coeff-Com: -0.107D-01 0.749D-01 0.476D+00 0.460D+00
 Coeff:     -0.107D-01 0.749D-01 0.476D+00 0.460D+00
 Gap=     0.138 Goal=   None    Shift=    0.000
 RMSDP=3.14D-07 MaxDP=1.63D-05 DE=-2.39D-08 OVMax= 3.30D-05

 Cycle  12  Pass 1  IDiag  1:
 E= -711.799099108443     Delta-E=       -0.000000005056 Rises=F Damp=F
 DIIS: error= 1.27D-06 at cycle   5 NSaved=   5.
 NSaved= 5 IEnMin= 5 EnMin= -711.799099108443     IErMin= 5 ErrMin= 1.27D-06
 ErrMax= 1.27D-06 EMaxC= 1.00D-01 BMatC= 2.97D-10 BMatP= 5.13D-09
 IDIUse=1 WtCom= 1.00D+00 WtEn= 0.00D+00
 Coeff-Com: -0.897D-02 0.326D-01 0.222D+00 0.266D+00 0.488D+00
 Coeff:     -0.897D-02 0.326D-01 0.222D+00 0.266D+00 0.488D+00
 Gap=     0.138 Goal=   None    Shift=    0.000
 RMSDP=9.56D-08 MaxDP=2.77D-06 DE=-5.06D-09 OVMax= 1.02D-05

 Cycle  13  Pass 1  IDiag  1:
 E= -711.799099108741     Delta-E=       -0.000000000298 Rises=F Damp=F
 DIIS: error= 4.68D-07 at cycle   6 NSaved=   6.
 NSaved= 6 IEnMin= 6 EnMin= -711.799099108741     IErMin= 6 ErrMin= 4.68D-07
 ErrMax= 4.68D-07 EMaxC= 1.00D-01 BMatC= 3.91D-11 BMatP= 2.97D-10
 IDIUse=1 WtCom= 1.00D+00 WtEn= 0.00D+00
 Coeff-Com: -0.449D-02 0.120D-01 0.852D-01 0.114D+00 0.308D+00 0.485D+00
 Coeff:     -0.449D-02 0.120D-01 0.852D-01 0.114D+00 0.308D+00 0.485D+00
 Gap=     0.138 Goal=   None    Shift=    0.000
 RMSDP=2.82D-08 MaxDP=1.09D-06 DE=-2.98D-10 OVMax= 3.30D-06

 Cycle  14  Pass 1  IDiag  1:
 E= -711.799099108777     Delta-E=       -0.000000000037 Rises=F Damp=F
 DIIS: error= 4.84D-08 at cycle   7 NSaved=   7.
 NSaved= 7 IEnMin= 7 EnMin= -711.799099108777     IErMin= 7 ErrMin= 4.84D-08
 ErrMax= 4.84D-08 EMaxC= 1.00D-01 BMatC= 1.15D-12 BMatP= 3.91D-11
 IDIUse=1 WtCom= 1.00D+00 WtEn= 0.00D+00
 Coeff-Com: -0.120D-02 0.250D-02 0.184D-01 0.268D-01 0.914D-01 0.203D+00
 Coeff-Com:  0.659D+00
 Coeff:     -0.120D-02 0.250D-02 0.184D-01 0.268D-01 0.914D-01 0.203D+00
 Coeff:      0.659D+00
 Gap=     0.138 Goal=   None    Shift=    0.000
 RMSDP=6.18D-09 MaxDP=3.12D-07 DE=-3.66D-11 OVMax= 5.19D-07

 SCF Done:  E(RB3LYP) =  -711.799099109     A.U. after   14 cycles
             Convg  =    0.6181D-08             -V/T =  2.0093
 KE= 7.052550485443D+02 PE=-3.909430597770D+03 EE= 1.363580944933D+03
 Leave Link  502 at Tue Sep 28 17:57:26 2021, MaxMem= 1342177280 cpu:     416.2
 (Enter /sw/target/amd/app/gaussian/Gaussian09RevA.02_gcc-4.9.2/g09/l508.exe)
 QCSCF skips out because SCF is already converged.
 Leave Link  508 at Tue Sep 28 17:57:33 2021, MaxMem= 1342177280 cpu:       0.0
 (Enter /sw/target/amd/app/gaussian/Gaussian09RevA.02_gcc-4.9.2/g09/l601.exe)
 Copying SCF densities to generalized density rwf, IOpCl= 0 IROHF=0.

 **********************************************************************

            Population analysis using the SCF density.

 **********************************************************************

 Orbital symmetries:
       Occupied  (A) (A) (A) (A) (A) (A) (A) (A) (A) (A) (A) (A)
                 (A) (A) (A) (A) (A) (A) (A) (A) (A) (A) (A) (A)
                 (A) (A) (A) (A) (A) (A) (A) (A) (A) (A) (A) (A)
                 (A) (A) (A) (A) (A) (A) (A) (A) (A) (A) (A) (A)
                 (A) (A) (A) (A) (A) (A) (A) (A) (A) (A) (A) (A)
                 (A)
       Virtual   (A) (A) (A) (A) (A) (A) (A) (A) (A) (A) (A) (A)
                 (A) (A) (A) (A) (A) (A) (A) (A) (A) (A) (A) (A)
                 (A) (A) (A) (A) (A) (A) (A) (A) (A) (A) (A) (A)
                 (A) (A) (A) (A) (A) (A) (A) (A) (A) (A) (A) (A)
                 (A) (A) (A) (A) (A) (A) (A) (A) (A) (A) (A) (A)
                 (A) (A) (A) (A) (A) (A) (A) (A) (A) (A) (A) (A)
                 (A) (A) (A) (A) (A) (A) (A) (A) (A) (A) (A) (A)
                 (A) (A) (A) (A) (A) (A) (A) (A) (A) (A) (A) (A)
                 (A) (A) (A) (A) (A) (A) (A) (A) (A) (A) (A) (A)
                 (A) (A) (A) (A) (A) (A) (A) (A) (A) (A) (A) (A)
                 (A) (A) (A) (A) (A) (A) (A) (A) (A) (A) (A) (A)
                 (A) (A) (A) (A) (A) (A) (A) (A) (A) (A) (A) (A)
                 (A) (A) (A) (A) (A) (A) (A) (A) (A) (A) (A) (A)
                 (A) (A) (A) (A) (A) (A) (A) (A) (A) (A) (A) (A)
                 (A) (A) (A) (A) (A) (A) (A) (A) (A) (A) (A) (A)
                 (A) (A) (A) (A) (A) (A) (A) (A) (A) (A) (A) (A)
                 (A) (A) (A) (A) (A) (A) (A) (A) (A) (A) (A) (A)
                 (A) (A) (A) (A) (A) (A) (A) (A) (A) (A) (A) (A)
                 (A) (A) (A) (A) (A) (A) (A) (A) (A) (A) (A) (A)
 The electronic state is 1-A.
 Alpha  occ. eigenvalues --  -19.16571 -14.33788 -10.23274 -10.23099 -10.21525
 Alpha  occ. eigenvalues --  -10.21426 -10.21352 -10.18931 -10.18876 -10.17939
 Alpha  occ. eigenvalues --  -10.17825 -10.17735 -10.17630 -10.17600 -10.17465
 Alpha  occ. eigenvalues --  -10.16815 -10.16575  -1.05072  -0.94787  -0.85960
 Alpha  occ. eigenvalues --   -0.81713  -0.78172  -0.75789  -0.73841  -0.72392
 Alpha  occ. eigenvalues --   -0.71289  -0.67519  -0.62751  -0.61280  -0.59520
 Alpha  occ. eigenvalues --   -0.57786  -0.56736  -0.52760  -0.51856  -0.50191
 Alpha  occ. eigenvalues --   -0.49422  -0.46680  -0.46114  -0.45630  -0.43586
 Alpha  occ. eigenvalues --   -0.43158  -0.43090  -0.41174  -0.40646  -0.40109
 Alpha  occ. eigenvalues --   -0.39509  -0.38772  -0.37924  -0.36931  -0.35048
 Alpha  occ. eigenvalues --   -0.34763  -0.34134  -0.33969  -0.33676  -0.33123
 Alpha  occ. eigenvalues --   -0.31415  -0.29872  -0.27333  -0.23167  -0.20890
 Alpha  occ. eigenvalues --   -0.16525
 Alpha virt. eigenvalues --   -0.02689   0.02642   0.04762   0.08100   0.10160
 Alpha virt. eigenvalues --    0.10845   0.11293   0.12341   0.12704   0.12999
 Alpha virt. eigenvalues --    0.13967   0.14763   0.15368   0.15887   0.15968
 Alpha virt. eigenvalues --    0.16838   0.17255   0.17507   0.17684   0.19738
 Alpha virt. eigenvalues --    0.19965   0.20417   0.21224   0.22168   0.22793
 Alpha virt. eigenvalues --    0.23417   0.25592   0.26909   0.28114   0.28949
 Alpha virt. eigenvalues --    0.29826   0.31528   0.35333   0.36116   0.37649
 Alpha virt. eigenvalues --    0.38783   0.40318   0.49997   0.50216   0.50734
 Alpha virt. eigenvalues --    0.51220   0.51995   0.52423   0.53308   0.53464
 Alpha virt. eigenvalues --    0.54609   0.55256   0.55694   0.56761   0.57562
 Alpha virt. eigenvalues --    0.58034   0.58699   0.58955   0.59190   0.60054
 Alpha virt. eigenvalues --    0.60425   0.62139   0.62614   0.62876   0.64263
 Alpha virt. eigenvalues --    0.65207   0.65717   0.66041   0.67773   0.68404
 Alpha virt. eigenvalues --    0.69981   0.70512   0.71093   0.72311   0.75740
 Alpha virt. eigenvalues --    0.76881   0.78212   0.81343   0.82964   0.83340
 Alpha virt. eigenvalues --    0.83962   0.84693   0.84861   0.84952   0.86317
 Alpha virt. eigenvalues --    0.86447   0.86751   0.87024   0.87511   0.88286
 Alpha virt. eigenvalues --    0.88558   0.89142   0.89695   0.90436   0.93244
 Alpha virt. eigenvalues --    0.93434   0.93979   0.94460   0.95129   0.95456
 Alpha virt. eigenvalues --    0.98312   1.00602   1.00968   1.03828   1.04070
 Alpha virt. eigenvalues --    1.05996   1.07445   1.08907   1.10523   1.12048
 Alpha virt. eigenvalues --    1.15031   1.17182   1.19877   1.21125   1.22732
 Alpha virt. eigenvalues --    1.25174   1.26069   1.26531   1.27880   1.31114
 Alpha virt. eigenvalues --    1.34227   1.37548   1.38666   1.40465   1.41520
 Alpha virt. eigenvalues --    1.43010   1.45066   1.46482   1.48306   1.49192
 Alpha virt. eigenvalues --    1.50735   1.51085   1.52763   1.53205   1.53602
 Alpha virt. eigenvalues --    1.56648   1.59696   1.64091   1.69911   1.71926
 Alpha virt. eigenvalues --    1.73924   1.76144   1.81078   1.82164   1.82404
 Alpha virt. eigenvalues --    1.84108   1.84437   1.86151   1.87998   1.88463
 Alpha virt. eigenvalues --    1.89250   1.90672   1.92757   1.94042   1.95196
 Alpha virt. eigenvalues --    1.95614   1.97181   1.98383   1.99263   2.01198
 Alpha virt. eigenvalues --    2.02112   2.02863   2.04370   2.05588   2.06536
 Alpha virt. eigenvalues --    2.07436   2.09283   2.11013   2.12361   2.12793
 Alpha virt. eigenvalues --    2.15584   2.17385   2.18186   2.19908   2.21610
 Alpha virt. eigenvalues --    2.23625   2.24502   2.25927   2.26917   2.29352
 Alpha virt. eigenvalues --    2.31742   2.34428   2.34735   2.35386   2.37105
 Alpha virt. eigenvalues --    2.40392   2.40774   2.41823   2.44399   2.47205
 Alpha virt. eigenvalues --    2.52042   2.53852   2.57258   2.57402   2.59022
 Alpha virt. eigenvalues --    2.62982   2.63810   2.66765   2.67547   2.70608
 Alpha virt. eigenvalues --    2.71257   2.73038   2.75762   2.78888   2.80885
 Alpha virt. eigenvalues --    2.84455   2.86794   2.89493   2.92593   2.99882
 Alpha virt. eigenvalues --    3.01129   3.06486   3.17744   3.23118   3.41584
 Alpha virt. eigenvalues --    3.52926   4.06553   4.08608   4.11129   4.12185
 Alpha virt. eigenvalues --    4.14819   4.16904   4.21135   4.23947   4.26876
 Alpha virt. eigenvalues --    4.29752   4.34233   4.42696   4.47084   4.53968
 Alpha virt. eigenvalues --    4.56666   4.66760   4.87967
          Condensed to atoms (all electrons):
              1          2          3          4          5          6
     1  C    4.893011   0.251368  -0.044526  -0.006711   0.000495  -0.000049
     2  O    0.251368   8.209593   0.268309  -0.060850   0.003507   0.000392
     3  C   -0.044526   0.268309   4.573397   0.423880   0.011174  -0.036886
     4  C   -0.006711  -0.060850   0.423880   5.148949   0.459689  -0.002405
     5  C    0.000495   0.003507   0.011174   0.459689   5.168971   0.443646
     6  C   -0.000049   0.000392  -0.036886  -0.002405   0.443646   4.658945
     7  C   -0.000026   0.001901   0.008976  -0.041865  -0.024147   0.485500
     8  C    0.003947  -0.049006   0.499934  -0.055687  -0.077907  -0.030128
     9  C    0.000004  -0.000084   0.008326  -0.000810   0.018764  -0.023790
    10  C   -0.000000   0.000000  -0.000312   0.000066  -0.000575  -0.042413
    11  C    0.000000  -0.000000   0.000034  -0.000282   0.007913   0.012862
    12  C   -0.000000   0.000001  -0.000716   0.009240  -0.096838   0.422081
    13  N   -0.000000   0.000000  -0.000000   0.000001  -0.000134   0.003788
    14  C    0.000000   0.000000  -0.000000  -0.000000  -0.000008  -0.000107
    15  C   -0.000000   0.000000   0.000000   0.000000   0.000000  -0.000003
    16  C    0.000000  -0.000000   0.000000   0.000000  -0.000000   0.000003
    17  C    0.000000  -0.000000   0.000000  -0.000000   0.000001  -0.000046
    18  H    0.383934  -0.031293   0.003311   0.000185   0.000001   0.000000
    19  H    0.363841  -0.036629  -0.004742   0.004437  -0.000163  -0.000000
    20  H    0.363250  -0.036391  -0.004785   0.004700  -0.000162  -0.000002
    21  H    0.005793  -0.007141  -0.044883   0.350009  -0.034363   0.002457
    22  H   -0.000006  -0.000048   0.002940  -0.042977   0.349645  -0.035222
    23  H   -0.000229   0.000485  -0.039223   0.007711  -0.000067   0.004939
    24  H    0.000000  -0.000002   0.000104   0.000011  -0.000228   0.004643
    25  H    0.000000  -0.000000   0.000003  -0.000001   0.000010   0.000930
    26  H    0.000000  -0.000000   0.000010   0.000224  -0.009352  -0.042623
    27  H   -0.000000  -0.000000  -0.000000  -0.000000  -0.000007   0.000018
    28  H   -0.000000  -0.000000   0.000000   0.000000  -0.000027   0.000045
    29  H    0.000000   0.000000   0.000000  -0.000000   0.000000   0.000000
    30  H   -0.000000  -0.000000  -0.000000  -0.000000  -0.000000   0.000000
    31  H   -0.000000   0.000000  -0.000000   0.000000  -0.000000  -0.000000
    32  H    0.000000  -0.000000   0.000000  -0.000000   0.000000   0.000000
    33  H   -0.000000  -0.000000   0.000000   0.000000  -0.000000  -0.000009
    34  H   -0.000000  -0.000000   0.000000   0.000000  -0.000000   0.000007
              7          8          9         10         11         12
     1  C   -0.000026   0.003947   0.000004  -0.000000   0.000000  -0.000000
     2  O    0.001901  -0.049006  -0.000084   0.000000  -0.000000   0.000001
     3  C    0.008976   0.499934   0.008326  -0.000312   0.000034  -0.000716
     4  C   -0.041865  -0.055687  -0.000810   0.000066  -0.000282   0.009240
     5  C   -0.024147  -0.077907   0.018764  -0.000575   0.007913  -0.096838
     6  C    0.485500  -0.030128  -0.023790  -0.042413   0.012862   0.422081
     7  C    4.681707   0.422209   0.440970  -0.008303  -0.032800  -0.035187
     8  C    0.422209   5.296954  -0.101190   0.008802  -0.000519   0.018007
     9  C    0.440970  -0.101190   5.158621   0.488512   0.002090  -0.085536
    10  C   -0.008303   0.008802   0.488512   5.093156   0.475923  -0.052481
    11  C   -0.032800  -0.000519   0.002090   0.475923   4.515656   0.468681
    12  C   -0.035187   0.018007  -0.085536  -0.052481   0.468681   5.373832
    13  N    0.000652   0.000002   0.005089  -0.071708   0.308768  -0.065476
    14  C    0.000012   0.000000  -0.000100   0.006162  -0.029904  -0.013732
    15  C   -0.000000  -0.000000   0.000004  -0.000272   0.004454   0.000329
    16  C    0.000000  -0.000000  -0.000005   0.000416   0.004442  -0.000237
    17  C   -0.000006  -0.000000   0.000046  -0.010743  -0.034651   0.005937
    18  H    0.000001  -0.000086  -0.000000   0.000000   0.000000  -0.000000
    19  H    0.000003   0.000060  -0.000000   0.000000   0.000000   0.000000
    20  H    0.000004   0.000097  -0.000000  -0.000000   0.000000   0.000000
    21  H    0.001065   0.004176   0.000011  -0.000001   0.000003  -0.000202
    22  H    0.004856   0.000712  -0.000232   0.000016   0.000089  -0.009471
    23  H   -0.043619   0.342071  -0.009161   0.000226   0.000008  -0.000157
    24  H   -0.036815  -0.008377   0.350979  -0.041676   0.002919   0.000785
    25  H    0.002824  -0.000202  -0.038238   0.344540  -0.038397   0.005945
    26  H    0.005069  -0.000197   0.000361   0.006380  -0.043596   0.342957
    27  H    0.000004   0.000000   0.000004  -0.000318  -0.003104   0.002285
    28  H   -0.000009   0.000000  -0.000029   0.000430  -0.000598   0.006677
    29  H   -0.000000  -0.000000  -0.000000   0.000002  -0.000102  -0.000003
    30  H    0.000000   0.000000  -0.000000  -0.000024  -0.000318   0.000030
    31  H    0.000000   0.000000   0.000000  -0.000003  -0.000261   0.000004
    32  H   -0.000000  -0.000000   0.000000   0.000004  -0.000101   0.000003
    33  H   -0.000001  -0.000000   0.000058   0.002689  -0.000959   0.000128
    34  H   -0.000005   0.000000  -0.000012   0.003382  -0.004015  -0.000168
             13         14         15         16         17         18
     1  C   -0.000000   0.000000  -0.000000   0.000000   0.000000   0.383934
     2  O    0.000000   0.000000   0.000000  -0.000000  -0.000000  -0.031293
     3  C   -0.000000  -0.000000   0.000000   0.000000   0.000000   0.003311
     4  C    0.000001  -0.000000   0.000000   0.000000  -0.000000   0.000185
     5  C   -0.000134  -0.000008   0.000000  -0.000000   0.000001   0.000001
     6  C    0.003788  -0.000107  -0.000003   0.000003  -0.000046   0.000000
     7  C    0.000652   0.000012  -0.000000   0.000000  -0.000006   0.000001
     8  C    0.000002   0.000000  -0.000000  -0.000000  -0.000000  -0.000086
     9  C    0.005089  -0.000100   0.000004  -0.000005   0.000046  -0.000000
    10  C   -0.071708   0.006162  -0.000272   0.000416  -0.010743   0.000000
    11  C    0.308768  -0.029904   0.004454   0.004442  -0.034651   0.000000
    12  C   -0.065476  -0.013732   0.000329  -0.000237   0.005937  -0.000000
    13  N    7.014186   0.331912  -0.051641  -0.051862   0.329231  -0.000000
    14  C    0.331912   4.890424   0.375580  -0.062699  -0.089287   0.000000
    15  C   -0.051641   0.375580   5.052351   0.368627  -0.062431   0.000000
    16  C   -0.051862  -0.062699   0.368627   5.055681   0.369453  -0.000000
    17  C    0.329231  -0.089287  -0.062431   0.369453   4.895343   0.000000
    18  H   -0.000000   0.000000   0.000000  -0.000000   0.000000   0.548126
    19  H   -0.000000  -0.000000   0.000000   0.000000  -0.000000  -0.034608
    20  H   -0.000000   0.000000  -0.000000  -0.000000  -0.000000  -0.034197
    21  H   -0.000000  -0.000000  -0.000000  -0.000000   0.000000  -0.000115
    22  H   -0.000002  -0.000005   0.000000  -0.000000   0.000000  -0.000000
    23  H    0.000000   0.000000   0.000000  -0.000000  -0.000000  -0.000025
    24  H   -0.000109   0.000002  -0.000000  -0.000000  -0.000006  -0.000000
    25  H   -0.011521  -0.000008  -0.000008  -0.000017   0.007696  -0.000000
    26  H   -0.011238   0.007322  -0.000007  -0.000009  -0.000039  -0.000000
    27  H   -0.054451   0.372815  -0.038985  -0.006060   0.005567   0.000000
    28  H   -0.044946   0.365806  -0.027681   0.007048   0.003196  -0.000000
    29  H    0.003902  -0.029708   0.370703  -0.030796   0.005672   0.000000
    30  H   -0.001870  -0.033763   0.377232  -0.042791   0.002098   0.000000
    31  H   -0.001891   0.001277  -0.041422   0.376295  -0.032261   0.000000
    32  H    0.003555   0.005524  -0.030650   0.373800  -0.030999   0.000000
    33  H   -0.046071   0.003884   0.006686  -0.031140   0.375587   0.000000
    34  H   -0.055374   0.004441  -0.006668  -0.033333   0.361636  -0.000000
             19         20         21         22         23         24
     1  C    0.363841   0.363250   0.005793  -0.000006  -0.000229   0.000000
     2  O   -0.036629  -0.036391  -0.007141  -0.000048   0.000485  -0.000002
     3  C   -0.004742  -0.004785  -0.044883   0.002940  -0.039223   0.000104
     4  C    0.004437   0.004700   0.350009  -0.042977   0.007711   0.000011
     5  C   -0.000163  -0.000162  -0.034363   0.349645  -0.000067  -0.000228
     6  C   -0.000000  -0.000002   0.002457  -0.035222   0.004939   0.004643
     7  C    0.000003   0.000004   0.001065   0.004856  -0.043619  -0.036815
     8  C    0.000060   0.000097   0.004176   0.000712   0.342071  -0.008377
     9  C   -0.000000  -0.000000   0.000011  -0.000232  -0.009161   0.350979
    10  C    0.000000  -0.000000  -0.000001   0.000016   0.000226  -0.041676
    11  C    0.000000   0.000000   0.000003   0.000089   0.000008   0.002919
    12  C    0.000000   0.000000  -0.000202  -0.009471  -0.000157   0.000785
    13  N   -0.000000  -0.000000  -0.000000  -0.000002   0.000000  -0.000109
    14  C   -0.000000   0.000000  -0.000000  -0.000005   0.000000   0.000002
    15  C    0.000000  -0.000000  -0.000000   0.000000   0.000000  -0.000000
    16  C    0.000000  -0.000000  -0.000000  -0.000000  -0.000000  -0.000000
    17  C   -0.000000  -0.000000   0.000000   0.000000  -0.000000  -0.000006
    18  H   -0.034608  -0.034197  -0.000115  -0.000000  -0.000025  -0.000000
    19  H    0.604037  -0.047519   0.001795   0.000002   0.000030   0.000000
    20  H   -0.047519   0.603323   0.001834   0.000002   0.000031  -0.000000
    21  H    0.001795   0.001834   0.598612  -0.005388  -0.000177  -0.000000
    22  H    0.000002   0.000002  -0.005388   0.604217   0.000019   0.000003
    23  H    0.000030   0.000031  -0.000177   0.000019   0.603197   0.006081
    24  H    0.000000  -0.000000  -0.000000   0.000003   0.006081   0.601005
    25  H    0.000000  -0.000000  -0.000000  -0.000000  -0.000014  -0.005461
    26  H    0.000000   0.000000  -0.000015   0.007123   0.000003   0.000020
    27  H   -0.000000   0.000000   0.000000  -0.000002  -0.000000  -0.000000
    28  H    0.000000  -0.000000  -0.000000   0.000000   0.000000   0.000000
    29  H   -0.000000   0.000000   0.000000   0.000000  -0.000000   0.000000
    30  H    0.000000  -0.000000   0.000000  -0.000000  -0.000000  -0.000000
    31  H    0.000000  -0.000000   0.000000  -0.000000   0.000000   0.000000
    32  H    0.000000  -0.000000   0.000000   0.000000   0.000000   0.000000
    33  H   -0.000000   0.000000   0.000000  -0.000000   0.000000  -0.000004
    34  H    0.000000  -0.000000  -0.000000  -0.000000   0.000000   0.000004
             25         26         27         28         29         30
     1  C    0.000000   0.000000  -0.000000  -0.000000   0.000000  -0.000000
     2  O   -0.000000  -0.000000  -0.000000  -0.000000   0.000000  -0.000000
     3  C    0.000003   0.000010  -0.000000   0.000000   0.000000  -0.000000
     4  C   -0.000001   0.000224  -0.000000   0.000000  -0.000000  -0.000000
     5  C    0.000010  -0.009352  -0.000007  -0.000027   0.000000  -0.000000
     6  C    0.000930  -0.042623   0.000018   0.000045   0.000000   0.000000
     7  C    0.002824   0.005069   0.000004  -0.000009  -0.000000   0.000000
     8  C   -0.000202  -0.000197   0.000000   0.000000  -0.000000   0.000000
     9  C   -0.038238   0.000361   0.000004  -0.000029  -0.000000  -0.000000
    10  C    0.344540   0.006380  -0.000318   0.000430   0.000002  -0.000024
    11  C   -0.038397  -0.043596  -0.003104  -0.000598  -0.000102  -0.000318
    12  C    0.005945   0.342957   0.002285   0.006677  -0.000003   0.000030
    13  N   -0.011521  -0.011238  -0.054451  -0.044946   0.003902  -0.001870
    14  C   -0.000008   0.007322   0.372815   0.365806  -0.029708  -0.033763
    15  C   -0.000008  -0.000007  -0.038985  -0.027681   0.370703   0.377232
    16  C   -0.000017  -0.000009  -0.006060   0.007048  -0.030796  -0.042791
    17  C    0.007696  -0.000039   0.005567   0.003196   0.005672   0.002098
    18  H   -0.000000  -0.000000   0.000000  -0.000000   0.000000   0.000000
    19  H    0.000000   0.000000  -0.000000   0.000000  -0.000000   0.000000
    20  H   -0.000000   0.000000   0.000000  -0.000000   0.000000  -0.000000
    21  H   -0.000000  -0.000015   0.000000  -0.000000   0.000000   0.000000
    22  H   -0.000000   0.007123  -0.000002   0.000000   0.000000  -0.000000
    23  H   -0.000014   0.000003  -0.000000   0.000000  -0.000000  -0.000000
    24  H   -0.005461   0.000020  -0.000000   0.000000   0.000000  -0.000000
    25  H    0.608727  -0.000202  -0.000004   0.000004  -0.000000  -0.000002
    26  H   -0.000202   0.621078   0.000765   0.000593   0.000003   0.000004
    27  H   -0.000004   0.000765   0.632777  -0.054102  -0.003161   0.005326
    28  H    0.000004   0.000593  -0.054102   0.601862   0.000656  -0.007855
    29  H   -0.000000   0.000003  -0.003161   0.000656   0.578893  -0.033851
    30  H   -0.000002   0.000004   0.005326  -0.007855  -0.033851   0.586923
    31  H    0.000002   0.000000   0.001898   0.000004  -0.006254   0.005542
    32  H    0.000004  -0.000000  -0.000209  -0.000126   0.000044  -0.006193
    33  H    0.000300   0.000001   0.000586  -0.000359  -0.000111  -0.000026
    34  H    0.001546  -0.000002  -0.000632   0.000857  -0.000289   0.002199
             31         32         33         34
     1  C   -0.000000   0.000000  -0.000000  -0.000000
     2  O    0.000000  -0.000000  -0.000000  -0.000000
     3  C   -0.000000   0.000000   0.000000   0.000000
     4  C    0.000000  -0.000000   0.000000   0.000000
     5  C   -0.000000   0.000000  -0.000000  -0.000000
     6  C   -0.000000   0.000000  -0.000009   0.000007
     7  C    0.000000  -0.000000  -0.000001  -0.000005
     8  C    0.000000  -0.000000  -0.000000   0.000000
     9  C    0.000000   0.000000   0.000058  -0.000012
    10  C   -0.000003   0.000004   0.002689   0.003382
    11  C   -0.000261  -0.000101  -0.000959  -0.004015
    12  C    0.000004   0.000003   0.000128  -0.000168
    13  N   -0.001891   0.003555  -0.046071  -0.055374
    14  C    0.001277   0.005524   0.003884   0.004441
    15  C   -0.041422  -0.030650   0.006686  -0.006668
    16  C    0.376295   0.373800  -0.031140  -0.033333
    17  C   -0.032261  -0.030999   0.375587   0.361636
    18  H    0.000000   0.000000   0.000000  -0.000000
    19  H    0.000000   0.000000  -0.000000   0.000000
    20  H   -0.000000  -0.000000   0.000000  -0.000000
    21  H    0.000000   0.000000   0.000000  -0.000000
    22  H   -0.000000   0.000000  -0.000000  -0.000000
    23  H    0.000000   0.000000   0.000000   0.000000
    24  H    0.000000   0.000000  -0.000004   0.000004
    25  H    0.000002   0.000004   0.000300   0.001546
    26  H    0.000000  -0.000000   0.000001  -0.000002
    27  H    0.001898  -0.000209   0.000586  -0.000632
    28  H    0.000004  -0.000126  -0.000359   0.000857
    29  H   -0.006254   0.000044  -0.000111  -0.000289
    30  H    0.005542  -0.006193  -0.000026   0.002199
    31  H    0.584141  -0.033361  -0.007834   0.005438
    32  H   -0.033361   0.575650   0.001144  -0.003765
    33  H   -0.007834   0.001144   0.602315  -0.055402
    34  H    0.005438  -0.003765  -0.055402   0.644321
 Mulliken atomic charges:
              1
     1  C   -0.214095
     2  O   -0.514114
     3  C    0.375675
     4  C   -0.197515
     5  C   -0.219838
     6  C    0.173428
     7  C    0.167029
     8  C   -0.273674
     9  C   -0.214651
    10  C   -0.201877
    11  C    0.385764
    12  C   -0.296717
    13  N   -0.532789
    14  C   -0.105838
    15  C   -0.296198
    16  C   -0.296814
    17  C   -0.100995
    18  H    0.164765
    19  H    0.149455
    20  H    0.149817
    21  H    0.126528
    22  H    0.123729
    23  H    0.127870
    24  H    0.126121
    25  H    0.121545
    26  H    0.115367
    27  H    0.138992
    28  H    0.148555
    29  H    0.144400
    30  H    0.147340
    31  H    0.148687
    32  H    0.145678
    33  H    0.148536
    34  H    0.135833
 Sum of Mulliken atomic charges =  -0.00000
 Mulliken charges with hydrogens summed into heavy atoms:
              1
     1  C    0.249943
     2  O   -0.514114
     3  C    0.375675
     4  C   -0.070986
     5  C   -0.096108
     6  C    0.173428
     7  C    0.167029
     8  C   -0.145804
     9  C   -0.088530
    10  C   -0.080332
    11  C    0.385764
    12  C   -0.181350
    13  N   -0.532789
    14  C    0.181709
    15  C   -0.004458
    16  C   -0.002449
    17  C    0.183374
 Sum of Mulliken charges with hydrogens summed into heavy atoms =  -0.00000
 Electronic spatial extent (au):  <R**2>=           6071.6211
 Charge=             -0.0000 electrons
 Dipole moment (field-independent basis, Debye):
    X=              1.8216    Y=             -1.3147    Z=              0.0800  Tot=              2.2479
 Quadrupole moment (field-independent basis, Debye-Ang):
   XX=            -78.0153   YY=            -93.8611   ZZ=           -103.5808
   XY=              6.2153   XZ=              1.1389   YZ=              0.5504
 Traceless Quadrupole moment (field-independent basis, Debye-Ang):
   XX=             13.8037   YY=             -2.0420   ZZ=            -11.7617
   XY=              6.2153   XZ=              1.1389   YZ=              0.5504
 Octapole moment (field-independent basis, Debye-Ang**2):
  XXX=            -37.8210  YYY=              2.5230  ZZZ=              0.7382  XYY=             -1.9355
  XXY=            -36.8362  XXZ=             -2.3389  XZZ=              2.4815  YZZ=             -1.0412
  YYZ=              0.2356  XYZ=             -1.3244
 Hexadecapole moment (field-independent basis, Debye-Ang**3):
 XXXX=          -6219.1739 YYYY=           -800.1992 ZZZZ=           -171.6635 XXXY=            180.8722
 XXXZ=             18.0401 YYYX=            -10.3418 YYYZ=              8.8057 ZZZX=             -2.4881
 ZZZY=             -3.0937 XXYY=          -1285.7778 XXZZ=          -1218.3083 YYZZ=           -177.0915
 XXYZ=              1.7939 YYXZ=             -2.2826 ZZXY=             -2.0264
[...]
    24    O    2  pz     Val( 2p)     1.80077
    25    O    2  pz     Ryd( 3p)     0.00225
    26    O    2  dxy    Ryd( 3d)     0.00129
    27    O    2  dxz    Ryd( 3d)     0.00047
    28    O    2  dyz    Ryd( 3d)     0.00152
    29    O    2  dx2y2  Ryd( 3d)     0.00129
    30    O    2  dz2    Ryd( 3d)     0.00076

    31    C    3  S      Cor( 1S)     1.99877
    32    C    3  S      Val( 2S)     0.83598
    33    C    3  S      Ryd( 3S)     0.00151
    34    C    3  S      Ryd( 4S)     0.00013
    35    C    3  px     Val( 2p)     0.76717
    36    C    3  px     Ryd( 3p)     0.00625
    37    C    3  py     Val( 2p)     1.06996
    38    C    3  py     Ryd( 3p)     0.00710
    39    C    3  pz     Val( 2p)     0.95182
    40    C    3  pz     Ryd( 3p)     0.00092
    41    C    3  dxy    Ryd( 3d)     0.00151
    42    C    3  dxz    Ryd( 3d)     0.00188
    43    C    3  dyz    Ryd( 3d)     0.00121
    44    C    3  dx2y2  Ryd( 3d)     0.00155
    45    C    3  dz2    Ryd( 3d)     0.00049

    46    C    4  S      Cor( 1S)     1.99903
    47    C    4  S      Val( 2S)     0.94760
    48    C    4  S      Ryd( 3S)     0.00068
    49    C    4  S      Ryd( 4S)     0.00005
    50    C    4  px     Val( 2p)     1.13470
    51    C    4  px     Ryd( 3p)     0.00379
    52    C    4  py     Val( 2p)     1.12637
    53    C    4  py     Ryd( 3p)     0.00409
    54    C    4  pz     Val( 2p)     1.15468
    55    C    4  pz     Ryd( 3p)     0.00329
    56    C    4  dxy    Ryd( 3d)     0.00076
    57    C    4  dxz    Ryd( 3d)     0.00057
    58    C    4  dyz    Ryd( 3d)     0.00037
    59    C    4  dx2y2  Ryd( 3d)     0.00056
    60    C    4  dz2    Ryd( 3d)     0.00046

    61    C    5  S      Cor( 1S)     1.99908
    62    C    5  S      Val( 2S)     0.93585
    63    C    5  S      Ryd( 3S)     0.00074
    64    C    5  S      Ryd( 4S)     0.00005
    65    C    5  px     Val( 2p)     1.06633
    66    C    5  px     Ryd( 3p)     0.00429
    67    C    5  py     Val( 2p)     1.16330
    68    C    5  py     Ryd( 3p)     0.00482
    69    C    5  pz     Val( 2p)     1.06609
    70    C    5  pz     Ryd( 3p)     0.00328
    71    C    5  dxy    Ryd( 3d)     0.00070
    72    C    5  dxz    Ryd( 3d)     0.00070
    73    C    5  dyz    Ryd( 3d)     0.00026
    74    C    5  dx2y2  Ryd( 3d)     0.00074
    75    C    5  dz2    Ryd( 3d)     0.00043

    76    C    6  S      Cor( 1S)     1.99903
    77    C    6  S      Val( 2S)     0.86344
    78    C    6  S      Ryd( 3S)     0.00055
    79    C    6  S      Ryd( 4S)     0.00007
    80    C    6  px     Val( 2p)     1.08506
    81    C    6  px     Ryd( 3p)     0.00487
    82    C    6  py     Val( 2p)     1.08767
    83    C    6  py     Ryd( 3p)     0.00584
    84    C    6  pz     Val( 2p)     1.01022
    85    C    6  pz     Ryd( 3p)     0.00082
    86    C    6  dxy    Ryd( 3d)     0.00065
    87    C    6  dxz    Ryd( 3d)     0.00082
    88    C    6  dyz    Ryd( 3d)     0.00066
    89    C    6  dx2y2  Ryd( 3d)     0.00074
    90    C    6  dz2    Ryd( 3d)     0.00034

    91    C    7  S      Cor( 1S)     1.99902
    92    C    7  S      Val( 2S)     0.86542
    93    C    7  S      Ryd( 3S)     0.00044
    94    C    7  S      Ryd( 4S)     0.00007
    95    C    7  px     Val( 2p)     1.09305
    96    C    7  px     Ryd( 3p)     0.00490
    97    C    7  py     Val( 2p)     1.07749
    98    C    7  py     Ryd( 3p)     0.00553
    99    C    7  pz     Val( 2p)     0.98981
   100    C    7  pz     Ryd( 3p)     0.00087
   101    C    7  dxy    Ryd( 3d)     0.00069
   102    C    7  dxz    Ryd( 3d)     0.00101
   103    C    7  dyz    Ryd( 3d)     0.00055
   104    C    7  dx2y2  Ryd( 3d)     0.00072
   105    C    7  dz2    Ryd( 3d)     0.00034

   106    C    8  S      Cor( 1S)     1.99899
   107    C    8  S      Val( 2S)     0.94085
   108    C    8  S      Ryd( 3S)     0.00090
   109    C    8  S      Ryd( 4S)     0.00006
   110    C    8  px     Val( 2p)     1.06220
   111    C    8  px     Ryd( 3p)     0.00463
   112    C    8  py     Val( 2p)     1.17807
   113    C    8  py     Ryd( 3p)     0.00427
   114    C    8  pz     Val( 2p)     1.11971
   115    C    8  pz     Ryd( 3p)     0.00346
   116    C    8  dxy    Ryd( 3d)     0.00076
   117    C    8  dxz    Ryd( 3d)     0.00041
   118    C    8  dyz    Ryd( 3d)     0.00042
   119    C    8  dx2y2  Ryd( 3d)     0.00058
   120    C    8  dz2    Ryd( 3d)     0.00045

   121    C    9  S      Cor( 1S)     1.99907
   122    C    9  S      Val( 2S)     0.93779
   123    C    9  S      Ryd( 3S)     0.00076
   124    C    9  S      Ryd( 4S)     0.00005
   125    C    9  px     Val( 2p)     1.06831
   126    C    9  px     Ryd( 3p)     0.00424
   127    C    9  py     Val( 2p)     1.16950
   128    C    9  py     Ryd( 3p)     0.00496
   129    C    9  pz     Val( 2p)     1.04562
   130    C    9  pz     Ryd( 3p)     0.00304
   131    C    9  dxy    Ryd( 3d)     0.00070
   132    C    9  dxz    Ryd( 3d)     0.00073
   133    C    9  dyz    Ryd( 3d)     0.00028
   134    C    9  dx2y2  Ryd( 3d)     0.00075
   135    C    9  dz2    Ryd( 3d)     0.00043

   136    C   10  S      Cor( 1S)     1.99908
   137    C   10  S      Val( 2S)     0.93462
   138    C   10  S      Ryd( 3S)     0.00070
   139    C   10  S      Ryd( 4S)     0.00004
   140    C   10  px     Val( 2p)     1.13613
   141    C   10  px     Ryd( 3p)     0.00370
   142    C   10  py     Val( 2p)     1.09635
   143    C   10  py     Ryd( 3p)     0.00429
   144    C   10  pz     Val( 2p)     1.17325
   145    C   10  pz     Ryd( 3p)     0.00361
   146    C   10  dxy    Ryd( 3d)     0.00078
   147    C   10  dxz    Ryd( 3d)     0.00058
   148    C   10  dyz    Ryd( 3d)     0.00030
   149    C   10  dx2y2  Ryd( 3d)     0.00055
   150    C   10  dz2    Ryd( 3d)     0.00045

   151    C   11  S      Cor( 1S)     1.99904
   152    C   11  S      Val( 2S)     0.82641
   153    C   11  S      Ryd( 3S)     0.00132
   154    C   11  S      Ryd( 4S)     0.00009
   155    C   11  px     Val( 2p)     0.88525
   156    C   11  px     Ryd( 3p)     0.00448
   157    C   11  py     Val( 2p)     1.10610
   158    C   11  py     Ryd( 3p)     0.00724
   159    C   11  pz     Val( 2p)     0.98074
   160    C   11  pz     Ryd( 3p)     0.00190
   161    C   11  dxy    Ryd( 3d)     0.00082
   162    C   11  dxz    Ryd( 3d)     0.00124
   163    C   11  dyz    Ryd( 3d)     0.00125
   164    C   11  dx2y2  Ryd( 3d)     0.00109
   165    C   11  dz2    Ryd( 3d)     0.00039

   166    C   12  S      Cor( 1S)     1.99903
   167    C   12  S      Val( 2S)     0.93587
   168    C   12  S      Ryd( 3S)     0.00066
   169    C   12  S      Ryd( 4S)     0.00005
   170    C   12  px     Val( 2p)     1.06904
   171    C   12  px     Ryd( 3p)     0.00300
   172    C   12  py     Val( 2p)     1.16545
   173    C   12  py     Ryd( 3p)     0.00378
   174    C   12  pz     Val( 2p)     1.06216
   175    C   12  pz     Ryd( 3p)     0.00268
   176    C   12  dxy    Ryd( 3d)     0.00074
   177    C   12  dxz    Ryd( 3d)     0.00055
   178    C   12  dyz    Ryd( 3d)     0.00034
   179    C   12  dx2y2  Ryd( 3d)     0.00068
   180    C   12  dz2    Ryd( 3d)     0.00043

   181    N   13  S      Cor( 1S)     1.99933
   182    N   13  S      Val( 2S)     1.18899
   183    N   13  S      Ryd( 3S)     0.00114
   184    N   13  S      Ryd( 4S)     0.00002
   185    N   13  px     Val( 2p)     1.30453
   186    N   13  px     Ryd( 3p)     0.00092
   187    N   13  py     Val( 2p)     1.27531
   188    N   13  py     Ryd( 3p)     0.00156
   189    N   13  pz     Val( 2p)     1.54365
   190    N   13  pz     Ryd( 3p)     0.00498
   191    N   13  dxy    Ryd( 3d)     0.00072
   192    N   13  dxz    Ryd( 3d)     0.00057
   193    N   13  dyz    Ryd( 3d)     0.00044
   194    N   13  dx2y2  Ryd( 3d)     0.00079
   195    N   13  dz2    Ryd( 3d)     0.00052

   196    C   14  S      Cor( 1S)     1.99935
   197    C   14  S      Val( 2S)     1.02370
   198    C   14  S      Ryd( 3S)     0.00135
   199    C   14  S      Ryd( 4S)     0.00003
   200    C   14  px     Val( 2p)     1.04278
   201    C   14  px     Ryd( 3p)     0.00276
   202    C   14  py     Val( 2p)     0.94095
   203    C   14  py     Ryd( 3p)     0.00216
   204    C   14  pz     Val( 2p)     1.24765
   205    C   14  pz     Ryd( 3p)     0.00254
   206    C   14  dxy    Ryd( 3d)     0.00101
   207    C   14  dxz    Ryd( 3d)     0.00071
   208    C   14  dyz    Ryd( 3d)     0.00156
   209    C   14  dx2y2  Ryd( 3d)     0.00087
   210    C   14  dz2    Ryd( 3d)     0.00088

   211    C   15  S      Cor( 1S)     1.99934
   212    C   15  S      Val( 2S)     1.04492
   213    C   15  S      Ryd( 3S)     0.00053
   214    C   15  S      Ryd( 4S)     0.00002
   215    C   15  px     Val( 2p)     1.07321
   216    C   15  px     Ryd( 3p)     0.00211
   217    C   15  py     Val( 2p)     1.12581
   218    C   15  py     Ryd( 3p)     0.00302
   219    C   15  pz     Val( 2p)     1.21484
   220    C   15  pz     Ryd( 3p)     0.00251
   221    C   15  dxy    Ryd( 3d)     0.00074
   222    C   15  dxz    Ryd( 3d)     0.00040
   223    C   15  dyz    Ryd( 3d)     0.00053
   224    C   15  dx2y2  Ryd( 3d)     0.00066
   225    C   15  dz2    Ryd( 3d)     0.00114

   226    C   16  S      Cor( 1S)     1.99934
   227    C   16  S      Val( 2S)     1.04560
   228    C   16  S      Ryd( 3S)     0.00053
   229    C   16  S      Ryd( 4S)     0.00002
   230    C   16  px     Val( 2p)     1.14191
   231    C   16  px     Ryd( 3p)     0.00290
   232    C   16  py     Val( 2p)     1.05987
   233    C   16  py     Ryd( 3p)     0.00225
   234    C   16  pz     Val( 2p)     1.21202
   235    C   16  pz     Ryd( 3p)     0.00236
   236    C   16  dxy    Ryd( 3d)     0.00092
   237    C   16  dxz    Ryd( 3d)     0.00038
   238    C   16  dyz    Ryd( 3d)     0.00050
   239    C   16  dx2y2  Ryd( 3d)     0.00050
   240    C   16  dz2    Ryd( 3d)     0.00117

   241    C   17  S      Cor( 1S)     1.99935
   242    C   17  S      Val( 2S)     1.02508
   243    C   17  S      Ryd( 3S)     0.00134
   244    C   17  S      Ryd( 4S)     0.00003
   245    C   17  px     Val( 2p)     0.92790
   246    C   17  px     Ryd( 3p)     0.00278
   247    C   17  py     Val( 2p)     1.05719
   248    C   17  py     Ryd( 3p)     0.00203
   249    C   17  pz     Val( 2p)     1.24296
   250    C   17  pz     Ryd( 3p)     0.00255
   251    C   17  dxy    Ryd( 3d)     0.00131
   252    C   17  dxz    Ryd( 3d)     0.00070
   253    C   17  dyz    Ryd( 3d)     0.00156
   254    C   17  dx2y2  Ryd( 3d)     0.00054
   255    C   17  dz2    Ryd( 3d)     0.00086

   256    H   18  S      Val( 1S)     0.77555
   257    H   18  S      Ryd( 2S)     0.00059

   258    H   19  S      Val( 1S)     0.79313
   259    H   19  S      Ryd( 2S)     0.00221

   260    H   20  S      Val( 1S)     0.79314
   261    H   20  S      Ryd( 2S)     0.00221

   262    H   21  S      Val( 1S)     0.77277
   263    H   21  S      Ryd( 2S)     0.00087

   264    H   22  S      Val( 1S)     0.77878
   265    H   22  S      Ryd( 2S)     0.00114

   266    H   23  S      Val( 1S)     0.76377
   267    H   23  S      Ryd( 2S)     0.00152

   268    H   24  S      Val( 1S)     0.77156
   269    H   24  S      Ryd( 2S)     0.00108

   270    H   25  S      Val( 1S)     0.77877
   271    H   25  S      Ryd( 2S)     0.00091

   272    H   26  S      Val( 1S)     0.77627
   273    H   26  S      Ryd( 2S)     0.00134

   274    H   27  S      Val( 1S)     0.75954
   275    H   27  S      Ryd( 2S)     0.00227

   276    H   28  S      Val( 1S)     0.74740
   277    H   28  S      Ryd( 2S)     0.00176

   278    H   29  S      Val( 1S)     0.74753
   279    H   29  S      Ryd( 2S)     0.00086

   280    H   30  S      Val( 1S)     0.75861
   281    H   30  S      Ryd( 2S)     0.00148

   282    H   31  S      Val( 1S)     0.75905
   283    H   31  S      Ryd( 2S)     0.00152

   284    H   32  S      Val( 1S)     0.74742
   285    H   32  S      Ryd( 2S)     0.00084

   286    H   33  S      Val( 1S)     0.74556
   287    H   33  S      Ryd( 2S)     0.00238

   288    H   34  S      Val( 1S)     0.75649
   289    H   34  S      Ryd( 2S)     0.00217

 WARNING:  1 low occupancy (<1.9990e) core orbital  found on  C    3
           1 low occupancy (<1.9990e) core orbital  found on  C    8


 Summary of Natural Population Analysis:                  
                                                          
                                       Natural Population 
                Natural  -----------------------------------------------
    Atom  No    Charge         Core      Valence    Rydberg      Total
 -----------------------------------------------------------------------
      C    1   -0.31593      1.99943     4.30255    0.01395     6.31593
      O    2   -0.49678      1.99975     6.48546    0.01157     8.49678
      C    3    0.35377      1.99877     3.62493    0.02253     5.64623
      C    4   -0.37700      1.99903     4.36335    0.01462     6.37700
      C    5   -0.24666      1.99908     4.23157    0.01601     6.24666
      C    6   -0.06077      1.99903     4.04639    0.01536     6.06077
      C    7   -0.03992      1.99902     4.02578    0.01511     6.03992
      C    8   -0.31576      1.99899     4.30083    0.01594     6.31576
      C    9   -0.23621      1.99907     4.22123    0.01592     6.23621
      C   10   -0.35444      1.99908     4.34036    0.01500     6.35444
      C   11    0.18266      1.99904     3.79849    0.01981     5.81734
      C   12   -0.24447      1.99903     4.23252    0.01292     6.24447
      N   13   -0.32347      1.99933     5.31248    0.01165     7.32347
      C   14   -0.26831      1.99935     4.25508    0.01387     6.26831
      C   15   -0.46978      1.99934     4.45879    0.01165     6.46978
      C   16   -0.47026      1.99934     4.45940    0.01151     6.47026
      C   17   -0.26617      1.99935     4.25313    0.01369     6.26617
      H   18    0.22387      0.00000     0.77555    0.00059     0.77613
      H   19    0.20465      0.00000     0.79313    0.00221     0.79535
      H   20    0.20465      0.00000     0.79314    0.00221     0.79535
      H   21    0.22636      0.00000     0.77277    0.00087     0.77364
      H   22    0.22008      0.00000     0.77878    0.00114     0.77992
      H   23    0.23471      0.00000     0.76377    0.00152     0.76529
      H   24    0.22735      0.00000     0.77156    0.00108     0.77265
      H   25    0.22032      0.00000     0.77877    0.00091     0.77968
      H   26    0.22239      0.00000     0.77627    0.00134     0.77761
      H   27    0.23818      0.00000     0.75954    0.00227     0.76182
      H   28    0.25084      0.00000     0.74740    0.00176     0.74916
      H   29    0.25161      0.00000     0.74753    0.00086     0.74839
      H   30    0.23991      0.00000     0.75861    0.00148     0.76009
      H   31    0.23943      0.00000     0.75905    0.00152     0.76057
      H   32    0.25174      0.00000     0.74742    0.00084     0.74826
      H   33    0.25206      0.00000     0.74556    0.00238     0.74794
      H   34    0.24134      0.00000     0.75649    0.00217     0.75866
 =======================================================================
   * Total *    0.00000     33.98603    87.73770    0.27627   122.00000

                                 Natural Population      
 --------------------------------------------------------
   Core                      33.98603 ( 99.9589% of  34)
   Valence                   87.73770 ( 99.7019% of  88)
   Natural Minimal Basis    121.72373 ( 99.7736% of 122)
   Natural Rydberg Basis      0.27627 (  0.2264% of 122)
 --------------------------------------------------------

    Atom  No          Natural Electron Configuration
 ----------------------------------------------------------------------------
      C    1      [core]2S( 1.10)2p( 3.21)3p( 0.01)3d( 0.01)
      O    2      [core]2S( 1.59)2p( 4.89)3p( 0.01)3d( 0.01)
      C    3      [core]2S( 0.84)2p( 2.79)3p( 0.01)3d( 0.01)
      C    4      [core]2S( 0.95)2p( 3.42)3p( 0.01)
      C    5      [core]2S( 0.94)2p( 3.30)3p( 0.01)
      C    6      [core]2S( 0.86)2p( 3.18)3p( 0.01)
      C    7      [core]2S( 0.87)2p( 3.16)3p( 0.01)
      C    8      [core]2S( 0.94)2p( 3.36)3p( 0.01)
      C    9      [core]2S( 0.94)2p( 3.28)3p( 0.01)
      C   10      [core]2S( 0.93)2p( 3.41)3p( 0.01)
      C   11      [core]2S( 0.83)2p( 2.97)3p( 0.01)
      C   12      [core]2S( 0.94)2p( 3.30)3p( 0.01)
      N   13      [core]2S( 1.19)2p( 4.12)3p( 0.01)
      C   14      [core]2S( 1.02)2p( 3.23)3p( 0.01)3d( 0.01)
      C   15      [core]2S( 1.04)2p( 3.41)3p( 0.01)
      C   16      [core]2S( 1.05)2p( 3.41)3p( 0.01)
      C   17      [core]2S( 1.03)2p( 3.23)3p( 0.01)
      H   18            1S( 0.78)
      H   19            1S( 0.79)
      H   20            1S( 0.79)
      H   21            1S( 0.77)
      H   22            1S( 0.78)
      H   23            1S( 0.76)
      H   24            1S( 0.77)
      H   25            1S( 0.78)
      H   26            1S( 0.78)
      H   27            1S( 0.76)
      H   28            1S( 0.75)
      H   29            1S( 0.75)
      H   30            1S( 0.76)
      H   31            1S( 0.76)
      H   32            1S( 0.75)
      H   33            1S( 0.75)
      H   34            1S( 0.76)


 NBO analysis skipped by request.
 Leave Link  607 at Wed Sep 29 03:00:46 2021, MaxMem= 1342177280 cpu:      24.4
 (Enter /sw/target/amd/app/gaussian/Gaussian09RevA.02_gcc-4.9.2/g09/l9999.exe)
 1\1\GINC-HERMITE\SP\RTD-B3LYP-FC\6-31G(d)\C15H17N1O1\JSCHLEINITZ\29-Se
 p-2021\0\\#p TD(NStates=10, Root=1) b3lyp/6-31G* volume pop=NPA densit
 y=current Geom=AllCheck Guess=Read\\COc1ccc2c(c1)ccc(c2)N1CCCC1_conf_0
 \\0,1\C,0,1.5426574937,-0.8842913273,-0.8533127883\O,0,2.6554056165,-0
 .5291777373,-0.0534779936\C,0,3.1537682175,-1.458650827,0.8242384557\C
 ,0,2.6187415781,-2.7625994922,0.9829093631\C,0,3.1809699677,-3.6356489
 038,1.8911121513\C,0,4.2971629767,-3.268909529,2.6866480054\C,0,4.8311
 988867,-1.9497999393,2.5164223659\C,0,4.2419212144,-1.067736862,1.5826
 174507\C,0,5.9510768007,-1.5853441825,3.3135828984\C,0,6.5074028752,-2
 .4571461792,4.2149844853\C,0,5.9849366951,-3.7801918833,4.391110982\C,
 0,4.8881808467,-4.1573715593,3.6200284468\N,0,6.5613584773,-4.63468664
 22,5.3107619314\C,0,6.0235175734,-5.9563959459,5.6090112323\C,0,6.8408
 449055,-6.4147124657,6.8252082934\C,0,8.1982098532,-5.7264586017,6.611
 5841485\C,0,7.814861561,-4.3639465451,6.0113110978\H,0,1.3214366325,-0
 .0068962725,-1.4647962436\H,0,0.6610218445,-1.1280208451,-0.2444204792
 \H,0,1.7667995058,-1.7337120552,-1.5133791851\H,0,1.7664191915,-3.0835
 942067,0.3943969955\H,0,2.7612372279,-4.6328552573,2.0036990965\H,0,4.
 6411619055,-0.0659840285,1.4497221655\H,0,6.3689759585,-0.5870545087,3
 .2046121382\H,0,7.3517307018,-2.1327544405,4.8139371575\H,0,4.46773071
 8,-5.1535560606,3.7136784938\H,0,6.1491527818,-6.6456954763,4.75630375
 78\H,0,4.948355606,-5.9020179427,5.8253475383\H,0,6.9146125052,-7.5041
 951249,6.8944523234\H,0,6.3730255098,-6.050090808,7.7475334284\H,0,8.7
 97942501,-6.2944250745,5.8903606444\H,0,8.7841253486,-5.6281506458,7.5
 304324113\H,0,8.5842556365,-3.9891560655,5.3238547101\H,0,7.6813378015
 ,-3.6037779495,6.7986539997\\Version=AM64L-G09RevA.02\State=1-A\HF=-71
 1.8062948\RMSD=5.063e-09\Dipole=0.7417277,-1.6120647,1.3636411\Quadrup
 ole=0.8111335,-3.0308557,2.2197223,-3.5805568,11.5082949,-6.9134076\PG
 =C01 [X(C15H17N1O1)]\\@


 LAWS OF PROGRAMMING DEFINITION:  A WORKING PROGRAM
                                  IS ONE THAT HAS
                                  ONLY UNOBSERVED
                                  BUGS.
 Job cpu time:  0 days  4 hours 46 minutes 38.0 seconds.
 File lengths (MBytes):  RWF=    273 Int=      0 D2E=      0 Chk=     38 Scr=      1
 Normal termination of Gaussian 09 at Wed Sep 29 03:00:49 2021.
