 Entering Gaussian System, Link 0=g09
 Input=C15H15NO2_3378_conf_0.com
 Output=C15H15NO2_3378_conf_0.log
 Initial command:
 /sw/target/amd/app/gaussian/Gaussian09RevA.02_gcc-4.9.2/g09/l1.exe /home/jschleinitz/gaussian/Gau-471029.inp -scrdir=/home/jschleinitz/gaussian/
 Entering Link 1 = /sw/target/amd/app/gaussian/Gaussian09RevA.02_gcc-4.9.2/g09/l1.exe PID=    471037.
  
 Copyright (c) 1988,1990,1992,1993,1995,1998,2003,2009, Gaussian, Inc.
                  All Rights Reserved.
  
 This is part of the Gaussian(R) 09 program.  It is based on
 the Gaussian(R) 03 system (copyright 2003, Gaussian, Inc.),
 the Gaussian(R) 98 system (copyright 1998, Gaussian, Inc.),
 the Gaussian(R) 94 system (copyright 1995, Gaussian, Inc.),
 the Gaussian 92(TM) system (copyright 1992, Gaussian, Inc.),
 the Gaussian 90(TM) system (copyright 1990, Gaussian, Inc.),
 the Gaussian 88(TM) system (copyright 1988, Gaussian, Inc.),
 the Gaussian 86(TM) system (copyright 1986, Carnegie Mellon
 University), and the Gaussian 82(TM) system (copyright 1983,
 Carnegie Mellon University). Gaussian is a federally registered
 trademark of Gaussian, Inc.
  
 This software contains proprietary and confidential information,
 including trade secrets, belonging to Gaussian, Inc.
  
 This software is provided under written license and may be
 used, copied, transmitted, or stored only in accord with that
 written license.
  
 The following legend is applicable only to US Government
 contracts under FAR:
  
                    RESTRICTED RIGHTS LEGEND
  
 Use, reproduction and disclosure by the US Government is
 subject to restrictions as set forth in subparagraphs (a)
 and (c) of the Commercial Computer Software - Restricted
 Rights clause in FAR 52.227-19.
  
 Gaussian, Inc.
 340 Quinnipiac St., Bldg. 40, Wallingford CT 06492
  
  
 ---------------------------------------------------------------
 Warning -- This program may not be used in any manner that
 competes with the business of Gaussian, Inc. or will provide
 assistance to any competitor of Gaussian, Inc.  The licensee
 of this program is prohibited from giving any competitor of
 Gaussian, Inc. access to this program.  By using this program,
 the user acknowledges that Gaussian, Inc. is engaged in the
 business of creating and licensing software in the field of
 computational chemistry and represents and warrants to the
 licensee that it is not a competitor of Gaussian, Inc. and that
 it will not use this program in any manner prohibited above.
 ---------------------------------------------------------------
  

 Cite this work as:
 Gaussian 09, Revision A.02,
 M. J. Frisch, G. W. Trucks, H. B. Schlegel, G. E. Scuseria, 
 M. A. Robb, J. R. Cheeseman, G. Scalmani, V. Barone, B. Mennucci, 
 G. A. Petersson, H. Nakatsuji, M. Caricato, X. Li, H. P. Hratchian, 
 A. F. Izmaylov, J. Bloino, G. Zheng, J. L. Sonnenberg, M. Hada, 
 M. Ehara, K. Toyota, R. Fukuda, J. Hasegawa, M. Ishida, T. Nakajima, 
 Y. Honda, O. Kitao, H. Nakai, T. Vreven, J. A. Montgomery, Jr., 
 J. E. Peralta, F. Ogliaro, M. Bearpark, J. J. Heyd, E. Brothers, 
 K. N. Kudin, V. N. Staroverov, R. Kobayashi, J. Normand, 
 K. Raghavachari, A. Rendell, J. C. Burant, S. S. Iyengar, J. Tomasi, 
 M. Cossi, N. Rega, J. M. Millam, M. Klene, J. E. Knox, J. B. Cross, 
 V. Bakken, C. Adamo, J. Jaramillo, R. Gomperts, R. E. Stratmann, 
 O. Yazyev, A. J. Austin, R. Cammi, C. Pomelli, J. W. Ochterski, 
 R. L. Martin, K. Morokuma, V. G. Zakrzewski, G. A. Voth, 
 P. Salvador, J. J. Dannenberg, S. Dapprich, A. D. Daniels, 
 O. Farkas, J. B. Foresman, J. V. Ortiz, J. Cioslowski, 
 and D. J. Fox, Gaussian, Inc., Wallingford CT, 2009.
 
 ******************************************
 Gaussian 09:  AM64L-G09RevA.02 11-Jun-2009
                29-Sep-2021 
 ******************************************
 %nproc=5
 Will use up to    5 processors via shared memory.
 %mem=10gb
 %chk=C15H15NO2_3378_conf_0.chk
 -----------------------------------
 #p opt b3lyp/6-31G* scf=(xqc,tight)
 -----------------------------------
 1/14=-1,18=20,19=15,26=3,38=1/1,3;
 2/9=110,12=2,17=6,18=5,40=1/2;
 3/5=1,6=6,7=1,11=2,16=1,25=1,30=1,71=1,74=-5/1,2,3;
 4//1;
 5/5=2,8=3,13=1,32=2,38=5/2,8;
 6/7=2,8=2,9=2,10=2,28=1/1;
 7//1,2,3,16;
 1/14=-1,18=20,19=15/3(2);
 2/9=110/2;
 99//99;
 2/9=110/2;
 3/5=1,6=6,7=1,11=2,16=1,25=1,30=1,71=1,74=-5/1,2,3;
 4/5=5,16=3/1;
 5/5=2,8=3,13=1,32=2,38=5/2,8;
 7//1,2,3,16;
 1/14=-1,18=20,19=15/3(-5);
 2/9=110/2;
 6/7=2,8=2,9=2,10=2,19=2,28=1/1;
 99/9=1/99;
 Leave Link    1 at Wed Sep 29 20:43:13 2021, MaxMem= 1342177280 cpu:       0.1
 (Enter /sw/target/amd/app/gaussian/Gaussian09RevA.02_gcc-4.9.2/g09/l101.exe)
 ------------------------------------
 CN(C(=O)Oc1ccc(cc1)c1ccccc1)C_conf_0
 ------------------------------------
 Symbolic Z-matrix:
 Charge =  0 Multiplicity = 1
 C                     1.39198  -0.05124   0.41528 
 N                     0.77753  -0.40948   1.68075 
 C                     1.24141   0.03111   2.91539 
 O                     0.69864  -0.27112   3.97555 
 O                     2.37252   0.84658   2.81455 
 C                     2.98532   1.40452   3.95693 
 C                     4.36784   1.55082   3.91011 
 C                     5.04927   2.07639   5.01516 
 C                     4.36728   2.47881   6.18051 
 C                     2.96392   2.36879   6.16917 
 C                     2.27449   1.84566   5.06884 
 C                     5.09733   2.96492   7.3776 
 C                     6.27761   3.72277   7.26744 
 C                     6.99415   4.13118   8.39815 
 C                     6.53697   3.80497   9.67033 
 C                     5.36219   3.07537   9.8131 
 C                     4.6544    2.65819   8.67863 
 C                    -0.4926   -1.10794   1.6196 
 H                     2.38296   0.3887    0.54192 
 H                     0.74435   0.66471  -0.09959 
 H                     1.48985  -0.95407  -0.19444 
 H                     4.92382   1.24025   3.03006 
 H                     6.13423   2.14076   4.96322 
 H                     2.37823   2.68877   7.02858 
 H                     1.19246   1.77894   5.11015 
 H                     6.65785   4.01002   6.28966 
 H                     7.91153   4.70219   8.28025 
 H                     7.09536   4.1172    10.54917 
 H                     4.9967    2.81858   10.80236 
 H                     3.75532   2.06445   8.8301 
 H                    -0.41323  -1.94608   0.9221 
 H                    -1.2553   -0.40739   1.26512 
 H                    -0.79627  -1.49159   2.59708 
 
 NAtoms=     33 NQM=     33 NQMF=      0 NMic=      0 NMicF=      0 NTot=     33.
                    Isotopes and Nuclear Properties:
 (Nuclear quadrupole moments (NQMom) in fm**2, nuclear magnetic moments (NMagM)
  in nuclear magnetons)

  Atom         1           2           3           4           5           6           7           8           9          10
 IAtWgt=          12          14          12          16          16          12          12          12          12          12
 AtmWgt=  12.0000000  14.0030740  12.0000000  15.9949146  15.9949146  12.0000000  12.0000000  12.0000000  12.0000000  12.0000000
 NucSpn=           0           2           0           0           0           0           0           0           0           0
 AtZEff=   0.0000000   0.0000000   0.0000000   0.0000000   0.0000000   0.0000000   0.0000000   0.0000000   0.0000000   0.0000000
 NQMom=    0.0000000   2.0440000   0.0000000   0.0000000   0.0000000   0.0000000   0.0000000   0.0000000   0.0000000   0.0000000
 NMagM=    0.0000000   0.4037610   0.0000000   0.0000000   0.0000000   0.0000000   0.0000000   0.0000000   0.0000000   0.0000000

  Atom        11          12          13          14          15          16          17          18          19          20
 IAtWgt=          12          12          12          12          12          12          12          12           1           1
 AtmWgt=  12.0000000  12.0000000  12.0000000  12.0000000  12.0000000  12.0000000  12.0000000  12.0000000   1.0078250   1.0078250
 NucSpn=           0           0           0           0           0           0           0           0           1           1
 AtZEff=   0.0000000   0.0000000   0.0000000   0.0000000   0.0000000   0.0000000   0.0000000   0.0000000   0.0000000   0.0000000
 NQMom=    0.0000000   0.0000000   0.0000000   0.0000000   0.0000000   0.0000000   0.0000000   0.0000000   0.0000000   0.0000000
 NMagM=    0.0000000   0.0000000   0.0000000   0.0000000   0.0000000   0.0000000   0.0000000   0.0000000   2.7928460   2.7928460

  Atom        21          22          23          24          25          26          27          28          29          30
 IAtWgt=           1           1           1           1           1           1           1           1           1           1
 AtmWgt=   1.0078250   1.0078250   1.0078250   1.0078250   1.0078250   1.0078250   1.0078250   1.0078250   1.0078250   1.0078250
 NucSpn=           1           1           1           1           1           1           1           1           1           1
 AtZEff=   0.0000000   0.0000000   0.0000000   0.0000000   0.0000000   0.0000000   0.0000000   0.0000000   0.0000000   0.0000000
 NQMom=    0.0000000   0.0000000   0.0000000   0.0000000   0.0000000   0.0000000   0.0000000   0.0000000   0.0000000   0.0000000
 NMagM=    2.7928460   2.7928460   2.7928460   2.7928460   2.7928460   2.7928460   2.7928460   2.7928460   2.7928460   2.7928460

  Atom        31          32          33
 IAtWgt=           1           1           1
 AtmWgt=   1.0078250   1.0078250   1.0078250
 NucSpn=           1           1           1
 AtZEff=   0.0000000   0.0000000   0.0000000
 NQMom=    0.0000000   0.0000000   0.0000000
 NMagM=    2.7928460   2.7928460   2.7928460
 Leave Link  101 at Wed Sep 29 20:43:14 2021, MaxMem= 1342177280 cpu:       0.2
 (Enter /sw/target/amd/app/gaussian/Gaussian09RevA.02_gcc-4.9.2/g09/l103.exe)

 GradGradGradGradGradGradGradGradGradGradGradGradGradGradGradGradGradGrad
 Berny optimization.
 Initialization pass.
                           ----------------------------
                           !    Initial Parameters    !
                           ! (Angstroms and Degrees)  !
 --------------------------                            --------------------------
 ! Name  Definition              Value          Derivative Info.                !
 --------------------------------------------------------------------------------
 ! R1    R(1,2)                  1.4516         estimate D2E/DX2                !
 ! R2    R(1,19)                 1.0916         estimate D2E/DX2                !
 ! R3    R(1,20)                 1.0941         estimate D2E/DX2                !
 ! R4    R(1,21)                 1.0938         estimate D2E/DX2                !
 ! R5    R(2,3)                  1.3905         estimate D2E/DX2                !
 ! R6    R(2,18)                 1.4508         estimate D2E/DX2                !
 ! R7    R(3,4)                  1.2288         estimate D2E/DX2                !
 ! R8    R(3,5)                  1.3981         estimate D2E/DX2                !
 ! R9    R(5,6)                  1.4113         estimate D2E/DX2                !
 ! R10   R(6,7)                  1.391          estimate D2E/DX2                !
 ! R11   R(6,11)                 1.3915         estimate D2E/DX2                !
 ! R12   R(7,8)                  1.4006         estimate D2E/DX2                !
 ! R13   R(7,22)                 1.0863         estimate D2E/DX2                !
 ! R14   R(8,9)                  1.4089         estimate D2E/DX2                !
 ! R15   R(8,23)                 1.0881         estimate D2E/DX2                !
 ! R16   R(9,10)                 1.4077         estimate D2E/DX2                !
 ! R17   R(9,12)                 1.484          estimate D2E/DX2                !
 ! R18   R(10,11)                1.3999         estimate D2E/DX2                !
 ! R19   R(10,24)                1.0881         estimate D2E/DX2                !
 ! R20   R(11,25)                1.0849         estimate D2E/DX2                !
 ! R21   R(12,13)                1.407          estimate D2E/DX2                !
 ! R22   R(12,17)                1.4082         estimate D2E/DX2                !
 ! R23   R(13,14)                1.3996         estimate D2E/DX2                !
 ! R24   R(13,26)                1.0877         estimate D2E/DX2                !
 ! R25   R(14,15)                1.3906         estimate D2E/DX2                !
 ! R26   R(14,27)                1.087          estimate D2E/DX2                !
 ! R27   R(15,16)                1.3903         estimate D2E/DX2                !
 ! R28   R(15,28)                1.087          estimate D2E/DX2                !
 ! R29   R(16,17)                1.4007         estimate D2E/DX2                !
 ! R30   R(16,29)                1.0854         estimate D2E/DX2                !
 ! R31   R(17,30)                1.088          estimate D2E/DX2                !
 ! R32   R(18,31)                1.0933         estimate D2E/DX2                !
 ! R33   R(18,32)                1.0946         estimate D2E/DX2                !
 ! R34   R(18,33)                1.0931         estimate D2E/DX2                !
 ! A1    A(2,1,19)             112.4935         estimate D2E/DX2                !
 ! A2    A(2,1,20)             108.7335         estimate D2E/DX2                !
 ! A3    A(2,1,21)             108.6699         estimate D2E/DX2                !
 ! A4    A(19,1,20)            109.1611         estimate D2E/DX2                !
 ! A5    A(19,1,21)            108.4262         estimate D2E/DX2                !
 ! A6    A(20,1,21)            109.3144         estimate D2E/DX2                !
 ! A7    A(1,2,3)              123.684          estimate D2E/DX2                !
 ! A8    A(1,2,18)             116.9125         estimate D2E/DX2                !
 ! A9    A(3,2,18)             118.8167         estimate D2E/DX2                !
 ! A10   A(2,3,4)              122.7353         estimate D2E/DX2                !
 ! A11   A(2,3,5)              112.9958         estimate D2E/DX2                !
 ! A12   A(4,3,5)              124.2685         estimate D2E/DX2                !
 ! A13   A(3,5,6)              121.5675         estimate D2E/DX2                !
 ! A14   A(5,6,7)              116.4797         estimate D2E/DX2                !
 ! A15   A(5,6,11)             123.3895         estimate D2E/DX2                !
 ! A16   A(7,6,11)             120.084          estimate D2E/DX2                !
 ! A17   A(6,7,8)              119.7659         estimate D2E/DX2                !
 ! A18   A(6,7,22)             120.39           estimate D2E/DX2                !
 ! A19   A(8,7,22)             119.8311         estimate D2E/DX2                !
 ! A20   A(7,8,9)              121.6179         estimate D2E/DX2                !
 ! A21   A(7,8,23)             118.0117         estimate D2E/DX2                !
 ! A22   A(9,8,23)             120.3468         estimate D2E/DX2                !
 ! A23   A(8,9,10)             116.9727         estimate D2E/DX2                !
 ! A24   A(8,9,12)             121.5086         estimate D2E/DX2                !
 ! A25   A(10,9,12)            121.5019         estimate D2E/DX2                !
 ! A26   A(9,10,11)            121.7694         estimate D2E/DX2                !
 ! A27   A(9,10,24)            120.4807         estimate D2E/DX2                !
 ! A28   A(11,10,24)           117.7494         estimate D2E/DX2                !
 ! A29   A(6,11,10)            119.6682         estimate D2E/DX2                !
 ! A30   A(6,11,25)            121.3612         estimate D2E/DX2                !
 ! A31   A(10,11,25)           118.9634         estimate D2E/DX2                !
 ! A32   A(9,12,13)            121.7337         estimate D2E/DX2                !
 ! A33   A(9,12,17)            121.2781         estimate D2E/DX2                !
 ! A34   A(13,12,17)           116.9704         estimate D2E/DX2                !
 ! A35   A(12,13,14)           121.5619         estimate D2E/DX2                !
 ! A36   A(12,13,26)           120.3897         estimate D2E/DX2                !
 ! A37   A(14,13,26)           118.0483         estimate D2E/DX2                !
 ! A38   A(13,14,15)           120.1539         estimate D2E/DX2                !
 ! A39   A(13,14,27)           119.8514         estimate D2E/DX2                !
 ! A40   A(15,14,27)           119.9945         estimate D2E/DX2                !
 ! A41   A(14,15,16)           119.6604         estimate D2E/DX2                !
 ! A42   A(14,15,28)           120.2224         estimate D2E/DX2                !
 ! A43   A(16,15,28)           120.1171         estimate D2E/DX2                !
 ! A44   A(15,16,17)           120.0072         estimate D2E/DX2                !
 ! A45   A(15,16,29)           120.1512         estimate D2E/DX2                !
 ! A46   A(17,16,29)           119.8384         estimate D2E/DX2                !
 ! A47   A(12,17,16)           121.6335         estimate D2E/DX2                !
 ! A48   A(12,17,30)           120.4909         estimate D2E/DX2                !
 ! A49   A(16,17,30)           117.8607         estimate D2E/DX2                !
 ! A50   A(2,18,31)            109.4151         estimate D2E/DX2                !
 ! A51   A(2,18,32)            108.3937         estimate D2E/DX2                !
 ! A52   A(2,18,33)            111.9931         estimate D2E/DX2                !
 ! A53   A(31,18,32)           109.5492         estimate D2E/DX2                !
 ! A54   A(31,18,33)           108.7602         estimate D2E/DX2                !
 ! A55   A(32,18,33)           108.7018         estimate D2E/DX2                !
 ! D1    D(19,1,2,3)            14.0778         estimate D2E/DX2                !
 ! D2    D(19,1,2,18)         -174.829          estimate D2E/DX2                !
 ! D3    D(20,1,2,3)          -106.9566         estimate D2E/DX2                !
 ! D4    D(20,1,2,18)           64.1366         estimate D2E/DX2                !
 ! D5    D(21,1,2,3)           134.1458         estimate D2E/DX2                !
 ! D6    D(21,1,2,18)          -54.761          estimate D2E/DX2                !
 ! D7    D(1,2,3,4)            179.1696         estimate D2E/DX2                !
 ! D8    D(1,2,3,5)             -0.6111         estimate D2E/DX2                !
 ! D9    D(18,2,3,4)             8.2356         estimate D2E/DX2                !
 ! D10   D(18,2,3,5)          -171.5451         estimate D2E/DX2                !
 ! D11   D(1,2,18,31)           49.3223         estimate D2E/DX2                !
 ! D12   D(1,2,18,32)          -70.0903         estimate D2E/DX2                !
 ! D13   D(1,2,18,33)          169.9936         estimate D2E/DX2                !
 ! D14   D(3,2,18,31)         -139.1333         estimate D2E/DX2                !
 ! D15   D(3,2,18,32)          101.4542         estimate D2E/DX2                !
 ! D16   D(3,2,18,33)          -18.462          estimate D2E/DX2                !
 ! D17   D(2,3,5,6)            179.3636         estimate D2E/DX2                !
 ! D18   D(4,3,5,6)             -0.4132         estimate D2E/DX2                !
 ! D19   D(3,5,6,7)            146.2973         estimate D2E/DX2                !
 ! D20   D(3,5,6,11)           -36.1937         estimate D2E/DX2                !
 ! D21   D(5,6,7,8)           -178.9309         estimate D2E/DX2                !
 ! D22   D(5,6,7,22)            -0.2404         estimate D2E/DX2                !
 ! D23   D(11,6,7,8)             3.4727         estimate D2E/DX2                !
 ! D24   D(11,6,7,22)         -177.8369         estimate D2E/DX2                !
 ! D25   D(5,6,11,10)          179.0558         estimate D2E/DX2                !
 ! D26   D(5,6,11,25)            0.0456         estimate D2E/DX2                !
 ! D27   D(7,6,11,10)           -3.521          estimate D2E/DX2                !
 ! D28   D(7,6,11,25)          177.4688         estimate D2E/DX2                !
 ! D29   D(6,7,8,9)             -0.6799         estimate D2E/DX2                !
 ! D30   D(6,7,8,23)           177.5611         estimate D2E/DX2                !
 ! D31   D(22,7,8,9)          -179.3777         estimate D2E/DX2                !
 ! D32   D(22,7,8,23)           -1.1367         estimate D2E/DX2                !
 ! D33   D(7,8,9,10)            -1.967          estimate D2E/DX2                !
 ! D34   D(7,8,9,12)           176.5628         estimate D2E/DX2                !
 ! D35   D(23,8,9,10)          179.8325         estimate D2E/DX2                !
 ! D36   D(23,8,9,12)           -1.6377         estimate D2E/DX2                !
 ! D37   D(8,9,10,11)            1.9171         estimate D2E/DX2                !
 ! D38   D(8,9,10,24)         -178.3278         estimate D2E/DX2                !
 ! D39   D(12,9,10,11)        -176.6128         estimate D2E/DX2                !
 ! D40   D(12,9,10,24)           3.1423         estimate D2E/DX2                !
 ! D41   D(8,9,12,13)           35.2901         estimate D2E/DX2                !
 ! D42   D(8,9,12,17)         -143.1251         estimate D2E/DX2                !
 ! D43   D(10,9,12,13)        -146.2467         estimate D2E/DX2                !
 ! D44   D(10,9,12,17)          35.3382         estimate D2E/DX2                !
 ! D45   D(9,10,11,6)            0.781          estimate D2E/DX2                !
 ! D46   D(9,10,11,25)         179.815          estimate D2E/DX2                !
 ! D47   D(24,10,11,6)        -178.9805         estimate D2E/DX2                !
 ! D48   D(24,10,11,25)          0.0535         estimate D2E/DX2                !
 ! D49   D(9,12,13,14)        -177.2476         estimate D2E/DX2                !
 ! D50   D(9,12,13,26)           2.877          estimate D2E/DX2                !
 ! D51   D(17,12,13,14)          1.2326         estimate D2E/DX2                !
 ! D52   D(17,12,13,26)       -178.6428         estimate D2E/DX2                !
 ! D53   D(9,12,17,16)         177.8399         estimate D2E/DX2                !
 ! D54   D(9,12,17,30)          -0.7281         estimate D2E/DX2                !
 ! D55   D(13,12,17,16)         -0.6477         estimate D2E/DX2                !
 ! D56   D(13,12,17,30)       -179.2157         estimate D2E/DX2                !
 ! D57   D(12,13,14,15)         -0.8195         estimate D2E/DX2                !
 ! D58   D(12,13,14,27)        179.0052         estimate D2E/DX2                !
 ! D59   D(26,13,14,15)        179.0587         estimate D2E/DX2                !
 ! D60   D(26,13,14,27)         -1.1166         estimate D2E/DX2                !
 ! D61   D(13,14,15,16)         -0.2301         estimate D2E/DX2                !
 ! D62   D(13,14,15,28)        179.684          estimate D2E/DX2                !
 ! D63   D(27,14,15,16)        179.9455         estimate D2E/DX2                !
 ! D64   D(27,14,15,28)         -0.1405         estimate D2E/DX2                !
 ! D65   D(14,15,16,17)          0.8047         estimate D2E/DX2                !
 ! D66   D(14,15,16,29)       -179.8426         estimate D2E/DX2                !
 ! D67   D(28,15,16,17)       -179.1094         estimate D2E/DX2                !
 ! D68   D(28,15,16,29)          0.2432         estimate D2E/DX2                !
 ! D69   D(15,16,17,12)         -0.3565         estimate D2E/DX2                !
 ! D70   D(15,16,17,30)        178.2478         estimate D2E/DX2                !
 ! D71   D(29,16,17,12)       -179.7111         estimate D2E/DX2                !
 ! D72   D(29,16,17,30)         -1.1069         estimate D2E/DX2                !
 --------------------------------------------------------------------------------
 Trust Radius=3.00D-01 FncErr=1.00D-07 GrdErr=1.00D-06
 Number of steps in this run= 171 maximum allowed number of steps= 198.
 GradGradGradGradGradGradGradGradGradGradGradGradGradGradGradGradGradGrad

 Leave Link  103 at Wed Sep 29 20:43:14 2021, MaxMem= 1342177280 cpu:       0.0
 (Enter /sw/target/amd/app/gaussian/Gaussian09RevA.02_gcc-4.9.2/g09/l202.exe)
                          Input orientation:                          
 ---------------------------------------------------------------------
 Center     Atomic      Atomic             Coordinates (Angstroms)
 Number     Number       Type             X           Y           Z
 ---------------------------------------------------------------------
      1          6           0        1.391980   -0.051239    0.415284
      2          7           0        0.777534   -0.409476    1.680750
      3          6           0        1.241410    0.031108    2.915390
      4          8           0        0.698636   -0.271125    3.975553
      5          8           0        2.372522    0.846581    2.814551
      6          6           0        2.985322    1.404521    3.956926
      7          6           0        4.367839    1.550817    3.910109
      8          6           0        5.049268    2.076393    5.015162
      9          6           0        4.367275    2.478809    6.180513
     10          6           0        2.963919    2.368792    6.169171
     11          6           0        2.274491    1.845661    5.068841
     12          6           0        5.097332    2.964916    7.377596
     13          6           0        6.277611    3.722775    7.267438
     14          6           0        6.994154    4.131179    8.398155
     15          6           0        6.536974    3.804972    9.670326
     16          6           0        5.362186    3.075370    9.813102
     17          6           0        4.654403    2.658186    8.678634
     18          6           0       -0.492596   -1.107941    1.619601
     19          1           0        2.382964    0.388698    0.541923
     20          1           0        0.744349    0.664713   -0.099590
     21          1           0        1.489850   -0.954070   -0.194438
     22          1           0        4.923824    1.240250    3.030064
     23          1           0        6.134231    2.140764    4.963221
     24          1           0        2.378229    2.688772    7.028581
     25          1           0        1.192464    1.778939    5.110149
     26          1           0        6.657849    4.010017    6.289662
     27          1           0        7.911533    4.702193    8.280251
     28          1           0        7.095355    4.117202   10.549170
     29          1           0        4.996701    2.818584   10.802362
     30          1           0        3.755322    2.064445    8.830103
     31          1           0       -0.413226   -1.946077    0.922097
     32          1           0       -1.255296   -0.407394    1.265120
     33          1           0       -0.796271   -1.491592    2.597079
 ---------------------------------------------------------------------
                    Distance matrix (angstroms):
                    1          2          3          4          5
     1  C    0.000000
     2  N    1.451647   0.000000
     3  C    2.505988   1.390550   0.000000
     4  O    3.633811   2.300323   1.228777   0.000000
     5  O    2.742995   2.325332   1.398063   2.323594   0.000000
     6  C    4.147433   3.653202   2.451997   2.834972   1.411326
     7  C    4.861699   4.658656   3.615735   4.097170   2.382747
     8  C    6.249916   5.962009   4.805416   5.051695   3.676968
     9  C    6.963576   6.440209   5.140361   5.087524   4.239447
    10  C    6.436983   5.713578   4.361066   4.112496   3.730999
    11  C    5.102220   4.336552   2.999536   2.856463   2.467711
    12  C    8.443969   7.905772   6.586855   6.433847   5.721304
    13  C    9.223046   8.862134   7.611311   7.610039   6.584103
    14  C   10.611465  10.217017   8.942336   8.864154   7.957682
    15  C   11.269299  10.712891   9.376258   9.117630   8.549642
    16  C   10.670389   9.964854   8.592250   8.186861   7.930026
    17  C    9.288021   8.568024   7.194794   6.807931   6.548005
    18  C    2.473585   1.450801   2.446074   2.769441   3.668374
    19  H    1.091619   2.124009   2.657887   3.880997   2.318319
    20  H    1.094124   2.079566   3.120677   4.181468   3.343088
    21  H    1.093821   2.078535   3.271594   4.298983   3.616002
    22  H    4.580277   4.661970   3.877545   4.585893   2.590476
    23  H    6.926583   6.780305   5.708237   6.028133   4.521300
    24  H    7.226067   6.384407   5.027314   4.571980   4.599103
    25  H    5.042927   4.089266   2.806114   2.394564   2.744376
    26  H    8.873077   8.680558   7.520322   7.693861   6.359854
    27  H   11.267537  10.980733   9.751478   9.761669   8.684484
    28  H   12.353138  11.792138  10.451767  10.167982   9.634648
    29  H   11.363155  10.555830   9.169328   8.638576   8.635986
    30  H    8.992813   8.130237   6.740776   6.193939   6.291439
    31  H    2.665715   2.086770   3.258879   3.655858   4.375010
    32  H    2.803058   2.074886   3.024767   3.344080   4.139354
    33  H    3.409294   2.118371   2.563607   2.371598   3.944059
                    6          7          8          9         10
     6  C    0.000000
     7  C    1.391024   0.000000
     8  C    2.414778   1.400614   0.000000
     9  C    2.829882   2.452734   1.408934   0.000000
    10  C    2.413360   2.782703   2.401232   1.407708   0.000000
    11  C    1.391489   2.410746   2.784871   2.452842   1.399893
    12  C    4.312355   3.815142   2.524456   1.484012   2.523313
    13  C    5.212769   4.431285   3.048302   2.525517   3.744331
    14  C    6.574946   5.805028   4.410144   3.814282   4.931244
    15  C    7.142782   6.554880   5.183802   4.317996   5.204557
    16  C    6.537279   6.177242   4.910815   3.813323   4.419182
    17  C    5.162562   4.903796   3.730339   2.520958   3.039554
    18  C    4.885843   5.994935   7.237546   7.568689   6.688330
    19  H    3.613444   4.078594   5.474246   6.332437   5.993681
    20  H    4.693037   5.476545   6.832705   7.473703   6.864965
    21  H    5.003320   5.603980   6.999507   7.791293   7.328698
    22  H    2.154959   1.086302   2.157657   3.430613   3.868957
    23  H    3.386785   2.139445   1.088111   2.172143   3.399587
    24  H    3.384218   3.870188   3.400488   2.172466   1.088120
    25  H    2.164360   3.402226   3.869424   3.422707   2.146511
    26  H    5.071264   4.117534   2.819714   2.757397   4.043916
    27  H    7.337120   6.448804   5.074267   4.681249   5.863472
    28  H    8.228529   7.622519   6.243125   5.404804   6.269776
    29  H    7.273598   7.036040   5.834835   4.676870   5.079466
    30  H    4.977576   4.984509   4.028426   2.750729   2.792760
    31  H    5.655689   6.634385   7.922896   8.371604   7.586501
    32  H    5.339634   6.515382   7.744646   8.006533   7.039794
    33  H    4.953494   6.135823   7.262780   7.434198   6.465403
                   11         12         13         14         15
    11  C    0.000000
    12  C    3.814644   0.000000
    13  C    4.937848   1.406962   0.000000
    14  C    6.211532   2.449417   1.399553   0.000000
    15  C    6.571249   2.834584   2.418243   1.390627   0.000000
    16  C    5.792586   2.452353   2.781644   2.404190   1.390263
    17  C    4.399407   1.408179   2.399923   2.778995   2.417156
    18  C    5.317687   8.999443  10.053337  11.377548  11.762896
    19  H    4.756837   7.793018   8.456766   9.848331  10.595021
    20  H    5.518030   8.952526   9.707823  11.103518  11.784184
    21  H    6.013008   9.257866  10.023728  11.401306  12.059664
    22  H    3.397367   4.680343   5.094213   6.438954   7.298844
    23  H    3.872445   2.753832   2.798701   4.062017   5.008854
    24  H    2.135925   2.755284   4.041212   5.026235   5.051720
    25  H    1.084869   4.668603   5.855862   7.071324   7.311895
    26  H    5.038716   2.170495   1.087720   2.138580   3.389033
    27  H    7.088664   3.428213   2.157487   1.086988   2.150983
    28  H    7.644254   3.921573   3.405003   2.153439   1.087034
    29  H    6.421080   3.429368   3.867038   3.390123   2.151024
    30  H    4.048187   2.172928   3.399106   3.866264   3.387180
    31  H    6.228691   9.805997  10.824349  12.152932  12.566278
    32  H    5.657204   9.438789  10.480019  11.812377  12.211101
    33  H    5.164925   8.800475   9.951968  11.223135  11.483069
                   16         17         18         19         20
    16  C    0.000000
    17  C    1.400720   0.000000
    18  C   10.904679   9.513426   0.000000
    19  H   10.101918   8.747348   3.416162   0.000000
    20  H   11.198087   9.814259   2.761875   1.781231   0.000000
    21  H   11.462209  10.089312   2.691562   1.772824   1.784720
    22  H    7.040556   5.830050   6.069680   3.656769   5.252998
    23  H    4.999088   4.032606   8.102390   6.057196   7.540664
    24  H    4.099636   2.811509   7.205118   6.882376   7.587964
    25  H    6.417561   5.048979   4.832952   4.921255   5.346371
    26  H    3.868713   3.398298   9.956497   8.026525   9.326472
    27  H    3.390481   3.865950  12.196364  10.442846  11.742721
    28  H    2.151996   3.403803  12.830289  11.672762  12.870549
    29  H    1.085428   2.157108  11.396188  10.863360  11.898497
    30  H    2.137818   1.088034   8.949871   8.566530   9.527047
    31  H   11.731167  10.346206   1.093290   3.662565   3.033158
    32  H   11.357320   9.964062   1.094593   3.793905   2.647721
    33  H   10.528757   9.160558   1.093101   4.226901   3.780897
                   21         22         23         24         25
    21  H    0.000000
    22  H    5.196599   0.000000
    23  H    7.599324   2.452164   0.000000
    24  H    8.138275   4.956452   4.321293   0.000000
    25  H    5.974648   4.305809   4.957173   2.431916   0.000000
    26  H    9.664054   4.615564   2.351112   4.539475   6.019916
    27  H   12.043740   6.962464   4.552186   6.019800   7.983787
    28  H   13.136385   8.338426   6.002739   6.056916   8.360296
    29  H   12.143334   7.931272   5.987402   4.595071   6.924910
    30  H    9.781930   5.973705   4.540684   2.351947   4.526347
    31  H    2.419178   6.563559   8.712184   8.158627   5.830417
    32  H    3.156737   6.634100   8.647206   7.483731   5.055277
    33  H    3.647992   6.353733   8.174626   6.869578   4.578969
                   26         27         28         29         30
    26  H    0.000000
    27  H    2.452198   0.000000
    28  H    4.283259   2.481200   0.000000
    29  H    4.954128   4.290137   2.480899   0.000000
    30  H    4.320157   4.953195   4.280750   2.449399   0.000000
    31  H   10.690459  12.947723  13.631679  12.230657   9.797839
    32  H   10.362307  12.623418  13.281526  11.851304   9.404534
    33  H    9.973303  12.103192  12.528850  10.929905   8.497823
                   31         32         33
    31  H    0.000000
    32  H    1.787259   0.000000
    33  H    1.777315   1.777725   0.000000
 Stoichiometry    C15H15NO2
 Framework group  C1[X(C15H15NO2)]
 Deg. of freedom    93
 Full point group                 C1      NOp   1
 Largest Abelian subgroup         C1      NOp   1
 Largest concise Abelian subgroup C1      NOp   1
                         Standard orientation:                         
 ---------------------------------------------------------------------
 Center     Atomic      Atomic             Coordinates (Angstroms)
 Number     Number       Type             X           Y           Z
 ---------------------------------------------------------------------
      1          6           0       -5.197988    1.349986    0.108516
      2          7           0       -4.763497   -0.015022   -0.126541
      3          6           0       -3.430185   -0.409834   -0.132079
      4          8           0       -3.082568   -1.573596   -0.318396
      5          8           0       -2.546265    0.648343    0.099283
      6          6           0       -1.149963    0.448121    0.145037
      7          6           0       -0.358423    1.486728   -0.334238
      8          6           0        1.035675    1.352006   -0.341920
      9          6           0        1.667990    0.188618    0.139539
     10          6           0        0.837302   -0.817027    0.668950
     11          6           0       -0.556805   -0.690506    0.681632
     12          6           0        3.139976    0.017035    0.061381
     13          6           0        4.021039    1.102234    0.221432
     14          6           0        5.405807    0.946973    0.090820
     15          6           0        5.945317   -0.304260   -0.187007
     16          6           0        5.102460   -1.400667   -0.329529
     17          6           0        3.716264   -1.238837   -0.209994
     18          6           0       -5.794875   -1.034510   -0.168122
     19          1           0       -4.378426    2.067434    0.036279
     20          1           0       -5.641395    1.410618    1.106925
     21          1           0       -5.952733    1.610839   -0.638985
     22          1           0       -0.815929    2.392500   -0.721947
     23          1           0        1.625376    2.165179   -0.760237
     24          1           0        1.267151   -1.727620    1.081329
     25          1           0       -1.153562   -1.495059    1.098185
     26          1           0        3.637163    2.092952    0.454350
     27          1           0        6.059840    1.807743    0.204215
     28          1           0        7.020320   -0.425159   -0.293760
     29          1           0        5.515199   -2.381407   -0.543886
     30          1           0        3.087576   -2.114650   -0.356695
     31          1           0       -6.597503   -0.712414   -0.836947
     32          1           0       -6.191677   -1.165860    0.843525
     33          1           0       -5.407822   -1.994268   -0.520153
 ---------------------------------------------------------------------
 Rotational constants (GHZ):      1.7270787      0.1462409      0.1368278
 Leave Link  202 at Wed Sep 29 20:43:14 2021, MaxMem= 1342177280 cpu:       0.1
 (Enter /sw/target/amd/app/gaussian/Gaussian09RevA.02_gcc-4.9.2/g09/l301.exe)
 Standard basis: 6-31G(d) (6D, 7F)
 Ernie: Thresh=  0.10000D-02 Tol=  0.10000D-05 Strict=F.
 There are   300 symmetry adapted basis functions of A   symmetry.
 Integral buffers will be    131072 words long.
 Raffenetti 2 integral format.
 Two-electron integral symmetry is turned on.
   300 basis functions,   564 primitive gaussians,   300 cartesian basis functions
    64 alpha electrons       64 beta electrons
       nuclear repulsion energy      1180.1186508133 Hartrees.
 IExCor=  402 DFT=T Ex+Corr=B3LYP ExCW=0 ScaHFX=  0.200000
 ScaDFX=  0.800000  0.720000  1.000000  0.810000 ScalE2=  1.000000  1.000000
 IRadAn=      0 IRanWt=     -1 IRanGd=            0 ICorTp=0
 NAtoms=   33 NActive=   33 NUniq=   33 SFac= 7.50D-01 NAtFMM=   80 NAOKFM=F Big=F
 Leave Link  301 at Wed Sep 29 20:43:15 2021, MaxMem= 1342177280 cpu:       0.1
 (Enter /sw/target/amd/app/gaussian/Gaussian09RevA.02_gcc-4.9.2/g09/l302.exe)
 NPDir=0 NMtPBC=     1 NCelOv=     1 NCel=       1 NClECP=     1 NCelD=      1
         NCelK=      1 NCelE2=     1 NClLst=     1 CellRange=     0.0.
 One-electron integrals computed using PRISM.
 NBasis=   300 RedAO= T  NBF=   300
 NBsUse=   300 1.00D-06 NBFU=   300
 Precomputing XC quadrature grid using
 IXCGrd= 2 IRadAn=           0 IRanWt=          -1 IRanGd=           0 AccXCQ= 1.00D-10.
 NRdTot=    2115 NPtTot=      269830 NUsed=      285077 NTot=      285109
 NSgBfM=   293   293   293   293   293 NAtAll=    33    33.
 Leave Link  302 at Wed Sep 29 20:43:20 2021, MaxMem= 1342177280 cpu:       3.0
 (Enter /sw/target/amd/app/gaussian/Gaussian09RevA.02_gcc-4.9.2/g09/l303.exe)
 DipDrv:  MaxL=1.
 Leave Link  303 at Wed Sep 29 20:43:21 2021, MaxMem= 1342177280 cpu:       0.2
 (Enter /sw/target/amd/app/gaussian/Gaussian09RevA.02_gcc-4.9.2/g09/l401.exe)
 Harris functional with IExCor=  402 diagonalized for initial guess.
 ExpMin= 1.61D-01 ExpMax= 5.48D+03 ExpMxC= 8.25D+02 IAcc=1 IRadAn=         1 AccDes= 0.00D+00
 HarFok:  IExCor=  402 AccDes= 0.00D+00 IRadAn=         1 IDoV= 1
 ScaDFX=  1.000000  1.000000  1.000000  1.000000
 FoFCou: FMM=F IPFlag=           0 FMFlag=      100000 FMFlg1=           0
         NFxFlg=           0 DoJE=T BraDBF=F KetDBF=T FulRan=T
         Omega=  0.000000  0.000000  1.000000  0.000000  0.000000 ICntrl=     500 IOpCl=  0
         NMat0=    1 NMatS0=    1 NMatT0=    0 NMatD0=    1 NMtDS0=    0 NMtDT0=    0
         I1Cent=           4 NGrid=           0.
 Petite list used in FoFCou.
 Harris En= -785.952237076527    
 Initial guess orbital symmetries:
       Occupied  (A) (A) (A) (A) (A) (A) (A) (A) (A) (A) (A) (A)
                 (A) (A) (A) (A) (A) (A) (A) (A) (A) (A) (A) (A)
                 (A) (A) (A) (A) (A) (A) (A) (A) (A) (A) (A) (A)
                 (A) (A) (A) (A) (A) (A) (A) (A) (A) (A) (A) (A)
                 (A) (A) (A) (A) (A) (A) (A) (A) (A) (A) (A) (A)
                 (A) (A) (A) (A)
       Virtual   (A) (A) (A) (A) (A) (A) (A) (A) (A) (A) (A) (A)
                 (A) (A) (A) (A) (A) (A) (A) (A) (A) (A) (A) (A)
                 (A) (A) (A) (A) (A) (A) (A) (A) (A) (A) (A) (A)
                 (A) (A) (A) (A) (A) (A) (A) (A) (A) (A) (A) (A)
                 (A) (A) (A) (A) (A) (A) (A) (A) (A) (A) (A) (A)
                 (A) (A) (A) (A) (A) (A) (A) (A) (A) (A) (A) (A)
                 (A) (A) (A) (A) (A) (A) (A) (A) (A) (A) (A) (A)
                 (A) (A) (A) (A) (A) (A) (A) (A) (A) (A) (A) (A)
                 (A) (A) (A) (A) (A) (A) (A) (A) (A) (A) (A) (A)
                 (A) (A) (A) (A) (A) (A) (A) (A) (A) (A) (A) (A)
                 (A) (A) (A) (A) (A) (A) (A) (A) (A) (A) (A) (A)
                 (A) (A) (A) (A) (A) (A) (A) (A) (A) (A) (A) (A)
                 (A) (A) (A) (A) (A) (A) (A) (A) (A) (A) (A) (A)
                 (A) (A) (A) (A) (A) (A) (A) (A) (A) (A) (A) (A)
                 (A) (A) (A) (A) (A) (A) (A) (A) (A) (A) (A) (A)
                 (A) (A) (A) (A) (A) (A) (A) (A) (A) (A) (A) (A)
                 (A) (A) (A) (A) (A) (A) (A) (A) (A) (A) (A) (A)
                 (A) (A) (A) (A) (A) (A) (A) (A) (A) (A) (A) (A)
                 (A) (A) (A) (A) (A) (A) (A) (A) (A) (A) (A) (A)
                 (A) (A) (A) (A) (A) (A) (A) (A)
 The electronic state of the initial guess is 1-A.
 Leave Link  401 at Wed Sep 29 20:43:36 2021, MaxMem= 1342177280 cpu:      11.8
 (Enter /sw/target/amd/app/gaussian/Gaussian09RevA.02_gcc-4.9.2/g09/l502.exe)
 Closed shell SCF:
 Requested convergence on RMS density matrix=1.00D-08 within  64 cycles.
 Requested convergence on MAX density matrix=1.00D-06.
 Requested convergence on             energy=1.00D-06.
 No special actions if energy rises.
 Using DIIS extrapolation, IDIIS=  1040.
 Integral symmetry usage will be decided dynamically.
       284767 words used for storage of precomputed grid.
 Keep R1 ints in memory in canonical form, NReq=1033483512.
 IEnd=      564373 IEndB=      564373 NGot=  1342177280 MDV=   322423579
 LenX=   322423579 LenY=   322333138
 Symmetry not used in FoFDir.
 MinBra= 0 MaxBra= 2 Meth= 1.
 IRaf=       0 NMat=   1 IRICut=       1 DoRegI=T DoRafI=F ISym2E= 0 JSym2E=0.
 Integral accuracy reduced to 1.0D-05 until final iterations.

 Cycle   1  Pass 0  IDiag  1:
 E= -785.390089125905    
 DIIS: error= 3.75D-02 at cycle   1 NSaved=   1.
 NSaved= 1 IEnMin= 1 EnMin= -785.390089125905     IErMin= 1 ErrMin= 3.75D-02
 ErrMax= 3.75D-02 EMaxC= 1.00D-01 BMatC= 4.58D-01 BMatP= 4.58D-01
 IDIUse=3 WtCom= 6.25D-01 WtEn= 3.75D-01
 Coeff-Com:  0.100D+01
 Coeff-En:   0.100D+01
 Coeff:      0.100D+01
 Gap=     0.242 Goal=   None    Shift=    0.000
 GapD=    0.242 DampG=1.000 DampE=0.500 DampFc=0.5000 IDamp=-1.
 Damping current iteration by 5.00D-01
 RMSDP=5.06D-03 MaxDP=2.33D-01              OVMax= 2.56D-01

 Cycle   2  Pass 0  IDiag  1:
 E= -785.549999071108     Delta-E=       -0.159909945203 Rises=F Damp=T
 DIIS: error= 1.35D-02 at cycle   2 NSaved=   2.
 NSaved= 2 IEnMin= 2 EnMin= -785.549999071108     IErMin= 2 ErrMin= 1.35D-02
 ErrMax= 1.35D-02 EMaxC= 1.00D-01 BMatC= 6.12D-02 BMatP= 4.58D-01
 IDIUse=3 WtCom= 8.65D-01 WtEn= 1.35D-01
 Coeff-Com:  0.173D+00 0.827D+00
 Coeff-En:   0.252D+00 0.748D+00
 Coeff:      0.184D+00 0.816D+00
 Gap=     0.202 Goal=   None    Shift=    0.000
 RMSDP=1.62D-03 MaxDP=8.14D-02 DE=-1.60D-01 OVMax= 1.67D-01

 Cycle   3  Pass 0  IDiag  1:
 E= -785.780117517213     Delta-E=       -0.230118446105 Rises=F Damp=F
 DIIS: error= 1.81D-02 at cycle   3 NSaved=   3.
 NSaved= 3 IEnMin= 3 EnMin= -785.780117517213     IErMin= 2 ErrMin= 1.35D-02
 ErrMax= 1.81D-02 EMaxC= 1.00D-01 BMatC= 7.95D-02 BMatP= 6.12D-02
 IDIUse=2 WtCom= 0.00D+00 WtEn= 1.00D+00
 Coeff-En:   0.000D+00 0.000D+00 0.100D+01
 Coeff:      0.000D+00 0.000D+00 0.100D+01
 Gap=     0.213 Goal=   None    Shift=    0.000
 RMSDP=2.76D-03 MaxDP=1.84D-01 DE=-2.30D-01 OVMax= 2.36D-01

 Cycle   4  Pass 0  IDiag  1:
 E= -785.450987219430     Delta-E=        0.329130297783 Rises=F Damp=F
 DIIS: error= 4.81D-02 at cycle   4 NSaved=   4.
 NSaved= 4 IEnMin= 3 EnMin= -785.780117517213     IErMin= 2 ErrMin= 1.35D-02
 ErrMax= 4.81D-02 EMaxC= 1.00D-01 BMatC= 4.99D-01 BMatP= 6.12D-02
 IDIUse=2 WtCom= 0.00D+00 WtEn= 1.00D+00
 Coeff-En:   0.000D+00 0.000D+00 0.803D+00 0.197D+00
 Coeff:      0.000D+00 0.000D+00 0.803D+00 0.197D+00
 Gap=     0.214 Goal=   None    Shift=    0.000
 RMSDP=1.50D-03 MaxDP=9.76D-02 DE= 3.29D-01 OVMax= 1.47D-01

 Cycle   5  Pass 0  IDiag  1:
 E= -785.818110875730     Delta-E=       -0.367123656300 Rises=F Damp=F
 DIIS: error= 1.19D-02 at cycle   5 NSaved=   5.
 NSaved= 5 IEnMin= 5 EnMin= -785.818110875730     IErMin= 5 ErrMin= 1.19D-02
 ErrMax= 1.19D-02 EMaxC= 1.00D-01 BMatC= 3.53D-02 BMatP= 6.12D-02
 IDIUse=3 WtCom= 8.81D-01 WtEn= 1.19D-01
 Coeff-Com: -0.543D-02 0.450D-01 0.316D+00-0.823D-01 0.726D+00
 Coeff-En:   0.000D+00 0.000D+00 0.343D+00 0.000D+00 0.657D+00
 Coeff:     -0.479D-02 0.396D-01 0.319D+00-0.725D-01 0.718D+00
 Gap=     0.191 Goal=   None    Shift=    0.000
 RMSDP=5.53D-04 MaxDP=3.38D-02 DE=-3.67D-01 OVMax= 3.84D-02

 Cycle   6  Pass 0  IDiag  1:
 E= -785.846229229715     Delta-E=       -0.028118353985 Rises=F Damp=F
 DIIS: error= 6.69D-04 at cycle   6 NSaved=   6.
 NSaved= 6 IEnMin= 6 EnMin= -785.846229229715     IErMin= 6 ErrMin= 6.69D-04
 ErrMax= 6.69D-04 EMaxC= 1.00D-01 BMatC= 3.38D-04 BMatP= 3.53D-02
 IDIUse=3 WtCom= 9.93D-01 WtEn= 6.69D-03
 Coeff-Com: -0.600D-02 0.222D-01 0.162D+00-0.621D-01 0.455D+00 0.429D+00
 Coeff-En:   0.000D+00 0.000D+00 0.000D+00 0.000D+00 0.000D+00 0.100D+01
 Coeff:     -0.596D-02 0.221D-01 0.161D+00-0.617D-01 0.452D+00 0.432D+00
 Gap=     0.191 Goal=   None    Shift=    0.000
 RMSDP=6.41D-05 MaxDP=3.75D-03 DE=-2.81D-02 OVMax= 5.97D-03

 Cycle   7  Pass 0  IDiag  1:
 E= -785.846515378122     Delta-E=       -0.000286148407 Rises=F Damp=F
 DIIS: error= 1.68D-04 at cycle   7 NSaved=   7.
 NSaved= 7 IEnMin= 7 EnMin= -785.846515378122     IErMin= 7 ErrMin= 1.68D-04
 ErrMax= 1.68D-04 EMaxC= 1.00D-01 BMatC= 1.48D-05 BMatP= 3.38D-04
 IDIUse=3 WtCom= 9.98D-01 WtEn= 1.68D-03
 Coeff-Com: -0.115D-02 0.308D-02 0.365D-01-0.157D-01 0.104D+00 0.179D+00
 Coeff-Com:  0.694D+00
 Coeff-En:   0.000D+00 0.000D+00 0.000D+00 0.000D+00 0.000D+00 0.000D+00
 Coeff-En:   0.100D+01
 Coeff:     -0.115D-02 0.307D-02 0.364D-01-0.156D-01 0.103D+00 0.179D+00
 Coeff:      0.695D+00
 Gap=     0.191 Goal=   None    Shift=    0.000
 RMSDP=1.70D-05 MaxDP=5.01D-04 DE=-2.86D-04 OVMax= 1.39D-03

 Cycle   8  Pass 0  IDiag  1:
 E= -785.846526124477     Delta-E=       -0.000010746355 Rises=F Damp=F
 DIIS: error= 1.21D-04 at cycle   8 NSaved=   8.
 NSaved= 8 IEnMin= 8 EnMin= -785.846526124477     IErMin= 8 ErrMin= 1.21D-04
 ErrMax= 1.21D-04 EMaxC= 1.00D-01 BMatC= 3.14D-06 BMatP= 1.48D-05
 IDIUse=3 WtCom= 9.99D-01 WtEn= 1.21D-03
 Coeff-Com: -0.143D-03-0.326D-03 0.125D-01-0.505D-02 0.326D-01 0.870D-01
 Coeff-Com:  0.464D+00 0.409D+00
 Coeff-En:   0.000D+00 0.000D+00 0.000D+00 0.000D+00 0.000D+00 0.000D+00
 Coeff-En:   0.133D+00 0.867D+00
 Coeff:     -0.143D-03-0.326D-03 0.125D-01-0.504D-02 0.325D-01 0.869D-01
 Coeff:      0.464D+00 0.410D+00
 Gap=     0.191 Goal=   None    Shift=    0.000
 RMSDP=7.46D-06 MaxDP=3.02D-04 DE=-1.07D-05 OVMax= 6.54D-04

 Initial convergence to 1.0D-05 achieved.  Increase integral accuracy.
 Cycle   9  Pass 1  IDiag  1:
 E= -785.846500953701     Delta-E=        0.000025170776 Rises=F Damp=F
 DIIS: error= 2.38D-05 at cycle   1 NSaved=   1.
 NSaved= 1 IEnMin= 1 EnMin= -785.846500953701     IErMin= 1 ErrMin= 2.38D-05
 ErrMax= 2.38D-05 EMaxC= 1.00D-01 BMatC= 2.01D-07 BMatP= 2.01D-07
 IDIUse=1 WtCom= 1.00D+00 WtEn= 0.00D+00
 Coeff-Com:  0.100D+01
 Coeff:      0.100D+01
 Gap=     0.191 Goal=   None    Shift=    0.000
 RMSDP=7.46D-06 MaxDP=3.02D-04 DE= 2.52D-05 OVMax= 3.35D-04

 Cycle  10  Pass 1  IDiag  1:
 E= -785.846500597690     Delta-E=        0.000000356011 Rises=F Damp=F
 DIIS: error= 5.32D-05 at cycle   2 NSaved=   2.
 NSaved= 2 IEnMin= 1 EnMin= -785.846500953701     IErMin= 1 ErrMin= 2.38D-05
 ErrMax= 5.32D-05 EMaxC= 1.00D-01 BMatC= 5.48D-07 BMatP= 2.01D-07
 IDIUse=1 WtCom= 1.00D+00 WtEn= 0.00D+00
 Coeff-Com:  0.638D+00 0.362D+00
 Coeff:      0.638D+00 0.362D+00
 Gap=     0.191 Goal=   None    Shift=    0.000
 RMSDP=3.12D-06 MaxDP=1.01D-04 DE= 3.56D-07 OVMax= 2.70D-04

 Cycle  11  Pass 1  IDiag  1:
 E= -785.846501176169     Delta-E=       -0.000000578479 Rises=F Damp=F
 DIIS: error= 8.72D-06 at cycle   3 NSaved=   3.
 NSaved= 3 IEnMin= 3 EnMin= -785.846501176169     IErMin= 3 ErrMin= 8.72D-06
 ErrMax= 8.72D-06 EMaxC= 1.00D-01 BMatC= 1.97D-08 BMatP= 2.01D-07
 IDIUse=1 WtCom= 1.00D+00 WtEn= 0.00D+00
 Coeff-Com:  0.106D+00 0.168D+00 0.726D+00
 Coeff:      0.106D+00 0.168D+00 0.726D+00
 Gap=     0.191 Goal=   None    Shift=    0.000
 RMSDP=7.30D-07 MaxDP=2.06D-05 DE=-5.78D-07 OVMax= 5.41D-05

 Cycle  12  Pass 1  IDiag  1:
 E= -785.846501193023     Delta-E=       -0.000000016853 Rises=F Damp=F
 DIIS: error= 3.08D-06 at cycle   4 NSaved=   4.
 NSaved= 4 IEnMin= 4 EnMin= -785.846501193023     IErMin= 4 ErrMin= 3.08D-06
 ErrMax= 3.08D-06 EMaxC= 1.00D-01 BMatC= 5.75D-09 BMatP= 1.97D-08
 IDIUse=1 WtCom= 1.00D+00 WtEn= 0.00D+00
 Coeff-Com: -0.415D-02 0.640D-01 0.451D+00 0.489D+00
 Coeff:     -0.415D-02 0.640D-01 0.451D+00 0.489D+00
 Gap=     0.191 Goal=   None    Shift=    0.000
 RMSDP=2.60D-07 MaxDP=1.22D-05 DE=-1.69D-08 OVMax= 1.54D-05

 Cycle  13  Pass 1  IDiag  1:
 E= -785.846501197942     Delta-E=       -0.000000004920 Rises=F Damp=F
 DIIS: error= 5.84D-07 at cycle   5 NSaved=   5.
 NSaved= 5 IEnMin= 5 EnMin= -785.846501197942     IErMin= 5 ErrMin= 5.84D-07
 ErrMax= 5.84D-07 EMaxC= 1.00D-01 BMatC= 2.12D-10 BMatP= 5.75D-09
 IDIUse=1 WtCom= 1.00D+00 WtEn= 0.00D+00
 Coeff-Com: -0.811D-02 0.233D-01 0.191D+00 0.252D+00 0.542D+00
 Coeff:     -0.811D-02 0.233D-01 0.191D+00 0.252D+00 0.542D+00
 Gap=     0.191 Goal=   None    Shift=    0.000
 RMSDP=5.78D-08 MaxDP=2.85D-06 DE=-4.92D-09 OVMax= 3.53D-06

 Cycle  14  Pass 1  IDiag  1:
 E= -785.846501198104     Delta-E=       -0.000000000162 Rises=F Damp=F
 DIIS: error= 3.39D-07 at cycle   6 NSaved=   6.
 NSaved= 6 IEnMin= 6 EnMin= -785.846501198104     IErMin= 6 ErrMin= 3.39D-07
 ErrMax= 3.39D-07 EMaxC= 1.00D-01 BMatC= 3.97D-11 BMatP= 2.12D-10
 IDIUse=1 WtCom= 1.00D+00 WtEn= 0.00D+00
 Coeff-Com: -0.491D-02 0.102D-01 0.885D-01 0.125D+00 0.353D+00 0.428D+00
 Coeff:     -0.491D-02 0.102D-01 0.885D-01 0.125D+00 0.353D+00 0.428D+00
 Gap=     0.191 Goal=   None    Shift=    0.000
 RMSDP=2.28D-08 MaxDP=1.32D-06 DE=-1.62D-10 OVMax= 1.40D-06

 Cycle  15  Pass 1  IDiag  1:
 E= -785.846501198119     Delta-E=       -0.000000000015 Rises=F Damp=F
 DIIS: error= 7.35D-08 at cycle   7 NSaved=   7.
 NSaved= 7 IEnMin= 7 EnMin= -785.846501198119     IErMin= 7 ErrMin= 7.35D-08
 ErrMax= 7.35D-08 EMaxC= 1.00D-01 BMatC= 1.73D-12 BMatP= 3.97D-11
 IDIUse=1 WtCom= 1.00D+00 WtEn= 0.00D+00
 Coeff-Com: -0.166D-02 0.290D-02 0.256D-01 0.377D-01 0.119D+00 0.220D+00
 Coeff-Com:  0.597D+00
 Coeff:     -0.166D-02 0.290D-02 0.256D-01 0.377D-01 0.119D+00 0.220D+00
 Coeff:      0.597D+00
 Gap=     0.191 Goal=   None    Shift=    0.000
 RMSDP=5.12D-09 MaxDP=3.39D-07 DE=-1.50D-11 OVMax= 4.14D-07

 SCF Done:  E(RB3LYP) =  -785.846501198     A.U. after   15 cycles
             Convg  =    0.5117D-08             -V/T =  2.0099
 KE= 7.781287399777D+02 PE=-4.186516530479D+03 EE= 1.442422638490D+03
 Leave Link  502 at Wed Sep 29 20:59:47 2021, MaxMem= 1342177280 cpu:     396.0
 (Enter /sw/target/amd/app/gaussian/Gaussian09RevA.02_gcc-4.9.2/g09/l508.exe)
 QCSCF skips out because SCF is already converged.
 Leave Link  508 at Wed Sep 29 20:59:51 2021, MaxMem= 1342177280 cpu:       0.0
 (Enter /sw/target/amd/app/gaussian/Gaussian09RevA.02_gcc-4.9.2/g09/l601.exe)
 Copying SCF densities to generalized density rwf, IOpCl= 0 IROHF=0.

 **********************************************************************

            Population analysis using the SCF density.

 **********************************************************************

 Orbital symmetries:
       Occupied  (A) (A) (A) (A) (A) (A) (A) (A) (A) (A) (A) (A)
                 (A) (A) (A) (A) (A) (A) (A) (A) (A) (A) (A) (A)
                 (A) (A) (A) (A) (A) (A) (A) (A) (A) (A) (A) (A)
                 (A) (A) (A) (A) (A) (A) (A) (A) (A) (A) (A) (A)
                 (A) (A) (A) (A) (A) (A) (A) (A) (A) (A) (A) (A)
                 (A) (A) (A) (A)
       Virtual   (A) (A) (A) (A) (A) (A) (A) (A) (A) (A) (A) (A)
                 (A) (A) (A) (A) (A) (A) (A) (A) (A) (A) (A) (A)
                 (A) (A) (A) (A) (A) (A) (A) (A) (A) (A) (A) (A)
                 (A) (A) (A) (A) (A) (A) (A) (A) (A) (A) (A) (A)
                 (A) (A) (A) (A) (A) (A) (A) (A) (A) (A) (A) (A)
                 (A) (A) (A) (A) (A) (A) (A) (A) (A) (A) (A) (A)
                 (A) (A) (A) (A) (A) (A) (A) (A) (A) (A) (A) (A)
                 (A) (A) (A) (A) (A) (A) (A) (A) (A) (A) (A) (A)
                 (A) (A) (A) (A) (A) (A) (A) (A) (A) (A) (A) (A)
                 (A) (A) (A) (A) (A) (A) (A) (A) (A) (A) (A) (A)
                 (A) (A) (A) (A) (A) (A) (A) (A) (A) (A) (A) (A)
                 (A) (A) (A) (A) (A) (A) (A) (A) (A) (A) (A) (A)
                 (A) (A) (A) (A) (A) (A) (A) (A) (A) (A) (A) (A)
                 (A) (A) (A) (A) (A) (A) (A) (A) (A) (A) (A) (A)
                 (A) (A) (A) (A) (A) (A) (A) (A) (A) (A) (A) (A)
                 (A) (A) (A) (A) (A) (A) (A) (A) (A) (A) (A) (A)
                 (A) (A) (A) (A) (A) (A) (A) (A) (A) (A) (A) (A)
                 (A) (A) (A) (A) (A) (A) (A) (A) (A) (A) (A) (A)
                 (A) (A) (A) (A) (A) (A) (A) (A) (A) (A) (A) (A)
                 (A) (A) (A) (A) (A) (A) (A) (A)
 The electronic state is 1-A.
 Alpha  occ. eigenvalues --  -19.19798 -19.11758 -14.37169 -10.33832 -10.25214
 Alpha  occ. eigenvalues --  -10.22315 -10.21929 -10.19828 -10.19776 -10.19297
 Alpha  occ. eigenvalues --  -10.19209 -10.19038 -10.18769 -10.18743 -10.18732
 Alpha  occ. eigenvalues --  -10.18716 -10.18687 -10.18555  -1.09400  -1.00898
 Alpha  occ. eigenvalues --   -0.93832  -0.86286  -0.84189  -0.77621  -0.74733
 Alpha  occ. eigenvalues --   -0.73799  -0.73288  -0.72340  -0.69426  -0.63241
 Alpha  occ. eigenvalues --   -0.61832  -0.59370  -0.58559  -0.56104  -0.53119
 Alpha  occ. eigenvalues --   -0.52157  -0.48806  -0.48347  -0.47843  -0.46423
 Alpha  occ. eigenvalues --   -0.45496  -0.44115  -0.43792  -0.43062  -0.42703
 Alpha  occ. eigenvalues --   -0.42148  -0.41241  -0.41140  -0.40358  -0.39946
 Alpha  occ. eigenvalues --   -0.38804  -0.37712  -0.36345  -0.36114  -0.34662
 Alpha  occ. eigenvalues --   -0.33760  -0.33628  -0.31607  -0.27017  -0.26464
 Alpha  occ. eigenvalues --   -0.24771  -0.24566  -0.24205  -0.21516
 Alpha virt. eigenvalues --   -0.02451  -0.00340   0.00296   0.02880   0.05228
 Alpha virt. eigenvalues --    0.08799   0.09329   0.10033   0.11943   0.13032
 Alpha virt. eigenvalues --    0.13999   0.14373   0.15001   0.15446   0.15857
 Alpha virt. eigenvalues --    0.16211   0.17127   0.17674   0.17894   0.18461
 Alpha virt. eigenvalues --    0.19167   0.19591   0.20198   0.22523   0.22935
 Alpha virt. eigenvalues --    0.24229   0.25752   0.28586   0.29640   0.30910
 Alpha virt. eigenvalues --    0.31326   0.34083   0.35271   0.36285   0.36770
 Alpha virt. eigenvalues --    0.37733   0.39613   0.46085   0.47814   0.48696
 Alpha virt. eigenvalues --    0.49839   0.51051   0.51874   0.52186   0.53747
 Alpha virt. eigenvalues --    0.54484   0.54713   0.55423   0.56076   0.56939
 Alpha virt. eigenvalues --    0.57123   0.57908   0.58248   0.59468   0.59878
 Alpha virt. eigenvalues --    0.60236   0.60733   0.61122   0.61709   0.62102
 Alpha virt. eigenvalues --    0.62607   0.63421   0.64200   0.65188   0.65526
 Alpha virt. eigenvalues --    0.67389   0.67981   0.68859   0.69725   0.71896
 Alpha virt. eigenvalues --    0.73193   0.75019   0.77388   0.78473   0.79515
 Alpha virt. eigenvalues --    0.79898   0.80527   0.82693   0.83077   0.84125
 Alpha virt. eigenvalues --    0.84312   0.84737   0.85650   0.85902   0.87227
 Alpha virt. eigenvalues --    0.87626   0.88533   0.89467   0.90446   0.91606
 Alpha virt. eigenvalues --    0.92041   0.93091   0.94086   0.95483   0.96580
 Alpha virt. eigenvalues --    0.97066   0.97776   0.98844   0.99861   1.00523
 Alpha virt. eigenvalues --    1.02218   1.03405   1.04302   1.07671   1.09476
 Alpha virt. eigenvalues --    1.11764   1.12657   1.13188   1.15510   1.16454
 Alpha virt. eigenvalues --    1.17288   1.19052   1.20594   1.21826   1.24172
 Alpha virt. eigenvalues --    1.26163   1.27958   1.28611   1.33000   1.33609
 Alpha virt. eigenvalues --    1.37176   1.38862   1.40137   1.41023   1.42594
 Alpha virt. eigenvalues --    1.43646   1.43862   1.45801   1.47301   1.48404
 Alpha virt. eigenvalues --    1.49370   1.50026   1.50265   1.51594   1.52068
 Alpha virt. eigenvalues --    1.52691   1.57088   1.65130   1.66319   1.72215
 Alpha virt. eigenvalues --    1.74237   1.77016   1.77596   1.78406   1.79697
 Alpha virt. eigenvalues --    1.80745   1.81918   1.83203   1.83675   1.88626
 Alpha virt. eigenvalues --    1.89958   1.90154   1.90942   1.91937   1.93283
 Alpha virt. eigenvalues --    1.94636   1.95514   1.97668   1.97815   1.99596
 Alpha virt. eigenvalues --    2.02080   2.04187   2.05343   2.05588   2.06036
 Alpha virt. eigenvalues --    2.08201   2.09150   2.10793   2.11227   2.12416
 Alpha virt. eigenvalues --    2.13875   2.15867   2.16238   2.16791   2.19582
 Alpha virt. eigenvalues --    2.21328   2.23709   2.26060   2.26803   2.29091
 Alpha virt. eigenvalues --    2.30635   2.31060   2.31641   2.33871   2.35123
 Alpha virt. eigenvalues --    2.36771   2.38382   2.42151   2.45978   2.47823
 Alpha virt. eigenvalues --    2.51787   2.55201   2.58023   2.58162   2.59943
 Alpha virt. eigenvalues --    2.60382   2.62944   2.63153   2.64703   2.67703
 Alpha virt. eigenvalues --    2.68412   2.70251   2.73678   2.75009   2.76055
 Alpha virt. eigenvalues --    2.76409   2.78003   2.83661   2.87731   2.90825
 Alpha virt. eigenvalues --    2.96438   2.98378   2.99421   3.16606   3.18840
 Alpha virt. eigenvalues --    3.27656   3.37370   3.46718   3.98256   4.07105
 Alpha virt. eigenvalues --    4.08743   4.10048   4.11824   4.12194   4.13304
 Alpha virt. eigenvalues --    4.18105   4.22801   4.28632   4.32120   4.33566
 Alpha virt. eigenvalues --    4.34700   4.37700   4.48583   4.49644   4.68256
 Alpha virt. eigenvalues --    4.79804
          Condensed to atoms (all electrons):
              1          2          3          4          5          6
     1  C    4.975854   0.290165  -0.026326   0.002560  -0.003718   0.000202
     2  N    0.290165   6.933913   0.329098  -0.087097  -0.085094   0.001762
     3  C   -0.026326   0.329098   4.156825   0.546247   0.257842  -0.011696
     4  O    0.002560  -0.087097   0.546247   8.099445  -0.069985  -0.002850
     5  O   -0.003718  -0.085094   0.257842  -0.069985   8.343678   0.208743
     6  C    0.000202   0.001762  -0.011696  -0.002850   0.208743   4.516012
     7  C    0.000017  -0.000253   0.000420   0.000184  -0.048820   0.537752
     8  C   -0.000000   0.000001  -0.000001   0.000004   0.003284  -0.017946
     9  C    0.000000   0.000000   0.000017   0.000003   0.000099  -0.029923
    10  C    0.000000  -0.000001   0.000283   0.000021   0.003564  -0.012146
    11  C   -0.000039   0.000252  -0.001539  -0.000836  -0.047538   0.510816
    12  C    0.000000  -0.000000   0.000000   0.000000  -0.000000   0.000549
    13  C    0.000000  -0.000000  -0.000000  -0.000000  -0.000000   0.000007
    14  C    0.000000   0.000000  -0.000000   0.000000   0.000000   0.000000
    15  C    0.000000  -0.000000   0.000000  -0.000000  -0.000000   0.000000
    16  C   -0.000000   0.000000   0.000000   0.000000   0.000000  -0.000000
    17  C   -0.000000   0.000000   0.000000   0.000000  -0.000000   0.000002
    18  C   -0.053291   0.303313  -0.030559  -0.006725   0.002271  -0.000023
    19  H    0.374918  -0.023874  -0.005749   0.000122   0.011463   0.000225
    20  H    0.375637  -0.053299   0.000227  -0.000009   0.000284  -0.000010
    21  H    0.375190  -0.045386   0.001541  -0.000044   0.000246   0.000006
    22  H   -0.000031  -0.000014   0.000084   0.000012  -0.001040  -0.037587
    23  H    0.000000  -0.000000  -0.000000  -0.000000  -0.000056   0.003863
    24  H    0.000000  -0.000000  -0.000013  -0.000008  -0.000047   0.003307
    25  H   -0.000008  -0.000192   0.000857   0.011835  -0.006395  -0.032237
    26  H    0.000000  -0.000000  -0.000000  -0.000000  -0.000000  -0.000005
    27  H   -0.000000  -0.000000  -0.000000  -0.000000  -0.000000  -0.000000
    28  H    0.000000  -0.000000  -0.000000  -0.000000  -0.000000  -0.000000
    29  H    0.000000   0.000000   0.000000  -0.000000  -0.000000  -0.000000
    30  H   -0.000000  -0.000000   0.000000  -0.000000  -0.000000  -0.000004
    31  H   -0.002224  -0.044360   0.002735   0.000484  -0.000031   0.000001
    32  H   -0.000372  -0.055602   0.000015   0.000828   0.000005  -0.000001
    33  H    0.004050  -0.028003  -0.002315   0.015888   0.000274  -0.000000
              7          8          9         10         11         12
     1  C    0.000017  -0.000000   0.000000   0.000000  -0.000039   0.000000
     2  N   -0.000253   0.000001   0.000000  -0.000001   0.000252  -0.000000
     3  C    0.000420  -0.000001   0.000017   0.000283  -0.001539   0.000000
     4  O    0.000184   0.000004   0.000003   0.000021  -0.000836   0.000000
     5  O   -0.048820   0.003284   0.000099   0.003564  -0.047538  -0.000000
     6  C    0.537752  -0.017946  -0.029923  -0.012146   0.510816   0.000549
     7  C    5.009450   0.490758  -0.021636  -0.041818  -0.065697   0.005614
     8  C    0.490758   5.013517   0.520652  -0.054631  -0.041055  -0.046396
     9  C   -0.021636   0.520652   4.767115   0.511211  -0.019113   0.346862
    10  C   -0.041818  -0.054631   0.511211   5.046171   0.468056  -0.046293
    11  C   -0.065697  -0.041055  -0.019113   0.468056   5.017688   0.005487
    12  C    0.005614  -0.046396   0.346862  -0.046293   0.005487   4.756888
    13  C    0.000313  -0.012949  -0.047263   0.006118  -0.000176   0.516691
    14  C   -0.000001   0.000348   0.005560  -0.000171   0.000002  -0.014244
    15  C   -0.000000   0.000002   0.000629   0.000003  -0.000000  -0.032739
    16  C    0.000001  -0.000152   0.005816   0.000323  -0.000003  -0.015619
    17  C   -0.000152   0.005391  -0.048119  -0.012872   0.000370   0.522961
    18  C    0.000002  -0.000000   0.000000  -0.000000  -0.000002   0.000000
    19  H   -0.000012   0.000001   0.000000  -0.000001   0.000037  -0.000000
    20  H   -0.000001  -0.000000  -0.000000   0.000000   0.000004  -0.000000
    21  H   -0.000001   0.000000  -0.000000  -0.000000   0.000000   0.000000
    22  H    0.345997  -0.037689   0.003542   0.000301   0.006666  -0.000145
    23  H   -0.041045   0.349837  -0.038646   0.006336   0.000222  -0.009789
    24  H    0.000484   0.005967  -0.039563   0.350692  -0.039129  -0.009147
    25  H    0.005555   0.000420   0.003268  -0.036006   0.347748  -0.000141
    26  H   -0.000009   0.004812  -0.009534  -0.000015  -0.000006  -0.041834
    27  H   -0.000000  -0.000001  -0.000168   0.000001  -0.000000   0.003327
    28  H    0.000000  -0.000000   0.000005  -0.000000   0.000000   0.000647
    29  H   -0.000000   0.000001  -0.000172  -0.000002  -0.000000   0.003385
    30  H   -0.000009  -0.000035  -0.009902   0.005518  -0.000012  -0.040790
    31  H   -0.000000   0.000000   0.000000  -0.000000  -0.000000  -0.000000
    32  H    0.000000  -0.000000  -0.000000   0.000000   0.000000  -0.000000
    33  H   -0.000000  -0.000000   0.000000  -0.000000  -0.000001  -0.000000
             13         14         15         16         17         18
     1  C    0.000000   0.000000   0.000000  -0.000000  -0.000000  -0.053291
     2  N   -0.000000   0.000000  -0.000000   0.000000   0.000000   0.303313
     3  C   -0.000000  -0.000000   0.000000   0.000000   0.000000  -0.030559
     4  O   -0.000000   0.000000  -0.000000   0.000000   0.000000  -0.006725
     5  O   -0.000000   0.000000  -0.000000   0.000000  -0.000000   0.002271
     6  C    0.000007   0.000000   0.000000  -0.000000   0.000002  -0.000023
     7  C    0.000313  -0.000001  -0.000000   0.000001  -0.000152   0.000002
     8  C   -0.012949   0.000348   0.000002  -0.000152   0.005391  -0.000000
     9  C   -0.047263   0.005560   0.000629   0.005816  -0.048119   0.000000
    10  C    0.006118  -0.000171   0.000003   0.000323  -0.012872  -0.000000
    11  C   -0.000176   0.000002  -0.000000  -0.000003   0.000370  -0.000002
    12  C    0.516691  -0.014244  -0.032739  -0.015619   0.522961   0.000000
    13  C    5.016357   0.513538  -0.036480  -0.043739  -0.059699   0.000000
    14  C    0.513538   4.871883   0.551694  -0.028130  -0.043818  -0.000000
    15  C   -0.036480   0.551694   4.847073   0.551722  -0.036415   0.000000
    16  C   -0.043739  -0.028130   0.551722   4.869967   0.515411   0.000000
    17  C   -0.059699  -0.043818  -0.036415   0.515411   5.007679  -0.000000
    18  C    0.000000  -0.000000   0.000000   0.000000  -0.000000   4.967450
    19  H    0.000000  -0.000000   0.000000  -0.000000   0.000000   0.003791
    20  H   -0.000000   0.000000  -0.000000   0.000000   0.000000   0.000148
    21  H   -0.000000   0.000000  -0.000000  -0.000000  -0.000000  -0.003552
    22  H   -0.000002  -0.000000  -0.000000  -0.000000   0.000001   0.000000
    23  H    0.005803  -0.000020  -0.000004  -0.000007  -0.000039   0.000000
    24  H   -0.000024  -0.000005  -0.000005  -0.000006   0.005049   0.000000
    25  H    0.000001  -0.000000  -0.000000  -0.000000  -0.000002   0.000017
    26  H    0.350350  -0.044894   0.004915   0.000372   0.006160   0.000000
    27  H   -0.038671   0.357338  -0.043385   0.004727   0.000789   0.000000
    28  H    0.004890  -0.043711   0.357944  -0.043822   0.004916   0.000000
    29  H    0.000802   0.004712  -0.043452   0.357716  -0.038624  -0.000000
    30  H    0.006169   0.000376   0.004883  -0.044550   0.350621   0.000000
    31  H   -0.000000  -0.000000   0.000000   0.000000  -0.000000   0.375972
    32  H    0.000000   0.000000  -0.000000  -0.000000   0.000000   0.381398
    33  H    0.000000  -0.000000   0.000000  -0.000000  -0.000000   0.372123
             19         20         21         22         23         24
     1  C    0.374918   0.375637   0.375190  -0.000031   0.000000   0.000000
     2  N   -0.023874  -0.053299  -0.045386  -0.000014  -0.000000  -0.000000
     3  C   -0.005749   0.000227   0.001541   0.000084  -0.000000  -0.000013
     4  O    0.000122  -0.000009  -0.000044   0.000012  -0.000000  -0.000008
     5  O    0.011463   0.000284   0.000246  -0.001040  -0.000056  -0.000047
     6  C    0.000225  -0.000010   0.000006  -0.037587   0.003863   0.003307
     7  C   -0.000012  -0.000001  -0.000001   0.345997  -0.041045   0.000484
     8  C    0.000001  -0.000000   0.000000  -0.037689   0.349837   0.005967
     9  C    0.000000  -0.000000  -0.000000   0.003542  -0.038646  -0.039563
    10  C   -0.000001   0.000000  -0.000000   0.000301   0.006336   0.350692
    11  C    0.000037   0.000004   0.000000   0.006666   0.000222  -0.039129
    12  C   -0.000000  -0.000000   0.000000  -0.000145  -0.009789  -0.009147
    13  C    0.000000  -0.000000  -0.000000  -0.000002   0.005803  -0.000024
    14  C   -0.000000   0.000000   0.000000  -0.000000  -0.000020  -0.000005
    15  C    0.000000  -0.000000  -0.000000  -0.000000  -0.000004  -0.000005
    16  C   -0.000000   0.000000  -0.000000  -0.000000  -0.000007  -0.000006
    17  C    0.000000   0.000000  -0.000000   0.000001  -0.000039   0.005049
    18  C    0.003791   0.000148  -0.003552   0.000000   0.000000   0.000000
    19  H    0.495587  -0.027142  -0.023968   0.000303  -0.000000   0.000000
    20  H   -0.027142   0.588407  -0.044173   0.000000  -0.000000  -0.000000
    21  H   -0.023968  -0.044173   0.578009   0.000000   0.000000   0.000000
    22  H    0.000303   0.000000   0.000000   0.587591  -0.006166   0.000016
    23  H   -0.000000  -0.000000   0.000000  -0.006166   0.591743  -0.000176
    24  H    0.000000  -0.000000   0.000000   0.000016  -0.000176   0.587404
    25  H   -0.000002   0.000003  -0.000000  -0.000150   0.000012  -0.005584
    26  H    0.000000  -0.000000   0.000000   0.000004   0.002898   0.000001
    27  H    0.000000  -0.000000   0.000000   0.000000   0.000004   0.000000
    28  H   -0.000000   0.000000   0.000000  -0.000000  -0.000000  -0.000000
    29  H    0.000000   0.000000   0.000000   0.000000   0.000000   0.000004
    30  H    0.000000  -0.000000  -0.000000   0.000000   0.000001   0.002730
    31  H    0.000110  -0.002061   0.007248  -0.000000  -0.000000  -0.000000
    32  H   -0.000155   0.006765  -0.001704  -0.000000   0.000000  -0.000000
    33  H   -0.000174  -0.000208   0.000081  -0.000000   0.000000   0.000000
             25         26         27         28         29         30
     1  C   -0.000008   0.000000  -0.000000   0.000000   0.000000  -0.000000
     2  N   -0.000192  -0.000000  -0.000000  -0.000000   0.000000  -0.000000
     3  C    0.000857  -0.000000  -0.000000  -0.000000   0.000000   0.000000
     4  O    0.011835  -0.000000  -0.000000  -0.000000  -0.000000  -0.000000
     5  O   -0.006395  -0.000000  -0.000000  -0.000000  -0.000000  -0.000000
     6  C   -0.032237  -0.000005  -0.000000  -0.000000  -0.000000  -0.000004
     7  C    0.005555  -0.000009  -0.000000   0.000000  -0.000000  -0.000009
     8  C    0.000420   0.004812  -0.000001  -0.000000   0.000001  -0.000035
     9  C    0.003268  -0.009534  -0.000168   0.000005  -0.000172  -0.009902
    10  C   -0.036006  -0.000015   0.000001  -0.000000  -0.000002   0.005518
    11  C    0.347748  -0.000006  -0.000000   0.000000  -0.000000  -0.000012
    12  C   -0.000141  -0.041834   0.003327   0.000647   0.003385  -0.040790
    13  C    0.000001   0.350350  -0.038671   0.004890   0.000802   0.006169
    14  C   -0.000000  -0.044894   0.357338  -0.043711   0.004712   0.000376
    15  C   -0.000000   0.004915  -0.043385   0.357944  -0.043452   0.004883
    16  C   -0.000000   0.000372   0.004727  -0.043822   0.357716  -0.044550
    17  C   -0.000002   0.006160   0.000789   0.004916  -0.038624   0.350621
    18  C    0.000017   0.000000   0.000000   0.000000  -0.000000   0.000000
    19  H   -0.000002   0.000000   0.000000  -0.000000   0.000000   0.000000
    20  H    0.000003  -0.000000  -0.000000   0.000000   0.000000  -0.000000
    21  H   -0.000000   0.000000   0.000000   0.000000   0.000000  -0.000000
    22  H   -0.000150   0.000004   0.000000  -0.000000   0.000000   0.000000
    23  H    0.000012   0.002898   0.000004  -0.000000   0.000000   0.000001
    24  H   -0.005584   0.000001   0.000000  -0.000000   0.000004   0.002730
    25  H    0.546121   0.000000   0.000000  -0.000000   0.000000   0.000004
    26  H    0.000000   0.603795  -0.005769  -0.000188   0.000017  -0.000167
    27  H    0.000000  -0.005769   0.598189  -0.005694  -0.000197   0.000017
    28  H   -0.000000  -0.000188  -0.005694   0.603131  -0.005682  -0.000189
    29  H    0.000000   0.000017  -0.000197  -0.005682   0.596407  -0.005718
    30  H    0.000004  -0.000167   0.000017  -0.000189  -0.005718   0.597743
    31  H   -0.000000  -0.000000   0.000000   0.000000  -0.000000   0.000000
    32  H    0.000005   0.000000  -0.000000   0.000000   0.000000  -0.000000
    33  H   -0.000005   0.000000   0.000000   0.000000   0.000000   0.000000
             31         32         33
     1  C   -0.002224  -0.000372   0.004050
     2  N   -0.044360  -0.055602  -0.028003
     3  C    0.002735   0.000015  -0.002315
     4  O    0.000484   0.000828   0.015888
     5  O   -0.000031   0.000005   0.000274
     6  C    0.000001  -0.000001  -0.000000
     7  C   -0.000000   0.000000  -0.000000
     8  C    0.000000  -0.000000  -0.000000
     9  C    0.000000  -0.000000   0.000000
    10  C   -0.000000   0.000000  -0.000000
    11  C   -0.000000   0.000000  -0.000001
    12  C   -0.000000  -0.000000  -0.000000
    13  C   -0.000000   0.000000   0.000000
    14  C   -0.000000   0.000000  -0.000000
    15  C    0.000000  -0.000000   0.000000
    16  C    0.000000  -0.000000  -0.000000
    17  C   -0.000000   0.000000  -0.000000
    18  C    0.375972   0.381398   0.372123
    19  H    0.000110  -0.000155  -0.000174
    20  H   -0.002061   0.006765  -0.000208
    21  H    0.007248  -0.001704   0.000081
    22  H   -0.000000  -0.000000  -0.000000
    23  H   -0.000000   0.000000   0.000000
    24  H   -0.000000  -0.000000   0.000000
    25  H   -0.000000   0.000005  -0.000005
    26  H   -0.000000   0.000000   0.000000
    27  H    0.000000  -0.000000   0.000000
    28  H    0.000000   0.000000   0.000000
    29  H   -0.000000   0.000000   0.000000
    30  H    0.000000  -0.000000   0.000000
    31  H    0.571958  -0.042229  -0.022064
    32  H   -0.042229   0.583070  -0.027877
    33  H   -0.022064  -0.027877   0.483150
 Mulliken atomic charges:
              1
     1  C   -0.312583
     2  N   -0.435328
     3  C    0.782007
     4  O   -0.510080
     5  O   -0.569027
     6  C    0.361183
     7  C   -0.177095
     8  C   -0.184141
     9  C    0.099258
    10  C   -0.194644
    11  C   -0.142204
    12  C    0.094724
    13  C   -0.182038
    14  C   -0.130455
    15  C   -0.126385
    16  C   -0.130027
    17  C   -0.179611
    18  C   -0.312332
    19  H    0.194517
    20  H    0.155429
    21  H    0.156509
    22  H    0.138306
    23  H    0.135230
    24  H    0.138053
    25  H    0.164875
    26  H    0.129097
    27  H    0.129493
    28  H    0.127753
    29  H    0.130804
    30  H    0.133314
    31  H    0.154461
    32  H    0.155854
    33  H    0.205083
 Sum of Mulliken atomic charges =  -0.00000
 Mulliken charges with hydrogens summed into heavy atoms:
              1
     1  C    0.193872
     2  N   -0.435328
     3  C    0.782007
     4  O   -0.510080
     5  O   -0.569027
     6  C    0.361183
     7  C   -0.038789
     8  C   -0.048911
     9  C    0.099258
    10  C   -0.056591
    11  C    0.022671
    12  C    0.094724
    13  C   -0.052941
    14  C   -0.000961
    15  C    0.001367
    16  C    0.000776
    17  C   -0.046297
    18  C    0.203066
 Sum of Mulliken charges with hydrogens summed into heavy atoms =  -0.00000
 Electronic spatial extent (au):  <R**2>=           7561.5220
 Charge=             -0.0000 electrons
 Dipole moment (field-independent basis, Debye):
    X=             -1.6852    Y=              1.7847    Z=              0.3904  Tot=              2.4855
 Quadrupole moment (field-independent basis, Debye-Ang):
   XX=            -76.7836   YY=            -99.0438   ZZ=           -107.3345
   XY=             -5.3714   XZ=             -1.8453   YZ=             -2.4073
 Traceless Quadrupole moment (field-independent basis, Debye-Ang):
   XX=             17.6037   YY=             -4.6565   ZZ=            -12.9472
   XY=             -5.3714   XZ=             -1.8453   YZ=             -2.4073
 Octapole moment (field-independent basis, Debye-Ang**2):
  XXX=           -128.3548  YYY=              5.9643  ZZZ=             -0.4914  XYY=              4.7790
  XXY=             11.6151  XXZ=             -5.4882  XZZ=            -30.2099  YZZ=             -2.5077
  YYZ=             -1.3575  XYZ=              7.4908
 Hexadecapole moment (field-independent basis, Debye-Ang**3):
 XXXX=          -7807.9262 YYYY=           -799.8193 ZZZZ=           -192.8232 XXXY=             -9.4160
 XXXZ=            -16.1157 YYYX=            -19.3589 YYYZ=             -6.1939 ZZZX=              2.7970
 ZZZY=             -0.6655 XXYY=          -1563.9264 XXZZ=          -1621.7495 YYZZ=           -170.8008
 XXYZ=             23.5865 YYXZ=             -3.8580 ZZXY=              4.9089
 N-N= 1.180118650813D+03 E-N=-4.186516547117D+03  KE= 7.781287399777D+02
 No NMR shielding tensors so no spin-rotation constants.
 Leave Link  601 at Wed Sep 29 20:59:53 2021, MaxMem= 1342177280 cpu:       1.2
 (Enter /sw/target/amd/app/gaussian/Gaussian09RevA.02_gcc-4.9.2/g09/l701.exe)
 Compute integral first derivatives.
 ... and contract with generalized density number  0.
 Leave Link  701 at Wed Sep 29 20:59:57 2021, MaxMem= 1342177280 cpu:       1.6
 (Enter /sw/target/amd/app/gaussian/Gaussian09RevA.02_gcc-4.9.2/g09/l702.exe)
 L702 exits ... SP integral derivatives will be done elsewhere.
 Leave Link  702 at Wed Sep 29 20:59:57 2021, MaxMem= 1342177280 cpu:       0.1
 (Enter /sw/target/amd/app/gaussian/Gaussian09RevA.02_gcc-4.9.2/g09/l703.exe)
 Compute integral first derivatives, UseDBF=F ICtDFT=           0.
 Integral derivatives from FoFDir, PRISM(SPDF).
 Calling FoFJK, ICntrl=      2127 FMM=F ISym2X=0 I1Cent= 0 IOpClX= 0 NMat=1 NMatS=1 NMatT=0.
 FoFCou: FMM=F IPFlag=           0 FMFlag=      100000 FMFlg1=         800
         NFxFlg=           0 DoJE=F BraDBF=F KetDBF=F FulRan=T
         Omega=  0.000000  0.000000  1.000000  0.000000  0.000000 ICntrl=    2127 IOpCl=  0
         NMat0=    1 NMatS0=    1 NMatT0=    0 NMatD0=    1 NMtDS0=    0 NMtDT0=    0
         I1Cent=           0 NGrid=           0.
 Symmetry not used in FoFCou.
 Leave Link  703 at Wed Sep 29 21:02:25 2021, MaxMem= 1342177280 cpu:     135.4
 (Enter /sw/target/amd/app/gaussian/Gaussian09RevA.02_gcc-4.9.2/g09/l716.exe)
 Dipole        =-6.63015430D-01 7.02154755D-01 1.53579770D-01
 ***** Axes restored to original set *****
 -------------------------------------------------------------------
 Center     Atomic                   Forces (Hartrees/Bohr)
 Number     Number              X              Y              Z
 -------------------------------------------------------------------
      1        6          -0.002169586    0.000372575   -0.000041141
      2        7           0.025175776    0.010209617    0.025403227
      3        6          -0.012479858   -0.007163805    0.007731758
      4        8           0.011250884    0.007115014   -0.015195893
      5        8          -0.006646211   -0.004246273   -0.000509646
      6        6          -0.009443080   -0.007588994   -0.007278034
      7        6           0.006259486    0.001177368    0.003894471
      8        6          -0.002740153   -0.000098850   -0.003593223
      9        6          -0.002107772   -0.001648517   -0.003004391
     10        6          -0.000364226   -0.002828213   -0.004467314
     11        6          -0.003616131    0.003799577    0.009078663
     12        6           0.002811007    0.001449921    0.004483551
     13        6           0.005220393    0.001507036    0.000574427
     14        6          -0.002216391   -0.001511275   -0.006098770
     15        6           0.002924582    0.001898544    0.004836599
     16        6          -0.004545126   -0.002215079   -0.006872891
[...]
    28    N    2  dyz    Ryd( 3d)     0.00041
    29    N    2  dx2y2  Ryd( 3d)     0.00074
    30    N    2  dz2    Ryd( 3d)     0.00050

    31    C    3  S      Cor( 1S)     1.99937
    32    C    3  S      Val( 2S)     0.69295
    33    C    3  S      Ryd( 3S)     0.00256
    34    C    3  S      Ryd( 4S)     0.00047
    35    C    3  px     Val( 2p)     0.77485
    36    C    3  px     Ryd( 3p)     0.00613
    37    C    3  py     Val( 2p)     0.72296
    38    C    3  py     Ryd( 3p)     0.02067
    39    C    3  pz     Val( 2p)     0.83504
    40    C    3  pz     Ryd( 3p)     0.00343
    41    C    3  dxy    Ryd( 3d)     0.00372
    42    C    3  dxz    Ryd( 3d)     0.00243
    43    C    3  dyz    Ryd( 3d)     0.00225
    44    C    3  dx2y2  Ryd( 3d)     0.00230
    45    C    3  dz2    Ryd( 3d)     0.00087

    46    O    4  S      Cor( 1S)     1.99978
    47    O    4  S      Val( 2S)     1.70409
    48    O    4  S      Ryd( 3S)     0.00044
    49    O    4  S      Ryd( 4S)     0.00012
    50    O    4  px     Val( 2p)     1.79572
    51    O    4  px     Ryd( 3p)     0.00090
    52    O    4  py     Val( 2p)     1.58210
    53    O    4  py     Ryd( 3p)     0.00050
    54    O    4  pz     Val( 2p)     1.54206
    55    O    4  pz     Ryd( 3p)     0.00104
    56    O    4  dxy    Ryd( 3d)     0.00453
    57    O    4  dxz    Ryd( 3d)     0.00079
    58    O    4  dyz    Ryd( 3d)     0.00454
    59    O    4  dx2y2  Ryd( 3d)     0.00449
    60    O    4  dz2    Ryd( 3d)     0.00192

    61    O    5  S      Cor( 1S)     1.99969
    62    O    5  S      Val( 2S)     1.59585
    63    O    5  S      Ryd( 3S)     0.00095
    64    O    5  S      Ryd( 4S)     0.00011
    65    O    5  px     Val( 2p)     1.43859
    66    O    5  px     Ryd( 3p)     0.00078
    67    O    5  py     Val( 2p)     1.72940
    68    O    5  py     Ryd( 3p)     0.00183
    69    O    5  pz     Val( 2p)     1.75203
    70    O    5  pz     Ryd( 3p)     0.00164
    71    O    5  dxy    Ryd( 3d)     0.00128
    72    O    5  dxz    Ryd( 3d)     0.00057
    73    O    5  dyz    Ryd( 3d)     0.00138
    74    O    5  dx2y2  Ryd( 3d)     0.00114
    75    O    5  dz2    Ryd( 3d)     0.00076

    76    C    6  S      Cor( 1S)     1.99869
    77    C    6  S      Val( 2S)     0.83803
    78    C    6  S      Ryd( 3S)     0.00121
    79    C    6  S      Ryd( 4S)     0.00012
    80    C    6  px     Val( 2p)     0.73214
    81    C    6  px     Ryd( 3p)     0.00646
    82    C    6  py     Val( 2p)     1.07225
    83    C    6  py     Ryd( 3p)     0.00615
    84    C    6  pz     Val( 2p)     1.03069
    85    C    6  pz     Ryd( 3p)     0.00329
    86    C    6  dxy    Ryd( 3d)     0.00128
    87    C    6  dxz    Ryd( 3d)     0.00147
    88    C    6  dyz    Ryd( 3d)     0.00053
    89    C    6  dx2y2  Ryd( 3d)     0.00164
    90    C    6  dz2    Ryd( 3d)     0.00078

    91    C    7  S      Cor( 1S)     1.99903
    92    C    7  S      Val( 2S)     0.96700
    93    C    7  S      Ryd( 3S)     0.00079
    94    C    7  S      Ryd( 4S)     0.00005
    95    C    7  px     Val( 2p)     1.10001
    96    C    7  px     Ryd( 3p)     0.00508
    97    C    7  py     Val( 2p)     1.12893
    98    C    7  py     Ryd( 3p)     0.00377
    99    C    7  pz     Val( 2p)     1.03400
   100    C    7  pz     Ryd( 3p)     0.00224
   101    C    7  dxy    Ryd( 3d)     0.00087
   102    C    7  dxz    Ryd( 3d)     0.00073
   103    C    7  dyz    Ryd( 3d)     0.00053
   104    C    7  dx2y2  Ryd( 3d)     0.00047
   105    C    7  dz2    Ryd( 3d)     0.00046

   106    C    8  S      Cor( 1S)     1.99906
   107    C    8  S      Val( 2S)     0.95322
   108    C    8  S      Ryd( 3S)     0.00065
   109    C    8  S      Ryd( 4S)     0.00006
   110    C    8  px     Val( 2p)     1.09356
   111    C    8  px     Ryd( 3p)     0.00379
   112    C    8  py     Val( 2p)     1.11928
   113    C    8  py     Ryd( 3p)     0.00435
   114    C    8  pz     Val( 2p)     1.04658
   115    C    8  pz     Ryd( 3p)     0.00310
   116    C    8  dxy    Ryd( 3d)     0.00076
   117    C    8  dxz    Ryd( 3d)     0.00067
   118    C    8  dyz    Ryd( 3d)     0.00056
   119    C    8  dx2y2  Ryd( 3d)     0.00056
   120    C    8  dz2    Ryd( 3d)     0.00038

   121    C    9  S      Cor( 1S)     1.99902
   122    C    9  S      Val( 2S)     0.87897
   123    C    9  S      Ryd( 3S)     0.00058
   124    C    9  S      Ryd( 4S)     0.00006
   125    C    9  px     Val( 2p)     1.07450
   126    C    9  px     Ryd( 3p)     0.00478
   127    C    9  py     Val( 2p)     1.05545
   128    C    9  py     Ryd( 3p)     0.00544
   129    C    9  pz     Val( 2p)     0.98755
   130    C    9  pz     Ryd( 3p)     0.00278
   131    C    9  dxy    Ryd( 3d)     0.00074
   132    C    9  dxz    Ryd( 3d)     0.00098
   133    C    9  dyz    Ryd( 3d)     0.00044
   134    C    9  dx2y2  Ryd( 3d)     0.00064
   135    C    9  dz2    Ryd( 3d)     0.00046

   136    C   10  S      Cor( 1S)     1.99906
   137    C   10  S      Val( 2S)     0.95521
   138    C   10  S      Ryd( 3S)     0.00069
   139    C   10  S      Ryd( 4S)     0.00006
   140    C   10  px     Val( 2p)     1.07853
   141    C   10  px     Ryd( 3p)     0.00375
   142    C   10  py     Val( 2p)     1.12865
   143    C   10  py     Ryd( 3p)     0.00429
   144    C   10  pz     Val( 2p)     1.03009
   145    C   10  pz     Ryd( 3p)     0.00263
   146    C   10  dxy    Ryd( 3d)     0.00078
   147    C   10  dxz    Ryd( 3d)     0.00071
   148    C   10  dyz    Ryd( 3d)     0.00055
   149    C   10  dx2y2  Ryd( 3d)     0.00058
   150    C   10  dz2    Ryd( 3d)     0.00039

   151    C   11  S      Cor( 1S)     1.99902
   152    C   11  S      Val( 2S)     0.96748
   153    C   11  S      Ryd( 3S)     0.00076
   154    C   11  S      Ryd( 4S)     0.00005
   155    C   11  px     Val( 2p)     1.11484
   156    C   11  px     Ryd( 3p)     0.00447
   157    C   11  py     Val( 2p)     1.11620
   158    C   11  py     Ryd( 3p)     0.00382
   159    C   11  pz     Val( 2p)     1.04261
   160    C   11  pz     Ryd( 3p)     0.00255
   161    C   11  dxy    Ryd( 3d)     0.00076
   162    C   11  dxz    Ryd( 3d)     0.00072
   163    C   11  dyz    Ryd( 3d)     0.00059
   164    C   11  dx2y2  Ryd( 3d)     0.00055
   165    C   11  dz2    Ryd( 3d)     0.00044

   166    C   12  S      Cor( 1S)     1.99902
   167    C   12  S      Val( 2S)     0.86989
   168    C   12  S      Ryd( 3S)     0.00057
   169    C   12  S      Ryd( 4S)     0.00006
   170    C   12  px     Val( 2p)     1.05689
   171    C   12  px     Ryd( 3p)     0.00474
   172    C   12  py     Val( 2p)     1.09556
   173    C   12  py     Ryd( 3p)     0.00526
   174    C   12  pz     Val( 2p)     1.05212
   175    C   12  pz     Ryd( 3p)     0.00333
   176    C   12  dxy    Ryd( 3d)     0.00075
   177    C   12  dxz    Ryd( 3d)     0.00067
   178    C   12  dyz    Ryd( 3d)     0.00053
   179    C   12  dx2y2  Ryd( 3d)     0.00068
   180    C   12  dz2    Ryd( 3d)     0.00035

   181    C   13  S      Cor( 1S)     1.99905
   182    C   13  S      Val( 2S)     0.94986
   183    C   13  S      Ryd( 3S)     0.00061
   184    C   13  S      Ryd( 4S)     0.00005
   185    C   13  px     Val( 2p)     1.08704
   186    C   13  px     Ryd( 3p)     0.00372
   187    C   13  py     Val( 2p)     1.15760
   188    C   13  py     Ryd( 3p)     0.00466
   189    C   13  pz     Val( 2p)     1.02160
   190    C   13  pz     Ryd( 3p)     0.00259
   191    C   13  dxy    Ryd( 3d)     0.00081
   192    C   13  dxz    Ryd( 3d)     0.00066
   193    C   13  dyz    Ryd( 3d)     0.00040
   194    C   13  dx2y2  Ryd( 3d)     0.00065
   195    C   13  dz2    Ryd( 3d)     0.00040

   196    C   14  S      Cor( 1S)     1.99911
   197    C   14  S      Val( 2S)     0.96142
   198    C   14  S      Ryd( 3S)     0.00062
   199    C   14  S      Ryd( 4S)     0.00003
   200    C   14  px     Val( 2p)     1.10541
   201    C   14  px     Ryd( 3p)     0.00491
   202    C   14  py     Val( 2p)     1.14950
   203    C   14  py     Ryd( 3p)     0.00505
   204    C   14  pz     Val( 2p)     1.00207
   205    C   14  pz     Ryd( 3p)     0.00121
   206    C   14  dxy    Ryd( 3d)     0.00086
   207    C   14  dxz    Ryd( 3d)     0.00063
   208    C   14  dyz    Ryd( 3d)     0.00049
   209    C   14  dx2y2  Ryd( 3d)     0.00063
   210    C   14  dz2    Ryd( 3d)     0.00043

   211    C   15  S      Cor( 1S)     1.99909
   212    C   15  S      Val( 2S)     0.95974
   213    C   15  S      Ryd( 3S)     0.00053
   214    C   15  S      Ryd( 4S)     0.00003
   215    C   15  px     Val( 2p)     1.18923
   216    C   15  px     Ryd( 3p)     0.00462
   217    C   15  py     Val( 2p)     1.05660
   218    C   15  py     Ryd( 3p)     0.00482
   219    C   15  pz     Val( 2p)     1.03651
   220    C   15  pz     Ryd( 3p)     0.00415
   221    C   15  dxy    Ryd( 3d)     0.00063
   222    C   15  dxz    Ryd( 3d)     0.00034
   223    C   15  dyz    Ryd( 3d)     0.00050
   224    C   15  dx2y2  Ryd( 3d)     0.00086
   225    C   15  dz2    Ryd( 3d)     0.00044

   226    C   16  S      Cor( 1S)     1.99911
   227    C   16  S      Val( 2S)     0.96104
   228    C   16  S      Ryd( 3S)     0.00063
   229    C   16  S      Ryd( 4S)     0.00003
   230    C   16  px     Val( 2p)     1.08571
   231    C   16  px     Ryd( 3p)     0.00486
   232    C   16  py     Val( 2p)     1.16809
   233    C   16  py     Ryd( 3p)     0.00512
   234    C   16  pz     Val( 2p)     1.01082
   235    C   16  pz     Ryd( 3p)     0.00140
   236    C   16  dxy    Ryd( 3d)     0.00078
   237    C   16  dxz    Ryd( 3d)     0.00067
   238    C   16  dyz    Ryd( 3d)     0.00044
   239    C   16  dx2y2  Ryd( 3d)     0.00070
   240    C   16  dz2    Ryd( 3d)     0.00042

   241    C   17  S      Cor( 1S)     1.99905
   242    C   17  S      Val( 2S)     0.95143
   243    C   17  S      Ryd( 3S)     0.00061
   244    C   17  S      Ryd( 4S)     0.00005
   245    C   17  px     Val( 2p)     1.10865
   246    C   17  px     Ryd( 3p)     0.00380
   247    C   17  py     Val( 2p)     1.13643
   248    C   17  py     Ryd( 3p)     0.00456
   249    C   17  pz     Val( 2p)     1.00719
   250    C   17  pz     Ryd( 3p)     0.00225
   251    C   17  dxy    Ryd( 3d)     0.00089
   252    C   17  dxz    Ryd( 3d)     0.00063
   253    C   17  dyz    Ryd( 3d)     0.00046
   254    C   17  dx2y2  Ryd( 3d)     0.00060
   255    C   17  dz2    Ryd( 3d)     0.00041

   256    C   18  S      Cor( 1S)     1.99947
   257    C   18  S      Val( 2S)     1.08775
   258    C   18  S      Ryd( 3S)     0.00093
   259    C   18  S      Ryd( 4S)     0.00002
   260    C   18  px     Val( 2p)     1.03601
   261    C   18  px     Ryd( 3p)     0.00243
   262    C   18  py     Val( 2p)     1.11161
   263    C   18  py     Ryd( 3p)     0.00275
   264    C   18  pz     Val( 2p)     1.22373
   265    C   18  pz     Ryd( 3p)     0.00121
   266    C   18  dxy    Ryd( 3d)     0.00124
   267    C   18  dxz    Ryd( 3d)     0.00157
   268    C   18  dyz    Ryd( 3d)     0.00052
   269    C   18  dx2y2  Ryd( 3d)     0.00057
   270    C   18  dz2    Ryd( 3d)     0.00072

   271    H   19  S      Val( 1S)     0.74224
   272    H   19  S      Ryd( 2S)     0.00087

   273    H   20  S      Val( 1S)     0.77338
   274    H   20  S      Ryd( 2S)     0.00154

   275    H   21  S      Val( 1S)     0.77502
   276    H   21  S      Ryd( 2S)     0.00159

   277    H   22  S      Val( 1S)     0.75163
   278    H   22  S      Ryd( 2S)     0.00118

   279    H   23  S      Val( 1S)     0.75643
   280    H   23  S      Ryd( 2S)     0.00133

   281    H   24  S      Val( 1S)     0.75547
   282    H   24  S      Ryd( 2S)     0.00128

   283    H   25  S      Val( 1S)     0.73742
   284    H   25  S      Ryd( 2S)     0.00115

   285    H   26  S      Val( 1S)     0.77071
   286    H   26  S      Ryd( 2S)     0.00147

   287    H   27  S      Val( 1S)     0.76672
   288    H   27  S      Ryd( 2S)     0.00093

   289    H   28  S      Val( 1S)     0.77030
   290    H   28  S      Ryd( 2S)     0.00109

   291    H   29  S      Val( 1S)     0.76629
   292    H   29  S      Ryd( 2S)     0.00092

   293    H   30  S      Val( 1S)     0.76880
   294    H   30  S      Ryd( 2S)     0.00138

   295    H   31  S      Val( 1S)     0.77605
   296    H   31  S      Ryd( 2S)     0.00142

   297    H   32  S      Val( 1S)     0.77580
   298    H   32  S      Ryd( 2S)     0.00140

   299    H   33  S      Val( 1S)     0.73335
   300    H   33  S      Ryd( 2S)     0.00150

 WARNING:  1 low occupancy (<1.9990e) core orbital  found on  C    6


 Summary of Natural Population Analysis:                  
                                                          
                                       Natural Population 
                Natural  -----------------------------------------------
    Atom  No    Charge         Core      Valence    Rydberg      Total
 -----------------------------------------------------------------------
      C    1   -0.47175      1.99946     4.46076    0.01153     6.47175
      N    2   -0.47408      1.99932     5.46375    0.01101     7.47408
      C    3    0.93000      1.99937     3.02580    0.04483     5.07000
      O    4   -0.64301      1.99978     6.62396    0.01927     8.64301
      O    5   -0.52601      1.99969     6.51587    0.01045     8.52601
      C    6    0.30528      1.99869     3.67312    0.02291     5.69472
      C    7   -0.24396      1.99903     4.22994    0.01499     6.24396
      C    8   -0.22658      1.99906     4.21264    0.01489     6.22658
      C    9   -0.01240      1.99902     3.99647    0.01691     6.01240
      C   10   -0.20597      1.99906     4.19248    0.01442     6.20597
      C   11   -0.25486      1.99902     4.24113    0.01471     6.25486
      C   12   -0.09042      1.99902     4.07446    0.01694     6.09042
      C   13   -0.22972      1.99905     4.21610    0.01457     6.22972
      C   14   -0.23239      1.99911     4.21841    0.01487     6.23239
      C   15   -0.25809      1.99909     4.24208    0.01692     6.25809
      C   16   -0.23982      1.99911     4.22565    0.01505     6.23982
      C   17   -0.21700      1.99905     4.20370    0.01425     6.21700
      C   18   -0.47055      1.99947     4.45911    0.01197     6.47055
      H   19    0.25688      0.00000     0.74224    0.00087     0.74312
      H   20    0.22508      0.00000     0.77338    0.00154     0.77492
      H   21    0.22339      0.00000     0.77502    0.00159     0.77661
      H   22    0.24719      0.00000     0.75163    0.00118     0.75281
      H   23    0.24224      0.00000     0.75643    0.00133     0.75776
      H   24    0.24325      0.00000     0.75547    0.00128     0.75675
      H   25    0.26143      0.00000     0.73742    0.00115     0.73857
      H   26    0.22782      0.00000     0.77071    0.00147     0.77218
      H   27    0.23235      0.00000     0.76672    0.00093     0.76765
      H   28    0.22861      0.00000     0.77030    0.00109     0.77139
      H   29    0.23279      0.00000     0.76629    0.00092     0.76721
      H   30    0.22982      0.00000     0.76880    0.00138     0.77018
      H   31    0.22253      0.00000     0.77605    0.00142     0.77747
      H   32    0.22280      0.00000     0.77580    0.00140     0.77720
      H   33    0.26515      0.00000     0.73335    0.00150     0.73485
 =======================================================================
   * Total *   -0.00000     35.98540    91.69506    0.31954   128.00000

                                 Natural Population      
 --------------------------------------------------------
   Core                      35.98540 ( 99.9594% of  36)
   Valence                   91.69506 ( 99.6685% of  92)
   Natural Minimal Basis    127.68046 ( 99.7504% of 128)
   Natural Rydberg Basis      0.31954 (  0.2496% of 128)
 --------------------------------------------------------

    Atom  No          Natural Electron Configuration
 ----------------------------------------------------------------------------
      C    1      [core]2S( 1.09)2p( 3.37)3p( 0.01)
      N    2      [core]2S( 1.21)2p( 4.26)3p( 0.01)
      C    3      [core]2S( 0.69)2p( 2.33)3p( 0.03)3d( 0.01)
      O    4      [core]2S( 1.70)2p( 4.92)3d( 0.02)
      O    5      [core]2S( 1.60)2p( 4.92)3d( 0.01)
      C    6      [core]2S( 0.84)2p( 2.84)3p( 0.02)3d( 0.01)
      C    7      [core]2S( 0.97)2p( 3.26)3p( 0.01)
      C    8      [core]2S( 0.95)2p( 3.26)3p( 0.01)
      C    9      [core]2S( 0.88)2p( 3.12)3p( 0.01)
      C   10      [core]2S( 0.96)2p( 3.24)3p( 0.01)
      C   11      [core]2S( 0.97)2p( 3.27)3p( 0.01)
      C   12      [core]2S( 0.87)2p( 3.20)3p( 0.01)
      C   13      [core]2S( 0.95)2p( 3.27)3p( 0.01)
      C   14      [core]2S( 0.96)2p( 3.26)3p( 0.01)
      C   15      [core]2S( 0.96)2p( 3.28)3p( 0.01)
      C   16      [core]2S( 0.96)2p( 3.26)3p( 0.01)
      C   17      [core]2S( 0.95)2p( 3.25)3p( 0.01)
      C   18      [core]2S( 1.09)2p( 3.37)3p( 0.01)
      H   19            1S( 0.74)
      H   20            1S( 0.77)
      H   21            1S( 0.78)
      H   22            1S( 0.75)
      H   23            1S( 0.76)
      H   24            1S( 0.76)
      H   25            1S( 0.74)
      H   26            1S( 0.77)
      H   27            1S( 0.77)
      H   28            1S( 0.77)
      H   29            1S( 0.77)
      H   30            1S( 0.77)
      H   31            1S( 0.78)
      H   32            1S( 0.78)
      H   33            1S( 0.73)


 NBO analysis skipped by request.
 Leave Link  607 at Thu Sep 30 08:10:12 2021, MaxMem= 1342177280 cpu:      21.6
 (Enter /sw/target/amd/app/gaussian/Gaussian09RevA.02_gcc-4.9.2/g09/l9999.exe)
 1\1\GINC-HERMITE\SP\RTD-B3LYP-FC\6-31G(d)\C15H15N1O2\JSCHLEINITZ\30-Se
 p-2021\0\\#p TD(NStates=10, Root=1) b3lyp/6-31G* volume pop=NPA densit
 y=current Geom=AllCheck Guess=Read\\CN(C(=O)Oc1ccc(cc1)c1ccccc1)C_conf
 _0\\0,1\C,0,1.3344773039,0.2281217321,0.4441077224\N,0,0.7524825984,-0
 .2517263152,1.688076408\C,0,1.2266108165,0.0321559609,2.9364689544\O,0
 ,0.7589148639,-0.3848622737,3.9788351754\O,0,2.3228234449,0.8660635038
 ,2.8613944365\C,0,2.943505529,1.313148597,4.0233584171\C,0,4.337033120
 3,1.3268991537,4.0055657979\C,0,5.0366250396,1.8418730997,5.0935331484
 \C,0,4.3626231089,2.3469519711,6.2175865325\C,0,2.9578028807,2.3206194
 948,6.204013207\C,0,2.2433041656,1.8147323312,5.1207725956\C,0,5.10896
 80558,2.8903643553,7.3805500622\C,0,6.2845171766,3.6391015881,7.199998
 2133\C,0,6.9866211793,4.1473229576,8.2918896322\C,0,6.5275129591,3.920
 7915885,9.590678967\C,0,5.3604856248,3.1799703285,9.7863253339\C,0,4.6
 604475012,2.6697599513,8.6940480247\C,0,-0.3908206512,-1.1422282316,1.
 5654283627\H,0,2.1648673514,0.8985932944,0.649879262\H,0,0.5776603071,
 0.7662096594,-0.1418698923\H,0,1.6958880219,-0.6154798572,-0.159948024
 8\H,0,4.8591298592,0.9267654517,3.1419639487\H,0,6.1226317159,1.824899
 4572,5.0812334856\H,0,2.4088812804,2.7298869797,7.0472471219\H,0,1.161
 2130791,1.8030835658,5.1295899464\H,0,6.63557482,3.8455946833,6.192610
 6288\H,0,7.8893453564,4.7298472101,8.1266168872\H,0,7.0738804218,4.317
 6595716,10.4420509989\H,0,4.9981160671,2.9895861412,10.793272099\H,0,3
 .7694082348,2.0704242555,8.8594222074\H,0,-0.1132698854,-2.0537264337,
 1.018982816\H,0,-1.2019135047,-0.6455903385,1.0171288339\H,0,-0.737208
 9303,-1.4110689285,2.5620447506\\Version=AM64L-G09RevA.02\State=1-A\HF
 =-785.8516077\RMSD=7.711e-09\Dipole=-0.5541939,-0.2811932,-1.8606267\Q
 uadrupole=-0.9881622,-7.3266117,8.3147738,1.2400532,4.3864943,5.229686
 1\PG=C01 [X(C15H15N1O2)]\\@


 Change starts when someone sees the next step.
                            -- William Drayton
 Job cpu time:  0 days  4 hours 39 minutes 38.4 seconds.
 File lengths (MBytes):  RWF=    295 Int=      0 D2E=      0 Chk=     40 Scr=      1
 Normal termination of Gaussian 09 at Thu Sep 30 08:10:16 2021.
