 Entering Gaussian System, Link 0=g09
 Input=C15H15P_3bc4_conf_0.com
 Output=C15H15P_3bc4_conf_0.log
 Initial command:
 /sw/target/amd/app/gaussian/Gaussian09RevA.02_gcc-4.9.2/g09/l1.exe /home/jschleinitz/gaussian/Gau-2057029.inp -scrdir=/home/jschleinitz/gaussian/
 Entering Link 1 = /sw/target/amd/app/gaussian/Gaussian09RevA.02_gcc-4.9.2/g09/l1.exe PID=   2057035.
  
 Copyright (c) 1988,1990,1992,1993,1995,1998,2003,2009, Gaussian, Inc.
                  All Rights Reserved.
  
 This is part of the Gaussian(R) 09 program.  It is based on
 the Gaussian(R) 03 system (copyright 2003, Gaussian, Inc.),
 the Gaussian(R) 98 system (copyright 1998, Gaussian, Inc.),
 the Gaussian(R) 94 system (copyright 1995, Gaussian, Inc.),
 the Gaussian 92(TM) system (copyright 1992, Gaussian, Inc.),
 the Gaussian 90(TM) system (copyright 1990, Gaussian, Inc.),
 the Gaussian 88(TM) system (copyright 1988, Gaussian, Inc.),
 the Gaussian 86(TM) system (copyright 1986, Carnegie Mellon
 University), and the Gaussian 82(TM) system (copyright 1983,
 Carnegie Mellon University). Gaussian is a federally registered
 trademark of Gaussian, Inc.
  
 This software contains proprietary and confidential information,
 including trade secrets, belonging to Gaussian, Inc.
  
 This software is provided under written license and may be
 used, copied, transmitted, or stored only in accord with that
 written license.
  
 The following legend is applicable only to US Government
 contracts under FAR:
  
                    RESTRICTED RIGHTS LEGEND
  
 Use, reproduction and disclosure by the US Government is
 subject to restrictions as set forth in subparagraphs (a)
 and (c) of the Commercial Computer Software - Restricted
 Rights clause in FAR 52.227-19.
  
 Gaussian, Inc.
 340 Quinnipiac St., Bldg. 40, Wallingford CT 06492
  
  
 ---------------------------------------------------------------
 Warning -- This program may not be used in any manner that
 competes with the business of Gaussian, Inc. or will provide
 assistance to any competitor of Gaussian, Inc.  The licensee
 of this program is prohibited from giving any competitor of
 Gaussian, Inc. access to this program.  By using this program,
 the user acknowledges that Gaussian, Inc. is engaged in the
 business of creating and licensing software in the field of
 computational chemistry and represents and warrants to the
 licensee that it is not a competitor of Gaussian, Inc. and that
 it will not use this program in any manner prohibited above.
 ---------------------------------------------------------------
  

 Cite this work as:
 Gaussian 09, Revision A.02,
 M. J. Frisch, G. W. Trucks, H. B. Schlegel, G. E. Scuseria, 
 M. A. Robb, J. R. Cheeseman, G. Scalmani, V. Barone, B. Mennucci, 
 G. A. Petersson, H. Nakatsuji, M. Caricato, X. Li, H. P. Hratchian, 
 A. F. Izmaylov, J. Bloino, G. Zheng, J. L. Sonnenberg, M. Hada, 
 M. Ehara, K. Toyota, R. Fukuda, J. Hasegawa, M. Ishida, T. Nakajima, 
 Y. Honda, O. Kitao, H. Nakai, T. Vreven, J. A. Montgomery, Jr., 
 J. E. Peralta, F. Ogliaro, M. Bearpark, J. J. Heyd, E. Brothers, 
 K. N. Kudin, V. N. Staroverov, R. Kobayashi, J. Normand, 
 K. Raghavachari, A. Rendell, J. C. Burant, S. S. Iyengar, J. Tomasi, 
 M. Cossi, N. Rega, J. M. Millam, M. Klene, J. E. Knox, J. B. Cross, 
 V. Bakken, C. Adamo, J. Jaramillo, R. Gomperts, R. E. Stratmann, 
 O. Yazyev, A. J. Austin, R. Cammi, C. Pomelli, J. W. Ochterski, 
 R. L. Martin, K. Morokuma, V. G. Zakrzewski, G. A. Voth, 
 P. Salvador, J. J. Dannenberg, S. Dapprich, A. D. Daniels, 
 O. Farkas, J. B. Foresman, J. V. Ortiz, J. Cioslowski, 
 and D. J. Fox, Gaussian, Inc., Wallingford CT, 2009.
 
 ******************************************
 Gaussian 09:  AM64L-G09RevA.02 11-Jun-2009
                 1-Oct-2021 
 ******************************************
 %nproc=5
 Will use up to    5 processors via shared memory.
 %mem=10gb
 %chk=C15H15P_3bc4_conf_0.chk
 -----------------------------------
 #p opt b3lyp/6-31G* scf=(xqc,tight)
 -----------------------------------
 1/14=-1,18=20,19=15,26=3,38=1/1,3;
 2/9=110,12=2,17=6,18=5,40=1/2;
 3/5=1,6=6,7=1,11=2,16=1,25=1,30=1,71=1,74=-5/1,2,3;
 4//1;
 5/5=2,8=3,13=1,32=2,38=5/2,8;
 6/7=2,8=2,9=2,10=2,28=1/1;
 7//1,2,3,16;
 1/14=-1,18=20,19=15/3(2);
 2/9=110/2;
 99//99;
 2/9=110/2;
 3/5=1,6=6,7=1,11=2,16=1,25=1,30=1,71=1,74=-5/1,2,3;
 4/5=5,16=3/1;
 5/5=2,8=3,13=1,32=2,38=5/2,8;
 7//1,2,3,16;
 1/14=-1,18=20,19=15/3(-5);
 2/9=110/2;
 6/7=2,8=2,9=2,10=2,19=2,28=1/1;
 99/9=1/99;
 Leave Link    1 at Fri Oct  1 18:35:40 2021, MaxMem= 1342177280 cpu:       0.1
 (Enter /sw/target/amd/app/gaussian/Gaussian09RevA.02_gcc-4.9.2/g09/l101.exe)
 ---------------------------------------
 C1=CC(C=C1)P(C1C=CC=C1)C1C=CC=C1_conf_0
 ---------------------------------------
 Symbolic Z-matrix:
 Charge =  0 Multiplicity = 1
 C                    -1.82289  -2.31462  -2.09292 
 C                    -1.1811   -1.77903  -1.03837 
 C                     0.24107  -2.26072  -1.00991 
 C                     0.25686  -3.21863  -2.15472 
 C                    -0.92616  -3.20586  -2.78613 
 P                     0.45682  -3.07064   0.5648 
 C                    -0.33597  -4.6771    0.60616 
 C                    -1.81764  -4.44526   0.64504 
 C                    -2.32535  -4.75509   1.85079 
 C                    -1.2555   -5.19636   2.70526 
 C                    -0.10285  -5.161     2.0181 
 C                     2.20135  -3.42654   0.76852 
 C                     2.90013  -2.10289   0.74256 
 C                     3.76421  -2.06364  -0.2871 
 C                     3.67568  -3.30288  -1.02223 
 C                     2.7623   -4.09862  -0.44224 
 H                    -2.85216  -2.1499   -2.37022 
 H                    -1.61958  -1.08552  -0.33493 
 H                     0.90842  -1.41187  -1.18417 
 H                     1.11958  -3.75826  -2.51406 
 H                    -1.17931  -3.75517  -3.68001 
 H                    -0.04286  -5.42163  -0.13672 
 H                    -2.42322  -4.14598  -0.19487 
 H                    -3.36312  -4.70354   2.13934 
 H                    -1.3871   -5.50577   3.73071 
 H                     0.84636  -5.48004   2.42339 
 H                     2.46614  -3.97414   1.67872 
 H                     2.77337  -1.31859   1.47543 
 H                     4.42409  -1.24856  -0.5413 
 H                     4.25377  -3.52647  -1.90746 
 H                     2.50901  -5.09329  -0.77754 
 
 NAtoms=     31 NQM=     31 NQMF=      0 NMic=      0 NMicF=      0 NTot=     31.
                    Isotopes and Nuclear Properties:
 (Nuclear quadrupole moments (NQMom) in fm**2, nuclear magnetic moments (NMagM)
  in nuclear magnetons)

  Atom         1           2           3           4           5           6           7           8           9          10
 IAtWgt=          12          12          12          12          12          31          12          12          12          12
 AtmWgt=  12.0000000  12.0000000  12.0000000  12.0000000  12.0000000  30.9737634  12.0000000  12.0000000  12.0000000  12.0000000
 NucSpn=           0           0           0           0           0           1           0           0           0           0
 AtZEff=   0.0000000   0.0000000   0.0000000   0.0000000   0.0000000   0.0000000   0.0000000   0.0000000   0.0000000   0.0000000
 NQMom=    0.0000000   0.0000000   0.0000000   0.0000000   0.0000000   0.0000000   0.0000000   0.0000000   0.0000000   0.0000000
 NMagM=    0.0000000   0.0000000   0.0000000   0.0000000   0.0000000   1.1316000   0.0000000   0.0000000   0.0000000   0.0000000

  Atom        11          12          13          14          15          16          17          18          19          20
 IAtWgt=          12          12          12          12          12          12           1           1           1           1
 AtmWgt=  12.0000000  12.0000000  12.0000000  12.0000000  12.0000000  12.0000000   1.0078250   1.0078250   1.0078250   1.0078250
 NucSpn=           0           0           0           0           0           0           1           1           1           1
 AtZEff=   0.0000000   0.0000000   0.0000000   0.0000000   0.0000000   0.0000000   0.0000000   0.0000000   0.0000000   0.0000000
 NQMom=    0.0000000   0.0000000   0.0000000   0.0000000   0.0000000   0.0000000   0.0000000   0.0000000   0.0000000   0.0000000
 NMagM=    0.0000000   0.0000000   0.0000000   0.0000000   0.0000000   0.0000000   2.7928460   2.7928460   2.7928460   2.7928460

  Atom        21          22          23          24          25          26          27          28          29          30
 IAtWgt=           1           1           1           1           1           1           1           1           1           1
 AtmWgt=   1.0078250   1.0078250   1.0078250   1.0078250   1.0078250   1.0078250   1.0078250   1.0078250   1.0078250   1.0078250
 NucSpn=           1           1           1           1           1           1           1           1           1           1
 AtZEff=   0.0000000   0.0000000   0.0000000   0.0000000   0.0000000   0.0000000   0.0000000   0.0000000   0.0000000   0.0000000
 NQMom=    0.0000000   0.0000000   0.0000000   0.0000000   0.0000000   0.0000000   0.0000000   0.0000000   0.0000000   0.0000000
 NMagM=    2.7928460   2.7928460   2.7928460   2.7928460   2.7928460   2.7928460   2.7928460   2.7928460   2.7928460   2.7928460

  Atom        31
 IAtWgt=           1
 AtmWgt=   1.0078250
 NucSpn=           1
 AtZEff=   0.0000000
 NQMom=    0.0000000
 NMagM=    2.7928460
 Leave Link  101 at Fri Oct  1 18:35:41 2021, MaxMem= 1342177280 cpu:       0.2
 (Enter /sw/target/amd/app/gaussian/Gaussian09RevA.02_gcc-4.9.2/g09/l103.exe)

 GradGradGradGradGradGradGradGradGradGradGradGradGradGradGradGradGradGrad
 Berny optimization.
 Initialization pass.
                           ----------------------------
                           !    Initial Parameters    !
                           ! (Angstroms and Degrees)  !
 --------------------------                            --------------------------
 ! Name  Definition              Value          Derivative Info.                !
 --------------------------------------------------------------------------------
 ! R1    R(1,2)                  1.3457         estimate D2E/DX2                !
 ! R2    R(1,5)                  1.4419         estimate D2E/DX2                !
 ! R3    R(1,17)                 1.0786         estimate D2E/DX2                !
 ! R4    R(2,3)                  1.5018         estimate D2E/DX2                !
 ! R5    R(2,18)                 1.0808         estimate D2E/DX2                !
 ! R6    R(3,4)                  1.4928         estimate D2E/DX2                !
 ! R7    R(3,6)                  1.7839         estimate D2E/DX2                !
 ! R8    R(3,19)                 1.0937         estimate D2E/DX2                !
 ! R9    R(4,5)                  1.341          estimate D2E/DX2                !
 ! R10   R(4,20)                 1.0792         estimate D2E/DX2                !
 ! R11   R(5,21)                 1.0793         estimate D2E/DX2                !
 ! R12   R(6,7)                  1.7919         estimate D2E/DX2                !
 ! R13   R(6,12)                 1.7921         estimate D2E/DX2                !
 ! R14   R(7,8)                  1.5002         estimate D2E/DX2                !
 ! R15   R(7,11)                 1.5107         estimate D2E/DX2                !
 ! R16   R(7,22)                 1.0918         estimate D2E/DX2                !
 ! R17   R(8,9)                  1.3445         estimate D2E/DX2                !
 ! R18   R(8,23)                 1.0778         estimate D2E/DX2                !
 ! R19   R(9,10)                 1.4386         estimate D2E/DX2                !
 ! R20   R(9,24)                 1.0784         estimate D2E/DX2                !
 ! R21   R(10,11)                1.3424         estimate D2E/DX2                !
 ! R22   R(10,25)                1.0792         estimate D2E/DX2                !
 ! R23   R(11,26)                1.0803         estimate D2E/DX2                !
 ! R24   R(12,13)                1.497          estimate D2E/DX2                !
 ! R25   R(12,16)                1.4941         estimate D2E/DX2                !
 ! R26   R(12,27)                1.0947         estimate D2E/DX2                !
 ! R27   R(13,14)                1.3448         estimate D2E/DX2                !
 ! R28   R(13,28)                1.0809         estimate D2E/DX2                !
 ! R29   R(14,15)                1.4436         estimate D2E/DX2                !
 ! R30   R(14,29)                1.0791         estimate D2E/DX2                !
 ! R31   R(15,16)                1.3431         estimate D2E/DX2                !
 ! R32   R(15,30)                1.0807         estimate D2E/DX2                !
 ! R33   R(16,31)                1.0798         estimate D2E/DX2                !
 ! A1    A(2,1,5)              109.0367         estimate D2E/DX2                !
 ! A2    A(2,1,17)             126.5691         estimate D2E/DX2                !
 ! A3    A(5,1,17)             124.3509         estimate D2E/DX2                !
 ! A4    A(1,2,3)              109.8053         estimate D2E/DX2                !
 ! A5    A(1,2,18)             124.8875         estimate D2E/DX2                !
 ! A6    A(3,2,18)             125.2881         estimate D2E/DX2                !
 ! A7    A(2,3,4)              101.6132         estimate D2E/DX2                !
 ! A8    A(2,3,6)              106.0741         estimate D2E/DX2                !
 ! A9    A(2,3,19)             109.017          estimate D2E/DX2                !
 ! A10   A(4,3,6)              112.6034         estimate D2E/DX2                !
 ! A11   A(4,3,19)             111.677          estimate D2E/DX2                !
 ! A12   A(6,3,19)             114.7853         estimate D2E/DX2                !
 ! A13   A(3,4,5)              110.2208         estimate D2E/DX2                !
 ! A14   A(3,4,20)             125.7801         estimate D2E/DX2                !
 ! A15   A(5,4,20)             123.5884         estimate D2E/DX2                !
 ! A16   A(1,5,4)              109.1572         estimate D2E/DX2                !
 ! A17   A(1,5,21)             124.5347         estimate D2E/DX2                !
 ! A18   A(4,5,21)             126.301          estimate D2E/DX2                !
 ! A19   A(3,6,7)              111.9565         estimate D2E/DX2                !
 ! A20   A(3,6,12)             107.9536         estimate D2E/DX2                !
 ! A21   A(7,6,12)             104.4789         estimate D2E/DX2                !
 ! A22   A(6,7,8)              107.3982         estimate D2E/DX2                !
 ! A23   A(6,7,11)             103.9144         estimate D2E/DX2                !
 ! A24   A(6,7,22)             118.4803         estimate D2E/DX2                !
 ! A25   A(8,7,11)             100.2355         estimate D2E/DX2                !
 ! A26   A(8,7,22)             112.8397         estimate D2E/DX2                !
 ! A27   A(11,7,22)            112.0909         estimate D2E/DX2                !
 ! A28   A(7,8,9)              111.1361         estimate D2E/DX2                !
 ! A29   A(7,8,23)             125.2833         estimate D2E/DX2                !
 ! A30   A(9,8,23)             123.4133         estimate D2E/DX2                !
 ! A31   A(8,9,10)             108.8172         estimate D2E/DX2                !
 ! A32   A(8,9,24)             126.3247         estimate D2E/DX2                !
 ! A33   A(10,9,24)            124.8496         estimate D2E/DX2                !
 ! A34   A(9,10,11)            109.0527         estimate D2E/DX2                !
 ! A35   A(9,10,25)            124.1716         estimate D2E/DX2                !
 ! A36   A(11,10,25)           126.775          estimate D2E/DX2                !
 ! A37   A(7,11,10)            110.7553         estimate D2E/DX2                !
 ! A38   A(7,11,26)            125.5095         estimate D2E/DX2                !
 ! A39   A(10,11,26)           123.6854         estimate D2E/DX2                !
 ! A40   A(6,12,13)            106.0715         estimate D2E/DX2                !
 ! A41   A(6,12,16)            111.266          estimate D2E/DX2                !
 ! A42   A(6,12,27)            115.424          estimate D2E/DX2                !
 ! A43   A(13,12,16)           102.0304         estimate D2E/DX2                !
 ! A44   A(13,12,27)           110.1086         estimate D2E/DX2                !
 ! A45   A(16,12,27)           110.9739         estimate D2E/DX2                !
 ! A46   A(12,13,14)           109.8172         estimate D2E/DX2                !
 ! A47   A(12,13,28)           125.1054         estimate D2E/DX2                !
 ! A48   A(14,13,28)           124.9837         estimate D2E/DX2                !
 ! A49   A(13,14,15)           108.9932         estimate D2E/DX2                !
 ! A50   A(13,14,29)           126.5379         estimate D2E/DX2                !
 ! A51   A(15,14,29)           124.4688         estimate D2E/DX2                !
 ! A52   A(14,15,16)           109.2933         estimate D2E/DX2                !
 ! A53   A(14,15,30)           124.1912         estimate D2E/DX2                !
 ! A54   A(16,15,30)           126.5093         estimate D2E/DX2                !
 ! A55   A(12,16,15)           109.8014         estimate D2E/DX2                !
 ! A56   A(12,16,31)           125.3055         estimate D2E/DX2                !
 ! A57   A(15,16,31)           124.834          estimate D2E/DX2                !
 ! D1    D(5,1,2,3)              2.4076         estimate D2E/DX2                !
 ! D2    D(5,1,2,18)          -179.1132         estimate D2E/DX2                !
 ! D3    D(17,1,2,3)          -179.9154         estimate D2E/DX2                !
 ! D4    D(17,1,2,18)           -1.4362         estimate D2E/DX2                !
 ! D5    D(2,1,5,4)              0.2346         estimate D2E/DX2                !
 ! D6    D(2,1,5,21)          -178.8465         estimate D2E/DX2                !
 ! D7    D(17,1,5,4)          -177.5056         estimate D2E/DX2                !
 ! D8    D(17,1,5,21)            3.4133         estimate D2E/DX2                !
 ! D9    D(1,2,3,4)             -3.8143         estimate D2E/DX2                !
 ! D10   D(1,2,3,6)           -121.6906         estimate D2E/DX2                !
 ! D11   D(1,2,3,19)           114.2001         estimate D2E/DX2                !
 ! D12   D(18,2,3,4)           177.714          estimate D2E/DX2                !
 ! D13   D(18,2,3,6)            59.8377         estimate D2E/DX2                !
 ! D14   D(18,2,3,19)          -64.2716         estimate D2E/DX2                !
 ! D15   D(2,3,4,5)              3.9745         estimate D2E/DX2                !
 ! D16   D(2,3,4,20)           176.8025         estimate D2E/DX2                !
 ! D17   D(6,3,4,5)            117.0377         estimate D2E/DX2                !
 ! D18   D(6,3,4,20)           -70.1343         estimate D2E/DX2                !
 ! D19   D(19,3,4,5)          -112.1077         estimate D2E/DX2                !
 ! D20   D(19,3,4,20)           60.7203         estimate D2E/DX2                !
 ! D21   D(2,3,6,7)             74.744          estimate D2E/DX2                !
 ! D22   D(2,3,6,12)          -170.7994         estimate D2E/DX2                !
 ! D23   D(4,3,6,7)            -35.553          estimate D2E/DX2                !
 ! D24   D(4,3,6,12)            78.9036         estimate D2E/DX2                !
 ! D25   D(19,3,6,7)          -164.8207         estimate D2E/DX2                !
 ! D26   D(19,3,6,12)          -50.3641         estimate D2E/DX2                !
 ! D27   D(3,4,5,1)             -2.7996         estimate D2E/DX2                !
 ! D28   D(3,4,5,21)           176.2611         estimate D2E/DX2                !
 ! D29   D(20,4,5,1)          -175.8159         estimate D2E/DX2                !
 ! D30   D(20,4,5,21)            3.2447         estimate D2E/DX2                !
 ! D31   D(3,6,7,8)            -71.6561         estimate D2E/DX2                !
 ! D32   D(3,6,7,11)          -177.2889         estimate D2E/DX2                !
 ! D33   D(3,6,7,22)            57.598          estimate D2E/DX2                !
 ! D34   D(12,6,7,8)           171.7696         estimate D2E/DX2                !
 ! D35   D(12,6,7,11)           66.1368         estimate D2E/DX2                !
 ! D36   D(12,6,7,22)          -58.9763         estimate D2E/DX2                !
 ! D37   D(3,6,12,13)           60.8239         estimate D2E/DX2                !
 ! D38   D(3,6,12,16)          -49.3509         estimate D2E/DX2                !
 ! D39   D(3,6,12,27)         -176.9613         estimate D2E/DX2                !
 ! D40   D(7,6,12,13)         -179.8615         estimate D2E/DX2                !
 ! D41   D(7,6,12,16)           69.9637         estimate D2E/DX2                !
 ! D42   D(7,6,12,27)          -57.6467         estimate D2E/DX2                !
 ! D43   D(6,7,8,9)           -108.781          estimate D2E/DX2                !
 ! D44   D(6,7,8,23)            75.8025         estimate D2E/DX2                !
 ! D45   D(11,7,8,9)            -0.5616         estimate D2E/DX2                !
 ! D46   D(11,7,8,23)         -175.9781         estimate D2E/DX2                !
 ! D47   D(22,7,8,9)           118.8264         estimate D2E/DX2                !
 ! D48   D(22,7,8,23)          -56.5901         estimate D2E/DX2                !
 ! D49   D(6,7,11,10)          111.3265         estimate D2E/DX2                !
 ! D50   D(6,7,11,26)          -71.1719         estimate D2E/DX2                !
 ! D51   D(8,7,11,10)            0.3635         estimate D2E/DX2                !
 ! D52   D(8,7,11,26)          177.8651         estimate D2E/DX2                !
 ! D53   D(22,7,11,10)        -119.5683         estimate D2E/DX2                !
 ! D54   D(22,7,11,26)          57.9333         estimate D2E/DX2                !
 ! D55   D(7,8,9,10)             0.5632         estimate D2E/DX2                !
 ! D56   D(7,8,9,24)          -178.4194         estimate D2E/DX2                !
 ! D57   D(23,8,9,10)          176.081          estimate D2E/DX2                !
 ! D58   D(23,8,9,24)           -2.9016         estimate D2E/DX2                !
 ! D59   D(8,9,10,11)           -0.3121         estimate D2E/DX2                !
 ! D60   D(8,9,10,25)          179.9613         estimate D2E/DX2                !
 ! D61   D(24,9,10,11)         178.689          estimate D2E/DX2                !
 ! D62   D(24,9,10,25)          -1.0376         estimate D2E/DX2                !
 ! D63   D(9,10,11,7)           -0.0638         estimate D2E/DX2                !
 ! D64   D(9,10,11,26)        -177.6197         estimate D2E/DX2                !
 ! D65   D(25,10,11,7)         179.6538         estimate D2E/DX2                !
 ! D66   D(25,10,11,26)          2.0979         estimate D2E/DX2                !
 ! D67   D(6,12,13,14)        -119.0389         estimate D2E/DX2                !
 ! D68   D(6,12,13,28)          64.3414         estimate D2E/DX2                !
 ! D69   D(16,12,13,14)         -2.4668         estimate D2E/DX2                !
 ! D70   D(16,12,13,28)       -179.0865         estimate D2E/DX2                !
 ! D71   D(27,12,13,14)        115.4223         estimate D2E/DX2                !
 ! D72   D(27,12,13,28)        -61.1974         estimate D2E/DX2                !
 ! D73   D(6,12,16,15)         115.1333         estimate D2E/DX2                !
 ! D74   D(6,12,16,31)         -67.5575         estimate D2E/DX2                !
 ! D75   D(13,12,16,15)          2.3853         estimate D2E/DX2                !
 ! D76   D(13,12,16,31)        179.6944         estimate D2E/DX2                !
 ! D77   D(27,12,16,15)       -114.8831         estimate D2E/DX2                !
 ! D78   D(27,12,16,31)         62.426          estimate D2E/DX2                !
 ! D79   D(12,13,14,15)          1.7141         estimate D2E/DX2                !
 ! D80   D(12,13,14,29)       -178.3687         estimate D2E/DX2                !
 ! D81   D(28,13,14,15)        178.3388         estimate D2E/DX2                !
 ! D82   D(28,13,14,29)         -1.744          estimate D2E/DX2                !
 ! D83   D(13,14,15,16)         -0.1279         estimate D2E/DX2                !
 ! D84   D(13,14,15,30)        179.0184         estimate D2E/DX2                !
 ! D85   D(29,14,15,16)        179.9528         estimate D2E/DX2                !
 ! D86   D(29,14,15,30)         -0.901          estimate D2E/DX2                !
 ! D87   D(14,15,16,12)         -1.5162         estimate D2E/DX2                !
 ! D88   D(14,15,16,31)       -178.8409         estimate D2E/DX2                !
 ! D89   D(30,15,16,12)        179.3624         estimate D2E/DX2                !
 ! D90   D(30,15,16,31)          2.0377         estimate D2E/DX2                !
 --------------------------------------------------------------------------------
 Trust Radius=3.00D-01 FncErr=1.00D-07 GrdErr=1.00D-06
 Number of steps in this run= 186 maximum allowed number of steps= 186.
 GradGradGradGradGradGradGradGradGradGradGradGradGradGradGradGradGradGrad

 Leave Link  103 at Fri Oct  1 18:35:41 2021, MaxMem= 1342177280 cpu:       0.0
 (Enter /sw/target/amd/app/gaussian/Gaussian09RevA.02_gcc-4.9.2/g09/l202.exe)
                          Input orientation:                          
 ---------------------------------------------------------------------
 Center     Atomic      Atomic             Coordinates (Angstroms)
 Number     Number       Type             X           Y           Z
 ---------------------------------------------------------------------
      1          6           0       -1.822886   -2.314618   -2.092920
      2          6           0       -1.181103   -1.779027   -1.038366
      3          6           0        0.241071   -2.260724   -1.009910
      4          6           0        0.256859   -3.218635   -2.154725
      5          6           0       -0.926159   -3.205865   -2.786131
      6         15           0        0.456815   -3.070644    0.564798
      7          6           0       -0.335973   -4.677103    0.606159
      8          6           0       -1.817644   -4.445257    0.645036
      9          6           0       -2.325346   -4.755093    1.850788
     10          6           0       -1.255496   -5.196361    2.705264
     11          6           0       -0.102852   -5.161000    2.018099
     12          6           0        2.201347   -3.426538    0.768520
     13          6           0        2.900134   -2.102886    0.742561
     14          6           0        3.764207   -2.063637   -0.287100
     15          6           0        3.675684   -3.302876   -1.022225
     16          6           0        2.762299   -4.098622   -0.442235
     17          1           0       -2.852156   -2.149905   -2.370215
     18          1           0       -1.619584   -1.085519   -0.334934
     19          1           0        0.908418   -1.411871   -1.184173
     20          1           0        1.119584   -3.758262   -2.514056
     21          1           0       -1.179312   -3.755172   -3.680012
     22          1           0       -0.042864   -5.421633   -0.136721
     23          1           0       -2.423219   -4.145984   -0.194872
     24          1           0       -3.363119   -4.703536    2.139341
     25          1           0       -1.387097   -5.505775    3.730713
     26          1           0        0.846361   -5.480035    2.423389
     27          1           0        2.466137   -3.974142    1.678725
     28          1           0        2.773368   -1.318594    1.475429
     29          1           0        4.424092   -1.248555   -0.541303
     30          1           0        4.253769   -3.526466   -1.907460
     31          1           0        2.509008   -5.093288   -0.777537
 ---------------------------------------------------------------------
                    Distance matrix (angstroms):
                    1          2          3          4          5
     1  C    0.000000
     2  C    1.345670   0.000000
     3  C    2.331466   1.501806   0.000000
     4  C    2.268569   2.320876   1.492797   0.000000
     5  C    1.441867   2.270582   2.326086   1.341033   0.000000
     6  P    3.582189   2.630815   1.783878   2.730877   3.627620
     7  C    3.882947   3.437667   2.963704   3.178216   3.744395
     8  C    3.469302   3.216802   3.427730   3.694161   3.755495
     9  C    4.664892   4.302729   4.581698   5.007256   5.085159
    10  C    5.625739   5.069367   4.965903   5.460596   5.850295
    11  C    5.287806   4.684267   4.206985   4.616778   5.251763
    12  C    5.061487   4.173739   2.892164   3.517046   4.739782
    13  C    5.512867   4.464648   3.188524   4.077507   5.320597
    14  C    5.877039   5.010140   3.601915   4.138059   5.435934
    15  C    5.688349   5.090262   3.589262   3.602502   4.929274
    16  C    5.189542   4.613709   3.171232   3.159783   4.460447
    17  H    1.078620   2.168822   3.380941   3.294631   2.235509
    18  H    2.154653   1.080756   2.301897   3.373849   3.314372
    19  H    3.016753   2.126538   1.093742   2.151952   3.024956
    20  H    3.304480   3.374639   2.297142   1.079171   2.136406
    21  H    2.237910   3.299006   3.373471   2.162628   1.079281
    22  H    4.080286   3.921369   3.291568   3.002561   3.564998
    23  H    2.704975   2.803003   3.364065   3.447292   3.136819
    24  H    5.098165   4.838572   5.373574   5.809318   5.695794
    25  H    6.654930   6.056005   5.971163   6.524720   6.926131
    26  H    6.127136   5.458189   4.745301   5.140094   5.954223
    27  H    5.947692   5.050097   3.887863   4.488545   5.659758
    28  H    5.903451   4.708398   3.671110   4.808429   5.950562
    29  H    6.524473   5.652140   4.329174   4.883664   6.123357
    30  H    6.199089   5.774661   4.302261   4.016366   5.263697
    31  H    5.311925   4.966818   3.636063   3.237769   4.404224
                    6          7          8          9         10
     6  P    0.000000
     7  C    1.791908   0.000000
     8  C    2.658790   1.500204   0.000000
     9  C    3.497365   2.347933   1.344469   0.000000
    10  C    3.468758   2.349764   2.263781   1.438551   0.000000
    11  C    2.606704   1.510655   2.310433   2.265444   1.342398
    12  C    1.792081   2.833419   4.147930   4.840177   4.339702
    13  C    2.634001   4.137340   5.268172   5.963892   5.539950
    14  C    3.560707   4.943642   6.139874   6.992651   6.630658
    15  C    3.596344   4.542414   5.853328   6.809956   6.464982
    16  C    2.717740   3.321605   4.719977   5.618989   5.220580
    17  H    4.517893   4.645074   3.928180   4.988126   6.131126
    18  H    3.010261   3.928458   3.505340   4.329116   5.125855
    19  H    2.452421   3.926262   4.469771   5.553859   5.842312
    20  H    3.223573   3.563517   4.367966   5.649166   5.911889
    21  H    4.600424   4.464576   4.426028   5.736112   6.546340
    22  H    2.503789   1.091838   2.171244   3.099064   3.098081
    23  H    3.166710   2.297898   1.077837   2.136660   3.298129
    24  H    4.442682   3.393370   2.165214   1.078376   2.237235
    25  H    4.399192   3.399175   3.291120   2.231133   1.079167
    26  H    3.067780   2.311912   3.366040   3.303505   2.139563
    27  H    2.468708   3.081618   4.431844   4.857757   4.049464
    28  H    3.043903   4.658671   5.616312   6.160139   5.725497
    29  H    4.503638   5.977443   7.112353   7.973257   7.640883
    30  H    4.553756   5.357983   6.649923   7.675853   7.376841
    31  H    3.178750   3.190884   4.600388   5.513025   5.129524
                   11         12         13         14         15
    11  C    0.000000
    12  C    3.143110   0.000000
    13  C    4.471799   1.497008   0.000000
    14  C    5.464591   2.326879   1.344755   0.000000
    15  C    5.193605   2.322871   2.270666   1.443592   0.000000
    16  C    3.923134   1.494086   2.325016   2.273555   1.343083
    17  H    5.990215   6.084352   6.540675   6.937080   6.764549
    18  H    4.944369   4.614920   4.756457   5.472130   5.781773
    19  H    5.033208   3.089264   2.856000   3.063506   3.355576
    20  H    4.899230   3.472111   4.064010   3.850340   2.994426
    21  H    5.966874   5.596989   6.239477   6.229889   5.553322
    22  H    2.171355   3.136295   4.521997   5.078636   4.370451
    23  H    3.363273   4.778319   5.778505   6.529083   6.212244
    24  H    3.294437   5.871385   6.924068   7.978438   7.842328
    25  H    2.168225   5.096542   6.236108   7.384245   7.285254
    26  H    1.080300   2.965034   4.295148   5.247128   4.961587
    27  H    2.850178   1.094741   2.136903   3.033065   3.034589
    28  H    4.830240   2.295726   1.080869   2.154846   3.315091
    29  H    6.507764   3.376365   2.168095   1.079085   2.238668
    30  H    6.087846   3.373914   3.298715   2.237210   1.080656
    31  H    3.826484   2.294124   3.377304   3.315847   2.150949
                   16         17         18         19         20
    16  C    0.000000
    17  H    6.247936   0.000000
    18  H    5.318947   2.606630   0.000000
    19  H    3.347533   4.011647   2.686727   0.000000
    20  H    2.665858   4.287449   4.403993   2.705315   0.000000
    21  H    5.112480   2.662866   4.302374   4.009849   2.577670
    22  H    3.116510   4.856421   4.618140   4.252092   3.125669
    23  H    5.191631   2.983361   3.167316   4.421979   4.252105
    24  H    6.674669   5.207515   4.717203   6.334575   6.530105
    25  H    6.050707   7.115447   6.010174   6.795994   6.952293
    26  H    3.713613   6.909952   5.744650   5.437675   5.236173
    27  H    2.145152   6.928636   5.393708   4.145830   4.408993
    28  H    3.377294   6.864880   4.757076   3.249649   4.960138
    29  H    3.300644   7.556530   6.049396   3.577697   4.594579
    30  H    2.167656   7.252809   6.551896   4.023187   3.200751
    31  H    1.079789   6.319985   5.770908   4.034857   2.593895
                   21         22         23         24         25
    21  H    0.000000
    22  H    4.077194   0.000000
    23  H    3.721054   2.701250   0.000000
    24  H    6.287549   4.089037   2.577368   0.000000
    25  H    7.617521   4.095252   4.281681   2.660962   0.000000
    26  H    6.658078   2.710774   4.396036   4.289914   2.588067
    27  H    6.484852   3.418502   5.238864   5.892743   4.626442
    28  H    6.938239   5.231168   6.147240   7.039538   6.318881
    29  H    6.894401   6.126333   7.443170   8.931036   8.375199
    30  H    5.719494   5.018788   6.920906   8.705119   8.217422
    31  H    4.880432   2.651509   5.056060   6.568254   5.972779
                   26         27         28         29         30
    26  H    0.000000
    27  H    2.333648   0.000000
    28  H    4.682902   2.680980   0.000000
    29  H    6.284503   4.023796   2.607106   0.000000
    30  H    5.846633   4.031968   4.302351   2.661630   0.000000
    31  H    3.627656   2.699546   4.403868   4.301782   2.603047
                   31
    31  H    0.000000
 Stoichiometry    C15H15P
 Framework group  C1[X(C15H15P)]
 Deg. of freedom    87
 Full point group                 C1      NOp   1
 Largest Abelian subgroup         C1      NOp   1
 Largest concise Abelian subgroup C1      NOp   1
                         Standard orientation:                         
 ---------------------------------------------------------------------
 Center     Atomic      Atomic             Coordinates (Angstroms)
 Number     Number       Type             X           Y           Z
 ---------------------------------------------------------------------
      1          6           0        1.022635    3.061459   -0.303206
      2          6           0        0.593264    2.130589   -1.174957
      3          6           0       -0.518913    1.331161   -0.559004
      4          6           0       -0.570778    1.901098    0.819737
      5          6           0        0.295528    2.918401    0.933656
      6         15           0        0.024497   -0.367821   -0.578599
      7          6           0        1.265562   -0.688790    0.673468
      8          6           0        2.531934   -0.016025    0.232674
      9          6           0        3.451782   -0.918171   -0.151525
     10          6           0        2.892441   -2.236797   -0.018147
     11          6           0        1.639181   -2.135680    0.452117
     12          6           0       -1.364397   -1.397496   -0.107118
     13          6           0       -2.425403   -1.158667   -1.135836
     14          6           0       -3.524588   -0.653680   -0.548345
     15          6           0       -3.268396   -0.486172    0.862423
     16          6           0       -2.017334   -0.890115    1.137281
     17          1           0        1.809153    3.781146   -0.467098
     18          1           0        0.976024    1.998873   -2.177044
     19          1           0       -1.443662    1.523176   -1.110585
     20          1           0       -1.279651    1.631762    1.587570
     21          1           0        0.429242    3.549977    1.798573
     22          1           0        1.017723   -0.483697    1.716839
     23          1           0        2.724884    1.043126    0.284649
     24          1           0        4.453466   -0.704980   -0.489272
     25          1           0        3.420215   -3.146428   -0.260276
     26          1           0        1.012883   -2.986851    0.676411
     27          1           0       -1.150389   -2.468249   -0.028727
     28          1           0       -2.342630   -1.409390   -2.183961
     29          1           0       -4.455939   -0.405601   -1.033595
     30          1           0       -3.982697   -0.082259    1.565590
     31          1           0       -1.571181   -0.889982    2.120588
 ---------------------------------------------------------------------
 Rotational constants (GHZ):      0.6988459      0.4849219      0.3364027
 Leave Link  202 at Fri Oct  1 18:35:41 2021, MaxMem= 1342177280 cpu:       0.1
 (Enter /sw/target/amd/app/gaussian/Gaussian09RevA.02_gcc-4.9.2/g09/l301.exe)
 Standard basis: 6-31G(d) (6D, 7F)
 Ernie: Thresh=  0.10000D-02 Tol=  0.10000D-05 Strict=F.
 There are   274 symmetry adapted basis functions of A   symmetry.
 Integral buffers will be    131072 words long.
 Raffenetti 2 integral format.
 Two-electron integral symmetry is turned on.
   274 basis functions,   532 primitive gaussians,   274 cartesian basis functions
    60 alpha electrons       60 beta electrons
       nuclear repulsion energy      1182.5561423522 Hartrees.
 IExCor=  402 DFT=T Ex+Corr=B3LYP ExCW=0 ScaHFX=  0.200000
 ScaDFX=  0.800000  0.720000  1.000000  0.810000 ScalE2=  1.000000  1.000000
 IRadAn=      0 IRanWt=     -1 IRanGd=            0 ICorTp=0
 NAtoms=   31 NActive=   31 NUniq=   31 SFac= 7.50D-01 NAtFMM=   80 NAOKFM=F Big=F
 Leave Link  301 at Fri Oct  1 18:35:42 2021, MaxMem= 1342177280 cpu:       0.1
 (Enter /sw/target/amd/app/gaussian/Gaussian09RevA.02_gcc-4.9.2/g09/l302.exe)
 NPDir=0 NMtPBC=     1 NCelOv=     1 NCel=       1 NClECP=     1 NCelD=      1
         NCelK=      1 NCelE2=     1 NClLst=     1 CellRange=     0.0.
 One-electron integrals computed using PRISM.
 NBasis=   274 RedAO= T  NBF=   274
 NBsUse=   274 1.00D-06 NBFU=   274
 Precomputing XC quadrature grid using
 IXCGrd= 2 IRadAn=           0 IRanWt=          -1 IRanGd=           0 AccXCQ= 1.00D-10.
 NRdTot=    1945 NPtTot=      247508 NUsed=      261539 NTot=      261571
 NSgBfM=   273   273   273   273   273 NAtAll=    31    31.
 Leave Link  302 at Fri Oct  1 18:35:46 2021, MaxMem= 1342177280 cpu:       2.9
 (Enter /sw/target/amd/app/gaussian/Gaussian09RevA.02_gcc-4.9.2/g09/l303.exe)
 DipDrv:  MaxL=1.
 Leave Link  303 at Fri Oct  1 18:35:46 2021, MaxMem= 1342177280 cpu:       0.2
 (Enter /sw/target/amd/app/gaussian/Gaussian09RevA.02_gcc-4.9.2/g09/l401.exe)
 Harris functional with IExCor=  402 diagonalized for initial guess.
 ExpMin= 9.98D-02 ExpMax= 1.94D+04 ExpMxC= 2.91D+03 IAcc=2 IRadAn=         0 AccDes= 0.00D+00
 HarFok:  IExCor=  402 AccDes= 0.00D+00 IRadAn=         0 IDoV= 1
 ScaDFX=  1.000000  1.000000  1.000000  1.000000
 FoFCou: FMM=F IPFlag=           0 FMFlag=      100000 FMFlg1=           0
         NFxFlg=           0 DoJE=T BraDBF=F KetDBF=T FulRan=T
         Omega=  0.000000  0.000000  1.000000  0.000000  0.000000 ICntrl=     500 IOpCl=  0
         NMat0=    1 NMatS0=    1 NMatT0=    0 NMatD0=    1 NMtDS0=    0 NMtDT0=    0
         I1Cent=           4 NGrid=           0.
 Petite list used in FoFCou.
 Harris En= -921.953735817466    
 Initial guess orbital symmetries:
       Occupied  (A) (A) (A) (A) (A) (A) (A) (A) (A) (A) (A) (A)
                 (A) (A) (A) (A) (A) (A) (A) (A) (A) (A) (A) (A)
                 (A) (A) (A) (A) (A) (A) (A) (A) (A) (A) (A) (A)
                 (A) (A) (A) (A) (A) (A) (A) (A) (A) (A) (A) (A)
                 (A) (A) (A) (A) (A) (A) (A) (A) (A) (A) (A) (A)
       Virtual   (A) (A) (A) (A) (A) (A) (A) (A) (A) (A) (A) (A)
                 (A) (A) (A) (A) (A) (A) (A) (A) (A) (A) (A) (A)
                 (A) (A) (A) (A) (A) (A) (A) (A) (A) (A) (A) (A)
                 (A) (A) (A) (A) (A) (A) (A) (A) (A) (A) (A) (A)
                 (A) (A) (A) (A) (A) (A) (A) (A) (A) (A) (A) (A)
                 (A) (A) (A) (A) (A) (A) (A) (A) (A) (A) (A) (A)
                 (A) (A) (A) (A) (A) (A) (A) (A) (A) (A) (A) (A)
                 (A) (A) (A) (A) (A) (A) (A) (A) (A) (A) (A) (A)
                 (A) (A) (A) (A) (A) (A) (A) (A) (A) (A) (A) (A)
                 (A) (A) (A) (A) (A) (A) (A) (A) (A) (A) (A) (A)
                 (A) (A) (A) (A) (A) (A) (A) (A) (A) (A) (A) (A)
                 (A) (A) (A) (A) (A) (A) (A) (A) (A) (A) (A) (A)
                 (A) (A) (A) (A) (A) (A) (A) (A) (A) (A) (A) (A)
                 (A) (A) (A) (A) (A) (A) (A) (A) (A) (A) (A) (A)
                 (A) (A) (A) (A) (A) (A) (A) (A) (A) (A) (A) (A)
                 (A) (A) (A) (A) (A) (A) (A) (A) (A) (A) (A) (A)
                 (A) (A) (A) (A) (A) (A) (A) (A) (A) (A) (A) (A)
                 (A) (A) (A) (A) (A) (A) (A) (A) (A) (A)
 The electronic state of the initial guess is 1-A.
 Leave Link  401 at Fri Oct  1 18:36:26 2021, MaxMem= 1342177280 cpu:      26.7
 (Enter /sw/target/amd/app/gaussian/Gaussian09RevA.02_gcc-4.9.2/g09/l502.exe)
 Closed shell SCF:
 Requested convergence on RMS density matrix=1.00D-08 within  64 cycles.
 Requested convergence on MAX density matrix=1.00D-06.
 Requested convergence on             energy=1.00D-06.
 No special actions if energy rises.
 Using DIIS extrapolation, IDIIS=  1040.
 Integral symmetry usage will be decided dynamically.
       261247 words used for storage of precomputed grid.
 Keep R1 ints in memory in canonical form, NReq=720615696.
 IEnd=      495732 IEndB=      495732 NGot=  1342177280 MDV=   632039445
 LenX=   632039445 LenY=   631963928
 Symmetry not used in FoFDir.
 MinBra= 0 MaxBra= 2 Meth= 1.
 IRaf=       0 NMat=   1 IRICut=       1 DoRegI=T DoRafI=F ISym2E= 0 JSym2E=0.
 Integral accuracy reduced to 1.0D-05 until final iterations.

 Cycle   1  Pass 0  IDiag  1:
 E= -921.306750737624    
 DIIS: error= 2.85D-02 at cycle   1 NSaved=   1.
 NSaved= 1 IEnMin= 1 EnMin= -921.306750737624     IErMin= 1 ErrMin= 2.85D-02
 ErrMax= 2.85D-02 EMaxC= 1.00D-01 BMatC= 4.57D-01 BMatP= 4.57D-01
 IDIUse=3 WtCom= 7.15D-01 WtEn= 2.85D-01
 Coeff-Com:  0.100D+01
 Coeff-En:   0.100D+01
 Coeff:      0.100D+01
 Gap=     0.267 Goal=   None    Shift=    0.000
 GapD=    0.267 DampG=1.000 DampE=0.500 DampFc=0.5000 IDamp=-1.
 Damping current iteration by 5.00D-01
 RMSDP=6.69D-03 MaxDP=1.66D-01              OVMax= 2.17D-01

 Cycle   2  Pass 0  IDiag  1:
 E= -921.514225561403     Delta-E=       -0.207474823779 Rises=F Damp=T
 DIIS: error= 7.03D-03 at cycle   2 NSaved=   2.
 NSaved= 2 IEnMin= 2 EnMin= -921.514225561403     IErMin= 2 ErrMin= 7.03D-03
 ErrMax= 7.03D-03 EMaxC= 1.00D-01 BMatC= 3.05D-02 BMatP= 4.57D-01
 IDIUse=3 WtCom= 9.30D-01 WtEn= 7.03D-02
 Coeff-Com:  0.995D-01 0.901D+00
 Coeff-En:   0.182D+00 0.818D+00
 Coeff:      0.105D+00 0.895D+00
 Gap=     0.177 Goal=   None    Shift=    0.000
 RMSDP=2.15D-03 MaxDP=1.17D-01 DE=-2.07D-01 OVMax= 1.61D-01

 Cycle   3  Pass 0  IDiag  1:
 E= -921.788424958514     Delta-E=       -0.274199397111 Rises=F Damp=F
 DIIS: error= 8.95D-03 at cycle   3 NSaved=   3.
 NSaved= 3 IEnMin= 3 EnMin= -921.788424958514     IErMin= 2 ErrMin= 7.03D-03
 ErrMax= 8.95D-03 EMaxC= 1.00D-01 BMatC= 2.53D-02 BMatP= 3.05D-02
 IDIUse=3 WtCom= 9.10D-01 WtEn= 8.95D-02
 Coeff-Com:  0.129D-01 0.471D+00 0.516D+00
 Coeff-En:   0.000D+00 0.000D+00 0.100D+01
 Coeff:      0.117D-01 0.429D+00 0.560D+00
 Gap=     0.155 Goal=   None    Shift=    0.000
 RMSDP=1.14D-03 MaxDP=3.65D-02 DE=-2.74D-01 OVMax= 6.66D-02

 Cycle   4  Pass 0  IDiag  1:
 E= -921.804843020892     Delta-E=       -0.016418062378 Rises=F Damp=F
 DIIS: error= 5.92D-03 at cycle   4 NSaved=   4.
 NSaved= 4 IEnMin= 4 EnMin= -921.804843020892     IErMin= 4 ErrMin= 5.92D-03
 ErrMax= 5.92D-03 EMaxC= 1.00D-01 BMatC= 1.14D-02 BMatP= 2.53D-02
 IDIUse=3 WtCom= 9.41D-01 WtEn= 5.92D-02
 Coeff-Com: -0.907D-02 0.104D+00 0.400D+00 0.504D+00
 Coeff-En:   0.000D+00 0.000D+00 0.338D+00 0.662D+00
 Coeff:     -0.853D-02 0.983D-01 0.397D+00 0.514D+00
 Gap=     0.151 Goal=   None    Shift=    0.000
 RMSDP=4.68D-04 MaxDP=1.20D-02 DE=-1.64D-02 OVMax= 2.57D-02

 Cycle   5  Pass 0  IDiag  1:
 E= -921.816852627864     Delta-E=       -0.012009606972 Rises=F Damp=F
 DIIS: error= 4.04D-04 at cycle   5 NSaved=   5.
 NSaved= 5 IEnMin= 5 EnMin= -921.816852627864     IErMin= 5 ErrMin= 4.04D-04
 ErrMax= 4.04D-04 EMaxC= 1.00D-01 BMatC= 1.56D-04 BMatP= 1.14D-02
 IDIUse=3 WtCom= 9.96D-01 WtEn= 4.04D-03
 Coeff-Com: -0.339D-02 0.114D-01 0.124D+00 0.200D+00 0.669D+00
 Coeff-En:   0.000D+00 0.000D+00 0.000D+00 0.000D+00 0.100D+01
 Coeff:     -0.338D-02 0.113D-01 0.123D+00 0.199D+00 0.670D+00
 Gap=     0.149 Goal=   None    Shift=    0.000
 RMSDP=8.68D-05 MaxDP=5.76D-03 DE=-1.20D-02 OVMax= 4.22D-03

 Cycle   6  Pass 0  IDiag  1:
 E= -921.816986111830     Delta-E=       -0.000133483966 Rises=F Damp=F
 DIIS: error= 2.23D-04 at cycle   6 NSaved=   6.
 NSaved= 6 IEnMin= 6 EnMin= -921.816986111830     IErMin= 6 ErrMin= 2.23D-04
 ErrMax= 2.23D-04 EMaxC= 1.00D-01 BMatC= 3.14D-05 BMatP= 1.56D-04
 IDIUse=3 WtCom= 9.98D-01 WtEn= 2.23D-03
 Coeff-Com: -0.127D-02 0.197D-05 0.455D-01 0.805D-01 0.376D+00 0.500D+00
 Coeff-En:   0.000D+00 0.000D+00 0.000D+00 0.000D+00 0.107D+00 0.893D+00
 Coeff:     -0.127D-02 0.196D-05 0.454D-01 0.803D-01 0.375D+00 0.501D+00
 Gap=     0.150 Goal=   None    Shift=    0.000
 RMSDP=3.08D-05 MaxDP=9.65D-04 DE=-1.33D-04 OVMax= 2.56D-03

 Cycle   7  Pass 0  IDiag  1:
 E= -921.817017381015     Delta-E=       -0.000031269185 Rises=F Damp=F
 DIIS: error= 6.97D-05 at cycle   7 NSaved=   7.
 NSaved= 7 IEnMin= 7 EnMin= -921.817017381015     IErMin= 7 ErrMin= 6.97D-05
 ErrMax= 6.97D-05 EMaxC= 1.00D-01 BMatC= 3.35D-06 BMatP= 3.14D-05
 IDIUse=1 WtCom= 1.00D+00 WtEn= 0.00D+00
 Coeff-Com: -0.355D-03-0.110D-02 0.158D-01 0.285D-01 0.155D+00 0.290D+00
 Coeff-Com:  0.512D+00
 Coeff:     -0.355D-03-0.110D-02 0.158D-01 0.285D-01 0.155D+00 0.290D+00
 Coeff:      0.512D+00
 Gap=     0.150 Goal=   None    Shift=    0.000
 RMSDP=9.95D-06 MaxDP=3.91D-04 DE=-3.13D-05 OVMax= 1.02D-03

 Initial convergence to 1.0D-05 achieved.  Increase integral accuracy.
 Cycle   8  Pass 1  IDiag  1:
 E= -921.817051415580     Delta-E=       -0.000034034565 Rises=F Damp=F
 DIIS: error= 2.11D-05 at cycle   1 NSaved=   1.
 NSaved= 1 IEnMin= 1 EnMin= -921.817051415580     IErMin= 1 ErrMin= 2.11D-05
 ErrMax= 2.11D-05 EMaxC= 1.00D-01 BMatC= 6.44D-07 BMatP= 6.44D-07
 IDIUse=1 WtCom= 1.00D+00 WtEn= 0.00D+00
 Coeff-Com:  0.100D+01
 Coeff:      0.100D+01
 Gap=     0.150 Goal=   None    Shift=    0.000
 RMSDP=9.95D-06 MaxDP=3.91D-04 DE=-3.40D-05 OVMax= 5.66D-04

 Cycle   9  Pass 1  IDiag  1:
 E= -921.817050827730     Delta-E=        0.000000587850 Rises=F Damp=F
 DIIS: error= 3.75D-05 at cycle   2 NSaved=   2.
 NSaved= 2 IEnMin= 1 EnMin= -921.817051415580     IErMin= 1 ErrMin= 2.11D-05
 ErrMax= 3.75D-05 EMaxC= 1.00D-01 BMatC= 1.34D-06 BMatP= 6.44D-07
 IDIUse=1 WtCom= 1.00D+00 WtEn= 0.00D+00
 Coeff-Com:  0.601D+00 0.399D+00
 Coeff:      0.601D+00 0.399D+00
 Gap=     0.150 Goal=   None    Shift=    0.000
 RMSDP=5.94D-06 MaxDP=2.03D-04 DE= 5.88D-07 OVMax= 4.26D-04

 Cycle  10  Pass 1  IDiag  1:
 E= -921.817052188442     Delta-E=       -0.000001360711 Rises=F Damp=F
 DIIS: error= 1.05D-05 at cycle   3 NSaved=   3.
 NSaved= 3 IEnMin= 3 EnMin= -921.817052188442     IErMin= 3 ErrMin= 1.05D-05
 ErrMax= 1.05D-05 EMaxC= 1.00D-01 BMatC= 7.24D-08 BMatP= 6.44D-07
 IDIUse=1 WtCom= 1.00D+00 WtEn= 0.00D+00
 Coeff-Com:  0.119D+00 0.201D+00 0.680D+00
 Coeff:      0.119D+00 0.201D+00 0.680D+00
 Gap=     0.150 Goal=   None    Shift=    0.000
 RMSDP=1.49D-06 MaxDP=5.47D-05 DE=-1.36D-06 OVMax= 1.19D-04

 Cycle  11  Pass 1  IDiag  1:
 E= -921.817052250214     Delta-E=       -0.000000061772 Rises=F Damp=F
 DIIS: error= 3.78D-06 at cycle   4 NSaved=   4.
 NSaved= 4 IEnMin= 4 EnMin= -921.817052250214     IErMin= 4 ErrMin= 3.78D-06
 ErrMax= 3.78D-06 EMaxC= 1.00D-01 BMatC= 1.48D-08 BMatP= 7.24D-08
 IDIUse=1 WtCom= 1.00D+00 WtEn= 0.00D+00
 Coeff-Com: -0.178D-01 0.665D-01 0.401D+00 0.550D+00
 Coeff:     -0.178D-01 0.665D-01 0.401D+00 0.550D+00
 Gap=     0.150 Goal=   None    Shift=    0.000
 RMSDP=5.92D-07 MaxDP=3.88D-05 DE=-6.18D-08 OVMax= 2.86D-05

 Cycle  12  Pass 1  IDiag  1:
 E= -921.817052265563     Delta-E=       -0.000000015350 Rises=F Damp=F
 DIIS: error= 1.07D-06 at cycle   5 NSaved=   5.
 NSaved= 5 IEnMin= 5 EnMin= -921.817052265563     IErMin= 5 ErrMin= 1.07D-06
 ErrMax= 1.07D-06 EMaxC= 1.00D-01 BMatC= 5.48D-10 BMatP= 1.48D-08
 IDIUse=1 WtCom= 1.00D+00 WtEn= 0.00D+00
 Coeff-Com: -0.123D-01 0.326D-01 0.195D+00 0.295D+00 0.490D+00
 Coeff:     -0.123D-01 0.326D-01 0.195D+00 0.295D+00 0.490D+00
 Gap=     0.150 Goal=   None    Shift=    0.000
 RMSDP=1.34D-07 MaxDP=5.47D-06 DE=-1.53D-08 OVMax= 8.12D-06

 Cycle  13  Pass 1  IDiag  1:
 E= -921.817052266092     Delta-E=       -0.000000000528 Rises=F Damp=F
 DIIS: error= 3.36D-07 at cycle   6 NSaved=   6.
 NSaved= 6 IEnMin= 6 EnMin= -921.817052266092     IErMin= 6 ErrMin= 3.36D-07
 ErrMax= 3.36D-07 EMaxC= 1.00D-01 BMatC= 9.86D-11 BMatP= 5.48D-10
 IDIUse=1 WtCom= 1.00D+00 WtEn= 0.00D+00
 Coeff-Com: -0.442D-02 0.966D-02 0.476D-01 0.809D-01 0.298D+00 0.568D+00
 Coeff:     -0.442D-02 0.966D-02 0.476D-01 0.809D-01 0.298D+00 0.568D+00
 Gap=     0.150 Goal=   None    Shift=    0.000
 RMSDP=5.86D-08 MaxDP=1.86D-06 DE=-5.28D-10 OVMax= 4.36D-06

 Cycle  14  Pass 1  IDiag  1:
 E= -921.817052266174     Delta-E=       -0.000000000083 Rises=F Damp=F
 DIIS: error= 1.37D-07 at cycle   7 NSaved=   7.
 NSaved= 7 IEnMin= 7 EnMin= -921.817052266174     IErMin= 7 ErrMin= 1.37D-07
 ErrMax= 1.37D-07 EMaxC= 1.00D-01 BMatC= 1.02D-11 BMatP= 9.86D-11
 IDIUse=1 WtCom= 1.00D+00 WtEn= 0.00D+00
 Coeff-Com: -0.324D-03 0.276D-03-0.774D-02-0.724D-02 0.689D-01 0.288D+00
 Coeff-Com:  0.658D+00
 Coeff:     -0.324D-03 0.276D-03-0.774D-02-0.724D-02 0.689D-01 0.288D+00
 Coeff:      0.658D+00
 Gap=     0.150 Goal=   None    Shift=    0.000
 RMSDP=2.17D-08 MaxDP=7.57D-07 DE=-8.28D-11 OVMax= 2.01D-06

 Cycle  15  Pass 1  IDiag  1:
 E= -921.817052266196     Delta-E=       -0.000000000022 Rises=F Damp=F
 DIIS: error= 3.13D-08 at cycle   8 NSaved=   8.
 NSaved= 8 IEnMin= 8 EnMin= -921.817052266196     IErMin= 8 ErrMin= 3.13D-08
 ErrMax= 3.13D-08 EMaxC= 1.00D-01 BMatC= 8.96D-13 BMatP= 1.02D-11
 IDIUse=1 WtCom= 1.00D+00 WtEn= 0.00D+00
 Coeff-Com:  0.272D-03-0.599D-03-0.808D-02-0.113D-01 0.148D-02 0.707D-01
 Coeff-Com:  0.304D+00 0.643D+00
 Coeff:      0.272D-03-0.599D-03-0.808D-02-0.113D-01 0.148D-02 0.707D-01
 Coeff:      0.304D+00 0.643D+00
 Gap=     0.150 Goal=   None    Shift=    0.000
 RMSDP=6.07D-09 MaxDP=3.09D-07 DE=-2.18D-11 OVMax= 6.78D-07

 SCF Done:  E(RB3LYP) =  -921.817052266     A.U. after   15 cycles
             Convg  =    0.6068D-08             -V/T =  2.0065
 KE= 9.158562133155D+02 PE=-4.521220421480D+03 EE= 1.500991013546D+03
 Leave Link  502 at Fri Oct  1 18:58:04 2021, MaxMem= 1342177280 cpu:     449.9
 (Enter /sw/target/amd/app/gaussian/Gaussian09RevA.02_gcc-4.9.2/g09/l508.exe)
 QCSCF skips out because SCF is already converged.
 Leave Link  508 at Fri Oct  1 18:58:11 2021, MaxMem= 1342177280 cpu:       0.0
 (Enter /sw/target/amd/app/gaussian/Gaussian09RevA.02_gcc-4.9.2/g09/l601.exe)
 Copying SCF densities to generalized density rwf, IOpCl= 0 IROHF=0.

 **********************************************************************

            Population analysis using the SCF density.

 **********************************************************************

 Orbital symmetries:
       Occupied  (A) (A) (A) (A) (A) (A) (A) (A) (A) (A) (A) (A)
                 (A) (A) (A) (A) (A) (A) (A) (A) (A) (A) (A) (A)
                 (A) (A) (A) (A) (A) (A) (A) (A) (A) (A) (A) (A)
                 (A) (A) (A) (A) (A) (A) (A) (A) (A) (A) (A) (A)
                 (A) (A) (A) (A) (A) (A) (A) (A) (A) (A) (A) (A)
       Virtual   (A) (A) (A) (A) (A) (A) (A) (A) (A) (A) (A) (A)
                 (A) (A) (A) (A) (A) (A) (A) (A) (A) (A) (A) (A)
                 (A) (A) (A) (A) (A) (A) (A) (A) (A) (A) (A) (A)
                 (A) (A) (A) (A) (A) (A) (A) (A) (A) (A) (A) (A)
                 (A) (A) (A) (A) (A) (A) (A) (A) (A) (A) (A) (A)
                 (A) (A) (A) (A) (A) (A) (A) (A) (A) (A) (A) (A)
                 (A) (A) (A) (A) (A) (A) (A) (A) (A) (A) (A) (A)
                 (A) (A) (A) (A) (A) (A) (A) (A) (A) (A) (A) (A)
                 (A) (A) (A) (A) (A) (A) (A) (A) (A) (A) (A) (A)
                 (A) (A) (A) (A) (A) (A) (A) (A) (A) (A) (A) (A)
                 (A) (A) (A) (A) (A) (A) (A) (A) (A) (A) (A) (A)
                 (A) (A) (A) (A) (A) (A) (A) (A) (A) (A) (A) (A)
                 (A) (A) (A) (A) (A) (A) (A) (A) (A) (A) (A) (A)
                 (A) (A) (A) (A) (A) (A) (A) (A) (A) (A) (A) (A)
                 (A) (A) (A) (A) (A) (A) (A) (A) (A) (A) (A) (A)
                 (A) (A) (A) (A) (A) (A) (A) (A) (A) (A) (A) (A)
                 (A) (A) (A) (A) (A) (A) (A) (A) (A) (A) (A) (A)
                 (A) (A) (A) (A) (A) (A) (A) (A) (A) (A)
 The electronic state is 1-A.
 Alpha  occ. eigenvalues --  -77.06849 -10.19334 -10.19320 -10.19245 -10.18155
 Alpha  occ. eigenvalues --  -10.18108 -10.18025 -10.18010 -10.17911 -10.17906
 Alpha  occ. eigenvalues --  -10.17801 -10.17783 -10.17616 -10.17614 -10.17531
 Alpha  occ. eigenvalues --  -10.17442  -6.53958  -4.70250  -4.70202  -4.69586
 Alpha  occ. eigenvalues --   -0.87374  -0.86015  -0.85709  -0.75058  -0.70833
 Alpha  occ. eigenvalues --   -0.70615  -0.70204  -0.70038  -0.69749  -0.59075
 Alpha  occ. eigenvalues --   -0.55146  -0.54977  -0.53450  -0.52863  -0.52798
 Alpha  occ. eigenvalues --   -0.52758  -0.51424  -0.50855  -0.50048  -0.44794
 Alpha  occ. eigenvalues --   -0.43553  -0.39648  -0.39136  -0.39048  -0.38027
 Alpha  occ. eigenvalues --   -0.37802  -0.36844  -0.36742  -0.36494  -0.36230
 Alpha  occ. eigenvalues --   -0.36055  -0.34542  -0.33730  -0.31701  -0.28878
 Alpha  occ. eigenvalues --   -0.28611  -0.22971  -0.21841  -0.20888  -0.18215
 Alpha virt. eigenvalues --   -0.03235  -0.00928   0.00003   0.06412   0.07153
 Alpha virt. eigenvalues --    0.08520   0.09766   0.10906   0.11630   0.11779
 Alpha virt. eigenvalues --    0.13192   0.14117   0.14919   0.15692   0.16399
 Alpha virt. eigenvalues --    0.16660   0.17099   0.17203   0.17569   0.17687
 Alpha virt. eigenvalues --    0.18570   0.18839   0.19653   0.20812   0.21411
 Alpha virt. eigenvalues --    0.22500   0.23345   0.23867   0.26041   0.26896
 Alpha virt. eigenvalues --    0.32012   0.32903   0.33070   0.35547   0.36116
 Alpha virt. eigenvalues --    0.37592   0.40377   0.42034   0.43407   0.44585
 Alpha virt. eigenvalues --    0.46262   0.48672   0.50377   0.52571   0.54087
 Alpha virt. eigenvalues --    0.55026   0.55424   0.55967   0.57396   0.58287
 Alpha virt. eigenvalues --    0.58680   0.58955   0.59574   0.60507   0.60623
 Alpha virt. eigenvalues --    0.61719   0.62049   0.63045   0.63468   0.63650
 Alpha virt. eigenvalues --    0.64440   0.65146   0.65999   0.67002   0.67822
 Alpha virt. eigenvalues --    0.67951   0.68854   0.69390   0.70726   0.71332
 Alpha virt. eigenvalues --    0.72540   0.74302   0.77832   0.79540   0.80920
 Alpha virt. eigenvalues --    0.82047   0.82845   0.83949   0.84570   0.85303
 Alpha virt. eigenvalues --    0.85646   0.85958   0.86754   0.87050   0.87436
 Alpha virt. eigenvalues --    0.88251   0.89293   0.89878   0.90023   0.91239
 Alpha virt. eigenvalues --    0.92317   0.93268   0.94592   0.95637   0.96240
 Alpha virt. eigenvalues --    0.96454   0.97923   0.98738   1.00689   1.02462
 Alpha virt. eigenvalues --    1.03732   1.06576   1.07017   1.09950   1.13345
 Alpha virt. eigenvalues --    1.14605   1.15315   1.18896   1.19618   1.21377
 Alpha virt. eigenvalues --    1.21792   1.23275   1.24020   1.26408   1.31606
 Alpha virt. eigenvalues --    1.33052   1.35450   1.40887   1.41538   1.42762
 Alpha virt. eigenvalues --    1.43548   1.43950   1.44859   1.46360   1.47517
 Alpha virt. eigenvalues --    1.49434   1.54113   1.55023   1.55224   1.55749
 Alpha virt. eigenvalues --    1.57124   1.58842   1.62307   1.63085   1.68196
 Alpha virt. eigenvalues --    1.73148   1.73966   1.76398   1.86439   1.87094
 Alpha virt. eigenvalues --    1.87753   1.88417   1.89153   1.90229   1.97268
 Alpha virt. eigenvalues --    1.98135   1.98721   2.01714   2.02271   2.02943
 Alpha virt. eigenvalues --    2.07157   2.08421   2.09357   2.10131   2.11724
 Alpha virt. eigenvalues --    2.12139   2.13331   2.14723   2.16701   2.19847
 Alpha virt. eigenvalues --    2.21618   2.22990   2.27143   2.28284   2.28915
 Alpha virt. eigenvalues --    2.29821   2.30597   2.31023   2.31841   2.32092
 Alpha virt. eigenvalues --    2.33062   2.36437   2.38372   2.40513   2.52034
 Alpha virt. eigenvalues --    2.52785   2.53167   2.53776   2.59506   2.59621
 Alpha virt. eigenvalues --    2.60041   2.61066   2.61452   2.68537   2.70043
 Alpha virt. eigenvalues --    2.72521   2.73202   2.75097   2.76174   2.80551
 Alpha virt. eigenvalues --    2.81181   2.81426   2.95749   2.97365   2.97789
 Alpha virt. eigenvalues --    3.03439   3.03618   3.05203   3.62135   4.13683
 Alpha virt. eigenvalues --    4.14776   4.16147   4.20409   4.22286   4.22514
 Alpha virt. eigenvalues --    4.30297   4.32564   4.35425   4.47436   4.48537
 Alpha virt. eigenvalues --    4.50804   4.53159   4.57784   4.59123
          Condensed to atoms (all electrons):
              1          2          3          4          5          6
     1  C    4.866955   0.631106  -0.071713  -0.033325   0.441500  -0.000631
     2  C    0.631106   5.030917   0.396248  -0.119540  -0.034549  -0.051386
     3  C   -0.071713   0.396248   5.281512   0.379028  -0.073907   0.227743
     4  C   -0.033325  -0.119540   0.379028   5.029483   0.639943  -0.037160
     5  C    0.441500  -0.034549  -0.073907   0.639943   4.867256  -0.004774
     6  P   -0.000631  -0.051386   0.227743  -0.037160  -0.004774  14.146686
     7  C    0.000095  -0.001926  -0.014181  -0.004515  -0.000108   0.244697
     8  C   -0.004900  -0.000521  -0.004178  -0.000061   0.000262  -0.023562
     9  C    0.000140  -0.000230  -0.000024   0.000138   0.000076   0.000695
    10  C   -0.000003   0.000063   0.000026  -0.000047  -0.000012  -0.001520
    11  C   -0.000011  -0.000082   0.002556   0.000541   0.000073  -0.034171
    12  C   -0.000005   0.002260  -0.019661  -0.005787   0.000029   0.218065
    13  C   -0.000015   0.000259  -0.002181  -0.000602  -0.000029  -0.042725
    14  C   -0.000006   0.000082  -0.001887   0.000397  -0.000008  -0.002763
    15  C   -0.000010   0.000068   0.000682  -0.001933   0.000208  -0.006598
    16  C   -0.000041   0.000270  -0.004999  -0.002675   0.000708  -0.034077
    17  H    0.362461  -0.051276   0.008489   0.005457  -0.047910  -0.000142
    18  H   -0.041097   0.366282  -0.047268   0.005157   0.006130   0.004847
    19  H   -0.000435  -0.023592   0.345511  -0.023021  -0.000234  -0.023263
    20  H    0.006086   0.005167  -0.047385   0.361197  -0.040650  -0.000326
    21  H   -0.049354   0.005615   0.008648  -0.051530   0.361541  -0.000357
    22  H   -0.000117  -0.000621  -0.004049   0.006118   0.001660  -0.027644
    23  H    0.004505   0.003563  -0.000404  -0.000124   0.000929  -0.001286
    24  H   -0.000004  -0.000004   0.000003   0.000001   0.000001  -0.000333
    25  H    0.000000   0.000000   0.000002  -0.000000  -0.000000  -0.000401
    26  H   -0.000000  -0.000001   0.000000   0.000006   0.000000  -0.003367
    27  H   -0.000001  -0.000001   0.002085  -0.000044   0.000001  -0.031925
    28  H    0.000000  -0.000009  -0.000409   0.000013   0.000000   0.005791
    29  H   -0.000000   0.000000  -0.000039   0.000003  -0.000000  -0.000070
    30  H   -0.000000   0.000000  -0.000067   0.000032  -0.000002  -0.000416
    31  H    0.000000  -0.000005  -0.000167  -0.000290  -0.000030  -0.001554
              7          8          9         10         11         12
     1  C    0.000095  -0.004900   0.000140  -0.000003  -0.000011  -0.000005
     2  C   -0.001926  -0.000521  -0.000230   0.000063  -0.000082   0.002260
     3  C   -0.014181  -0.004178  -0.000024   0.000026   0.002556  -0.019661
     4  C   -0.004515  -0.000061   0.000138  -0.000047   0.000541  -0.005787
     5  C   -0.000108   0.000262   0.000076  -0.000012   0.000073   0.000029
     6  P    0.244697  -0.023562   0.000695  -0.001520  -0.034171   0.218065
     7  C    5.260864   0.394041  -0.068605  -0.064838   0.382327  -0.023098
     8  C    0.394041   5.002291   0.632837  -0.024457  -0.114694   0.002857
     9  C   -0.068605   0.632837   4.839771   0.442618  -0.027395  -0.000091
    10  C   -0.064838  -0.024457   0.442618   4.827178   0.632243   0.000427
    11  C    0.382327  -0.114694  -0.027395   0.632243   5.042801  -0.005663
    12  C   -0.023098   0.002857  -0.000091   0.000427  -0.005663   5.285009
    13  C    0.002586   0.000003  -0.000000  -0.000012   0.000369   0.395820
    14  C   -0.000017   0.000000   0.000000   0.000000  -0.000016  -0.072686
    15  C    0.000246  -0.000003  -0.000000   0.000001   0.000003  -0.068432
    16  C   -0.007575   0.000069  -0.000004  -0.000008  -0.000613   0.376734
    17  H    0.000001  -0.000120  -0.000003   0.000000  -0.000000   0.000001
    18  H   -0.000162   0.000133  -0.000005  -0.000000   0.000001  -0.000034
    19  H    0.001716   0.000072   0.000001  -0.000002  -0.000006  -0.002461
    20  H   -0.000263   0.000031   0.000000  -0.000000  -0.000008  -0.000683
    21  H   -0.000051  -0.000021  -0.000000  -0.000000   0.000000  -0.000001
    22  H    0.323411  -0.029860   0.001177   0.000700  -0.030151  -0.005607
    23  H   -0.046753   0.361874  -0.039226   0.006124   0.005208   0.000007
    24  H    0.008338  -0.052343   0.362737  -0.049200   0.006014   0.000002
    25  H    0.008133   0.005883  -0.048151   0.362276  -0.052623   0.000011
    26  H   -0.049636   0.005364   0.006196  -0.038870   0.361678   0.000351
    27  H   -0.001316   0.000046   0.000006   0.000171   0.002545   0.356402
    28  H   -0.000033   0.000001  -0.000000  -0.000000   0.000002  -0.047592
    29  H    0.000001  -0.000000   0.000000  -0.000000   0.000000   0.008514
    30  H   -0.000005  -0.000000  -0.000000  -0.000000  -0.000000   0.008545
    31  H    0.000738   0.000023  -0.000001  -0.000003   0.000095  -0.049464
             13         14         15         16         17         18
     1  C   -0.000015  -0.000006  -0.000010  -0.000041   0.362461  -0.041097
     2  C    0.000259   0.000082   0.000068   0.000270  -0.051276   0.366282
     3  C   -0.002181  -0.001887   0.000682  -0.004999   0.008489  -0.047268
     4  C   -0.000602   0.000397  -0.001933  -0.002675   0.005457   0.005157
     5  C   -0.000029  -0.000008   0.000208   0.000708  -0.047910   0.006130
     6  P   -0.042725  -0.002763  -0.006598  -0.034077  -0.000142   0.004847
     7  C    0.002586  -0.000017   0.000246  -0.007575   0.000001  -0.000162
     8  C    0.000003   0.000000  -0.000003   0.000069  -0.000120   0.000133
     9  C   -0.000000   0.000000  -0.000000  -0.000004  -0.000003  -0.000005
    10  C   -0.000012   0.000000   0.000001  -0.000008   0.000000  -0.000000
    11  C    0.000369  -0.000016   0.000003  -0.000613  -0.000000   0.000001
    12  C    0.395820  -0.072686  -0.068432   0.376734   0.000001  -0.000034
    13  C    5.035575   0.628731  -0.033935  -0.120571   0.000000  -0.000000
    14  C    0.628731   4.855056   0.449756  -0.031237  -0.000000   0.000003
    15  C   -0.033935   0.449756   4.850351   0.640205  -0.000000   0.000000
    16  C   -0.120571  -0.031237   0.640205   5.040544   0.000000   0.000003
    17  H    0.000000  -0.000000  -0.000000   0.000000   0.602376  -0.004176
    18  H   -0.000000   0.000003   0.000000   0.000003  -0.004176   0.563515
    19  H    0.008453   0.003429   0.000771  -0.001846  -0.000148   0.000167
    20  H   -0.000229  -0.000050   0.002813   0.008151  -0.000180  -0.000106
    21  H    0.000000   0.000000  -0.000000  -0.000004  -0.002205  -0.000162
    22  H   -0.000060   0.000002   0.000044   0.004022  -0.000002   0.000008
    23  H    0.000001  -0.000000   0.000000   0.000001   0.000316   0.000095
    24  H   -0.000000   0.000000  -0.000000  -0.000000  -0.000000   0.000001
    25  H    0.000000  -0.000000  -0.000000  -0.000000  -0.000000   0.000000
    26  H    0.000081  -0.000005  -0.000004   0.000158  -0.000000  -0.000000
    27  H   -0.021172   0.000117   0.001018  -0.033084  -0.000000   0.000001
    28  H    0.365608  -0.041802   0.006052   0.005360   0.000000  -0.000001
    29  H   -0.051728   0.362465  -0.047706   0.005608  -0.000000   0.000000
    30  H    0.005547  -0.048457   0.361573  -0.053222  -0.000000   0.000000
    31  H    0.005433   0.005873  -0.040611   0.365270   0.000000  -0.000000
             19         20         21         22         23         24
     1  C   -0.000435   0.006086  -0.049354  -0.000117   0.004505  -0.000004
     2  C   -0.023592   0.005167   0.005615  -0.000621   0.003563  -0.000004
     3  C    0.345511  -0.047385   0.008648  -0.004049  -0.000404   0.000003
     4  C   -0.023021   0.361197  -0.051530   0.006118  -0.000124   0.000001
     5  C   -0.000234  -0.040650   0.361541   0.001660   0.000929   0.000001
     6  P   -0.023263  -0.000326  -0.000357  -0.027644  -0.001286  -0.000333
     7  C    0.001716  -0.000263  -0.000051   0.323411  -0.046753   0.008338
     8  C    0.000072   0.000031  -0.000021  -0.029860   0.361874  -0.052343
     9  C    0.000001   0.000000  -0.000000   0.001177  -0.039226   0.362737
    10  C   -0.000002  -0.000000  -0.000000   0.000700   0.006124  -0.049200
    11  C   -0.000006  -0.000008   0.000000  -0.030151   0.005208   0.006014
    12  C   -0.002461  -0.000683  -0.000001  -0.005607   0.000007   0.000002
    13  C    0.008453  -0.000229   0.000000  -0.000060   0.000001  -0.000000
    14  C    0.003429  -0.000050   0.000000   0.000002  -0.000000   0.000000
    15  C    0.000771   0.002813  -0.000000   0.000044   0.000000  -0.000000
    16  C   -0.001846   0.008151  -0.000004   0.004022   0.000001  -0.000000
    17  H   -0.000148  -0.000180  -0.002205  -0.000002   0.000316  -0.000000
    18  H    0.000167  -0.000106  -0.000162   0.000008   0.000095   0.000001
    19  H    0.503501  -0.000106  -0.000160  -0.000021   0.000030  -0.000000
    20  H   -0.000106   0.573384  -0.004555   0.000250  -0.000003   0.000000
    21  H   -0.000160  -0.004555   0.608237   0.000096   0.000024   0.000000
    22  H   -0.000021   0.000250   0.000096   0.582077  -0.000266  -0.000165
    23  H    0.000030  -0.000003   0.000024  -0.000266   0.563566  -0.004395
    24  H   -0.000000   0.000000   0.000000  -0.000165  -0.004395   0.605147
    25  H   -0.000000   0.000000  -0.000000  -0.000156  -0.000188  -0.002208
    26  H    0.000001  -0.000000  -0.000000  -0.000341  -0.000115  -0.000187
    27  H    0.000078   0.000018  -0.000000  -0.000394  -0.000001   0.000000
    28  H    0.000117  -0.000004   0.000000   0.000002   0.000000  -0.000000
    29  H    0.000049   0.000004   0.000000   0.000000  -0.000000  -0.000000
    30  H    0.000011   0.000254   0.000000   0.000008   0.000000  -0.000000
    31  H    0.000003   0.000709  -0.000000   0.001616   0.000002  -0.000000
             25         26         27         28         29         30
     1  C    0.000000  -0.000000  -0.000001   0.000000  -0.000000  -0.000000
     2  C    0.000000  -0.000001  -0.000001  -0.000009   0.000000   0.000000
     3  C    0.000002   0.000000   0.002085  -0.000409  -0.000039  -0.000067
     4  C   -0.000000   0.000006  -0.000044   0.000013   0.000003   0.000032
     5  C   -0.000000   0.000000   0.000001   0.000000  -0.000000  -0.000002
     6  P   -0.000401  -0.003367  -0.031925   0.005791  -0.000070  -0.000416
     7  C    0.008133  -0.049636  -0.001316  -0.000033   0.000001  -0.000005
     8  C    0.005883   0.005364   0.000046   0.000001  -0.000000  -0.000000
     9  C   -0.048151   0.006196   0.000006  -0.000000   0.000000  -0.000000
    10  C    0.362276  -0.038870   0.000171  -0.000000  -0.000000  -0.000000
    11  C   -0.052623   0.361678   0.002545   0.000002   0.000000  -0.000000
    12  C    0.000011   0.000351   0.356402  -0.047592   0.008514   0.008545
    13  C    0.000000   0.000081  -0.021172   0.365608  -0.051728   0.005547
    14  C   -0.000000  -0.000005   0.000117  -0.041802   0.362465  -0.048457
    15  C   -0.000000  -0.000004   0.001018   0.006052  -0.047706   0.361573
    16  C   -0.000000   0.000158  -0.033084   0.005360   0.005608  -0.053222
    17  H   -0.000000  -0.000000  -0.000000   0.000000  -0.000000  -0.000000
    18  H    0.000000  -0.000000   0.000001  -0.000001   0.000000   0.000000
    19  H   -0.000000   0.000001   0.000078   0.000117   0.000049   0.000011
    20  H    0.000000  -0.000000   0.000018  -0.000004   0.000004   0.000254
    21  H   -0.000000  -0.000000  -0.000000   0.000000   0.000000   0.000000
    22  H   -0.000156  -0.000341  -0.000394   0.000002   0.000000   0.000008
    23  H   -0.000188  -0.000115  -0.000001   0.000000  -0.000000   0.000000
    24  H   -0.002208  -0.000187   0.000000  -0.000000  -0.000000  -0.000000
    25  H    0.603261  -0.004327   0.000002   0.000000  -0.000000  -0.000000
    26  H   -0.004327   0.590191   0.003296   0.000006  -0.000000  -0.000000
    27  H    0.000002   0.003296   0.527182  -0.000227  -0.000161  -0.000194
    28  H    0.000000   0.000006  -0.000227   0.567772  -0.004148  -0.000164
    29  H   -0.000000  -0.000000  -0.000161  -0.004148   0.600734  -0.002072
    30  H   -0.000000  -0.000000  -0.000194  -0.000164  -0.002072   0.608188
    31  H   -0.000000   0.000127   0.000041  -0.000100  -0.000176  -0.004184
             31
     1  C    0.000000
     2  C   -0.000005
     3  C   -0.000167
     4  C   -0.000290
     5  C   -0.000030
     6  P   -0.001554
     7  C    0.000738
     8  C    0.000023
     9  C   -0.000001
    10  C   -0.000003
    11  C    0.000095
    12  C   -0.049464
    13  C    0.005433
    14  C    0.005873
    15  C   -0.040611
    16  C    0.365270
    17  H    0.000000
    18  H   -0.000000
    19  H    0.000003
    20  H    0.000709
    21  H   -0.000000
    22  H    0.001616
    23  H    0.000002
    24  H   -0.000000
    25  H   -0.000000
    26  H    0.000127
    27  H    0.000041
    28  H   -0.000100
    29  H   -0.000176
    30  H   -0.004184
    31  H    0.582622
 Mulliken atomic charges:
              1
     1  C   -0.111179
     2  C   -0.158151
     3  C   -0.360013
     4  C   -0.146857
     5  C   -0.118107
     6  P    0.481925
     7  C   -0.344111
     8  C   -0.151068
     9  C   -0.102657
    10  C   -0.092856
    11  C   -0.171021
    12  C   -0.353768
    13  C   -0.175208
    14  C   -0.106978
    15  C   -0.114556
    16  C   -0.157146
    17  H    0.127059
    18  H    0.146667
    19  H    0.211383
    20  H    0.136485
    21  H    0.124238
    22  H    0.178263
    23  H    0.146518
    24  H    0.126595
    25  H    0.128487
    26  H    0.129398
    27  H    0.195512
    28  H    0.143765
    29  H    0.128723
    30  H    0.124625
    31  H    0.134035
 Sum of Mulliken atomic charges =  -0.00000
 Mulliken charges with hydrogens summed into heavy atoms:
              1
     1  C    0.015881
     2  C   -0.011484
     3  C   -0.148630
     4  C   -0.010372
     5  C    0.006131
     6  P    0.481925
     7  C   -0.165848
     8  C   -0.004551
     9  C    0.023938
    10  C    0.035631
    11  C   -0.041624
    12  C   -0.158257
    13  C   -0.031442
    14  C    0.021745
    15  C    0.010069
    16  C   -0.023112
 Sum of Mulliken charges with hydrogens summed into heavy atoms =  -0.00000
 Electronic spatial extent (au):  <R**2>=           3466.9770
 Charge=             -0.0000 electrons
 Dipole moment (field-independent basis, Debye):
    X=             -0.4657    Y=              0.2618    Z=              0.9812  Tot=              1.1172
 Quadrupole moment (field-independent basis, Debye-Ang):
   XX=            -94.9620   YY=            -97.0956   ZZ=            -99.8334
   XY=              0.4259   XZ=             -0.2190   YZ=             -0.0315
 Traceless Quadrupole moment (field-independent basis, Debye-Ang):
   XX=              2.3350   YY=              0.2014   ZZ=             -2.5364
   XY=              0.4259   XZ=             -0.2190   YZ=             -0.0315
 Octapole moment (field-independent basis, Debye-Ang**2):
  XXX=              1.8328  YYY=             -7.4822  ZZZ=              4.9675  XYY=             19.5418
  XXY=              6.4121  XXZ=            -11.3312  XZZ=            -11.3526  YZZ=              7.3968
  YYZ=              3.0542  XYZ=             -0.8748
 Hexadecapole moment (field-independent basis, Debye-Ang**3):
 XXXX=          -2415.0871 YYYY=          -1676.1703 ZZZZ=           -478.6851 XXXY=            -51.8267
 XXXZ=            -27.8734 YYYX=             14.4077 YYYZ=             22.8732 ZZZX=              0.0499
 ZZZY=              2.8465 XXYY=           -708.9771 XXZZ=           -512.1707 YYZZ=           -368.5939
 XXYZ=             16.4607 YYXZ=             -3.0055 ZZXY=             10.7924
 N-N= 1.182556142352D+03 E-N=-4.521220415476D+03  KE= 9.158562133155D+02
 No NMR shielding tensors so no spin-rotation constants.
 Leave Link  601 at Fri Oct  1 18:58:15 2021, MaxMem= 1342177280 cpu:       1.8
 (Enter /sw/target/amd/app/gaussian/Gaussian09RevA.02_gcc-4.9.2/g09/l701.exe)
 Compute integral first derivatives.
 ... and contract with generalized density number  0.
 Leave Link  701 at Fri Oct  1 18:58:19 2021, MaxMem= 1342177280 cpu:       1.7
 (Enter /sw/target/amd/app/gaussian/Gaussian09RevA.02_gcc-4.9.2/g09/l702.exe)
 L702 exits ... SP integral derivatives will be done elsewhere.
 Leave Link  702 at Fri Oct  1 18:58:20 2021, MaxMem= 1342177280 cpu:       0.1
 (Enter /sw/target/amd/app/gaussian/Gaussian09RevA.02_gcc-4.9.2/g09/l703.exe)
 Compute integral first derivatives, UseDBF=F ICtDFT=           0.
 Integral derivatives from FoFDir, PRISM(SPDF).
 Calling FoFJK, ICntrl=      2127 FMM=F ISym2X=0 I1Cent= 0 IOpClX= 0 NMat=1 NMatS=1 NMatT=0.
 FoFCou: FMM=F IPFlag=           0 FMFlag=      100000 FMFlg1=         800
         NFxFlg=           0 DoJE=F BraDBF=F KetDBF=F FulRan=T
         Omega=  0.000000  0.000000  1.000000  0.000000  0.000000 ICntrl=    2127 IOpCl=  0
         NMat0=    1 NMatS0=    1 NMatT0=    0 NMatD0=    1 NMtDS0=    0 NMtDT0=    0
         I1Cent=           0 NGrid=           0.
 Symmetry not used in FoFCou.
 Leave Link  703 at Fri Oct  1 19:02:26 2021, MaxMem= 1342177280 cpu:     176.8
 (Enter /sw/target/amd/app/gaussian/Gaussian09RevA.02_gcc-4.9.2/g09/l716.exe)
 Dipole        =-1.83224143D-01 1.02992101D-01 3.86022452D-01
 ***** Axes restored to original set *****
 -------------------------------------------------------------------
 Center     Atomic                   Forces (Hartrees/Bohr)
 Number     Number              X              Y              Z
 -------------------------------------------------------------------
      1        6          -0.006610373    0.003882783    0.002460443
      2        6          -0.009759281    0.013982708   -0.004910571
      3        6          -0.014035349   -0.007590192   -0.032345058
      4        6           0.012074135    0.002518014   -0.023168093
      5        6          -0.003242460   -0.006527604   -0.008461378
      6       15          -0.018577555    0.036582433    0.072776911
      7        6          -0.016605851   -0.022879673    0.006626639
      8        6          -0.015866722   -0.005294312   -0.012933667
      9        6          -0.004301541    0.001634242   -0.000973192
     10        6          -0.000575673   -0.001563341    0.006575407
     11        6           0.011787349   -0.010580131    0.003727305
     12        6           0.031455407   -0.000397146   -0.020252158
     13        6           0.012312031    0.007041158    0.009840665
     14        6           0.002724770    0.006148704   -0.000346848
     15        6           0.006369528   -0.002599959   -0.010862767
     16        6           0.013055786   -0.013374734    0.002564352
     17        1          -0.004688919    0.002390082   -0.000661198
     18        1           0.003097717    0.001012986    0.003830493
     19        1           0.007472091   -0.001962696    0.007637295
     20        1           0.003794338   -0.000111262    0.004353610
     21        1          -0.001217139   -0.004429580   -0.002491550
     22        1           0.001485957   -0.001417198   -0.005153770
     23        1           0.003244148    0.002750867   -0.003925272
     24        1          -0.004587743    0.001609329    0.000694396
     25        1           0.001710439   -0.001397672    0.004355564
     26        1           0.004518539    0.001320160   -0.002220993
     27        1          -0.010433200   -0.000510206    0.003596914
     28        1          -0.003976814   -0.000219320    0.002996555
     29        1           0.002017979    0.004201307   -0.000767554
     30        1           0.000795018   -0.001027733   -0.003942238
     31        1          -0.003436611   -0.003192016    0.001379761
 -------------------------------------------------------------------
 Cartesian Forces:  Max     0.072776911 RMS     0.012244482
 Leave Link  716 at Fri Oct  1 19:02:27 2021, MaxMem= 1342177280 cpu:       0.1
 (Enter /sw/target/amd/app/gaussian/Gaussian09RevA.02_gcc-4.9.2/g09/l103.exe)

 GradGradGradGradGradGradGradGradGradGradGradGradGradGradGradGradGradGrad
 Berny optimization.
 Internal  Forces:  Max     0.050491554 RMS     0.008036153
 Search for a local minimum.
 Step number   1 out of a maximum of  186
 All quantities printed in internal units (Hartrees-Bohrs-Radians)
 RMS Force = .80362D-02 SwitMx=.10000D-02 MixMth= 1
 Mixed Optimization -- RFO/linear search
 Second derivative matrix not updated -- first step.
     Eigenvalues ---    0.00979   0.01065   0.01080   0.01269   0.01271
     Eigenvalues ---    0.01372   0.01378   0.01440   0.01459   0.01572
     Eigenvalues ---    0.01652   0.01658   0.02044   0.02054   0.02056
     Eigenvalues ---    0.02103   0.02114   0.02130   0.02418   0.02430
     Eigenvalues ---    0.02441   0.04068   0.05335   0.05496   0.05526
     Eigenvalues ---    0.06585   0.06660   0.06691   0.07693   0.07738
     Eigenvalues ---    0.08595   0.12272   0.12981   0.13021   0.15092
     Eigenvalues ---    0.15833   0.15931   0.15961   0.15976   0.15980
     Eigenvalues ---    0.15980   0.15993   0.15997   0.15997   0.15998
[...]
     2    C    1  S      Val( 2S)     0.99171
     3    C    1  S      Ryd( 3S)     0.00061
     4    C    1  S      Ryd( 4S)     0.00004
     5    C    1  px     Val( 2p)     1.07062
     6    C    1  px     Ryd( 3p)     0.00244
     7    C    1  py     Val( 2p)     1.13650
     8    C    1  py     Ryd( 3p)     0.00355
     9    C    1  pz     Val( 2p)     1.04317
    10    C    1  pz     Ryd( 3p)     0.00476
    11    C    1  dxy    Ryd( 3d)     0.00075
    12    C    1  dxz    Ryd( 3d)     0.00060
    13    C    1  dyz    Ryd( 3d)     0.00064
    14    C    1  dx2y2  Ryd( 3d)     0.00063
    15    C    1  dz2    Ryd( 3d)     0.00063

    16    C    2  S      Cor( 1S)     1.99905
    17    C    2  S      Val( 2S)     0.98977
    18    C    2  S      Ryd( 3S)     0.00097
    19    C    2  S      Ryd( 4S)     0.00005
    20    C    2  px     Val( 2p)     0.94664
    21    C    2  px     Ryd( 3p)     0.00387
    22    C    2  py     Val( 2p)     0.96696
    23    C    2  py     Ryd( 3p)     0.00451
    24    C    2  pz     Val( 2p)     1.19463
    25    C    2  pz     Ryd( 3p)     0.00365
    26    C    2  dxy    Ryd( 3d)     0.00042
    27    C    2  dxz    Ryd( 3d)     0.00063
    28    C    2  dyz    Ryd( 3d)     0.00060
    29    C    2  dx2y2  Ryd( 3d)     0.00060
    30    C    2  dz2    Ryd( 3d)     0.00106

    31    C    3  S      Cor( 1S)     1.99917
    32    C    3  S      Val( 2S)     1.07457
    33    C    3  S      Ryd( 3S)     0.00281
    34    C    3  S      Ryd( 4S)     0.00004
    35    C    3  px     Val( 2p)     1.24253
    36    C    3  px     Ryd( 3p)     0.00202
    37    C    3  py     Val( 2p)     1.22006
    38    C    3  py     Ryd( 3p)     0.00490
    39    C    3  pz     Val( 2p)     1.08451
    40    C    3  pz     Ryd( 3p)     0.00407
    41    C    3  dxy    Ryd( 3d)     0.00062
    42    C    3  dxz    Ryd( 3d)     0.00081
    43    C    3  dyz    Ryd( 3d)     0.00096
    44    C    3  dx2y2  Ryd( 3d)     0.00108
    45    C    3  dz2    Ryd( 3d)     0.00077

    46    C    4  S      Cor( 1S)     1.99905
    47    C    4  S      Val( 2S)     0.99226
    48    C    4  S      Ryd( 3S)     0.00139
    49    C    4  S      Ryd( 4S)     0.00005
    50    C    4  px     Val( 2p)     0.97886
    51    C    4  px     Ryd( 3p)     0.00402
    52    C    4  py     Val( 2p)     1.00706
    53    C    4  py     Ryd( 3p)     0.00483
    54    C    4  pz     Val( 2p)     1.11582
    55    C    4  pz     Ryd( 3p)     0.00448
    56    C    4  dxy    Ryd( 3d)     0.00053
    57    C    4  dxz    Ryd( 3d)     0.00056
    58    C    4  dyz    Ryd( 3d)     0.00065
    59    C    4  dx2y2  Ryd( 3d)     0.00079
    60    C    4  dz2    Ryd( 3d)     0.00071

    61    C    5  S      Cor( 1S)     1.99903
    62    C    5  S      Val( 2S)     0.99741
    63    C    5  S      Ryd( 3S)     0.00057
    64    C    5  S      Ryd( 4S)     0.00004
    65    C    5  px     Val( 2p)     0.98101
    66    C    5  px     Ryd( 3p)     0.00242
    67    C    5  py     Val( 2p)     1.07076
    68    C    5  py     Ryd( 3p)     0.00345
    69    C    5  pz     Val( 2p)     1.13435
    70    C    5  pz     Ryd( 3p)     0.00407
    71    C    5  dxy    Ryd( 3d)     0.00045
    72    C    5  dxz    Ryd( 3d)     0.00057
    73    C    5  dyz    Ryd( 3d)     0.00089
    74    C    5  dx2y2  Ryd( 3d)     0.00073
    75    C    5  dz2    Ryd( 3d)     0.00076

    76    P    6  S      Cor( 1S)     2.00000
    77    P    6  S      Cor( 2S)     1.99883
    78    P    6  S      Val( 3S)     1.45363
    79    P    6  S      Ryd( 4S)     0.00251
    80    P    6  S      Ryd( 5S)     0.00002
    81    P    6  px     Cor( 2p)     1.99983
    82    P    6  px     Val( 3p)     0.69049
    83    P    6  px     Ryd( 4p)     0.00288
    84    P    6  py     Cor( 2p)     1.99981
    85    P    6  py     Val( 3p)     0.61154
    86    P    6  py     Ryd( 4p)     0.00373
    87    P    6  pz     Cor( 2p)     1.99973
    88    P    6  pz     Val( 3p)     1.18471
    89    P    6  pz     Ryd( 4p)     0.00476
    90    P    6  dxy    Ryd( 3d)     0.00560
    91    P    6  dxz    Ryd( 3d)     0.00576
    92    P    6  dyz    Ryd( 3d)     0.00277
    93    P    6  dx2y2  Ryd( 3d)     0.00597
    94    P    6  dz2    Ryd( 3d)     0.00362

    95    C    7  S      Cor( 1S)     1.99917
    96    C    7  S      Val( 2S)     1.05528
    97    C    7  S      Ryd( 3S)     0.00327
    98    C    7  S      Ryd( 4S)     0.00004
    99    C    7  px     Val( 2p)     1.16174
   100    C    7  px     Ryd( 3p)     0.00314
   101    C    7  py     Val( 2p)     1.10462
   102    C    7  py     Ryd( 3p)     0.00306
   103    C    7  pz     Val( 2p)     1.23811
   104    C    7  pz     Ryd( 3p)     0.00249
   105    C    7  dxy    Ryd( 3d)     0.00073
   106    C    7  dxz    Ryd( 3d)     0.00130
   107    C    7  dyz    Ryd( 3d)     0.00101
   108    C    7  dx2y2  Ryd( 3d)     0.00075
   109    C    7  dz2    Ryd( 3d)     0.00092

   110    C    8  S      Cor( 1S)     1.99906
   111    C    8  S      Val( 2S)     0.96076
   112    C    8  S      Ryd( 3S)     0.00112
   113    C    8  S      Ryd( 4S)     0.00005
   114    C    8  px     Val( 2p)     1.01769
   115    C    8  px     Ryd( 3p)     0.00522
   116    C    8  py     Val( 2p)     1.19212
   117    C    8  py     Ryd( 3p)     0.00337
   118    C    8  pz     Val( 2p)     1.09380
   119    C    8  pz     Ryd( 3p)     0.00496
   120    C    8  dxy    Ryd( 3d)     0.00064
   121    C    8  dxz    Ryd( 3d)     0.00045
   122    C    8  dyz    Ryd( 3d)     0.00041
   123    C    8  dx2y2  Ryd( 3d)     0.00099
   124    C    8  dz2    Ryd( 3d)     0.00050

   125    C    9  S      Cor( 1S)     1.99901
   126    C    9  S      Val( 2S)     0.97403
   127    C    9  S      Ryd( 3S)     0.00060
   128    C    9  S      Ryd( 4S)     0.00004
   129    C    9  px     Val( 2p)     1.18164
   130    C    9  px     Ryd( 3p)     0.00408
   131    C    9  py     Val( 2p)     1.04771
   132    C    9  py     Ryd( 3p)     0.00449
   133    C    9  pz     Val( 2p)     1.04274
   134    C    9  pz     Ryd( 3p)     0.00191
   135    C    9  dxy    Ryd( 3d)     0.00071
   136    C    9  dxz    Ryd( 3d)     0.00059
   137    C    9  dyz    Ryd( 3d)     0.00062
   138    C    9  dx2y2  Ryd( 3d)     0.00087
   139    C    9  dz2    Ryd( 3d)     0.00043

   140    C   10  S      Cor( 1S)     1.99902
   141    C   10  S      Val( 2S)     0.97566
   142    C   10  S      Ryd( 3S)     0.00059
   143    C   10  S      Ryd( 4S)     0.00004
   144    C   10  px     Val( 2p)     1.10040
   145    C   10  px     Ryd( 3p)     0.00431
   146    C   10  py     Val( 2p)     1.13624
   147    C   10  py     Ryd( 3p)     0.00427
   148    C   10  pz     Val( 2p)     1.02949
   149    C   10  pz     Ryd( 3p)     0.00179
   150    C   10  dxy    Ryd( 3d)     0.00089
   151    C   10  dxz    Ryd( 3d)     0.00067
   152    C   10  dyz    Ryd( 3d)     0.00047
   153    C   10  dx2y2  Ryd( 3d)     0.00073
   154    C   10  dz2    Ryd( 3d)     0.00049

   155    C   11  S      Cor( 1S)     1.99905
   156    C   11  S      Val( 2S)     0.96173
   157    C   11  S      Ryd( 3S)     0.00104
   158    C   11  S      Ryd( 4S)     0.00005
   159    C   11  px     Val( 2p)     1.12076
   160    C   11  px     Ryd( 3p)     0.00462
   161    C   11  py     Val( 2p)     1.08743
   162    C   11  py     Ryd( 3p)     0.00413
   163    C   11  pz     Val( 2p)     1.09782
   164    C   11  pz     Ryd( 3p)     0.00499
   165    C   11  dxy    Ryd( 3d)     0.00094
   166    C   11  dxz    Ryd( 3d)     0.00063
   167    C   11  dyz    Ryd( 3d)     0.00020
   168    C   11  dx2y2  Ryd( 3d)     0.00066
   169    C   11  dz2    Ryd( 3d)     0.00053

   170    C   12  S      Cor( 1S)     1.99916
   171    C   12  S      Val( 2S)     1.05714
   172    C   12  S      Ryd( 3S)     0.00295
   173    C   12  S      Ryd( 4S)     0.00004
   174    C   12  px     Val( 2p)     1.17136
   175    C   12  px     Ryd( 3p)     0.00385
   176    C   12  py     Val( 2p)     1.24431
   177    C   12  py     Ryd( 3p)     0.00237
   178    C   12  pz     Val( 2p)     1.09887
   179    C   12  pz     Ryd( 3p)     0.00323
   180    C   12  dxy    Ryd( 3d)     0.00103
   181    C   12  dxz    Ryd( 3d)     0.00095
   182    C   12  dyz    Ryd( 3d)     0.00085
   183    C   12  dx2y2  Ryd( 3d)     0.00084
   184    C   12  dz2    Ryd( 3d)     0.00089

   185    C   13  S      Cor( 1S)     1.99905
   186    C   13  S      Val( 2S)     0.96151
   187    C   13  S      Ryd( 3S)     0.00110
   188    C   13  S      Ryd( 4S)     0.00005
   189    C   13  px     Val( 2p)     1.02637
   190    C   13  px     Ryd( 3p)     0.00519
   191    C   13  py     Val( 2p)     1.10615
   192    C   13  py     Ryd( 3p)     0.00516
   193    C   13  pz     Val( 2p)     1.18501
   194    C   13  pz     Ryd( 3p)     0.00340
   195    C   13  dxy    Ryd( 3d)     0.00044
   196    C   13  dxz    Ryd( 3d)     0.00065
   197    C   13  dyz    Ryd( 3d)     0.00034
   198    C   13  dx2y2  Ryd( 3d)     0.00047
   199    C   13  dz2    Ryd( 3d)     0.00105

   200    C   14  S      Cor( 1S)     1.99901
   201    C   14  S      Val( 2S)     0.97207
   202    C   14  S      Ryd( 3S)     0.00061
   203    C   14  S      Ryd( 4S)     0.00004
   204    C   14  px     Val( 2p)     1.17807
   205    C   14  px     Ryd( 3p)     0.00407
   206    C   14  py     Val( 2p)     1.07028
   207    C   14  py     Ryd( 3p)     0.00212
   208    C   14  pz     Val( 2p)     1.05190
   209    C   14  pz     Ryd( 3p)     0.00463
   210    C   14  dxy    Ryd( 3d)     0.00061
   211    C   14  dxz    Ryd( 3d)     0.00077
   212    C   14  dyz    Ryd( 3d)     0.00057
   213    C   14  dx2y2  Ryd( 3d)     0.00065
   214    C   14  dz2    Ryd( 3d)     0.00062

   215    C   15  S      Cor( 1S)     1.99901
   216    C   15  S      Val( 2S)     0.97530
   217    C   15  S      Ryd( 3S)     0.00061
   218    C   15  S      Ryd( 4S)     0.00004
   219    C   15  px     Val( 2p)     1.11605
   220    C   15  px     Ryd( 3p)     0.00429
   221    C   15  py     Val( 2p)     1.03948
   222    C   15  py     Ryd( 3p)     0.00210
   223    C   15  pz     Val( 2p)     1.11637
   224    C   15  pz     Ryd( 3p)     0.00405
   225    C   15  dxy    Ryd( 3d)     0.00071
   226    C   15  dxz    Ryd( 3d)     0.00089
   227    C   15  dyz    Ryd( 3d)     0.00055
   228    C   15  dx2y2  Ryd( 3d)     0.00052
   229    C   15  dz2    Ryd( 3d)     0.00066

   230    C   16  S      Cor( 1S)     1.99903
   231    C   16  S      Val( 2S)     0.96039
   232    C   16  S      Ryd( 3S)     0.00142
   233    C   16  S      Ryd( 4S)     0.00005
   234    C   16  px     Val( 2p)     1.09998
   235    C   16  px     Ryd( 3p)     0.00543
   236    C   16  py     Val( 2p)     1.11615
   237    C   16  py     Ryd( 3p)     0.00544
   238    C   16  pz     Val( 2p)     1.11104
   239    C   16  pz     Ryd( 3p)     0.00394
   240    C   16  dxy    Ryd( 3d)     0.00056
   241    C   16  dxz    Ryd( 3d)     0.00089
   242    C   16  dyz    Ryd( 3d)     0.00020
   243    C   16  dx2y2  Ryd( 3d)     0.00052
   244    C   16  dz2    Ryd( 3d)     0.00072

   245    H   17  S      Val( 1S)     0.75002
   246    H   17  S      Ryd( 2S)     0.00056

   247    H   18  S      Val( 1S)     0.74461
   248    H   18  S      Ryd( 2S)     0.00069

   249    H   19  S      Val( 1S)     0.68453
   250    H   19  S      Ryd( 2S)     0.00352

   251    H   20  S      Val( 1S)     0.73819
   252    H   20  S      Ryd( 2S)     0.00132

   253    H   21  S      Val( 1S)     0.75004
   254    H   21  S      Ryd( 2S)     0.00058

   255    H   22  S      Val( 1S)     0.74520
   256    H   22  S      Ryd( 2S)     0.00533

   257    H   23  S      Val( 1S)     0.77085
   258    H   23  S      Ryd( 2S)     0.00087

   259    H   24  S      Val( 1S)     0.77014
   260    H   24  S      Ryd( 2S)     0.00069

   261    H   25  S      Val( 1S)     0.76776
   262    H   25  S      Ryd( 2S)     0.00067

   263    H   26  S      Val( 1S)     0.76655
   264    H   26  S      Ryd( 2S)     0.00093

   265    H   27  S      Val( 1S)     0.72488
   266    H   27  S      Ryd( 2S)     0.00385

   267    H   28  S      Val( 1S)     0.76719
   268    H   28  S      Ryd( 2S)     0.00081

   269    H   29  S      Val( 1S)     0.77036
   270    H   29  S      Ryd( 2S)     0.00067

   271    H   30  S      Val( 1S)     0.77030
   272    H   30  S      Ryd( 2S)     0.00071

   273    H   31  S      Val( 1S)     0.77326
   274    H   31  S      Ryd( 2S)     0.00108

 WARNING:  1 low occupancy (<1.9990e) core orbital  found on  P    6


 Summary of Natural Population Analysis:                  
                                                          
                                       Natural Population 
                Natural  -----------------------------------------------
    Atom  No    Charge         Core      Valence    Rydberg      Total
 -----------------------------------------------------------------------
      C    1   -0.25570      1.99904     4.24201    0.01465     6.25570
      C    2   -0.11341      1.99905     4.09799    0.01636     6.11341
      C    3   -0.63892      1.99917     4.62168    0.01807     6.63892
      C    4   -0.11106      1.99905     4.09399    0.01802     6.11106
      C    5   -0.19650      1.99903     4.18353    0.01393     6.19650
      P    6    1.02380      9.99820     3.94038    0.03762    13.97620
      C    7   -0.57564      1.99917     4.55976    0.01672     6.57564
      C    8   -0.28113      1.99906     4.26436    0.01770     6.28113
      C    9   -0.25947      1.99901     4.24613    0.01433     6.25947
      C   10   -0.25508      1.99902     4.24180    0.01426     6.25508
      C   11   -0.28458      1.99905     4.26774    0.01780     6.28458
      C   12   -0.58783      1.99916     4.57168    0.01699     6.58783
      C   13   -0.29593      1.99905     4.27904    0.01785     6.29593
      C   14   -0.28602      1.99901     4.27232    0.01469     6.28602
      C   15   -0.26062      1.99901     4.24720    0.01441     6.26062
      C   16   -0.30576      1.99903     4.28756    0.01916     6.30576
      H   17    0.24942      0.00000     0.75002    0.00056     0.75058
      H   18    0.25470      0.00000     0.74461    0.00069     0.74530
      H   19    0.31195      0.00000     0.68453    0.00352     0.68805
      H   20    0.26049      0.00000     0.73819    0.00132     0.73951
      H   21    0.24938      0.00000     0.75004    0.00058     0.75062
      H   22    0.24947      0.00000     0.74520    0.00533     0.75053
      H   23    0.22828      0.00000     0.77085    0.00087     0.77172
      H   24    0.22917      0.00000     0.77014    0.00069     0.77083
      H   25    0.23156      0.00000     0.76776    0.00067     0.76844
      H   26    0.23252      0.00000     0.76655    0.00093     0.76748
      H   27    0.27127      0.00000     0.72488    0.00385     0.72873
      H   28    0.23201      0.00000     0.76719    0.00081     0.76799
      H   29    0.22897      0.00000     0.77036    0.00067     0.77103
      H   30    0.22899      0.00000     0.77030    0.00071     0.77101
      H   31    0.22567      0.00000     0.77326    0.00108     0.77433
 =======================================================================
   * Total *   -0.00000     39.98411    79.71103    0.30486   120.00000

                                 Natural Population      
 --------------------------------------------------------
   Core                      39.98411 ( 99.9603% of  40)
   Valence                   79.71103 ( 99.6388% of  80)
   Natural Minimal Basis    119.69514 ( 99.7460% of 120)
   Natural Rydberg Basis      0.30486 (  0.2540% of 120)
 --------------------------------------------------------

    Atom  No          Natural Electron Configuration
 ----------------------------------------------------------------------------
      C    1      [core]2S( 0.99)2p( 3.25)3p( 0.01)
      C    2      [core]2S( 0.99)2p( 3.11)3p( 0.01)
      C    3      [core]2S( 1.07)2p( 3.55)3p( 0.01)
      C    4      [core]2S( 0.99)2p( 3.10)3p( 0.01)
      C    5      [core]2S( 1.00)2p( 3.19)3p( 0.01)
      P    6      [core]3S( 1.45)3p( 2.49)3d( 0.02)4p( 0.01)
      C    7      [core]2S( 1.06)2p( 3.50)3p( 0.01)
      C    8      [core]2S( 0.96)2p( 3.30)3p( 0.01)
      C    9      [core]2S( 0.97)2p( 3.27)3p( 0.01)
      C   10      [core]2S( 0.98)2p( 3.27)3p( 0.01)
      C   11      [core]2S( 0.96)2p( 3.31)3p( 0.01)
      C   12      [core]2S( 1.06)2p( 3.51)3p( 0.01)
      C   13      [core]2S( 0.96)2p( 3.32)3p( 0.01)
      C   14      [core]2S( 0.97)2p( 3.30)3p( 0.01)
      C   15      [core]2S( 0.98)2p( 3.27)3p( 0.01)
      C   16      [core]2S( 0.96)2p( 3.33)3p( 0.01)
      H   17            1S( 0.75)
      H   18            1S( 0.74)
      H   19            1S( 0.68)
      H   20            1S( 0.74)
      H   21            1S( 0.75)
      H   22            1S( 0.75)2S( 0.01)
      H   23            1S( 0.77)
      H   24            1S( 0.77)
      H   25            1S( 0.77)
      H   26            1S( 0.77)
      H   27            1S( 0.72)
      H   28            1S( 0.77)
      H   29            1S( 0.77)
      H   30            1S( 0.77)
      H   31            1S( 0.77)


 NBO analysis skipped by request.
 Leave Link  607 at Sat Oct  2 10:30:51 2021, MaxMem= 1342177280 cpu:      21.9
 (Enter /sw/target/amd/app/gaussian/Gaussian09RevA.02_gcc-4.9.2/g09/l9999.exe)
 1\1\GINC-HERMITE\SP\RTD-B3LYP-FC\6-31G(d)\C15H15P1\JSCHLEINITZ\02-Oct-
 2021\0\\#p TD(NStates=10, Root=1) b3lyp/6-31G* volume pop=NPA density=
 current Geom=AllCheck Guess=Read\\C1=CC(C=C1)P(C1C=CC=C1)C1C=CC=C1_con
 f_0\\0,1\C,0,-1.8590002352,-2.0884779751,-2.2469589242\C,0,-1.17398059
 48,-1.5659238294,-1.2059573508\C,0,0.1279399985,-2.3073962047,-1.04392
 96555\C,0,0.0816473406,-3.3185908185,-2.1546242799\C,0,-1.0764744742,-
 3.1788028822,-2.8379947457\P,0,0.3595101674,-2.8886985411,0.7612567754
 \C,0,-0.3462540582,-4.6566590776,0.7348541952\C,0,-1.8455256053,-4.550
 4165066,0.6976757637\C,0,-2.3506615713,-4.9988205917,1.8698182563\C,0,
 -1.2560115112,-5.4643784568,2.7198743133\C,0,-0.0819234378,-5.29723839
 28,2.0683967406\C,0,2.2415265518,-3.2511010432,0.7842084922\C,0,3.0090
 218583,-1.9619926926,0.6785991378\C,0,3.8704880858,-2.0415508185,-0.36
 09030903\C,0,3.7590720944,-3.3659098767,-0.9781656727\C,0,2.8256811005
 ,-4.0875604927,-0.3162409553\H,0,-2.8288063575,-1.7606166616,-2.607007
 7933\H,0,-1.4815922191,-0.7498810481,-0.5626189517\H,0,0.9850059242,-1
 .6271418981,-1.1749066551\H,0,0.884151147,-4.0138489297,-2.3640565122\
 H,0,-1.3873371703,-3.7632123704,-3.6981638834\H,0,0.0695505333,-5.2060
 908192,-0.117243997\H,0,-2.3929576935,-4.1398170696,-0.1407874549\H,0,
 -3.3989702671,-5.0220737863,2.1488162877\H,0,-1.3825979893,-5.88364386
 89,3.712800865\H,0,0.9040189828,-5.5591214884,2.4343647002\H,0,2.38144
 19621,-3.7162234986,1.7713902077\H,0,2.8589098976,-1.1185354227,1.3426
 399589\H,0,4.5522259308,-1.2643393918,-0.6906000902\H,0,4.3452868288,-
 3.6995776776,-1.8283416872\H,0,2.5309595245,-5.1099823856,-0.522267584
 8\\Version=AM64L-G09RevA.02\State=1-A\HF=-921.8545617\RMSD=8.663e-09\D
 ipole=-0.912682,0.5742134,-1.4637096\Quadrupole=-3.6079562,-0.5434786,
 4.1514348,-4.0121763,3.7750636,0.0248464\PG=C01 [X(C15H15P1)]\\@


 ACTORS ARE SO FORTUNATE.  THEY CAN CHOOSE WHETHER
 THEY WILL APPEAR IN A TRAGEDY OR IN COMEDY,
 WHETHER THEY WILL SUFFER OF MAKE MERRY,
 LAUGH OR SHED TEARS.  BUT IN REAL LIFE IT IS DIFFERENT.
 MOST MEN AND WOMEN ARE FORCED TO PERFORM
 PARTS FOR WHICH THEY HAVE NO QUALIFICATIONS.
 THE WORLD IS A STAGE, BUT THE PLAY IS BADLY CAST.

                                   -- OSCAR WILDE
 Job cpu time:  0 days  4 hours 35 minutes 36.2 seconds.
 File lengths (MBytes):  RWF=    235 Int=      0 D2E=      0 Chk=     34 Scr=      1
 Normal termination of Gaussian 09 at Sat Oct  2 10:31:04 2021.
