 Entering Gaussian System, Link 0=g09
 Input=C15H16O2_fe6a_conf_0.com
 Output=C15H16O2_fe6a_conf_0.log
 Initial command:
 /sw/target/amd/app/gaussian/Gaussian09RevA.02_gcc-4.9.2/g09/l1.exe /home/jschleinitz/gaussian/Gau-3896603.inp -scrdir=/home/jschleinitz/gaussian/
 Entering Link 1 = /sw/target/amd/app/gaussian/Gaussian09RevA.02_gcc-4.9.2/g09/l1.exe PID=   3896617.
  
 Copyright (c) 1988,1990,1992,1993,1995,1998,2003,2009, Gaussian, Inc.
                  All Rights Reserved.
  
 This is part of the Gaussian(R) 09 program.  It is based on
 the Gaussian(R) 03 system (copyright 2003, Gaussian, Inc.),
 the Gaussian(R) 98 system (copyright 1998, Gaussian, Inc.),
 the Gaussian(R) 94 system (copyright 1995, Gaussian, Inc.),
 the Gaussian 92(TM) system (copyright 1992, Gaussian, Inc.),
 the Gaussian 90(TM) system (copyright 1990, Gaussian, Inc.),
 the Gaussian 88(TM) system (copyright 1988, Gaussian, Inc.),
 the Gaussian 86(TM) system (copyright 1986, Carnegie Mellon
 University), and the Gaussian 82(TM) system (copyright 1983,
 Carnegie Mellon University). Gaussian is a federally registered
 trademark of Gaussian, Inc.
  
 This software contains proprietary and confidential information,
 including trade secrets, belonging to Gaussian, Inc.
  
 This software is provided under written license and may be
 used, copied, transmitted, or stored only in accord with that
 written license.
  
 The following legend is applicable only to US Government
 contracts under FAR:
  
                    RESTRICTED RIGHTS LEGEND
  
 Use, reproduction and disclosure by the US Government is
 subject to restrictions as set forth in subparagraphs (a)
 and (c) of the Commercial Computer Software - Restricted
 Rights clause in FAR 52.227-19.
  
 Gaussian, Inc.
 340 Quinnipiac St., Bldg. 40, Wallingford CT 06492
  
  
 ---------------------------------------------------------------
 Warning -- This program may not be used in any manner that
 competes with the business of Gaussian, Inc. or will provide
 assistance to any competitor of Gaussian, Inc.  The licensee
 of this program is prohibited from giving any competitor of
 Gaussian, Inc. access to this program.  By using this program,
 the user acknowledges that Gaussian, Inc. is engaged in the
 business of creating and licensing software in the field of
 computational chemistry and represents and warrants to the
 licensee that it is not a competitor of Gaussian, Inc. and that
 it will not use this program in any manner prohibited above.
 ---------------------------------------------------------------
  

 Cite this work as:
 Gaussian 09, Revision A.02,
 M. J. Frisch, G. W. Trucks, H. B. Schlegel, G. E. Scuseria, 
 M. A. Robb, J. R. Cheeseman, G. Scalmani, V. Barone, B. Mennucci, 
 G. A. Petersson, H. Nakatsuji, M. Caricato, X. Li, H. P. Hratchian, 
 A. F. Izmaylov, J. Bloino, G. Zheng, J. L. Sonnenberg, M. Hada, 
 M. Ehara, K. Toyota, R. Fukuda, J. Hasegawa, M. Ishida, T. Nakajima, 
 Y. Honda, O. Kitao, H. Nakai, T. Vreven, J. A. Montgomery, Jr., 
 J. E. Peralta, F. Ogliaro, M. Bearpark, J. J. Heyd, E. Brothers, 
 K. N. Kudin, V. N. Staroverov, R. Kobayashi, J. Normand, 
 K. Raghavachari, A. Rendell, J. C. Burant, S. S. Iyengar, J. Tomasi, 
 M. Cossi, N. Rega, J. M. Millam, M. Klene, J. E. Knox, J. B. Cross, 
 V. Bakken, C. Adamo, J. Jaramillo, R. Gomperts, R. E. Stratmann, 
 O. Yazyev, A. J. Austin, R. Cammi, C. Pomelli, J. W. Ochterski, 
 R. L. Martin, K. Morokuma, V. G. Zakrzewski, G. A. Voth, 
 P. Salvador, J. J. Dannenberg, S. Dapprich, A. D. Daniels, 
 O. Farkas, J. B. Foresman, J. V. Ortiz, J. Cioslowski, 
 and D. J. Fox, Gaussian, Inc., Wallingford CT, 2009.
 
 ******************************************
 Gaussian 09:  AM64L-G09RevA.02 11-Jun-2009
                30-Sep-2021 
 ******************************************
 %nproc=5
 Will use up to    5 processors via shared memory.
 %mem=10gb
 %chk=C15H16O2_fe6a_conf_0.chk
 -----------------------------------
 #p opt b3lyp/6-31G* scf=(xqc,tight)
 -----------------------------------
 1/14=-1,18=20,19=15,26=3,38=1/1,3;
 2/9=110,12=2,17=6,18=5,40=1/2;
 3/5=1,6=6,7=1,11=2,16=1,25=1,30=1,71=1,74=-5/1,2,3;
 4//1;
 5/5=2,8=3,13=1,32=2,38=5/2,8;
 6/7=2,8=2,9=2,10=2,28=1/1;
 7//1,2,3,16;
 1/14=-1,18=20,19=15/3(2);
 2/9=110/2;
 99//99;
 2/9=110/2;
 3/5=1,6=6,7=1,11=2,16=1,25=1,30=1,71=1,74=-5/1,2,3;
 4/5=5,16=3/1;
 5/5=2,8=3,13=1,32=2,38=5/2,8;
 7//1,2,3,16;
 1/14=-1,18=20,19=15/3(-5);
 2/9=110/2;
 6/7=2,8=2,9=2,10=2,19=2,28=1/1;
 99/9=1/99;
 Leave Link    1 at Thu Sep 30 17:25:20 2021, MaxMem= 1342177280 cpu:       0.1
 (Enter /sw/target/amd/app/gaussian/Gaussian09RevA.02_gcc-4.9.2/g09/l101.exe)
 ------------------------------
 COCOc1ccc(cc1)Cc1ccccc1_conf_0
 ------------------------------
 Symbolic Z-matrix:
 Charge =  0 Multiplicity = 1
 C                     3.4872   -0.67905  -1.06906 
 O                     2.6673   -0.11546  -0.05424 
 C                     3.1674   -0.41416   1.25195 
 O                     4.44736   0.17338   1.45829 
 C                     5.06278  -0.0746    2.65252 
 C                     4.52938  -0.79368   3.72041 
 C                     5.27284  -0.96387   4.89404 
 C                     6.55606  -0.41477   5.01865 
 C                     7.08853   0.29924   3.93832 
 C                     6.34433   0.4683    2.76929 
 C                     7.35133  -0.59787   6.28996 
 C                     8.18264  -1.85874   6.31973 
 C                     9.5017   -1.85701   5.8442 
 C                     10.26769  -3.02432   5.87183 
 C                     9.7217   -4.20612   6.3687 
 C                     8.40995  -4.22278   6.8377 
 C                     7.64322  -3.05663   6.81211 
 H                     3.05185  -0.42826  -2.04 
 H                     3.52361  -1.76863  -0.97401 
 H                     4.49853  -0.26329  -1.03024 
 H                     3.20172  -1.50418   1.37475 
 H                     2.44933   0.00995   1.96244 
 H                     3.53832  -1.23355   3.68159 
 H                     4.83815  -1.52784   5.71598 
 H                     8.0843    0.7318    3.99949 
 H                     6.76769   1.02976   1.93894 
 H                     6.66851  -0.58866   7.15033 
 H                     8.00046   0.27428   6.44683 
 H                     9.94228  -0.94416   5.45015 
 H                     11.2902  -3.01146   5.50455 
 H                     10.31822  -5.11468   6.38887 
 H                     7.98249  -5.1447    7.22252 
 H                     6.62105  -3.08717   7.18085 
 
 NAtoms=     33 NQM=     33 NQMF=      0 NMic=      0 NMicF=      0 NTot=     33.
                    Isotopes and Nuclear Properties:
 (Nuclear quadrupole moments (NQMom) in fm**2, nuclear magnetic moments (NMagM)
  in nuclear magnetons)

  Atom         1           2           3           4           5           6           7           8           9          10
 IAtWgt=          12          16          12          16          12          12          12          12          12          12
 AtmWgt=  12.0000000  15.9949146  12.0000000  15.9949146  12.0000000  12.0000000  12.0000000  12.0000000  12.0000000  12.0000000
 NucSpn=           0           0           0           0           0           0           0           0           0           0
 AtZEff=   0.0000000   0.0000000   0.0000000   0.0000000   0.0000000   0.0000000   0.0000000   0.0000000   0.0000000   0.0000000
 NQMom=    0.0000000   0.0000000   0.0000000   0.0000000   0.0000000   0.0000000   0.0000000   0.0000000   0.0000000   0.0000000
 NMagM=    0.0000000   0.0000000   0.0000000   0.0000000   0.0000000   0.0000000   0.0000000   0.0000000   0.0000000   0.0000000

  Atom        11          12          13          14          15          16          17          18          19          20
 IAtWgt=          12          12          12          12          12          12          12           1           1           1
 AtmWgt=  12.0000000  12.0000000  12.0000000  12.0000000  12.0000000  12.0000000  12.0000000   1.0078250   1.0078250   1.0078250
 NucSpn=           0           0           0           0           0           0           0           1           1           1
 AtZEff=   0.0000000   0.0000000   0.0000000   0.0000000   0.0000000   0.0000000   0.0000000   0.0000000   0.0000000   0.0000000
 NQMom=    0.0000000   0.0000000   0.0000000   0.0000000   0.0000000   0.0000000   0.0000000   0.0000000   0.0000000   0.0000000
 NMagM=    0.0000000   0.0000000   0.0000000   0.0000000   0.0000000   0.0000000   0.0000000   2.7928460   2.7928460   2.7928460

  Atom        21          22          23          24          25          26          27          28          29          30
 IAtWgt=           1           1           1           1           1           1           1           1           1           1
 AtmWgt=   1.0078250   1.0078250   1.0078250   1.0078250   1.0078250   1.0078250   1.0078250   1.0078250   1.0078250   1.0078250
 NucSpn=           1           1           1           1           1           1           1           1           1           1
 AtZEff=   0.0000000   0.0000000   0.0000000   0.0000000   0.0000000   0.0000000   0.0000000   0.0000000   0.0000000   0.0000000
 NQMom=    0.0000000   0.0000000   0.0000000   0.0000000   0.0000000   0.0000000   0.0000000   0.0000000   0.0000000   0.0000000
 NMagM=    2.7928460   2.7928460   2.7928460   2.7928460   2.7928460   2.7928460   2.7928460   2.7928460   2.7928460   2.7928460

  Atom        31          32          33
 IAtWgt=           1           1           1
 AtmWgt=   1.0078250   1.0078250   1.0078250
 NucSpn=           1           1           1
 AtZEff=   0.0000000   0.0000000   0.0000000
 NQMom=    0.0000000   0.0000000   0.0000000
 NMagM=    2.7928460   2.7928460   2.7928460
 Leave Link  101 at Thu Sep 30 17:25:20 2021, MaxMem= 1342177280 cpu:       0.2
 (Enter /sw/target/amd/app/gaussian/Gaussian09RevA.02_gcc-4.9.2/g09/l103.exe)

 GradGradGradGradGradGradGradGradGradGradGradGradGradGradGradGradGradGrad
 Berny optimization.
 Initialization pass.
                           ----------------------------
                           !    Initial Parameters    !
                           ! (Angstroms and Degrees)  !
 --------------------------                            --------------------------
 ! Name  Definition              Value          Derivative Info.                !
 --------------------------------------------------------------------------------
 ! R1    R(1,2)                  1.4212         estimate D2E/DX2                !
 ! R2    R(1,18)                 1.0932         estimate D2E/DX2                !
 ! R3    R(1,19)                 1.0943         estimate D2E/DX2                !
 ! R4    R(1,20)                 1.0941         estimate D2E/DX2                !
 ! R5    R(2,3)                  1.4302         estimate D2E/DX2                !
 ! R6    R(3,4)                  1.4234         estimate D2E/DX2                !
 ! R7    R(3,21)                 1.0975         estimate D2E/DX2                !
 ! R8    R(3,22)                 1.0956         estimate D2E/DX2                !
 ! R9    R(4,5)                  1.3662         estimate D2E/DX2                !
 ! R10   R(5,6)                  1.3935         estimate D2E/DX2                !
 ! R11   R(5,10)                 1.3967         estimate D2E/DX2                !
 ! R12   R(6,7)                  1.3997         estimate D2E/DX2                !
 ! R13   R(6,23)                 1.085          estimate D2E/DX2                !
 ! R14   R(7,8)                  1.4013         estimate D2E/DX2                !
 ! R15   R(7,24)                 1.0875         estimate D2E/DX2                !
 ! R16   R(8,9)                  1.4002         estimate D2E/DX2                !
 ! R17   R(8,11)                 1.5107         estimate D2E/DX2                !
 ! R18   R(9,10)                 1.3961         estimate D2E/DX2                !
 ! R19   R(9,25)                 1.0874         estimate D2E/DX2                !
 ! R20   R(10,26)                1.0881         estimate D2E/DX2                !
 ! R21   R(11,12)                1.5105         estimate D2E/DX2                !
 ! R22   R(11,27)                1.0984         estimate D2E/DX2                !
 ! R23   R(11,28)                1.0985         estimate D2E/DX2                !
 ! R24   R(12,13)                1.4022         estimate D2E/DX2                !
 ! R25   R(12,17)                1.403          estimate D2E/DX2                !
 ! R26   R(13,14)                1.3965         estimate D2E/DX2                !
 ! R27   R(13,29)                1.0875         estimate D2E/DX2                !
 ! R28   R(14,15)                1.3934         estimate D2E/DX2                !
 ! R29   R(14,30)                1.0865         estimate D2E/DX2                !
 ! R30   R(15,16)                1.3932         estimate D2E/DX2                !
 ! R31   R(15,31)                1.0871         estimate D2E/DX2                !
 ! R32   R(16,17)                1.3959         estimate D2E/DX2                !
 ! R33   R(16,32)                1.0866         estimate D2E/DX2                !
 ! R34   R(17,33)                1.0871         estimate D2E/DX2                !
 ! A1    A(2,1,18)             108.2689         estimate D2E/DX2                !
 ! A2    A(2,1,19)             110.6108         estimate D2E/DX2                !
 ! A3    A(2,1,20)             110.9303         estimate D2E/DX2                !
 ! A4    A(18,1,19)            108.5902         estimate D2E/DX2                !
 ! A5    A(18,1,20)            108.2053         estimate D2E/DX2                !
 ! A6    A(19,1,20)            110.1517         estimate D2E/DX2                !
 ! A7    A(1,2,3)              111.568          estimate D2E/DX2                !
 ! A8    A(2,3,4)              111.1384         estimate D2E/DX2                !
 ! A9    A(2,3,21)             108.6967         estimate D2E/DX2                !
 ! A10   A(2,3,22)             106.3945         estimate D2E/DX2                !
 ! A11   A(4,3,21)             111.4464         estimate D2E/DX2                !
 ! A12   A(4,3,22)             109.6077         estimate D2E/DX2                !
 ! A13   A(21,3,22)            109.4161         estimate D2E/DX2                !
 ! A14   A(3,4,5)              117.1848         estimate D2E/DX2                !
 ! A15   A(4,5,6)              126.2356         estimate D2E/DX2                !
 ! A16   A(4,5,10)             114.573          estimate D2E/DX2                !
 ! A17   A(6,5,10)             119.1909         estimate D2E/DX2                !
 ! A18   A(5,6,7)              120.1308         estimate D2E/DX2                !
 ! A19   A(5,6,23)             122.1005         estimate D2E/DX2                !
 ! A20   A(7,6,23)             117.7681         estimate D2E/DX2                !
 ! A21   A(6,7,8)              120.885          estimate D2E/DX2                !
 ! A22   A(6,7,24)             118.979          estimate D2E/DX2                !
 ! A23   A(8,7,24)             120.1354         estimate D2E/DX2                !
 ! A24   A(7,8,9)              118.6497         estimate D2E/DX2                !
 ! A25   A(7,8,11)             120.6236         estimate D2E/DX2                !
 ! A26   A(9,8,11)             120.7255         estimate D2E/DX2                !
 ! A27   A(8,9,10)             120.3397         estimate D2E/DX2                !
 ! A28   A(8,9,25)             120.5108         estimate D2E/DX2                !
 ! A29   A(10,9,25)            119.1492         estimate D2E/DX2                !
 ! A30   A(5,10,9)             120.8006         estimate D2E/DX2                !
 ! A31   A(5,10,26)            119.5897         estimate D2E/DX2                !
 ! A32   A(9,10,26)            119.6097         estimate D2E/DX2                !
 ! A33   A(8,11,12)            114.0461         estimate D2E/DX2                !
 ! A34   A(8,11,27)            109.3229         estimate D2E/DX2                !
 ! A35   A(8,11,28)            109.5746         estimate D2E/DX2                !
 ! A36   A(12,11,27)           109.4914         estimate D2E/DX2                !
 ! A37   A(12,11,28)           109.5545         estimate D2E/DX2                !
 ! A38   A(27,11,28)           104.4082         estimate D2E/DX2                !
 ! A39   A(11,12,13)           120.6644         estimate D2E/DX2                !
 ! A40   A(11,12,17)           120.5314         estimate D2E/DX2                !
 ! A41   A(13,12,17)           118.8012         estimate D2E/DX2                !
 ! A42   A(12,13,14)           120.549          estimate D2E/DX2                !
 ! A43   A(12,13,29)           120.3339         estimate D2E/DX2                !
 ! A44   A(14,13,29)           119.1171         estimate D2E/DX2                !
 ! A45   A(13,14,15)           120.0712         estimate D2E/DX2                !
 ! A46   A(13,14,30)           119.9742         estimate D2E/DX2                !
 ! A47   A(15,14,30)           119.9546         estimate D2E/DX2                !
 ! A48   A(14,15,16)           119.9415         estimate D2E/DX2                !
 ! A49   A(14,15,31)           120.0301         estimate D2E/DX2                !
 ! A50   A(16,15,31)           120.0283         estimate D2E/DX2                !
 ! A51   A(15,16,17)           120.0677         estimate D2E/DX2                !
 ! A52   A(15,16,32)           119.9839         estimate D2E/DX2                !
 ! A53   A(17,16,32)           119.9483         estimate D2E/DX2                !
 ! A54   A(12,17,16)           120.5671         estimate D2E/DX2                !
 ! A55   A(12,17,33)           120.3021         estimate D2E/DX2                !
 ! A56   A(16,17,33)           119.1306         estimate D2E/DX2                !
 ! D1    D(18,1,2,3)           179.3953         estimate D2E/DX2                !
 ! D2    D(19,1,2,3)            60.5249         estimate D2E/DX2                !
 ! D3    D(20,1,2,3)           -62.0167         estimate D2E/DX2                !
 ! D4    D(1,2,3,4)             63.7129         estimate D2E/DX2                !
 ! D5    D(1,2,3,21)           -59.2907         estimate D2E/DX2                !
 ! D6    D(1,2,3,22)          -177.026          estimate D2E/DX2                !
 ! D7    D(2,3,4,5)           -177.7208         estimate D2E/DX2                !
 ! D8    D(21,3,4,5)           -56.3124         estimate D2E/DX2                !
 ! D9    D(22,3,4,5)            64.9584         estimate D2E/DX2                !
 ! D10   D(3,4,5,6)             -3.5031         estimate D2E/DX2                !
 ! D11   D(3,4,5,10)           176.7497         estimate D2E/DX2                !
 ! D12   D(4,5,6,7)           -179.6053         estimate D2E/DX2                !
 ! D13   D(4,5,6,23)             0.1211         estimate D2E/DX2                !
 ! D14   D(10,5,6,7)             0.1314         estimate D2E/DX2                !
 ! D15   D(10,5,6,23)          179.8578         estimate D2E/DX2                !
 ! D16   D(4,5,10,9)           179.6841         estimate D2E/DX2                !
 ! D17   D(4,5,10,26)           -0.3179         estimate D2E/DX2                !
 ! D18   D(6,5,10,9)            -0.0824         estimate D2E/DX2                !
 ! D19   D(6,5,10,26)          179.9156         estimate D2E/DX2                !
 ! D20   D(5,6,7,8)              0.2224         estimate D2E/DX2                !
 ! D21   D(5,6,7,24)           179.9624         estimate D2E/DX2                !
 ! D22   D(23,6,7,8)          -179.5156         estimate D2E/DX2                !
 ! D23   D(23,6,7,24)            0.2244         estimate D2E/DX2                !
 ! D24   D(6,7,8,9)             -0.6154         estimate D2E/DX2                !
 ! D25   D(6,7,8,11)           179.7785         estimate D2E/DX2                !
 ! D26   D(24,7,8,9)           179.6476         estimate D2E/DX2                !
 ! D27   D(24,7,8,11)            0.0415         estimate D2E/DX2                !
 ! D28   D(7,8,9,10)             0.6616         estimate D2E/DX2                !
 ! D29   D(7,8,9,25)          -179.5466         estimate D2E/DX2                !
 ! D30   D(11,8,9,10)         -179.7327         estimate D2E/DX2                !
 ! D31   D(11,8,9,25)            0.0591         estimate D2E/DX2                !
 ! D32   D(7,8,11,12)           87.8903         estimate D2E/DX2                !
 ! D33   D(7,8,11,27)          -35.0414         estimate D2E/DX2                !
 ! D34   D(7,8,11,28)         -148.9037         estimate D2E/DX2                !
 ! D35   D(9,8,11,12)          -91.7076         estimate D2E/DX2                !
 ! D36   D(9,8,11,27)          145.3607         estimate D2E/DX2                !
 ! D37   D(9,8,11,28)           31.4984         estimate D2E/DX2                !
 ! D38   D(8,9,10,5)            -0.3209         estimate D2E/DX2                !
 ! D39   D(8,9,10,26)          179.6811         estimate D2E/DX2                !
 ! D40   D(25,9,10,5)          179.8845         estimate D2E/DX2                !
 ! D41   D(25,9,10,26)          -0.1136         estimate D2E/DX2                !
 ! D42   D(8,11,12,13)          90.1357         estimate D2E/DX2                !
 ! D43   D(8,11,12,17)         -89.2294         estimate D2E/DX2                !
 ! D44   D(27,11,12,13)       -147.0244         estimate D2E/DX2                !
 ! D45   D(27,11,12,17)         33.6105         estimate D2E/DX2                !
 ! D46   D(28,11,12,13)        -33.0812         estimate D2E/DX2                !
 ! D47   D(28,11,12,17)        147.5537         estimate D2E/DX2                !
 ! D48   D(11,12,13,14)       -179.9455         estimate D2E/DX2                !
 ! D49   D(11,12,13,29)          0.1649         estimate D2E/DX2                !
 ! D50   D(17,12,13,14)         -0.5695         estimate D2E/DX2                !
 ! D51   D(17,12,13,29)        179.5409         estimate D2E/DX2                !
 ! D52   D(11,12,17,16)        179.882          estimate D2E/DX2                !
 ! D53   D(11,12,17,33)         -0.2303         estimate D2E/DX2                !
 ! D54   D(13,12,17,16)          0.5052         estimate D2E/DX2                !
 ! D55   D(13,12,17,33)       -179.6071         estimate D2E/DX2                !
 ! D56   D(12,13,14,15)          0.3061         estimate D2E/DX2                !
 ! D57   D(12,13,14,30)       -179.7584         estimate D2E/DX2                !
 ! D58   D(29,13,14,15)       -179.8029         estimate D2E/DX2                !
 ! D59   D(29,13,14,30)          0.1326         estimate D2E/DX2                !
 ! D60   D(13,14,15,16)          0.0318         estimate D2E/DX2                !
 ! D61   D(13,14,15,31)        179.9315         estimate D2E/DX2                !
 ! D62   D(30,14,15,16)       -179.9036         estimate D2E/DX2                !
 ! D63   D(30,14,15,31)         -0.004          estimate D2E/DX2                !
 ! D64   D(14,15,16,17)         -0.096          estimate D2E/DX2                !
 ! D65   D(14,15,16,32)        179.8138         estimate D2E/DX2                !
 ! D66   D(31,15,16,17)       -179.9956         estimate D2E/DX2                !
 ! D67   D(31,15,16,32)         -0.0859         estimate D2E/DX2                !
 ! D68   D(15,16,17,12)         -0.177          estimate D2E/DX2                !
 ! D69   D(15,16,17,33)        179.9341         estimate D2E/DX2                !
 ! D70   D(32,16,17,12)        179.9132         estimate D2E/DX2                !
 ! D71   D(32,16,17,33)          0.0243         estimate D2E/DX2                !
 --------------------------------------------------------------------------------
 Trust Radius=3.00D-01 FncErr=1.00D-07 GrdErr=1.00D-06
 Number of steps in this run= 171 maximum allowed number of steps= 198.
 GradGradGradGradGradGradGradGradGradGradGradGradGradGradGradGradGradGrad

 Leave Link  103 at Thu Sep 30 17:25:21 2021, MaxMem= 1342177280 cpu:       0.0
 (Enter /sw/target/amd/app/gaussian/Gaussian09RevA.02_gcc-4.9.2/g09/l202.exe)
                          Input orientation:                          
 ---------------------------------------------------------------------
 Center     Atomic      Atomic             Coordinates (Angstroms)
 Number     Number       Type             X           Y           Z
 ---------------------------------------------------------------------
      1          6           0        3.487201   -0.679049   -1.069061
      2          8           0        2.667296   -0.115465   -0.054241
      3          6           0        3.167398   -0.414157    1.251955
      4          8           0        4.447363    0.173384    1.458292
      5          6           0        5.062778   -0.074605    2.652523
      6          6           0        4.529377   -0.793682    3.720410
      7          6           0        5.272841   -0.963865    4.894043
      8          6           0        6.556064   -0.414766    5.018648
      9          6           0        7.088529    0.299240    3.938320
     10          6           0        6.344329    0.468299    2.769288
     11          6           0        7.351332   -0.597870    6.289956
     12          6           0        8.182645   -1.858738    6.319733
     13          6           0        9.501696   -1.857012    5.844204
     14          6           0       10.267686   -3.024321    5.871829
     15          6           0        9.721699   -4.206119    6.368704
     16          6           0        8.409946   -4.222782    6.837699
     17          6           0        7.643216   -3.056635    6.812110
     18          1           0        3.051847   -0.428259   -2.040000
     19          1           0        3.523611   -1.768633   -0.974013
     20          1           0        4.498525   -0.263287   -1.030245
     21          1           0        3.201723   -1.504177    1.374749
     22          1           0        2.449333    0.009950    1.962443
     23          1           0        3.538315   -1.233551    3.681587
     24          1           0        4.838151   -1.527843    5.715976
     25          1           0        8.084301    0.731804    3.999492
     26          1           0        6.767687    1.029761    1.938944
     27          1           0        6.668509   -0.588658    7.150328
     28          1           0        8.000458    0.274277    6.446828
     29          1           0        9.942282   -0.944156    5.450147
     30          1           0       11.290199   -3.011457    5.504550
     31          1           0       10.318216   -5.114684    6.388866
     32          1           0        7.982490   -5.144702    7.222515
     33          1           0        6.621054   -3.087175    7.180850
 ---------------------------------------------------------------------
                    Distance matrix (angstroms):
                    1          2          3          4          5
     1  C    0.000000
     2  O    1.421172   0.000000
     3  C    2.357870   1.430198   0.000000
     4  O    2.834795   2.353684   1.423408   0.000000
     5  C    4.086316   3.614772   2.381040   1.366171   0.000000
     6  C    4.902887   4.263251   2.844696   2.461528   1.393546
     7  C    6.231230   5.656338   4.242626   3.712025   2.420604
     8  C    6.822606   6.398929   5.066659   4.179554   2.818538
     9  C    6.245036   5.971585   4.806325   3.625208   2.428312
    10  C    4.920620   4.672651   3.629589   2.324686   1.396692
    11  C    8.312233   7.900743   6.551374   5.689714   4.329227
    12  C    8.833636   8.607300   7.274743   6.458751   5.134699
    13  C    9.238775   9.194219   7.955747   6.993212   5.750460
    14  C    9.982546  10.067059   8.863988   7.973757   6.793808
    15  C   10.326158  10.380380   9.138871   8.432723   7.251549
    16  C    9.965356   9.866454   8.555143   7.997897   6.776917
    17  C    9.221617   8.975357   7.611239   7.022099   5.731782
    18  H    1.093230   2.046695   3.294012   3.814117   5.117489
    19  H    1.094328   2.076589   2.629910   3.246669   4.288418
    20  H    1.094140   2.080345   2.646336   2.527076   3.730517
    21  H    2.595099   2.063043   1.097451   2.091126   2.672061
    22  H    3.277484   2.032301   1.095572   2.067124   2.704340
    23  H    4.783172   3.995648   2.590772   2.783680   2.173964
    24  H    6.970096   6.324779   4.894813   4.601604   3.398103
    25  H    6.986705   6.818692   5.747879   4.471783   3.405028
    26  H    4.767569   4.700802   3.939408   2.519586   2.153029
    27  H    8.814037   8.254661   6.861417   6.157392   4.803423
    28  H    8.818554   8.417744   7.128753   6.125370   4.811281
    29  H    9.178149   9.160264   7.987788   6.883163   5.691430
    30  H   10.466101  10.660271   9.529450   8.563867   7.452511
    31  H   11.043473  11.182236   9.980832   9.313492   8.184270
    32  H   10.435512  10.319675   9.011701   8.602641   7.423977
    33  H    9.147739   8.764120   7.363733   6.935694   5.657698
                    6          7          8          9         10
     6  C    0.000000
     7  C    1.399684   0.000000
     8  C    2.436485   1.401320   0.000000
     9  C    2.791276   2.409474   1.400154   0.000000
    10  C    2.406507   2.777366   2.425748   1.396084   0.000000
    11  C    3.821563   2.530346   1.510696   2.530625   3.813905
    12  C    4.608383   3.361599   2.534491   3.394862   4.626032
    13  C    5.510456   4.425351   3.382065   3.755687   4.983086
    14  C    6.521699   5.490904   4.616691   4.989144   6.100565
    15  C    6.754140   5.699051   5.120377   5.756615   6.797986
    16  C    6.044422   4.923390   4.609426   5.531837   6.544080
    17  C    4.937161   3.698290   3.373111   4.452892   5.518757
    18  H    5.958099   7.300728   7.880624   7.250129   5.896906
    19  H    4.898949   6.175883   6.851329   6.412156   5.193516
    20  H    4.780270   6.015609   6.391049   5.631269   4.287033
    21  H    2.787399   4.119089   5.071135   4.993142   3.963757
    22  H    2.839516   4.185067   5.136731   5.050734   4.004007
    23  H    1.084986   2.133391   3.400728   3.875484   3.406214
    24  H    2.148632   1.087475   2.162506   3.400367   3.864728
    25  H    3.878463   3.402914   2.165366   1.087389   2.147170
    26  H    3.392432   3.865452   3.408228   2.152697   1.088091
    27  H    4.047501   2.679458   2.141715   3.358836   4.518380
    28  H    4.541178   3.374023   2.144936   2.669242   4.037909
    29  H    5.684556   4.702480   3.454405   3.460572   4.703966
    30  H    7.335557   6.385448   5.421341   5.573851   6.637167
    31  H    7.700804   6.702209   6.174181   6.763625   7.750021
    32  H    6.566591   5.499398   5.409623   6.420406   7.349870
    33  H    4.648642   3.399354   3.438184   4.711724   5.672728
                   11         12         13         14         15
    11  C    0.000000
    12  C    1.510548   0.000000
    13  C    2.531442   1.402151   0.000000
    14  C    3.816755   2.430350   1.396465   0.000000
    15  C    4.317905   2.807363   2.416983   1.393425   0.000000
    16  C    3.815845   2.430773   2.788516   2.412553   1.393173
    17  C    2.530488   1.402988   2.414515   2.788013   2.416198
    18  H    9.375634   9.912441  10.286037  11.018390  11.378289
    19  H    8.293816   8.655255   9.068263   9.691484   9.913280
    20  H    7.863573   8.374985   8.650417   9.409843   9.877850
    21  H    6.496145   7.027671   7.732410   8.512485   8.645818
    22  H    6.567070   7.439680   8.263742   9.252932   9.490926
    23  H    4.663344   5.377776   6.373972   7.299894   7.368243
    24  H    2.740508   3.414623   4.676905   5.634145   5.607875
    25  H    2.747999   3.479095   3.480508   4.730887   5.716409
    26  H    4.682000   5.434781   5.573088   6.644784   7.467490
    27  H    1.098441   2.143734   3.367733   4.530021   4.797805
    28  H    1.098459   2.144551   2.675680   4.043723   4.800284
    29  H    2.745581   2.165402   1.087521   2.147275   3.395999
    30  H    4.685823   3.413236   2.155656   1.086550   2.152713
    31  H    5.404979   3.894435   3.402321   2.153949   1.087073
    32  H    4.684199   3.413596   3.875131   3.397424   2.152854
    33  H    2.742925   2.165443   3.405587   3.874973   3.394940
                   16         17         18         19         20
    16  C    0.000000
    17  C    1.395861   0.000000
    18  H   11.041792  10.312560   0.000000
    19  H    9.535301   8.902461   1.776371   0.000000
    20  H    9.637497   8.899123   1.771920   1.794348   0.000000
    21  H    8.022482   7.190402   3.583374   2.385421   3.000916
    22  H    8.787096   7.739486   4.071191   3.597250   3.637310
    23  H    6.529114   5.474854   5.798422   4.686272   4.905586
    24  H    4.612882   3.377441   8.034621   6.822166   6.872113
    25  H    5.719212   4.738950   7.946496   7.196376   6.256696
    26  H    7.367769   6.419730   5.636071   5.180768   3.954384
    27  H    4.041930   2.674950   9.877657   8.791339   8.469738
    28  H    4.532549   3.369870   9.849292   8.904185   8.274003
    29  H    3.875918   3.406349  10.190512   9.118603   8.490791
    30  H    3.397124   3.874563  11.465757  10.190009   9.817475
    31  H    2.153703   3.401518  12.075118  10.562892  10.604152
    32  H    1.086618   2.154893  11.504359   9.922828  10.201680
    33  H    2.146507   1.087068  10.238806   8.822386   8.938766
                   21         22         23         24         25
    21  H    0.000000
    22  H    1.789988   0.000000
    23  H    2.346920   2.384876   0.000000
    24  H    4.639473   4.707470   2.432061   0.000000
    25  H    5.977328   6.035188   4.962829   4.311590   0.000000
    26  H    4.410811   4.437200   4.311407   4.952819   2.463352
    27  H    6.798095   6.713712   4.716584   2.507916   3.698088
    28  H    7.205327   7.141048   5.461760   3.712407   2.491147
    29  H    7.896684   8.319776   6.649988   5.144269   2.892289
    30  H    9.206008   9.991813   8.159402   6.623800   5.153153
    31  H    9.424521  10.381445   8.267987   6.584020   6.699321
    32  H    8.384839   9.211657   6.898259   5.023764   6.703102
    33  H    6.921598   7.363913   5.018370   2.784980   5.181383
                   26         27         28         29         30
    26  H    0.000000
    27  H    5.457805   0.000000
    28  H    4.734078   1.735988   0.000000
    29  H    5.128639   3.706020   2.499727   0.000000
    30  H    7.035489   5.471613   4.744084   2.468516   0.000000
    31  H    8.376292   5.863881   5.866538   4.291366   2.479985
    32  H    8.216804   4.742289   5.474245   4.962526   4.294540
    33  H    6.666951   2.499154   3.706872   4.314906   4.961515
                   31         32         33
    31  H    0.000000
    32  H    2.480219   0.000000
    33  H    4.290343   2.467522   0.000000
 Stoichiometry    C15H16O2
 Framework group  C1[X(C15H16O2)]
 Deg. of freedom    93
 Full point group                 C1      NOp   1
 Largest Abelian subgroup         C1      NOp   1
 Largest concise Abelian subgroup C1      NOp   1
                         Standard orientation:                         
 ---------------------------------------------------------------------
 Center     Atomic      Atomic             Coordinates (Angstroms)
 Number     Number       Type             X           Y           Z
 ---------------------------------------------------------------------
      1          6           0       -5.473779    1.578266    0.845466
      2          8           0       -5.471678    0.636896   -0.219217
      3          6           0       -4.144163    0.360298   -0.673820
      4          8           0       -3.368870   -0.254579    0.349378
      5          6           0       -2.061885   -0.529627    0.062047
      6          6           0       -1.427739   -0.328590   -1.162458
      7          6           0       -0.078071   -0.665063   -1.318337
      8          6           0        0.654615   -1.210669   -0.255708
      9          6           0        0.012816   -1.401876    0.973912
     10          6           0       -1.333752   -1.066321    1.126252
     11          6           0        2.109760   -1.576312   -0.431955
     12          6           0        3.067516   -0.441773   -0.153961
     13          6           0        3.580032   -0.238197    1.135190
     14          6           0        4.464431    0.812118    1.389730
     15          6           0        4.840559    1.673105    0.360719
     16          6           0        4.332950    1.485856   -0.923104
     17          6           0        3.449870    0.435735   -1.179709
     18          1           0       -6.510536    1.757532    1.142366
     19          1           0       -5.034573    2.526889    0.521789
     20          1           0       -4.932324    1.188663    1.712748
     21          1           0       -3.686794    1.297635   -1.015306
     22          1           0       -4.244426   -0.326117   -1.521794
     23          1           0       -1.948486    0.082964   -2.020737
     24          1           0        0.397932   -0.500880   -2.282218
     25          1           0        0.554517   -1.816187    1.820861
     26          1           0       -1.822074   -1.224728    2.085623
     27          1           0        2.269757   -1.949254   -1.452684
     28          1           0        2.355174   -2.431009    0.212931
     29          1           0        3.294417   -0.898861    1.950451
     30          1           0        4.858969    0.958906    2.391421
     31          1           0        5.528190    2.491173    0.559857
     32          1           0        4.623435    2.158681   -1.725391
     33          1           0        3.062248    0.304370   -2.186789
 ---------------------------------------------------------------------
 Rotational constants (GHZ):      1.1408877      0.1700370      0.1671488
 Leave Link  202 at Thu Sep 30 17:25:21 2021, MaxMem= 1342177280 cpu:       0.1
 (Enter /sw/target/amd/app/gaussian/Gaussian09RevA.02_gcc-4.9.2/g09/l301.exe)
 Standard basis: 6-31G(d) (6D, 7F)
 Ernie: Thresh=  0.10000D-02 Tol=  0.10000D-05 Strict=F.
 There are   287 symmetry adapted basis functions of A   symmetry.
 Integral buffers will be    131072 words long.
 Raffenetti 2 integral format.
 Two-electron integral symmetry is turned on.
   287 basis functions,   540 primitive gaussians,   287 cartesian basis functions
    61 alpha electrons       61 beta electrons
       nuclear repulsion energy      1085.9588956358 Hartrees.
 IExCor=  402 DFT=T Ex+Corr=B3LYP ExCW=0 ScaHFX=  0.200000
 ScaDFX=  0.800000  0.720000  1.000000  0.810000 ScalE2=  1.000000  1.000000
 IRadAn=      0 IRanWt=     -1 IRanGd=            0 ICorTp=0
 NAtoms=   33 NActive=   33 NUniq=   33 SFac= 7.50D-01 NAtFMM=   80 NAOKFM=F Big=F
 Leave Link  301 at Thu Sep 30 17:25:21 2021, MaxMem= 1342177280 cpu:       0.1
 (Enter /sw/target/amd/app/gaussian/Gaussian09RevA.02_gcc-4.9.2/g09/l302.exe)
 NPDir=0 NMtPBC=     1 NCelOv=     1 NCel=       1 NClECP=     1 NCelD=      1
         NCelK=      1 NCelE2=     1 NClLst=     1 CellRange=     0.0.
 One-electron integrals computed using PRISM.
 NBasis=   287 RedAO= T  NBF=   287
 NBsUse=   287 1.00D-06 NBFU=   287
 Precomputing XC quadrature grid using
 IXCGrd= 2 IRadAn=           0 IRanWt=          -1 IRanGd=           0 AccXCQ= 1.00D-10.
 NRdTot=    2105 NPtTot=      268200 NUsed=      283377 NTot=      283409
 NSgBfM=   281   281   281   281   281 NAtAll=    33    33.
 Leave Link  302 at Thu Sep 30 17:25:27 2021, MaxMem= 1342177280 cpu:       2.9
 (Enter /sw/target/amd/app/gaussian/Gaussian09RevA.02_gcc-4.9.2/g09/l303.exe)
 DipDrv:  MaxL=1.
 Leave Link  303 at Thu Sep 30 17:25:27 2021, MaxMem= 1342177280 cpu:       0.2
 (Enter /sw/target/amd/app/gaussian/Gaussian09RevA.02_gcc-4.9.2/g09/l401.exe)
 Harris functional with IExCor=  402 diagonalized for initial guess.
 ExpMin= 1.61D-01 ExpMax= 5.48D+03 ExpMxC= 8.25D+02 IAcc=1 IRadAn=         1 AccDes= 0.00D+00
 HarFok:  IExCor=  402 AccDes= 0.00D+00 IRadAn=         1 IDoV= 1
 ScaDFX=  1.000000  1.000000  1.000000  1.000000
 FoFCou: FMM=F IPFlag=           0 FMFlag=      100000 FMFlg1=           0
         NFxFlg=           0 DoJE=T BraDBF=F KetDBF=T FulRan=T
         Omega=  0.000000  0.000000  1.000000  0.000000  0.000000 ICntrl=     500 IOpCl=  0
         NMat0=    1 NMatS0=    1 NMatT0=    0 NMatD0=    1 NMtDS0=    0 NMtDT0=    0
         I1Cent=           4 NGrid=           0.
 Petite list used in FoFCou.
 Harris En= -731.741835460799    
 Initial guess orbital symmetries:
       Occupied  (A) (A) (A) (A) (A) (A) (A) (A) (A) (A) (A) (A)
                 (A) (A) (A) (A) (A) (A) (A) (A) (A) (A) (A) (A)
                 (A) (A) (A) (A) (A) (A) (A) (A) (A) (A) (A) (A)
                 (A) (A) (A) (A) (A) (A) (A) (A) (A) (A) (A) (A)
                 (A) (A) (A) (A) (A) (A) (A) (A) (A) (A) (A) (A)
                 (A)
       Virtual   (A) (A) (A) (A) (A) (A) (A) (A) (A) (A) (A) (A)
                 (A) (A) (A) (A) (A) (A) (A) (A) (A) (A) (A) (A)
                 (A) (A) (A) (A) (A) (A) (A) (A) (A) (A) (A) (A)
                 (A) (A) (A) (A) (A) (A) (A) (A) (A) (A) (A) (A)
                 (A) (A) (A) (A) (A) (A) (A) (A) (A) (A) (A) (A)
                 (A) (A) (A) (A) (A) (A) (A) (A) (A) (A) (A) (A)
                 (A) (A) (A) (A) (A) (A) (A) (A) (A) (A) (A) (A)
                 (A) (A) (A) (A) (A) (A) (A) (A) (A) (A) (A) (A)
                 (A) (A) (A) (A) (A) (A) (A) (A) (A) (A) (A) (A)
                 (A) (A) (A) (A) (A) (A) (A) (A) (A) (A) (A) (A)
                 (A) (A) (A) (A) (A) (A) (A) (A) (A) (A) (A) (A)
                 (A) (A) (A) (A) (A) (A) (A) (A) (A) (A) (A) (A)
                 (A) (A) (A) (A) (A) (A) (A) (A) (A) (A) (A) (A)
                 (A) (A) (A) (A) (A) (A) (A) (A) (A) (A) (A) (A)
                 (A) (A) (A) (A) (A) (A) (A) (A) (A) (A) (A) (A)
                 (A) (A) (A) (A) (A) (A) (A) (A) (A) (A) (A) (A)
                 (A) (A) (A) (A) (A) (A) (A) (A) (A) (A) (A) (A)
                 (A) (A) (A) (A) (A) (A) (A) (A) (A) (A) (A) (A)
                 (A) (A) (A) (A) (A) (A) (A) (A) (A) (A)
 The electronic state of the initial guess is 1-A.
 Leave Link  401 at Thu Sep 30 17:25:41 2021, MaxMem= 1342177280 cpu:      12.5
 (Enter /sw/target/amd/app/gaussian/Gaussian09RevA.02_gcc-4.9.2/g09/l502.exe)
 Closed shell SCF:
 Requested convergence on RMS density matrix=1.00D-08 within  64 cycles.
 Requested convergence on MAX density matrix=1.00D-06.
 Requested convergence on             energy=1.00D-06.
 No special actions if energy rises.
 Using DIIS extrapolation, IDIIS=  1040.
 Integral symmetry usage will be decided dynamically.
       283067 words used for storage of precomputed grid.
 Keep R1 ints in memory in canonical form, NReq=866505871.
 IEnd=      539609 IEndB=      539609 NGot=  1342177280 MDV=   487702068
 LenX=   487702068 LenY=   487619258
 Symmetry not used in FoFDir.
 MinBra= 0 MaxBra= 2 Meth= 1.
 IRaf=       0 NMat=   1 IRICut=       1 DoRegI=T DoRafI=F ISym2E= 0 JSym2E=0.
 Integral accuracy reduced to 1.0D-05 until final iterations.

 Cycle   1  Pass 0  IDiag  1:
 E= -731.263064894655    
 DIIS: error= 3.80D-02 at cycle   1 NSaved=   1.
 NSaved= 1 IEnMin= 1 EnMin= -731.263064894655     IErMin= 1 ErrMin= 3.80D-02
 ErrMax= 3.80D-02 EMaxC= 1.00D-01 BMatC= 3.61D-01 BMatP= 3.61D-01
 IDIUse=3 WtCom= 6.20D-01 WtEn= 3.80D-01
 Coeff-Com:  0.100D+01
 Coeff-En:   0.100D+01
 Coeff:      0.100D+01
 Gap=     0.245 Goal=   None    Shift=    0.000
 GapD=    0.245 DampG=1.000 DampE=0.500 DampFc=0.5000 IDamp=-1.
 Damping current iteration by 5.00D-01
 RMSDP=4.88D-03 MaxDP=1.25D-01              OVMax= 1.63D-01

 Cycle   2  Pass 0  IDiag  1:
 E= -731.445097076620     Delta-E=       -0.182032181965 Rises=F Damp=T
 DIIS: error= 5.52D-03 at cycle   2 NSaved=   2.
 NSaved= 2 IEnMin= 2 EnMin= -731.445097076620     IErMin= 2 ErrMin= 5.52D-03
 ErrMax= 5.52D-03 EMaxC= 1.00D-01 BMatC= 2.02D-02 BMatP= 3.61D-01
 IDIUse=3 WtCom= 9.45D-01 WtEn= 5.52D-02
 Coeff-Com:  0.266D-01 0.973D+00
 Coeff-En:   0.370D-01 0.963D+00
 Coeff:      0.272D-01 0.973D+00
 Gap=     0.234 Goal=   None    Shift=    0.000
 RMSDP=1.28D-03 MaxDP=4.13D-02 DE=-1.82D-01 OVMax= 1.56D-01

 Cycle   3  Pass 0  IDiag  1:
 E= -731.640463170204     Delta-E=       -0.195366093584 Rises=F Damp=F
 DIIS: error= 4.68D-03 at cycle   3 NSaved=   3.
 NSaved= 3 IEnMin= 3 EnMin= -731.640463170204     IErMin= 3 ErrMin= 4.68D-03
 ErrMax= 4.68D-03 EMaxC= 1.00D-01 BMatC= 1.49D-02 BMatP= 2.02D-02
 IDIUse=3 WtCom= 9.53D-01 WtEn= 4.68D-02
 Coeff-Com: -0.297D-01 0.462D+00 0.567D+00
 Coeff-En:   0.000D+00 0.000D+00 0.100D+01
 Coeff:     -0.283D-01 0.441D+00 0.588D+00
 Gap=     0.214 Goal=   None    Shift=    0.000
 RMSDP=6.91D-04 MaxDP=2.77D-02 DE=-1.95D-01 OVMax= 7.32D-02

 Cycle   4  Pass 0  IDiag  1:
 E= -731.649040985068     Delta-E=       -0.008577814864 Rises=F Damp=F
 DIIS: error= 3.61D-03 at cycle   4 NSaved=   4.
 NSaved= 4 IEnMin= 4 EnMin= -731.649040985068     IErMin= 4 ErrMin= 3.61D-03
 ErrMax= 3.61D-03 EMaxC= 1.00D-01 BMatC= 5.86D-03 BMatP= 1.49D-02
 IDIUse=3 WtCom= 9.64D-01 WtEn= 3.61D-02
 Coeff-Com: -0.216D-01 0.124D+00 0.392D+00 0.505D+00
 Coeff-En:   0.000D+00 0.000D+00 0.321D+00 0.679D+00
 Coeff:     -0.208D-01 0.120D+00 0.390D+00 0.512D+00
 Gap=     0.209 Goal=   None    Shift=    0.000
 RMSDP=3.25D-04 MaxDP=1.12D-02 DE=-8.58D-03 OVMax= 3.32D-02

 Cycle   5  Pass 0  IDiag  1:
 E= -731.654688371167     Delta-E=       -0.005647386099 Rises=F Damp=F
 DIIS: error= 8.21D-04 at cycle   5 NSaved=   5.
 NSaved= 5 IEnMin= 5 EnMin= -731.654688371167     IErMin= 5 ErrMin= 8.21D-04
 ErrMax= 8.21D-04 EMaxC= 1.00D-01 BMatC= 2.95D-04 BMatP= 5.86D-03
 IDIUse=3 WtCom= 9.92D-01 WtEn= 8.21D-03
 Coeff-Com: -0.853D-02 0.329D-01 0.167D+00 0.276D+00 0.532D+00
 Coeff-En:   0.000D+00 0.000D+00 0.000D+00 0.000D+00 0.100D+01
 Coeff:     -0.846D-02 0.327D-01 0.166D+00 0.274D+00 0.536D+00
 Gap=     0.208 Goal=   None    Shift=    0.000
 RMSDP=8.27D-05 MaxDP=2.41D-03 DE=-5.65D-03 OVMax= 6.41D-03

 Cycle   6  Pass 0  IDiag  1:
 E= -731.654948931732     Delta-E=       -0.000260560565 Rises=F Damp=F
 DIIS: error= 3.41D-04 at cycle   6 NSaved=   6.
 NSaved= 6 IEnMin= 6 EnMin= -731.654948931732     IErMin= 6 ErrMin= 3.41D-04
 ErrMax= 3.41D-04 EMaxC= 1.00D-01 BMatC= 4.57D-05 BMatP= 2.95D-04
 IDIUse=3 WtCom= 9.97D-01 WtEn= 3.41D-03
 Coeff-Com: -0.259D-02 0.545D-02 0.536D-01 0.104D+00 0.329D+00 0.511D+00
 Coeff-En:   0.000D+00 0.000D+00 0.000D+00 0.000D+00 0.131D+00 0.869D+00
 Coeff:     -0.258D-02 0.543D-02 0.534D-01 0.104D+00 0.328D+00 0.512D+00
 Gap=     0.208 Goal=   None    Shift=    0.000
 RMSDP=2.95D-05 MaxDP=7.57D-04 DE=-2.61D-04 OVMax= 2.52D-03

 Cycle   7  Pass 0  IDiag  1:
 E= -731.654993284823     Delta-E=       -0.000044353091 Rises=F Damp=F
 DIIS: error= 6.69D-05 at cycle   7 NSaved=   7.
 NSaved= 7 IEnMin= 7 EnMin= -731.654993284823     IErMin= 7 ErrMin= 6.69D-05
 ErrMax= 6.69D-05 EMaxC= 1.00D-01 BMatC= 2.50D-06 BMatP= 4.57D-05
 IDIUse=1 WtCom= 1.00D+00 WtEn= 0.00D+00
 Coeff-Com: -0.937D-03 0.987D-03 0.207D-01 0.429D-01 0.156D+00 0.289D+00
 Coeff-Com:  0.491D+00
 Coeff:     -0.937D-03 0.987D-03 0.207D-01 0.429D-01 0.156D+00 0.289D+00
 Coeff:      0.491D+00
 Gap=     0.208 Goal=   None    Shift=    0.000
 RMSDP=6.45D-06 MaxDP=2.50D-04 DE=-4.44D-05 OVMax= 5.87D-04

 Initial convergence to 1.0D-05 achieved.  Increase integral accuracy.
 Cycle   8  Pass 1  IDiag  1:
 E= -731.655047941934     Delta-E=       -0.000054657111 Rises=F Damp=F
 DIIS: error= 2.91D-05 at cycle   1 NSaved=   1.
 NSaved= 1 IEnMin= 1 EnMin= -731.655047941934     IErMin= 1 ErrMin= 2.91D-05
 ErrMax= 2.91D-05 EMaxC= 1.00D-01 BMatC= 2.48D-07 BMatP= 2.48D-07
 IDIUse=1 WtCom= 1.00D+00 WtEn= 0.00D+00
 Coeff-Com:  0.100D+01
 Coeff:      0.100D+01
 Gap=     0.208 Goal=   None    Shift=    0.000
 RMSDP=6.45D-06 MaxDP=2.50D-04 DE=-5.47D-05 OVMax= 3.67D-04

 Cycle   9  Pass 1  IDiag  1:
 E= -731.655047791524     Delta-E=        0.000000150410 Rises=F Damp=F
 DIIS: error= 3.27D-05 at cycle   2 NSaved=   2.
 NSaved= 2 IEnMin= 1 EnMin= -731.655047941934     IErMin= 1 ErrMin= 2.91D-05
 ErrMax= 3.27D-05 EMaxC= 1.00D-01 BMatC= 4.19D-07 BMatP= 2.48D-07
 IDIUse=1 WtCom= 1.00D+00 WtEn= 0.00D+00
 Coeff-Com:  0.577D+00 0.423D+00
 Coeff:      0.577D+00 0.423D+00
 Gap=     0.208 Goal=   None    Shift=    0.000
 RMSDP=2.91D-06 MaxDP=9.86D-05 DE= 1.50D-07 OVMax= 3.03D-04

 Cycle  10  Pass 1  IDiag  1:
 E= -731.655048207422     Delta-E=       -0.000000415898 Rises=F Damp=F
 DIIS: error= 9.39D-06 at cycle   3 NSaved=   3.
 NSaved= 3 IEnMin= 3 EnMin= -731.655048207422     IErMin= 3 ErrMin= 9.39D-06
 ErrMax= 9.39D-06 EMaxC= 1.00D-01 BMatC= 2.73D-08 BMatP= 2.48D-07
 IDIUse=1 WtCom= 1.00D+00 WtEn= 0.00D+00
 Coeff-Com:  0.533D-01 0.204D+00 0.743D+00
 Coeff:      0.533D-01 0.204D+00 0.743D+00
 Gap=     0.208 Goal=   None    Shift=    0.000
 RMSDP=8.67D-07 MaxDP=2.69D-05 DE=-4.16D-07 OVMax= 8.64D-05

 Cycle  11  Pass 1  IDiag  1:
 E= -731.655048231409     Delta-E=       -0.000000023987 Rises=F Damp=F
 DIIS: error= 3.81D-06 at cycle   4 NSaved=   4.
 NSaved= 4 IEnMin= 4 EnMin= -731.655048231409     IErMin= 4 ErrMin= 3.81D-06
 ErrMax= 3.81D-06 EMaxC= 1.00D-01 BMatC= 7.41D-09 BMatP= 2.73D-08
 IDIUse=1 WtCom= 1.00D+00 WtEn= 0.00D+00
 Coeff-Com: -0.111D-01 0.980D-01 0.475D+00 0.438D+00
 Coeff:     -0.111D-01 0.980D-01 0.475D+00 0.438D+00
 Gap=     0.208 Goal=   None    Shift=    0.000
 RMSDP=3.45D-07 MaxDP=9.55D-06 DE=-2.40D-08 OVMax= 2.84D-05

 Cycle  12  Pass 1  IDiag  1:
 E= -731.655048238423     Delta-E=       -0.000000007014 Rises=F Damp=F
 DIIS: error= 7.54D-07 at cycle   5 NSaved=   5.
 NSaved= 5 IEnMin= 5 EnMin= -731.655048238423     IErMin= 5 ErrMin= 7.54D-07
 ErrMax= 7.54D-07 EMaxC= 1.00D-01 BMatC= 2.73D-10 BMatP= 7.41D-09
 IDIUse=1 WtCom= 1.00D+00 WtEn= 0.00D+00
 Coeff-Com: -0.885D-02 0.441D-01 0.226D+00 0.250D+00 0.489D+00
 Coeff:     -0.885D-02 0.441D-01 0.226D+00 0.250D+00 0.489D+00
 Gap=     0.208 Goal=   None    Shift=    0.000
 RMSDP=8.00D-08 MaxDP=3.20D-06 DE=-7.01D-09 OVMax= 9.23D-06

 Cycle  13  Pass 1  IDiag  1:
 E= -731.655048238718     Delta-E=       -0.000000000295 Rises=F Damp=F
 DIIS: error= 1.91D-07 at cycle   6 NSaved=   6.
 NSaved= 6 IEnMin= 6 EnMin= -731.655048238718     IErMin= 6 ErrMin= 1.91D-07
 ErrMax= 1.91D-07 EMaxC= 1.00D-01 BMatC= 2.44D-11 BMatP= 2.73D-10
 IDIUse=1 WtCom= 1.00D+00 WtEn= 0.00D+00
 Coeff-Com: -0.396D-02 0.146D-01 0.770D-01 0.966D-01 0.273D+00 0.542D+00
 Coeff:     -0.396D-02 0.146D-01 0.770D-01 0.966D-01 0.273D+00 0.542D+00
 Gap=     0.208 Goal=   None    Shift=    0.000
 RMSDP=2.06D-08 MaxDP=1.10D-06 DE=-2.95D-10 OVMax= 2.35D-06

 Cycle  14  Pass 1  IDiag  1:
 E= -731.655048238767     Delta-E=       -0.000000000050 Rises=F Damp=F
 DIIS: error= 5.35D-08 at cycle   7 NSaved=   7.
 NSaved= 7 IEnMin= 7 EnMin= -731.655048238767     IErMin= 7 ErrMin= 5.35D-08
 ErrMax= 5.35D-08 EMaxC= 1.00D-01 BMatC= 1.85D-12 BMatP= 2.44D-11
 IDIUse=1 WtCom= 1.00D+00 WtEn= 0.00D+00
 Coeff-Com: -0.107D-02 0.293D-02 0.162D-01 0.240D-01 0.887D-01 0.278D+00
 Coeff-Com:  0.591D+00
 Coeff:     -0.107D-02 0.293D-02 0.162D-01 0.240D-01 0.887D-01 0.278D+00
 Coeff:      0.591D+00
 Gap=     0.208 Goal=   None    Shift=    0.000
 RMSDP=5.69D-09 MaxDP=2.55D-07 DE=-4.98D-11 OVMax= 3.51D-07

 SCF Done:  E(RB3LYP) =  -731.655048239     A.U. after   14 cycles
             Convg  =    0.5692D-08             -V/T =  2.0096
 KE= 7.247169067581D+02 PE=-3.871633689721D+03 EE= 1.329302839088D+03
 Leave Link  502 at Thu Sep 30 17:34:46 2021, MaxMem= 1342177280 cpu:     313.9
 (Enter /sw/target/amd/app/gaussian/Gaussian09RevA.02_gcc-4.9.2/g09/l508.exe)
 QCSCF skips out because SCF is already converged.
 Leave Link  508 at Thu Sep 30 17:34:49 2021, MaxMem= 1342177280 cpu:       0.0
 (Enter /sw/target/amd/app/gaussian/Gaussian09RevA.02_gcc-4.9.2/g09/l601.exe)
 Copying SCF densities to generalized density rwf, IOpCl= 0 IROHF=0.

 **********************************************************************

            Population analysis using the SCF density.

 **********************************************************************

 Orbital symmetries:
       Occupied  (A) (A) (A) (A) (A) (A) (A) (A) (A) (A) (A) (A)
                 (A) (A) (A) (A) (A) (A) (A) (A) (A) (A) (A) (A)
                 (A) (A) (A) (A) (A) (A) (A) (A) (A) (A) (A) (A)
                 (A) (A) (A) (A) (A) (A) (A) (A) (A) (A) (A) (A)
                 (A) (A) (A) (A) (A) (A) (A) (A) (A) (A) (A) (A)
                 (A)
       Virtual   (A) (A) (A) (A) (A) (A) (A) (A) (A) (A) (A) (A)
                 (A) (A) (A) (A) (A) (A) (A) (A) (A) (A) (A) (A)
                 (A) (A) (A) (A) (A) (A) (A) (A) (A) (A) (A) (A)
                 (A) (A) (A) (A) (A) (A) (A) (A) (A) (A) (A) (A)
                 (A) (A) (A) (A) (A) (A) (A) (A) (A) (A) (A) (A)
                 (A) (A) (A) (A) (A) (A) (A) (A) (A) (A) (A) (A)
                 (A) (A) (A) (A) (A) (A) (A) (A) (A) (A) (A) (A)
                 (A) (A) (A) (A) (A) (A) (A) (A) (A) (A) (A) (A)
                 (A) (A) (A) (A) (A) (A) (A) (A) (A) (A) (A) (A)
                 (A) (A) (A) (A) (A) (A) (A) (A) (A) (A) (A) (A)
                 (A) (A) (A) (A) (A) (A) (A) (A) (A) (A) (A) (A)
                 (A) (A) (A) (A) (A) (A) (A) (A) (A) (A) (A) (A)
                 (A) (A) (A) (A) (A) (A) (A) (A) (A) (A) (A) (A)
                 (A) (A) (A) (A) (A) (A) (A) (A) (A) (A) (A) (A)
                 (A) (A) (A) (A) (A) (A) (A) (A) (A) (A) (A) (A)
                 (A) (A) (A) (A) (A) (A) (A) (A) (A) (A) (A) (A)
                 (A) (A) (A) (A) (A) (A) (A) (A) (A) (A) (A) (A)
                 (A) (A) (A) (A) (A) (A) (A) (A) (A) (A) (A) (A)
                 (A) (A) (A) (A) (A) (A) (A) (A) (A) (A)
 The electronic state is 1-A.
 Alpha  occ. eigenvalues --  -19.18068 -19.16110 -10.29116 -10.24844 -10.22651
 Alpha  occ. eigenvalues --  -10.19415 -10.19097 -10.19056 -10.19014 -10.18985
 Alpha  occ. eigenvalues --  -10.18874 -10.18637 -10.18629 -10.18503 -10.18494
 Alpha  occ. eigenvalues --  -10.18450 -10.18420  -1.08145  -1.02289  -0.85851
 Alpha  occ. eigenvalues --   -0.84595  -0.78571  -0.75010  -0.74216  -0.73966
 Alpha  occ. eigenvalues --   -0.71735  -0.67609  -0.64750  -0.60962  -0.59874
 Alpha  occ. eigenvalues --   -0.59025  -0.57171  -0.54395  -0.50860  -0.50414
 Alpha  occ. eigenvalues --   -0.49891  -0.47105  -0.46595  -0.45570  -0.44905
 Alpha  occ. eigenvalues --   -0.43908  -0.43188  -0.42127  -0.41847  -0.41528
 Alpha  occ. eigenvalues --   -0.41157  -0.38787  -0.37588  -0.37274  -0.35971
 Alpha  occ. eigenvalues --   -0.34773  -0.34121  -0.33665  -0.33351  -0.33016
 Alpha  occ. eigenvalues --   -0.30886  -0.27347  -0.25062  -0.24534  -0.23972
 Alpha  occ. eigenvalues --   -0.21505
 Alpha virt. eigenvalues --   -0.00684  -0.00220   0.00660   0.02004   0.07818
 Alpha virt. eigenvalues --    0.09715   0.10145   0.11227   0.12041   0.12764
 Alpha virt. eigenvalues --    0.13579   0.14797   0.15282   0.15973   0.16181
 Alpha virt. eigenvalues --    0.16653   0.16890   0.17153   0.17698   0.18572
 Alpha virt. eigenvalues --    0.18729   0.19930   0.20728   0.22095   0.22963
 Alpha virt. eigenvalues --    0.24592   0.25994   0.27323   0.30848   0.31978
 Alpha virt. eigenvalues --    0.32783   0.33795   0.34050   0.34362   0.35673
 Alpha virt. eigenvalues --    0.37300   0.44927   0.49411   0.50131   0.50357
 Alpha virt. eigenvalues --    0.50808   0.52676   0.53251   0.53693   0.54155
 Alpha virt. eigenvalues --    0.54913   0.55142   0.55895   0.56527   0.57365
 Alpha virt. eigenvalues --    0.58144   0.58368   0.58807   0.59370   0.59931
 Alpha virt. eigenvalues --    0.60627   0.61128   0.61374   0.61525   0.62269
 Alpha virt. eigenvalues --    0.63077   0.63697   0.64696   0.65727   0.66156
 Alpha virt. eigenvalues --    0.68647   0.69254   0.70849   0.74145   0.76202
 Alpha virt. eigenvalues --    0.77064   0.78692   0.80402   0.81271   0.82082
 Alpha virt. eigenvalues --    0.82981   0.83291   0.83591   0.84235   0.84414
 Alpha virt. eigenvalues --    0.84770   0.85189   0.85934   0.88400   0.89889
 Alpha virt. eigenvalues --    0.90231   0.90805   0.91080   0.93093   0.93423
 Alpha virt. eigenvalues --    0.94538   0.94784   0.96298   0.97352   0.98570
 Alpha virt. eigenvalues --    0.99513   1.00158   1.00658   1.03712   1.04707
 Alpha virt. eigenvalues --    1.07198   1.10405   1.13128   1.13754   1.14787
 Alpha virt. eigenvalues --    1.16423   1.16920   1.17469   1.17800   1.19148
 Alpha virt. eigenvalues --    1.25163   1.25999   1.27591   1.29153   1.32855
 Alpha virt. eigenvalues --    1.33944   1.35746   1.36928   1.41152   1.42808
 Alpha virt. eigenvalues --    1.43460   1.45465   1.46589   1.47678   1.48178
 Alpha virt. eigenvalues --    1.48536   1.49088   1.49589   1.50370   1.51431
 Alpha virt. eigenvalues --    1.51677   1.52053   1.55099   1.61421   1.68505
 Alpha virt. eigenvalues --    1.70037   1.73505   1.78285   1.80482   1.80655
 Alpha virt. eigenvalues --    1.83737   1.84241   1.86983   1.88365   1.88902
 Alpha virt. eigenvalues --    1.89681   1.90855   1.92776   1.94055   1.95560
 Alpha virt. eigenvalues --    1.96636   1.97364   1.98712   1.99016   2.02167
 Alpha virt. eigenvalues --    2.04881   2.05282   2.05942   2.07010   2.08975
 Alpha virt. eigenvalues --    2.10145   2.13153   2.13922   2.14354   2.14885
 Alpha virt. eigenvalues --    2.15782   2.15917   2.17733   2.19597   2.21748
 Alpha virt. eigenvalues --    2.24042   2.26067   2.27435   2.28330   2.29243
 Alpha virt. eigenvalues --    2.31175   2.32572   2.33193   2.37770   2.39897
 Alpha virt. eigenvalues --    2.41595   2.46528   2.48056   2.50224   2.55852
 Alpha virt. eigenvalues --    2.56514   2.57985   2.59478   2.62511   2.65887
 Alpha virt. eigenvalues --    2.66415   2.67220   2.70466   2.72523   2.73737
 Alpha virt. eigenvalues --    2.74523   2.74610   2.77286   2.77849   2.82102
 Alpha virt. eigenvalues --    2.84714   2.90501   2.94820   2.95735   3.04145
 Alpha virt. eigenvalues --    3.05615   3.20493   3.41317   3.43029   3.93497
 Alpha virt. eigenvalues --    4.08103   4.08965   4.10958   4.11614   4.12425
 Alpha virt. eigenvalues --    4.17096   4.23987   4.26598   4.32118   4.32457
 Alpha virt. eigenvalues --    4.34149   4.40532   4.43727   4.53594   4.71705
 Alpha virt. eigenvalues --    4.78132
          Condensed to atoms (all electrons):
              1          2          3          4          5          6
     1  C    4.898977   0.246394  -0.043082  -0.002493   0.000293   0.000017
     2  O    0.246394   8.154029   0.287475  -0.041381   0.001003   0.000008
     3  C   -0.043082   0.287475   4.671255   0.210756  -0.027483  -0.007222
     4  O   -0.002493  -0.041381   0.210756   8.284231   0.266005  -0.062196
     5  C    0.000293   0.001003  -0.027483   0.266005   4.507310   0.473005
     6  C    0.000017   0.000008  -0.007222  -0.062196   0.473005   5.111063
     7  C   -0.000000  -0.000001   0.000444   0.003410  -0.005182   0.479480
     8  C    0.000000  -0.000000  -0.000003   0.000181  -0.032398  -0.023438
     9  C   -0.000000   0.000001  -0.000072   0.003178  -0.017786  -0.044672
    10  C   -0.000038  -0.000105   0.002103  -0.053739   0.538724  -0.064636
    11  C    0.000000  -0.000000  -0.000000   0.000000   0.000410   0.006916
    12  C   -0.000000   0.000000  -0.000000  -0.000000   0.000015   0.000088
    13  C   -0.000000   0.000000   0.000000  -0.000000  -0.000001   0.000005
    14  C   -0.000000   0.000000  -0.000000   0.000000   0.000000  -0.000000
    15  C    0.000000  -0.000000   0.000000   0.000000   0.000000   0.000000
    16  C   -0.000000  -0.000000   0.000000   0.000000   0.000000  -0.000001
    17  C   -0.000000   0.000000   0.000000  -0.000000  -0.000001  -0.000054
    18  H    0.384022  -0.030889   0.005281   0.000103  -0.000009   0.000000
    19  H    0.359198  -0.040221  -0.006476  -0.001456   0.000066   0.000003
    20  H    0.372622  -0.036139  -0.010472   0.011305  -0.000076   0.000042
    21  H   -0.011191  -0.040931   0.351182  -0.049608  -0.001858   0.005527
    22  H    0.006781  -0.033699   0.372733  -0.038902  -0.003167   0.004863
    23  H    0.000015  -0.000047   0.004080  -0.006916  -0.047124   0.351125
    24  H    0.000000  -0.000000  -0.000015  -0.000046   0.003123  -0.041577
    25  H   -0.000000  -0.000000   0.000002  -0.000061   0.004210   0.000196
    26  H   -0.000005  -0.000017  -0.000277  -0.000662  -0.037839   0.007150
    27  H    0.000000  -0.000000   0.000000  -0.000000   0.000007   0.000236
    28  H    0.000000   0.000000   0.000000  -0.000000   0.000006  -0.000192
    29  H    0.000000  -0.000000   0.000000  -0.000000   0.000000  -0.000000
    30  H    0.000000  -0.000000   0.000000   0.000000  -0.000000   0.000000
    31  H   -0.000000  -0.000000  -0.000000  -0.000000   0.000000  -0.000000
    32  H    0.000000  -0.000000   0.000000   0.000000  -0.000000   0.000000
    33  H    0.000000  -0.000000   0.000000  -0.000000   0.000000   0.000037
              7          8          9         10         11         12
     1  C   -0.000000   0.000000  -0.000000  -0.000038   0.000000  -0.000000
     2  O   -0.000001  -0.000000   0.000001  -0.000105  -0.000000   0.000000
     3  C    0.000444  -0.000003  -0.000072   0.002103  -0.000000  -0.000000
     4  O    0.003410   0.000181   0.003178  -0.053739   0.000000  -0.000000
     5  C   -0.005182  -0.032398  -0.017786   0.538724   0.000410   0.000015
     6  C    0.479480  -0.023438  -0.044672  -0.064636   0.006916   0.000088
     7  C    4.965969   0.554608  -0.036506  -0.042505  -0.055304  -0.004789
     8  C    0.554608   4.652990   0.544928  -0.025088   0.344833  -0.051545
     9  C   -0.036506   0.544928   4.955789   0.508782  -0.055258  -0.004247
    10  C   -0.042505  -0.025088   0.508782   5.002726   0.006498   0.000059
    11  C   -0.055304   0.344833  -0.055258   0.006498   5.304954   0.343009
    12  C   -0.004789  -0.051545  -0.004247   0.000059   0.343009   4.650222
    13  C   -0.000224  -0.004384   0.002168  -0.000047  -0.054965   0.548807
    14  C    0.000003   0.000051  -0.000051  -0.000000   0.006345  -0.019560
    15  C    0.000000   0.000017   0.000000   0.000000   0.000432  -0.035044
    16  C   -0.000066   0.000064   0.000005  -0.000000   0.006353  -0.019512
    17  C    0.002251  -0.005034  -0.000195   0.000005  -0.055151   0.548318
    18  H   -0.000000  -0.000000   0.000000  -0.000000  -0.000000  -0.000000
    19  H   -0.000000  -0.000000   0.000000  -0.000004   0.000000   0.000000
    20  H   -0.000001   0.000000  -0.000001   0.000063  -0.000000  -0.000000
    21  H   -0.000092  -0.000001  -0.000002   0.000070   0.000000   0.000000
    22  H   -0.000119  -0.000007   0.000010  -0.000186  -0.000000  -0.000000
    23  H   -0.035214   0.003513   0.000845   0.004296  -0.000185  -0.000001
    24  H    0.352908  -0.041486   0.005815   0.000551  -0.008773  -0.000106
    25  H    0.006180  -0.044187   0.354660  -0.042551  -0.009065  -0.000061
    26  H    0.000344   0.004145  -0.039411   0.344561  -0.000165  -0.000000
    27  H   -0.006544  -0.032557   0.004087  -0.000197   0.352317  -0.033281
    28  H    0.004245  -0.032557  -0.006225   0.000251   0.352102  -0.032669
    29  H    0.000006  -0.000125   0.000638   0.000029  -0.008953  -0.045337
    30  H    0.000000  -0.000000   0.000002   0.000000  -0.000184   0.003741
    31  H   -0.000000   0.000000  -0.000000  -0.000000   0.000008   0.000740
    32  H    0.000002  -0.000000   0.000000   0.000000  -0.000184   0.003748
    33  H    0.000638  -0.000173   0.000001  -0.000000  -0.008966  -0.045557
             13         14         15         16         17         18
     1  C   -0.000000  -0.000000   0.000000  -0.000000  -0.000000   0.384022
     2  O    0.000000   0.000000  -0.000000  -0.000000   0.000000  -0.030889
     3  C    0.000000  -0.000000   0.000000   0.000000   0.000000   0.005281
     4  O   -0.000000   0.000000   0.000000   0.000000  -0.000000   0.000103
     5  C   -0.000001   0.000000   0.000000   0.000000  -0.000001  -0.000009
     6  C    0.000005  -0.000000   0.000000  -0.000001  -0.000054   0.000000
     7  C   -0.000224   0.000003   0.000000  -0.000066   0.002251  -0.000000
     8  C   -0.004384   0.000051   0.000017   0.000064  -0.005034  -0.000000
     9  C    0.002168  -0.000051   0.000000   0.000005  -0.000195   0.000000
    10  C   -0.000047  -0.000000   0.000000  -0.000000   0.000005  -0.000000
    11  C   -0.054965   0.006345   0.000432   0.006353  -0.055151  -0.000000
    12  C    0.548807  -0.019560  -0.035044  -0.019512   0.548318  -0.000000
    13  C    4.962195   0.523215  -0.036294  -0.045622  -0.041198  -0.000000
    14  C    0.523215   4.864364   0.553579  -0.026907  -0.045658  -0.000000
    15  C   -0.036294   0.553579   4.849124   0.553371  -0.036309   0.000000
    16  C   -0.045622  -0.026907   0.553371   4.864429   0.523530  -0.000000
    17  C   -0.041198  -0.045658  -0.036309   0.523530   4.963472  -0.000000
    18  H   -0.000000  -0.000000   0.000000  -0.000000  -0.000000   0.549174
    19  H   -0.000000  -0.000000   0.000000   0.000000  -0.000000  -0.034264
    20  H    0.000000   0.000000  -0.000000   0.000000   0.000000  -0.034223
    21  H    0.000000   0.000000  -0.000000   0.000000   0.000000  -0.000277
    22  H   -0.000000  -0.000000   0.000000  -0.000000  -0.000000  -0.000149
    23  H    0.000000   0.000000  -0.000000   0.000000   0.000002  -0.000000
    24  H    0.000007  -0.000000   0.000000   0.000035   0.000759   0.000000
    25  H    0.000559   0.000024   0.000000  -0.000000   0.000005  -0.000000
    26  H    0.000002   0.000000  -0.000000   0.000000   0.000000  -0.000000
    27  H    0.004313  -0.000198   0.000007   0.000225  -0.006475   0.000000
    28  H   -0.006412   0.000218   0.000007  -0.000198   0.004341   0.000000
    29  H    0.354160  -0.045936   0.004844   0.000401   0.005865   0.000000
    30  H   -0.039770   0.355733  -0.043374   0.004668   0.000862   0.000000
    31  H    0.004796  -0.043643   0.358210  -0.043698   0.004803  -0.000000
    32  H    0.000856   0.004672  -0.043377   0.355653  -0.039919   0.000000
    33  H    0.005876   0.000402   0.004860  -0.046091   0.353926   0.000000
             19         20         21         22         23         24
     1  C    0.359198   0.372622  -0.011191   0.006781   0.000015   0.000000
     2  O   -0.040221  -0.036139  -0.040931  -0.033699  -0.000047  -0.000000
     3  C   -0.006476  -0.010472   0.351182   0.372733   0.004080  -0.000015
     4  O   -0.001456   0.011305  -0.049608  -0.038902  -0.006916  -0.000046
     5  C    0.000066  -0.000076  -0.001858  -0.003167  -0.047124   0.003123
     6  C    0.000003   0.000042   0.005527   0.004863   0.351125  -0.041577
     7  C   -0.000000  -0.000001  -0.000092  -0.000119  -0.035214   0.352908
     8  C   -0.000000   0.000000  -0.000001  -0.000007   0.003513  -0.041486
     9  C    0.000000  -0.000001  -0.000002   0.000010   0.000845   0.005815
    10  C   -0.000004   0.000063   0.000070  -0.000186   0.004296   0.000551
    11  C    0.000000  -0.000000   0.000000  -0.000000  -0.000185  -0.008773
    12  C    0.000000  -0.000000   0.000000  -0.000000  -0.000001  -0.000106
    13  C   -0.000000   0.000000   0.000000  -0.000000   0.000000   0.000007
    14  C   -0.000000   0.000000   0.000000  -0.000000   0.000000  -0.000000
    15  C    0.000000  -0.000000  -0.000000   0.000000  -0.000000   0.000000
    16  C    0.000000   0.000000   0.000000  -0.000000   0.000000   0.000035
    17  C   -0.000000   0.000000   0.000000  -0.000000   0.000002   0.000759
    18  H   -0.034264  -0.034223  -0.000277  -0.000149  -0.000000   0.000000
    19  H    0.621102  -0.044391   0.014256  -0.000260   0.000002   0.000000
    20  H   -0.044391   0.579402  -0.001191   0.000140   0.000003   0.000000
    21  H    0.014256  -0.001191   0.663947  -0.061486   0.001836  -0.000000
    22  H   -0.000260   0.000140  -0.061486   0.598582   0.001139   0.000000
    23  H    0.000002   0.000003   0.001836   0.001139   0.594675  -0.005609
    24  H    0.000000   0.000000  -0.000000   0.000000  -0.005609   0.602054
    25  H   -0.000000   0.000000  -0.000000  -0.000000   0.000017  -0.000182
    26  H    0.000000   0.000156   0.000022   0.000016  -0.000167   0.000016
    27  H   -0.000000   0.000000  -0.000000   0.000000  -0.000008   0.004669
    28  H   -0.000000   0.000000  -0.000000   0.000000   0.000003   0.000038
    29  H   -0.000000   0.000000  -0.000000   0.000000   0.000000  -0.000002
    30  H   -0.000000  -0.000000  -0.000000   0.000000  -0.000000   0.000000
    31  H    0.000000   0.000000   0.000000  -0.000000   0.000000  -0.000000
    32  H   -0.000000  -0.000000  -0.000000   0.000000  -0.000000  -0.000002
    33  H   -0.000000   0.000000  -0.000000   0.000000  -0.000002   0.001452
             25         26         27         28         29         30
     1  C   -0.000000  -0.000005   0.000000   0.000000   0.000000   0.000000
     2  O   -0.000000  -0.000017  -0.000000   0.000000  -0.000000  -0.000000
     3  C    0.000002  -0.000277   0.000000   0.000000   0.000000   0.000000
     4  O   -0.000061  -0.000662  -0.000000  -0.000000  -0.000000   0.000000
     5  C    0.004210  -0.037839   0.000007   0.000006   0.000000  -0.000000
     6  C    0.000196   0.007150   0.000236  -0.000192  -0.000000   0.000000
     7  C    0.006180   0.000344  -0.006544   0.004245   0.000006   0.000000
     8  C   -0.044187   0.004145  -0.032557  -0.032557  -0.000125  -0.000000
     9  C    0.354660  -0.039411   0.004087  -0.006225   0.000638   0.000002
    10  C   -0.042551   0.344561  -0.000197   0.000251   0.000029   0.000000
    11  C   -0.009065  -0.000165   0.352317   0.352102  -0.008953  -0.000184
    12  C   -0.000061  -0.000000  -0.033281  -0.032669  -0.045337   0.003741
    13  C    0.000559   0.000002   0.004313  -0.006412   0.354160  -0.039770
    14  C    0.000024   0.000000  -0.000198   0.000218  -0.045936   0.355733
    15  C    0.000000  -0.000000   0.000007   0.000007   0.004844  -0.043374
    16  C   -0.000000   0.000000   0.000225  -0.000198   0.000401   0.004668
    17  C    0.000005   0.000000  -0.006475   0.004341   0.005865   0.000862
    18  H   -0.000000  -0.000000   0.000000   0.000000   0.000000   0.000000
    19  H   -0.000000   0.000000  -0.000000  -0.000000  -0.000000  -0.000000
    20  H    0.000000   0.000156   0.000000   0.000000   0.000000  -0.000000
    21  H   -0.000000   0.000022  -0.000000  -0.000000  -0.000000  -0.000000
    22  H   -0.000000   0.000016   0.000000   0.000000   0.000000   0.000000
    23  H    0.000017  -0.000167  -0.000008   0.000003   0.000000  -0.000000
    24  H   -0.000182   0.000016   0.004669   0.000038  -0.000002   0.000000
    25  H    0.603963  -0.006223   0.000038   0.005001   0.001138  -0.000002
    26  H   -0.006223   0.590871   0.000003  -0.000008  -0.000002  -0.000000
    27  H    0.000038   0.000003   0.592119  -0.036115   0.000057   0.000003
    28  H    0.005001  -0.000008  -0.036115   0.591033   0.004895  -0.000007
    29  H    0.001138  -0.000002   0.000057   0.004895   0.612682  -0.005594
    30  H   -0.000002  -0.000000   0.000003  -0.000007  -0.005594   0.602100
    31  H   -0.000000   0.000000  -0.000000  -0.000000  -0.000190  -0.005768
    32  H   -0.000000  -0.000000  -0.000007   0.000003   0.000018  -0.000193
    33  H   -0.000001  -0.000000   0.004847   0.000056  -0.000168   0.000018
             31         32         33
     1  C   -0.000000   0.000000   0.000000
     2  O   -0.000000  -0.000000  -0.000000
     3  C   -0.000000   0.000000   0.000000
     4  O   -0.000000   0.000000  -0.000000
     5  C    0.000000  -0.000000   0.000000
     6  C   -0.000000   0.000000   0.000037
     7  C   -0.000000   0.000002   0.000638
     8  C    0.000000  -0.000000  -0.000173
     9  C   -0.000000   0.000000   0.000001
    10  C   -0.000000   0.000000  -0.000000
    11  C    0.000008  -0.000184  -0.008966
    12  C    0.000740   0.003748  -0.045557
    13  C    0.004796   0.000856   0.005876
    14  C   -0.043643   0.004672   0.000402
    15  C    0.358210  -0.043377   0.004860
    16  C   -0.043698   0.355653  -0.046091
    17  C    0.004803  -0.039919   0.353926
    18  H   -0.000000   0.000000   0.000000
    19  H    0.000000  -0.000000  -0.000000
    20  H    0.000000  -0.000000   0.000000
    21  H    0.000000  -0.000000  -0.000000
    22  H   -0.000000   0.000000   0.000000
    23  H    0.000000  -0.000000  -0.000002
    24  H   -0.000000  -0.000002   0.001452
    25  H   -0.000000  -0.000000  -0.000001
    26  H    0.000000  -0.000000  -0.000000
    27  H   -0.000000  -0.000007   0.004847
    28  H   -0.000000   0.000003   0.000056
    29  H   -0.000190   0.000018  -0.000168
    30  H   -0.005768  -0.000193   0.000018
    31  H    0.604462  -0.005774  -0.000191
    32  H   -0.005774   0.602817  -0.005626
    33  H   -0.000191  -0.005626   0.614152
 Mulliken atomic charges:
              1
     1  C   -0.211511
     2  O   -0.465481
     3  C    0.189792
     4  O   -0.521710
     5  C    0.378742
     6  C   -0.195774
     7  C   -0.183942
     8  C    0.187652
     9  C   -0.176482
    10  C   -0.179621
    11  C   -0.467024
    12  C    0.192963
    13  C   -0.178043
    14  C   -0.126651
    15  C   -0.130054
    16  C   -0.126639
    17  C   -0.178146
    18  H    0.161233
    19  H    0.132445
    20  H    0.162764
    21  H    0.129798
    22  H    0.153712
    23  H    0.133722
    24  H    0.126372
    25  H    0.126342
    26  H    0.137491
    27  H    0.152452
    28  H    0.152184
    29  H    0.121575
    30  H    0.127765
    31  H    0.126248
    32  H    0.127313
    33  H    0.120511
 Sum of Mulliken atomic charges =  -0.00000
 Mulliken charges with hydrogens summed into heavy atoms:
              1
     1  C    0.244931
     2  O   -0.465481
     3  C    0.473302
     4  O   -0.521710
     5  C    0.378742
     6  C   -0.062051
     7  C   -0.057570
     8  C    0.187652
     9  C   -0.050140
    10  C   -0.042130
    11  C   -0.162388
    12  C    0.192963
    13  C   -0.056467
    14  C    0.001114
    15  C   -0.003806
    16  C    0.000674
    17  C   -0.057635
 Sum of Mulliken charges with hydrogens summed into heavy atoms =  -0.00000
 Electronic spatial extent (au):  <R**2>=           6537.5915
 Charge=             -0.0000 electrons
 Dipole moment (field-independent basis, Debye):
    X=              0.8172    Y=              0.9671    Z=             -0.2496  Tot=              1.2905
 Quadrupole moment (field-independent basis, Debye-Ang):
   XX=           -104.8813   YY=            -97.2180   ZZ=            -90.6883
   XY=             -4.3392   XZ=             -0.2071   YZ=             -1.2173
 Traceless Quadrupole moment (field-independent basis, Debye-Ang):
   XX=             -7.2854   YY=              0.3778   ZZ=              6.9076
   XY=             -4.3392   XZ=             -0.2071   YZ=             -1.2173
 Octapole moment (field-independent basis, Debye-Ang**2):
  XXX=             -7.9802  YYY=             12.4462  ZZZ=              0.8310  XYY=            -12.1257
  XXY=             52.6070  XXZ=             26.1049  XZZ=            -10.4958  YZZ=              0.5140
  YYZ=              4.0480  XYZ=             -9.4525
 Hexadecapole moment (field-independent basis, Debye-Ang**3):
 XXXX=          -7594.4316 YYYY=           -798.8233 ZZZZ=           -631.0832 XXXY=            -31.1645
 XXXZ=            -93.0954 YYYX=            -26.3014 YYYZ=             -7.4144 ZZZX=              5.1425
 ZZZY=            -12.0678 XXYY=          -1221.6807 XXZZ=          -1218.5100 YYZZ=           -237.0255
 XXYZ=             47.7852 YYXZ=            -15.3842 ZZXY=              0.2998
 N-N= 1.085958895636D+03 E-N=-3.871633702422D+03  KE= 7.247169067581D+02
 No NMR shielding tensors so no spin-rotation constants.
 Leave Link  601 at Thu Sep 30 17:34:52 2021, MaxMem= 1342177280 cpu:       1.8
 (Enter /sw/target/amd/app/gaussian/Gaussian09RevA.02_gcc-4.9.2/g09/l701.exe)
 Compute integral first derivatives.
 ... and contract with generalized density number  0.
 Leave Link  701 at Thu Sep 30 17:34:54 2021, MaxMem= 1342177280 cpu:       1.6
 (Enter /sw/target/amd/app/gaussian/Gaussian09RevA.02_gcc-4.9.2/g09/l702.exe)
 L702 exits ... SP integral derivatives will be done elsewhere.
 Leave Link  702 at Thu Sep 30 17:34:54 2021, MaxMem= 1342177280 cpu:       0.1
 (Enter /sw/target/amd/app/gaussian/Gaussian09RevA.02_gcc-4.9.2/g09/l703.exe)
 Compute integral first derivatives, UseDBF=F ICtDFT=           0.
 Integral derivatives from FoFDir, PRISM(SPDF).
 Calling FoFJK, ICntrl=      2127 FMM=F ISym2X=0 I1Cent= 0 IOpClX= 0 NMat=1 NMatS=1 NMatT=0.
 FoFCou: FMM=F IPFlag=           0 FMFlag=      100000 FMFlg1=         800
         NFxFlg=           0 DoJE=F BraDBF=F KetDBF=F FulRan=T
         Omega=  0.000000  0.000000  1.000000  0.000000  0.000000 ICntrl=    2127 IOpCl=  0
         NMat0=    1 NMatS0=    1 NMatT0=    0 NMatD0=    1 NMtDS0=    0 NMtDT0=    0
         I1Cent=           0 NGrid=           0.
 Symmetry not used in FoFCou.
 Leave Link  703 at Thu Sep 30 17:36:42 2021, MaxMem= 1342177280 cpu:     114.8
 (Enter /sw/target/amd/app/gaussian/Gaussian09RevA.02_gcc-4.9.2/g09/l716.exe)
 Dipole        = 3.21509689D-01 3.80494224D-01-9.81907781D-02
 ***** Axes restored to original set *****
 -------------------------------------------------------------------
 Center     Atomic                   Forces (Hartrees/Bohr)
 Number     Number              X              Y              Z
 -------------------------------------------------------------------
      1        6           0.000738832    0.003016856   -0.002821267
      2        8           0.013825708    0.000623309    0.024622673
      3        6          -0.015328135    0.006707955   -0.019331343
      4        8          -0.010729242   -0.005425276   -0.005988760
      5        6           0.007054969    0.003528296   -0.002553179
      6        6          -0.005900789   -0.005804043    0.005951647
      7        6           0.005063785    0.005498168   -0.006128229
      8        6          -0.003163069   -0.001733819    0.002338561
      9        6          -0.008849317   -0.000770245   -0.006642269
     10        6           0.012124428    0.003105172    0.004240097
     11        6          -0.000518330    0.006563471    0.007950733
     12        6           0.001859038   -0.003008599    0.000866079
     13        6           0.000294487   -0.003727671    0.001131008
     14        6          -0.000677544    0.001594765   -0.000918582
     15        6           0.002285629   -0.003112220   -0.000147834
     16        6          -0.001911840    0.000761921   -0.000313026
     17        6           0.003786161   -0.001006323   -0.000880315
     18        1          -0.003226413    0.001110460    0.001896848
     19        1           0.002260287   -0.004246431    0.000016180
     20        1           0.001727407   -0.001895569    0.000058960
     21        1           0.005421638   -0.002786624    0.002028553
     22        1          -0.001405602    0.000802704   -0.001868639
     23        1          -0.000420334    0.000843096   -0.002172212
     24        1           0.000264717    0.000763867   -0.000094092
     25        1          -0.000498663    0.000006080    0.000906818
     26        1          -0.002950719   -0.001165606   -0.000246274
     27        1          -0.000651029   -0.002298452   -0.001020587
     28        1           0.001016001   -0.001016169   -0.002438491
     29        1          -0.001263071    0.001022102    0.000821443
     30        1           0.000317796    0.000363884   -0.000118716
     31        1           0.000069924    0.000064821    0.000190712
     32        1          -0.000306244   -0.000106015    0.000327563
     33        1          -0.000310465    0.001726138    0.000335938
[...]
    14    C    1  dx2y2  Ryd( 3d)     0.00102
    15    C    1  dz2    Ryd( 3d)     0.00206

    16    O    2  S      Cor( 1S)     1.99980
    17    O    2  S      Val( 2S)     1.61575
    18    O    2  S      Ryd( 3S)     0.00124
    19    O    2  S      Ryd( 4S)     0.00003
    20    O    2  px     Val( 2p)     1.53431
    21    O    2  px     Ryd( 3p)     0.00146
    22    O    2  py     Val( 2p)     1.84212
    23    O    2  py     Ryd( 3p)     0.00248
    24    O    2  pz     Val( 2p)     1.55481
    25    O    2  pz     Ryd( 3p)     0.00148
    26    O    2  dxy    Ryd( 3d)     0.00128
    27    O    2  dxz    Ryd( 3d)     0.00157
    28    O    2  dyz    Ryd( 3d)     0.00082
    29    O    2  dx2y2  Ryd( 3d)     0.00114
    30    O    2  dz2    Ryd( 3d)     0.00106

    31    C    3  S      Cor( 1S)     1.99939
    32    C    3  S      Val( 2S)     1.00370
    33    C    3  S      Ryd( 3S)     0.00402
    34    C    3  S      Ryd( 4S)     0.00010
    35    C    3  px     Val( 2p)     0.75327
    36    C    3  px     Ryd( 3p)     0.00596
    37    C    3  py     Val( 2p)     0.96129
    38    C    3  py     Ryd( 3p)     0.00261
    39    C    3  pz     Val( 2p)     1.04767
    40    C    3  pz     Ryd( 3p)     0.00380
    41    C    3  dxy    Ryd( 3d)     0.00298
    42    C    3  dxz    Ryd( 3d)     0.00185
    43    C    3  dyz    Ryd( 3d)     0.00145
    44    C    3  dx2y2  Ryd( 3d)     0.00218
    45    C    3  dz2    Ryd( 3d)     0.00229

    46    O    4  S      Cor( 1S)     1.99973
    47    O    4  S      Val( 2S)     1.60723
    48    O    4  S      Ryd( 3S)     0.00102
    49    O    4  S      Ryd( 4S)     0.00008
    50    O    4  px     Val( 2p)     1.51663
    51    O    4  px     Ryd( 3p)     0.00122
    52    O    4  py     Val( 2p)     1.62268
    53    O    4  py     Ryd( 3p)     0.00185
    54    O    4  pz     Val( 2p)     1.70453
    55    O    4  pz     Ryd( 3p)     0.00229
    56    O    4  dxy    Ryd( 3d)     0.00119
    57    O    4  dxz    Ryd( 3d)     0.00109
    58    O    4  dyz    Ryd( 3d)     0.00106
    59    O    4  dx2y2  Ryd( 3d)     0.00097
    60    O    4  dz2    Ryd( 3d)     0.00115

    61    C    5  S      Cor( 1S)     1.99879
    62    C    5  S      Val( 2S)     0.84255
    63    C    5  S      Ryd( 3S)     0.00155
    64    C    5  S      Ryd( 4S)     0.00012
    65    C    5  px     Val( 2p)     0.75096
    66    C    5  px     Ryd( 3p)     0.00758
    67    C    5  py     Val( 2p)     1.01148
    68    C    5  py     Ryd( 3p)     0.00309
    69    C    5  pz     Val( 2p)     1.03583
    70    C    5  pz     Ryd( 3p)     0.00384
    71    C    5  dxy    Ryd( 3d)     0.00148
    72    C    5  dxz    Ryd( 3d)     0.00147
    73    C    5  dyz    Ryd( 3d)     0.00053
    74    C    5  dx2y2  Ryd( 3d)     0.00171
    75    C    5  dz2    Ryd( 3d)     0.00148

    76    C    6  S      Cor( 1S)     1.99905
    77    C    6  S      Val( 2S)     0.95708
    78    C    6  S      Ryd( 3S)     0.00066
    79    C    6  S      Ryd( 4S)     0.00005
    80    C    6  px     Val( 2p)     1.08811
    81    C    6  px     Ryd( 3p)     0.00412
    82    C    6  py     Val( 2p)     1.14437
    83    C    6  py     Ryd( 3p)     0.00468
    84    C    6  pz     Val( 2p)     1.13664
    85    C    6  pz     Ryd( 3p)     0.00448
    86    C    6  dxy    Ryd( 3d)     0.00069
    87    C    6  dxz    Ryd( 3d)     0.00070
    88    C    6  dyz    Ryd( 3d)     0.00060
    89    C    6  dx2y2  Ryd( 3d)     0.00042
    90    C    6  dz2    Ryd( 3d)     0.00043

    91    C    7  S      Cor( 1S)     1.99905
    92    C    7  S      Val( 2S)     0.94909
    93    C    7  S      Ryd( 3S)     0.00078
    94    C    7  S      Ryd( 4S)     0.00005
    95    C    7  px     Val( 2p)     1.10161
    96    C    7  px     Ryd( 3p)     0.00407
    97    C    7  py     Val( 2p)     1.07704
    98    C    7  py     Ryd( 3p)     0.00548
    99    C    7  pz     Val( 2p)     1.11742
   100    C    7  pz     Ryd( 3p)     0.00539
   101    C    7  dxy    Ryd( 3d)     0.00063
   102    C    7  dxz    Ryd( 3d)     0.00074
   103    C    7  dyz    Ryd( 3d)     0.00052
   104    C    7  dx2y2  Ryd( 3d)     0.00056
   105    C    7  dz2    Ryd( 3d)     0.00045

   106    C    8  S      Cor( 1S)     1.99903
   107    C    8  S      Val( 2S)     0.89347
   108    C    8  S      Ryd( 3S)     0.00088
   109    C    8  S      Ryd( 4S)     0.00005
   110    C    8  px     Val( 2p)     1.04365
   111    C    8  px     Ryd( 3p)     0.00497
   112    C    8  py     Val( 2p)     0.98805
   113    C    8  py     Ryd( 3p)     0.00386
   114    C    8  pz     Val( 2p)     1.00646
   115    C    8  pz     Ryd( 3p)     0.00373
   116    C    8  dxy    Ryd( 3d)     0.00071
   117    C    8  dxz    Ryd( 3d)     0.00071
   118    C    8  dyz    Ryd( 3d)     0.00047
   119    C    8  dx2y2  Ryd( 3d)     0.00066
   120    C    8  dz2    Ryd( 3d)     0.00098

   121    C    9  S      Cor( 1S)     1.99906
   122    C    9  S      Val( 2S)     0.94975
   123    C    9  S      Ryd( 3S)     0.00058
   124    C    9  S      Ryd( 4S)     0.00005
   125    C    9  px     Val( 2p)     1.07100
   126    C    9  px     Ryd( 3p)     0.00422
   127    C    9  py     Val( 2p)     1.12316
   128    C    9  py     Ryd( 3p)     0.00510
   129    C    9  pz     Val( 2p)     1.12250
   130    C    9  pz     Ryd( 3p)     0.00528
   131    C    9  dxy    Ryd( 3d)     0.00068
   132    C    9  dxz    Ryd( 3d)     0.00065
   133    C    9  dyz    Ryd( 3d)     0.00062
   134    C    9  dx2y2  Ryd( 3d)     0.00052
   135    C    9  dz2    Ryd( 3d)     0.00044

   136    C   10  S      Cor( 1S)     1.99906
   137    C   10  S      Val( 2S)     0.95960
   138    C   10  S      Ryd( 3S)     0.00087
   139    C   10  S      Ryd( 4S)     0.00005
   140    C   10  px     Val( 2p)     1.11915
   141    C   10  px     Ryd( 3p)     0.00527
   142    C   10  py     Val( 2p)     1.08337
   143    C   10  py     Ryd( 3p)     0.00563
   144    C   10  pz     Val( 2p)     1.11629
   145    C   10  pz     Ryd( 3p)     0.00527
   146    C   10  dxy    Ryd( 3d)     0.00057
   147    C   10  dxz    Ryd( 3d)     0.00076
   148    C   10  dyz    Ryd( 3d)     0.00053
   149    C   10  dx2y2  Ryd( 3d)     0.00056
   150    C   10  dz2    Ryd( 3d)     0.00044

   151    C   11  S      Cor( 1S)     1.99921
   152    C   11  S      Val( 2S)     1.02292
   153    C   11  S      Ryd( 3S)     0.00064
   154    C   11  S      Ryd( 4S)     0.00001
   155    C   11  px     Val( 2p)     1.04769
   156    C   11  px     Ryd( 3p)     0.00179
   157    C   11  py     Val( 2p)     1.14779
   158    C   11  py     Ryd( 3p)     0.00272
   159    C   11  pz     Val( 2p)     1.25422
   160    C   11  pz     Ryd( 3p)     0.00568
   161    C   11  dxy    Ryd( 3d)     0.00069
   162    C   11  dxz    Ryd( 3d)     0.00042
   163    C   11  dyz    Ryd( 3d)     0.00111
   164    C   11  dx2y2  Ryd( 3d)     0.00078
   165    C   11  dz2    Ryd( 3d)     0.00065

   166    C   12  S      Cor( 1S)     1.99900
   167    C   12  S      Val( 2S)     0.88179
   168    C   12  S      Ryd( 3S)     0.00110
   169    C   12  S      Ryd( 4S)     0.00005
   170    C   12  px     Val( 2p)     1.03261
   171    C   12  px     Ryd( 3p)     0.00494
   172    C   12  py     Val( 2p)     1.04237
   173    C   12  py     Ryd( 3p)     0.00379
   174    C   12  pz     Val( 2p)     1.06688
   175    C   12  pz     Ryd( 3p)     0.00385
   176    C   12  dxy    Ryd( 3d)     0.00055
   177    C   12  dxz    Ryd( 3d)     0.00052
   178    C   12  dyz    Ryd( 3d)     0.00065
   179    C   12  dx2y2  Ryd( 3d)     0.00060
   180    C   12  dz2    Ryd( 3d)     0.00065

   181    C   13  S      Cor( 1S)     1.99902
   182    C   13  S      Val( 2S)     0.95154
   183    C   13  S      Ryd( 3S)     0.00067
   184    C   13  S      Ryd( 4S)     0.00005
   185    C   13  px     Val( 2p)     1.10490
   186    C   13  px     Ryd( 3p)     0.00295
   187    C   13  py     Val( 2p)     1.04204
   188    C   13  py     Ryd( 3p)     0.00287
   189    C   13  pz     Val( 2p)     1.10837
   190    C   13  pz     Ryd( 3p)     0.00372
   191    C   13  dxy    Ryd( 3d)     0.00046
   192    C   13  dxz    Ryd( 3d)     0.00080
   193    C   13  dyz    Ryd( 3d)     0.00048
   194    C   13  dx2y2  Ryd( 3d)     0.00062
   195    C   13  dz2    Ryd( 3d)     0.00049

   196    C   14  S      Cor( 1S)     1.99910
   197    C   14  S      Val( 2S)     0.95761
   198    C   14  S      Ryd( 3S)     0.00059
   199    C   14  S      Ryd( 4S)     0.00003
   200    C   14  px     Val( 2p)     1.04822
   201    C   14  px     Ryd( 3p)     0.00355
   202    C   14  py     Val( 2p)     1.09990
   203    C   14  py     Ryd( 3p)     0.00381
   204    C   14  pz     Val( 2p)     1.13226
   205    C   14  pz     Ryd( 3p)     0.00412
   206    C   14  dxy    Ryd( 3d)     0.00044
   207    C   14  dxz    Ryd( 3d)     0.00046
   208    C   14  dyz    Ryd( 3d)     0.00077
   209    C   14  dx2y2  Ryd( 3d)     0.00056
   210    C   14  dz2    Ryd( 3d)     0.00051

   211    C   15  S      Cor( 1S)     1.99909
   212    C   15  S      Val( 2S)     0.96171
   213    C   15  S      Ryd( 3S)     0.00052
   214    C   15  S      Ryd( 4S)     0.00003
   215    C   15  px     Val( 2p)     1.09507
   216    C   15  px     Ryd( 3p)     0.00336
   217    C   15  py     Val( 2p)     1.12022
   218    C   15  py     Ryd( 3p)     0.00364
   219    C   15  pz     Val( 2p)     1.04803
   220    C   15  pz     Ryd( 3p)     0.00355
   221    C   15  dxy    Ryd( 3d)     0.00077
   222    C   15  dxz    Ryd( 3d)     0.00047
   223    C   15  dyz    Ryd( 3d)     0.00049
   224    C   15  dx2y2  Ryd( 3d)     0.00041
   225    C   15  dz2    Ryd( 3d)     0.00068

   226    C   16  S      Cor( 1S)     1.99910
   227    C   16  S      Val( 2S)     0.95958
   228    C   16  S      Ryd( 3S)     0.00057
   229    C   16  S      Ryd( 4S)     0.00003
   230    C   16  px     Val( 2p)     1.10130
   231    C   16  px     Ryd( 3p)     0.00342
   232    C   16  py     Val( 2p)     1.04184
   233    C   16  py     Ryd( 3p)     0.00335
   234    C   16  pz     Val( 2p)     1.11114
   235    C   16  pz     Ryd( 3p)     0.00395
   236    C   16  dxy    Ryd( 3d)     0.00048
   237    C   16  dxz    Ryd( 3d)     0.00080
   238    C   16  dyz    Ryd( 3d)     0.00046
   239    C   16  dx2y2  Ryd( 3d)     0.00059
   240    C   16  dz2    Ryd( 3d)     0.00051

   241    C   17  S      Cor( 1S)     1.99902
   242    C   17  S      Val( 2S)     0.94828
   243    C   17  S      Ryd( 3S)     0.00056
   244    C   17  S      Ryd( 4S)     0.00004
   245    C   17  px     Val( 2p)     1.05572
   246    C   17  px     Ryd( 3p)     0.00313
   247    C   17  py     Val( 2p)     1.10858
   248    C   17  py     Ryd( 3p)     0.00327
   249    C   17  pz     Val( 2p)     1.13027
   250    C   17  pz     Ryd( 3p)     0.00419
   251    C   17  dxy    Ryd( 3d)     0.00044
   252    C   17  dxz    Ryd( 3d)     0.00046
   253    C   17  dyz    Ryd( 3d)     0.00079
   254    C   17  dx2y2  Ryd( 3d)     0.00055
   255    C   17  dz2    Ryd( 3d)     0.00049

   256    H   18  S      Val( 1S)     0.77330
   257    H   18  S      Ryd( 2S)     0.00057

   258    H   19  S      Val( 1S)     0.80431
   259    H   19  S      Ryd( 2S)     0.00173

   260    H   20  S      Val( 1S)     0.78700
   261    H   20  S      Ryd( 2S)     0.00179

   262    H   21  S      Val( 1S)     0.80841
   263    H   21  S      Ryd( 2S)     0.00317

   264    H   22  S      Val( 1S)     0.77761
   265    H   22  S      Ryd( 2S)     0.00184

   266    H   23  S      Val( 1S)     0.76968
   267    H   23  S      Ryd( 2S)     0.00097

   268    H   24  S      Val( 1S)     0.76064
   269    H   24  S      Ryd( 2S)     0.00118

   270    H   25  S      Val( 1S)     0.76862
   271    H   25  S      Ryd( 2S)     0.00103

   272    H   26  S      Val( 1S)     0.75904
   273    H   26  S      Ryd( 2S)     0.00127

   274    H   27  S      Val( 1S)     0.73939
   275    H   27  S      Ryd( 2S)     0.00227

   276    H   28  S      Val( 1S)     0.74373
   277    H   28  S      Ryd( 2S)     0.00151

   278    H   29  S      Val( 1S)     0.76432
   279    H   29  S      Ryd( 2S)     0.00166

   280    H   30  S      Val( 1S)     0.76678
   281    H   30  S      Ryd( 2S)     0.00089

   282    H   31  S      Val( 1S)     0.76702
   283    H   31  S      Ryd( 2S)     0.00086

   284    H   32  S      Val( 1S)     0.76632
   285    H   32  S      Ryd( 2S)     0.00090

   286    H   33  S      Val( 1S)     0.77104
   287    H   33  S      Ryd( 2S)     0.00117

 WARNING:  1 low occupancy (<1.9990e) core orbital  found on  C    5


 Summary of Natural Population Analysis:                  
                                                          
                                       Natural Population 
                Natural  -----------------------------------------------
    Atom  No    Charge         Core      Valence    Rydberg      Total
 -----------------------------------------------------------------------
      C    1   -0.32167      1.99944     4.30794    0.01429     6.32167
      O    2   -0.55934      1.99980     6.54699    0.01255     8.55934
      C    3    0.20744      1.99939     3.76593    0.02725     5.79256
      O    4   -0.46271      1.99973     6.45107    0.01192     8.46271
      C    5    0.33754      1.99879     3.64082    0.02285     5.66246
      C    6   -0.34209      1.99905     4.32620    0.01684     6.34209
      C    7   -0.26290      1.99905     4.24516    0.01869     6.26290
      C    8    0.05232      1.99903     3.93163    0.01703     5.94768
      C    9   -0.28359      1.99906     4.26640    0.01813     6.28359
      C   10   -0.29742      1.99906     4.27842    0.01994     6.29742
      C   11   -0.48631      1.99921     4.47261    0.01449     6.48631
      C   12   -0.03936      1.99900     4.02365    0.01670     6.03936
      C   13   -0.21899      1.99902     4.20685    0.01312     6.21899
      C   14   -0.25195      1.99910     4.23800    0.01486     6.25195
      C   15   -0.23805      1.99909     4.22503    0.01392     6.23805
      C   16   -0.22712      1.99910     4.21386    0.01416     6.22712
      C   17   -0.25579      1.99902     4.24285    0.01392     6.25579
      H   18    0.22613      0.00000     0.77330    0.00057     0.77387
      H   19    0.19395      0.00000     0.80431    0.00173     0.80605
      H   20    0.21121      0.00000     0.78700    0.00179     0.78879
      H   21    0.18843      0.00000     0.80841    0.00317     0.81157
      H   22    0.22055      0.00000     0.77761    0.00184     0.77945
      H   23    0.22935      0.00000     0.76968    0.00097     0.77065
      H   24    0.23819      0.00000     0.76064    0.00118     0.76181
      H   25    0.23034      0.00000     0.76862    0.00103     0.76966
      H   26    0.23970      0.00000     0.75904    0.00127     0.76030
      H   27    0.25834      0.00000     0.73939    0.00227     0.74166
      H   28    0.25476      0.00000     0.74373    0.00151     0.74524
      H   29    0.23402      0.00000     0.76432    0.00166     0.76598
      H   30    0.23234      0.00000     0.76678    0.00089     0.76766
      H   31    0.23212      0.00000     0.76702    0.00086     0.76788
      H   32    0.23278      0.00000     0.76632    0.00090     0.76722
      H   33    0.22779      0.00000     0.77104    0.00117     0.77221
 =======================================================================
   * Total *   -0.00000     33.98593    87.71062    0.30345   122.00000

                                 Natural Population      
 --------------------------------------------------------
   Core                      33.98593 ( 99.9586% of  34)
   Valence                   87.71062 ( 99.6712% of  88)
   Natural Minimal Basis    121.69655 ( 99.7513% of 122)
   Natural Rydberg Basis      0.30345 (  0.2487% of 122)
 --------------------------------------------------------

    Atom  No          Natural Electron Configuration
 ----------------------------------------------------------------------------
      C    1      [core]2S( 1.10)2p( 3.20)3p( 0.01)3d( 0.01)
      O    2      [core]2S( 1.62)2p( 4.93)3p( 0.01)3d( 0.01)
      C    3      [core]2S( 1.00)2p( 2.76)3p( 0.01)3d( 0.01)
      O    4      [core]2S( 1.61)2p( 4.84)3p( 0.01)3d( 0.01)
      C    5      [core]2S( 0.84)2p( 2.80)3p( 0.01)3d( 0.01)
      C    6      [core]2S( 0.96)2p( 3.37)3p( 0.01)
      C    7      [core]2S( 0.95)2p( 3.30)3p( 0.01)
      C    8      [core]2S( 0.89)2p( 3.04)3p( 0.01)
      C    9      [core]2S( 0.95)2p( 3.32)3p( 0.01)
      C   10      [core]2S( 0.96)2p( 3.32)3p( 0.02)
      C   11      [core]2S( 1.02)2p( 3.45)3p( 0.01)
      C   12      [core]2S( 0.88)2p( 3.14)3p( 0.01)
      C   13      [core]2S( 0.95)2p( 3.26)3p( 0.01)
      C   14      [core]2S( 0.96)2p( 3.28)3p( 0.01)
      C   15      [core]2S( 0.96)2p( 3.26)3p( 0.01)
      C   16      [core]2S( 0.96)2p( 3.25)3p( 0.01)
      C   17      [core]2S( 0.95)2p( 3.29)3p( 0.01)
      H   18            1S( 0.77)
      H   19            1S( 0.80)
      H   20            1S( 0.79)
      H   21            1S( 0.81)
      H   22            1S( 0.78)
      H   23            1S( 0.77)
      H   24            1S( 0.76)
      H   25            1S( 0.77)
      H   26            1S( 0.76)
      H   27            1S( 0.74)
      H   28            1S( 0.74)
      H   29            1S( 0.76)
      H   30            1S( 0.77)
      H   31            1S( 0.77)
      H   32            1S( 0.77)
      H   33            1S( 0.77)


 NBO analysis skipped by request.
 Leave Link  607 at Fri Oct  1 03:27:47 2021, MaxMem= 1342177280 cpu:      20.3
 (Enter /sw/target/amd/app/gaussian/Gaussian09RevA.02_gcc-4.9.2/g09/l9999.exe)
 1\1\GINC-HERMITE\SP\RTD-B3LYP-FC\6-31G(d)\C15H16O2\JSCHLEINITZ\01-Oct-
 2021\0\\#p TD(NStates=10, Root=1) b3lyp/6-31G* volume pop=NPA density=
 current Geom=AllCheck Guess=Read\\COCOc1ccc(cc1)Cc1ccccc1_conf_0\\0,1\
 C,0,3.6487696485,-0.2902583107,-1.1554943385\O,0,2.7401849059,-0.30304
 21907,-0.0594815078\C,0,3.2986934093,-0.7260550529,1.1298036971\O,0,4.
 2456421555,0.2450668979,1.569607778\C,0,4.9833671812,-0.0191324537,2.6
 903433284\C,0,4.7829549657,-1.1209724584,3.5331828148\C,0,5.5940139252
 ,-1.2871091322,4.657274945\C,0,6.606564618,-0.3763591238,4.9754137371\
 C,0,6.7889415358,0.7189835294,4.1196384717\C,0,5.9942035009,0.90142444
 11,2.9926536712\C,0,7.4620701714,-0.5536397873,6.2196225123\C,0,8.1586
 793155,-1.9008573478,6.3303883607\C,0,9.0056691187,-2.3562936497,5.309
 0732523\C,0,9.6645995277,-3.579342381,5.4193055679\C,0,9.4858194634,-4
 .3751925311,6.5543616197\C,0,8.6435636866,-3.9358571295,7.5749012633\C
 ,0,7.9864761956,-2.7078844699,7.4605717456\H,0,3.0612910486,-0.0391629
 739,-2.0411029493\H,0,4.1114530248,-1.2790495241,-1.2962452328\H,0,4.4
 371814068,0.4568590903,-1.0140504494\H,0,3.8094639641,-1.6994783554,1.
 0207328575\H,0,2.4771515456,-0.8106066559,1.8511549431\H,0,4.004032747
 2,-1.847987328,3.3313594938\H,0,5.4331624613,-2.1520471286,5.296366028
 8\H,0,7.5681227897,1.445678462,4.3396551065\H,0,6.1400223231,1.7502384
 338,2.3316496366\H,0,6.8440220569,-0.4048039081,7.1154795221\H,0,8.214
 9902431,0.2457480027,6.2412300307\H,0,9.1422362574,-1.7470546661,4.418
 6806603\H,0,10.3187367419,-3.9135794198,4.6179046729\H,0,9.9984783259,
 -5.3296901235,6.6394962924\H,0,8.494453756,-4.547015893,8.4614635033\H
 ,0,7.3330888342,-2.3704562051,8.2624872891\\Version=AM64L-G09RevA.02\S
 tate=1-A\HF=-731.6594651\RMSD=4.437e-09\Dipole=-0.3473533,-0.1651569,-
 0.7302277\Quadrupole=-4.3799811,-2.2148491,6.5948302,3.2661465,-0.8835
 845,0.6814289\PG=C01 [X(C15H16O2)]\\@


 FESTINA LENTE!
     - IMPERATOR AUGUSTUS 
 Job cpu time:  0 days  4 hours 23 minutes 53.7 seconds.
 File lengths (MBytes):  RWF=    271 Int=      0 D2E=      0 Chk=     37 Scr=      1
 Normal termination of Gaussian 09 at Fri Oct  1 03:27:51 2021.
