 Entering Gaussian System, Link 0=g09
 Input=C15H22O2_5494_conf_0.com
 Output=C15H22O2_5494_conf_0.log
 Initial command:
 /sw/target/amd/app/gaussian/Gaussian09RevA.02_gcc-4.9.2/g09/l1.exe /home/jschleinitz/gaussian/Gau-910400.inp -scrdir=/home/jschleinitz/gaussian/
 Entering Link 1 = /sw/target/amd/app/gaussian/Gaussian09RevA.02_gcc-4.9.2/g09/l1.exe PID=    910407.
  
 Copyright (c) 1988,1990,1992,1993,1995,1998,2003,2009, Gaussian, Inc.
                  All Rights Reserved.
  
 This is part of the Gaussian(R) 09 program.  It is based on
 the Gaussian(R) 03 system (copyright 2003, Gaussian, Inc.),
 the Gaussian(R) 98 system (copyright 1998, Gaussian, Inc.),
 the Gaussian(R) 94 system (copyright 1995, Gaussian, Inc.),
 the Gaussian 92(TM) system (copyright 1992, Gaussian, Inc.),
 the Gaussian 90(TM) system (copyright 1990, Gaussian, Inc.),
 the Gaussian 88(TM) system (copyright 1988, Gaussian, Inc.),
 the Gaussian 86(TM) system (copyright 1986, Carnegie Mellon
 University), and the Gaussian 82(TM) system (copyright 1983,
 Carnegie Mellon University). Gaussian is a federally registered
 trademark of Gaussian, Inc.
  
 This software contains proprietary and confidential information,
 including trade secrets, belonging to Gaussian, Inc.
  
 This software is provided under written license and may be
 used, copied, transmitted, or stored only in accord with that
 written license.
  
 The following legend is applicable only to US Government
 contracts under FAR:
  
                    RESTRICTED RIGHTS LEGEND
  
 Use, reproduction and disclosure by the US Government is
 subject to restrictions as set forth in subparagraphs (a)
 and (c) of the Commercial Computer Software - Restricted
 Rights clause in FAR 52.227-19.
  
 Gaussian, Inc.
 340 Quinnipiac St., Bldg. 40, Wallingford CT 06492
  
  
 ---------------------------------------------------------------
 Warning -- This program may not be used in any manner that
 competes with the business of Gaussian, Inc. or will provide
 assistance to any competitor of Gaussian, Inc.  The licensee
 of this program is prohibited from giving any competitor of
 Gaussian, Inc. access to this program.  By using this program,
 the user acknowledges that Gaussian, Inc. is engaged in the
 business of creating and licensing software in the field of
 computational chemistry and represents and warrants to the
 licensee that it is not a competitor of Gaussian, Inc. and that
 it will not use this program in any manner prohibited above.
 ---------------------------------------------------------------
  

 Cite this work as:
 Gaussian 09, Revision A.02,
 M. J. Frisch, G. W. Trucks, H. B. Schlegel, G. E. Scuseria, 
 M. A. Robb, J. R. Cheeseman, G. Scalmani, V. Barone, B. Mennucci, 
 G. A. Petersson, H. Nakatsuji, M. Caricato, X. Li, H. P. Hratchian, 
 A. F. Izmaylov, J. Bloino, G. Zheng, J. L. Sonnenberg, M. Hada, 
 M. Ehara, K. Toyota, R. Fukuda, J. Hasegawa, M. Ishida, T. Nakajima, 
 Y. Honda, O. Kitao, H. Nakai, T. Vreven, J. A. Montgomery, Jr., 
 J. E. Peralta, F. Ogliaro, M. Bearpark, J. J. Heyd, E. Brothers, 
 K. N. Kudin, V. N. Staroverov, R. Kobayashi, J. Normand, 
 K. Raghavachari, A. Rendell, J. C. Burant, S. S. Iyengar, J. Tomasi, 
 M. Cossi, N. Rega, J. M. Millam, M. Klene, J. E. Knox, J. B. Cross, 
 V. Bakken, C. Adamo, J. Jaramillo, R. Gomperts, R. E. Stratmann, 
 O. Yazyev, A. J. Austin, R. Cammi, C. Pomelli, J. W. Ochterski, 
 R. L. Martin, K. Morokuma, V. G. Zakrzewski, G. A. Voth, 
 P. Salvador, J. J. Dannenberg, S. Dapprich, A. D. Daniels, 
 O. Farkas, J. B. Foresman, J. V. Ortiz, J. Cioslowski, 
 and D. J. Fox, Gaussian, Inc., Wallingford CT, 2009.
 
 ******************************************
 Gaussian 09:  AM64L-G09RevA.02 11-Jun-2009
                30-Sep-2021 
 ******************************************
 %nproc=6
 Will use up to    6 processors via shared memory.
 %mem=12gb
 %chk=C15H22O2_5494_conf_0.chk
 -----------------------------------
 #p opt b3lyp/6-31G* scf=(xqc,tight)
 -----------------------------------
 1/14=-1,18=20,19=15,26=3,38=1/1,3;
 2/9=110,12=2,17=6,18=5,40=1/2;
 3/5=1,6=6,7=1,11=2,16=1,25=1,30=1,71=1,74=-5/1,2,3;
 4//1;
 5/5=2,8=3,13=1,32=2,38=5/2,8;
 6/7=2,8=2,9=2,10=2,28=1/1;
 7//1,2,3,16;
 1/14=-1,18=20,19=15/3(2);
 2/9=110/2;
 99//99;
 2/9=110/2;
 3/5=1,6=6,7=1,11=2,16=1,25=1,30=1,71=1,74=-5/1,2,3;
 4/5=5,16=3/1;
 5/5=2,8=3,13=1,32=2,38=5/2,8;
 7//1,2,3,16;
 1/14=-1,18=20,19=15/3(-5);
 2/9=110/2;
 6/7=2,8=2,9=2,10=2,19=2,28=1/1;
 99/9=1/99;
 Leave Link    1 at Thu Sep 30 23:49:49 2021, MaxMem= 1610612736 cpu:       0.1
 (Enter /sw/target/amd/app/gaussian/Gaussian09RevA.02_gcc-4.9.2/g09/l101.exe)
 -----------------------------------
 CCCCc1ccc(cc1)OC(=O)C(C)(C)C_conf_0
 -----------------------------------
 Symbolic Z-matrix:
 Charge =  0 Multiplicity = 1
 C                     5.90038   1.59822  -2.15376 
 C                     4.99334   0.85428  -1.18529 
 C                     5.54903  -0.52974  -0.84929 
 C                     4.63924  -1.28167   0.12559 
 C                     5.20048  -2.64069   0.46998 
 C                     6.07099  -2.78614   1.55864 
 C                     6.62013  -4.03213   1.87343 
 C                     6.28322  -5.14719   1.10958 
 C                     5.43774  -5.01514   0.00706 
 C                     4.89639  -3.76521  -0.31024 
 O                     6.8028   -6.44148   1.34205 
 C                     7.10897  -6.89801   2.62631 
 O                     6.96051  -6.26174   3.66382 
 C                     7.64497  -8.3356    2.57224 
 C                     8.90307  -8.39005   1.69722 
 C                     8.00861  -8.78375   3.99963 
 C                     6.56599  -9.27604   2.02142 
 H                     5.47214   2.57469  -2.40095 
 H                     6.02593   1.03706  -3.08529 
 H                     6.89024   1.76315  -1.71615 
 H                     3.99609   0.75722  -1.62958 
 H                     4.88506   1.44625  -0.26901 
 H                     6.55169  -0.42474  -0.41564 
 H                     5.66428  -1.11201  -1.77228 
 H                     3.63398  -1.39602  -0.29946 
 H                     4.51179  -0.6987    1.04692 
 H                     6.32994  -1.92446   2.17118 
 H                     7.30187  -4.10395   2.71452 
 H                     5.19889  -5.8794   -0.60551 
 H                     4.23726  -3.67396  -1.17058 
 H                     9.65212  -7.66706   2.03854 
 H                     8.67688  -8.15482   0.65095 
 H                     9.35969  -9.38619   1.71939 
 H                     8.76219  -8.12299   4.44356 
 H                     8.40879  -9.80347   4.01077 
 H                     7.13032  -8.76362   4.656 
 H                     6.33136  -9.05385   0.97462 
 H                     5.63408  -9.18496   2.59091 
 H                     6.88976  -10.32244   2.0725 
 
 NAtoms=     39 NQM=     39 NQMF=      0 NMic=      0 NMicF=      0 NTot=     39.
                    Isotopes and Nuclear Properties:
 (Nuclear quadrupole moments (NQMom) in fm**2, nuclear magnetic moments (NMagM)
  in nuclear magnetons)

  Atom         1           2           3           4           5           6           7           8           9          10
 IAtWgt=          12          12          12          12          12          12          12          12          12          12
 AtmWgt=  12.0000000  12.0000000  12.0000000  12.0000000  12.0000000  12.0000000  12.0000000  12.0000000  12.0000000  12.0000000
 NucSpn=           0           0           0           0           0           0           0           0           0           0
 AtZEff=   0.0000000   0.0000000   0.0000000   0.0000000   0.0000000   0.0000000   0.0000000   0.0000000   0.0000000   0.0000000
 NQMom=    0.0000000   0.0000000   0.0000000   0.0000000   0.0000000   0.0000000   0.0000000   0.0000000   0.0000000   0.0000000
 NMagM=    0.0000000   0.0000000   0.0000000   0.0000000   0.0000000   0.0000000   0.0000000   0.0000000   0.0000000   0.0000000

  Atom        11          12          13          14          15          16          17          18          19          20
 IAtWgt=          16          12          16          12          12          12          12           1           1           1
 AtmWgt=  15.9949146  12.0000000  15.9949146  12.0000000  12.0000000  12.0000000  12.0000000   1.0078250   1.0078250   1.0078250
 NucSpn=           0           0           0           0           0           0           0           1           1           1
 AtZEff=   0.0000000   0.0000000   0.0000000   0.0000000   0.0000000   0.0000000   0.0000000   0.0000000   0.0000000   0.0000000
 NQMom=    0.0000000   0.0000000   0.0000000   0.0000000   0.0000000   0.0000000   0.0000000   0.0000000   0.0000000   0.0000000
 NMagM=    0.0000000   0.0000000   0.0000000   0.0000000   0.0000000   0.0000000   0.0000000   2.7928460   2.7928460   2.7928460

  Atom        21          22          23          24          25          26          27          28          29          30
 IAtWgt=           1           1           1           1           1           1           1           1           1           1
 AtmWgt=   1.0078250   1.0078250   1.0078250   1.0078250   1.0078250   1.0078250   1.0078250   1.0078250   1.0078250   1.0078250
 NucSpn=           1           1           1           1           1           1           1           1           1           1
 AtZEff=   0.0000000   0.0000000   0.0000000   0.0000000   0.0000000   0.0000000   0.0000000   0.0000000   0.0000000   0.0000000
 NQMom=    0.0000000   0.0000000   0.0000000   0.0000000   0.0000000   0.0000000   0.0000000   0.0000000   0.0000000   0.0000000
 NMagM=    2.7928460   2.7928460   2.7928460   2.7928460   2.7928460   2.7928460   2.7928460   2.7928460   2.7928460   2.7928460

  Atom        31          32          33          34          35          36          37          38          39
 IAtWgt=           1           1           1           1           1           1           1           1           1
 AtmWgt=   1.0078250   1.0078250   1.0078250   1.0078250   1.0078250   1.0078250   1.0078250   1.0078250   1.0078250
 NucSpn=           1           1           1           1           1           1           1           1           1
 AtZEff=   0.0000000   0.0000000   0.0000000   0.0000000   0.0000000   0.0000000   0.0000000   0.0000000   0.0000000
 NQMom=    0.0000000   0.0000000   0.0000000   0.0000000   0.0000000   0.0000000   0.0000000   0.0000000   0.0000000
 NMagM=    2.7928460   2.7928460   2.7928460   2.7928460   2.7928460   2.7928460   2.7928460   2.7928460   2.7928460
 Leave Link  101 at Thu Sep 30 23:49:50 2021, MaxMem= 1610612736 cpu:       0.2
 (Enter /sw/target/amd/app/gaussian/Gaussian09RevA.02_gcc-4.9.2/g09/l103.exe)

 GradGradGradGradGradGradGradGradGradGradGradGradGradGradGradGradGradGrad
 Berny optimization.
 Initialization pass.
                           ----------------------------
                           !    Initial Parameters    !
                           ! (Angstroms and Degrees)  !
 --------------------------                            --------------------------
 ! Name  Definition              Value          Derivative Info.                !
 --------------------------------------------------------------------------------
 ! R1    R(1,2)                  1.5212         estimate D2E/DX2                !
 ! R2    R(1,18)                 1.0945         estimate D2E/DX2                !
 ! R3    R(1,19)                 1.0947         estimate D2E/DX2                !
 ! R4    R(1,20)                 1.0948         estimate D2E/DX2                !
 ! R5    R(2,3)                  1.5288         estimate D2E/DX2                !
 ! R6    R(2,21)                 1.0961         estimate D2E/DX2                !
 ! R7    R(2,22)                 1.0962         estimate D2E/DX2                !
 ! R8    R(3,4)                  1.5309         estimate D2E/DX2                !
 ! R9    R(3,23)                 1.0975         estimate D2E/DX2                !
 ! R10   R(3,24)                 1.0974         estimate D2E/DX2                !
 ! R11   R(4,5)                  1.5101         estimate D2E/DX2                !
 ! R12   R(4,25)                 1.0974         estimate D2E/DX2                !
 ! R13   R(4,26)                 1.0977         estimate D2E/DX2                !
 ! R14   R(5,6)                  1.4015         estimate D2E/DX2                !
 ! R15   R(5,10)                 1.4021         estimate D2E/DX2                !
 ! R16   R(6,7)                  1.3975         estimate D2E/DX2                !
 ! R17   R(6,27)                 1.0885         estimate D2E/DX2                !
 ! R18   R(7,8)                  1.393          estimate D2E/DX2                !
 ! R19   R(7,28)                 1.0851         estimate D2E/DX2                !
 ! R20   R(8,9)                  1.3956         estimate D2E/DX2                !
 ! R21   R(8,11)                 1.4139         estimate D2E/DX2                !
 ! R22   R(9,10)                 1.3986         estimate D2E/DX2                !
 ! R23   R(9,29)                 1.0859         estimate D2E/DX2                !
 ! R24   R(10,30)                1.0876         estimate D2E/DX2                !
 ! R25   R(11,12)                1.3969         estimate D2E/DX2                !
 ! R26   R(12,13)                1.2261         estimate D2E/DX2                !
 ! R27   R(12,14)                1.5352         estimate D2E/DX2                !
 ! R28   R(14,15)                1.5334         estimate D2E/DX2                !
 ! R29   R(14,16)                1.5396         estimate D2E/DX2                !
 ! R30   R(14,17)                1.5336         estimate D2E/DX2                !
 ! R31   R(15,31)                1.0956         estimate D2E/DX2                !
 ! R32   R(15,32)                1.096          estimate D2E/DX2                !
 ! R33   R(15,33)                1.096          estimate D2E/DX2                !
 ! R34   R(16,34)                1.0962         estimate D2E/DX2                !
 ! R35   R(16,35)                1.0955         estimate D2E/DX2                !
 ! R36   R(16,36)                1.0966         estimate D2E/DX2                !
 ! R37   R(17,37)                1.0955         estimate D2E/DX2                !
 ! R38   R(17,38)                1.0959         estimate D2E/DX2                !
 ! R39   R(17,39)                1.0965         estimate D2E/DX2                !
 ! A1    A(2,1,18)             110.2911         estimate D2E/DX2                !
 ! A2    A(2,1,19)             111.0658         estimate D2E/DX2                !
 ! A3    A(2,1,20)             110.9967         estimate D2E/DX2                !
 ! A4    A(18,1,19)            108.0594         estimate D2E/DX2                !
 ! A5    A(18,1,20)            108.0371         estimate D2E/DX2                !
 ! A6    A(19,1,20)            108.2803         estimate D2E/DX2                !
 ! A7    A(1,2,3)              111.4648         estimate D2E/DX2                !
 ! A8    A(1,2,21)             109.1327         estimate D2E/DX2                !
 ! A9    A(1,2,22)             109.0831         estimate D2E/DX2                !
 ! A10   A(3,2,21)             109.8549         estimate D2E/DX2                !
 ! A11   A(3,2,22)             109.9421         estimate D2E/DX2                !
 ! A12   A(21,2,22)            107.2629         estimate D2E/DX2                !
 ! A13   A(2,3,4)              111.6306         estimate D2E/DX2                !
 ! A14   A(2,3,23)             109.4096         estimate D2E/DX2                !
 ! A15   A(2,3,24)             109.492          estimate D2E/DX2                !
 ! A16   A(4,3,23)             109.7748         estimate D2E/DX2                !
 ! A17   A(4,3,24)             109.7195         estimate D2E/DX2                !
 ! A18   A(23,3,24)            106.6878         estimate D2E/DX2                !
 ! A19   A(3,4,5)              111.4934         estimate D2E/DX2                !
 ! A20   A(3,4,25)             110.4214         estimate D2E/DX2                !
 ! A21   A(3,4,26)             110.038          estimate D2E/DX2                !
 ! A22   A(5,4,25)             109.5727         estimate D2E/DX2                !
 ! A23   A(5,4,26)             109.2495         estimate D2E/DX2                !
 ! A24   A(25,4,26)            105.9064         estimate D2E/DX2                !
 ! A25   A(4,5,6)              120.092          estimate D2E/DX2                !
 ! A26   A(4,5,10)             120.9489         estimate D2E/DX2                !
 ! A27   A(6,5,10)             118.9311         estimate D2E/DX2                !
 ! A28   A(5,6,7)              120.7678         estimate D2E/DX2                !
 ! A29   A(5,6,27)             120.1829         estimate D2E/DX2                !
 ! A30   A(7,6,27)             119.0493         estimate D2E/DX2                !
 ! A31   A(6,7,8)              119.6788         estimate D2E/DX2                !
 ! A32   A(6,7,28)             118.7171         estimate D2E/DX2                !
 ! A33   A(8,7,28)             121.6041         estimate D2E/DX2                !
 ! A34   A(7,8,9)              120.2632         estimate D2E/DX2                !
 ! A35   A(7,8,11)             123.6229         estimate D2E/DX2                !
 ! A36   A(9,8,11)             116.0473         estimate D2E/DX2                !
 ! A37   A(8,9,10)             119.8856         estimate D2E/DX2                !
 ! A38   A(8,9,29)             120.2361         estimate D2E/DX2                !
 ! A39   A(10,9,29)            119.8782         estimate D2E/DX2                !
 ! A40   A(5,10,9)             120.437          estimate D2E/DX2                !
 ! A41   A(5,10,30)            120.2874         estimate D2E/DX2                !
 ! A42   A(9,10,30)            119.2755         estimate D2E/DX2                !
 ! A43   A(8,11,12)            122.0623         estimate D2E/DX2                !
 ! A44   A(11,12,13)           125.5776         estimate D2E/DX2                !
 ! A45   A(11,12,14)           110.4972         estimate D2E/DX2                !
 ! A46   A(13,12,14)           123.9184         estimate D2E/DX2                !
 ! A47   A(12,14,15)           109.8644         estimate D2E/DX2                !
 ! A48   A(12,14,16)           108.8067         estimate D2E/DX2                !
 ! A49   A(12,14,17)           109.9518         estimate D2E/DX2                !
 ! A50   A(15,14,16)           108.9604         estimate D2E/DX2                !
 ! A51   A(15,14,17)           110.5176         estimate D2E/DX2                !
 ! A52   A(16,14,17)           108.7021         estimate D2E/DX2                !
 ! A53   A(14,15,31)           111.0834         estimate D2E/DX2                !
 ! A54   A(14,15,32)           111.5804         estimate D2E/DX2                !
 ! A55   A(14,15,33)           111.256          estimate D2E/DX2                !
 ! A56   A(31,15,32)           107.2702         estimate D2E/DX2                !
 ! A57   A(31,15,33)           107.9766         estimate D2E/DX2                !
 ! A58   A(32,15,33)           107.4791         estimate D2E/DX2                !
 ! A59   A(14,16,34)           111.2459         estimate D2E/DX2                !
 ! A60   A(14,16,35)           111.5091         estimate D2E/DX2                !
 ! A61   A(14,16,36)           111.1243         estimate D2E/DX2                !
 ! A62   A(34,16,35)           107.8094         estimate D2E/DX2                !
 ! A63   A(34,16,36)           107.2853         estimate D2E/DX2                !
 ! A64   A(35,16,36)           107.6715         estimate D2E/DX2                !
 ! A65   A(14,17,37)           111.6844         estimate D2E/DX2                !
 ! A66   A(14,17,38)           111.1405         estimate D2E/DX2                !
 ! A67   A(14,17,39)           111.144          estimate D2E/DX2                !
 ! A68   A(37,17,38)           107.3099         estimate D2E/DX2                !
 ! A69   A(37,17,39)           107.5347         estimate D2E/DX2                !
 ! A70   A(38,17,39)           107.8292         estimate D2E/DX2                !
 ! D1    D(18,1,2,3)           178.5463         estimate D2E/DX2                !
 ! D2    D(18,1,2,21)           57.0329         estimate D2E/DX2                !
 ! D3    D(18,1,2,22)          -59.8643         estimate D2E/DX2                !
 ! D4    D(19,1,2,3)            58.7711         estimate D2E/DX2                !
 ! D5    D(19,1,2,21)          -62.7423         estimate D2E/DX2                !
 ! D6    D(19,1,2,22)         -179.6395         estimate D2E/DX2                !
 ! D7    D(20,1,2,3)           -61.751          estimate D2E/DX2                !
 ! D8    D(20,1,2,21)          176.7356         estimate D2E/DX2                !
 ! D9    D(20,1,2,22)           59.8385         estimate D2E/DX2                !
 ! D10   D(1,2,3,4)            179.9819         estimate D2E/DX2                !
 ! D11   D(1,2,3,23)            58.2728         estimate D2E/DX2                !
 ! D12   D(1,2,3,24)           -58.3225         estimate D2E/DX2                !
 ! D13   D(21,2,3,4)           -58.9252         estimate D2E/DX2                !
 ! D14   D(21,2,3,23)          179.3658         estimate D2E/DX2                !
 ! D15   D(21,2,3,24)           62.7705         estimate D2E/DX2                !
 ! D16   D(22,2,3,4)            58.8923         estimate D2E/DX2                !
 ! D17   D(22,2,3,23)          -62.8168         estimate D2E/DX2                !
 ! D18   D(22,2,3,24)         -179.4121         estimate D2E/DX2                !
 ! D19   D(2,3,4,5)           -179.2251         estimate D2E/DX2                !
 ! D20   D(2,3,4,25)            58.7156         estimate D2E/DX2                !
 ! D21   D(2,3,4,26)           -57.8411         estimate D2E/DX2                !
 ! D22   D(23,3,4,5)           -57.7273         estimate D2E/DX2                !
 ! D23   D(23,3,4,25)         -179.7866         estimate D2E/DX2                !
 ! D24   D(23,3,4,26)           63.6567         estimate D2E/DX2                !
 ! D25   D(24,3,4,5)            59.2108         estimate D2E/DX2                !
 ! D26   D(24,3,4,25)          -62.8484         estimate D2E/DX2                !
 ! D27   D(24,3,4,26)         -179.4051         estimate D2E/DX2                !
 ! D28   D(3,4,5,6)             89.4882         estimate D2E/DX2                !
 ! D29   D(3,4,5,10)           -88.5669         estimate D2E/DX2                !
 ! D30   D(25,4,5,6)          -147.9641         estimate D2E/DX2                !
 ! D31   D(25,4,5,10)           33.9809         estimate D2E/DX2                !
 ! D32   D(26,4,5,6)           -32.3532         estimate D2E/DX2                !
 ! D33   D(26,4,5,10)          149.5918         estimate D2E/DX2                !
 ! D34   D(4,5,6,7)           -178.6847         estimate D2E/DX2                !
 ! D35   D(4,5,6,27)             1.2095         estimate D2E/DX2                !
 ! D36   D(10,5,6,7)            -0.5905         estimate D2E/DX2                !
 ! D37   D(10,5,6,27)          179.3036         estimate D2E/DX2                !
 ! D38   D(4,5,10,9)           179.0621         estimate D2E/DX2                !
 ! D39   D(4,5,10,30)           -0.848          estimate D2E/DX2                !
 ! D40   D(6,5,10,9)             0.9848         estimate D2E/DX2                !
 ! D41   D(6,5,10,30)         -178.9253         estimate D2E/DX2                !
 ! D42   D(5,6,7,8)             -0.988          estimate D2E/DX2                !
 ! D43   D(5,6,7,28)           179.0992         estimate D2E/DX2                !
 ! D44   D(27,6,7,8)           179.1167         estimate D2E/DX2                !
 ! D45   D(27,6,7,28)           -0.7961         estimate D2E/DX2                !
 ! D46   D(6,7,8,9)              2.1879         estimate D2E/DX2                !
 ! D47   D(6,7,8,11)           179.099          estimate D2E/DX2                !
 ! D48   D(28,7,8,9)          -177.9019         estimate D2E/DX2                !
 ! D49   D(28,7,8,11)           -0.9908         estimate D2E/DX2                !
 ! D50   D(7,8,9,10)            -1.7989         estimate D2E/DX2                !
 ! D51   D(7,8,9,29)           178.1847         estimate D2E/DX2                !
 ! D52   D(11,8,9,10)         -178.9361         estimate D2E/DX2                !
 ! D53   D(11,8,9,29)            1.0475         estimate D2E/DX2                !
 ! D54   D(7,8,11,12)           33.3512         estimate D2E/DX2                !
 ! D55   D(9,8,11,12)         -149.6183         estimate D2E/DX2                !
 ! D56   D(8,9,10,5)             0.1972         estimate D2E/DX2                !
 ! D57   D(8,9,10,30)         -179.8918         estimate D2E/DX2                !
 ! D58   D(29,9,10,5)         -179.7864         estimate D2E/DX2                !
 ! D59   D(29,9,10,30)           0.1246         estimate D2E/DX2                !
 ! D60   D(8,11,12,13)           0.5758         estimate D2E/DX2                !
 ! D61   D(8,11,12,14)         179.66           estimate D2E/DX2                !
 ! D62   D(11,12,14,15)         59.1186         estimate D2E/DX2                !
 ! D63   D(11,12,14,16)        178.3275         estimate D2E/DX2                !
 ! D64   D(11,12,14,17)        -62.7262         estimate D2E/DX2                !
 ! D65   D(13,12,14,15)       -121.779          estimate D2E/DX2                !
 ! D66   D(13,12,14,16)         -2.5701         estimate D2E/DX2                !
 ! D67   D(13,12,14,17)        116.3761         estimate D2E/DX2                !
 ! D68   D(12,14,15,31)         54.2706         estimate D2E/DX2                !
 ! D69   D(12,14,15,32)        -65.3764         estimate D2E/DX2                !
 ! D70   D(12,14,15,33)        174.5946         estimate D2E/DX2                !
 ! D71   D(16,14,15,31)        -64.8441         estimate D2E/DX2                !
 ! D72   D(16,14,15,32)        175.5089         estimate D2E/DX2                !
 ! D73   D(16,14,15,33)         55.4799         estimate D2E/DX2                !
 ! D74   D(17,14,15,31)        175.7774         estimate D2E/DX2                !
 ! D75   D(17,14,15,32)         56.1304         estimate D2E/DX2                !
 ! D76   D(17,14,15,33)        -63.8986         estimate D2E/DX2                !
 ! D77   D(12,14,16,34)        -58.9153         estimate D2E/DX2                !
 ! D78   D(12,14,16,35)       -179.3092         estimate D2E/DX2                !
 ! D79   D(12,14,16,36)         60.5553         estimate D2E/DX2                !
 ! D80   D(15,14,16,34)         60.8569         estimate D2E/DX2                !
 ! D81   D(15,14,16,35)        -59.5369         estimate D2E/DX2                !
 ! D82   D(15,14,16,36)       -179.6725         estimate D2E/DX2                !
 ! D83   D(17,14,16,34)       -178.6415         estimate D2E/DX2                !
 ! D84   D(17,14,16,35)         60.9646         estimate D2E/DX2                !
 ! D85   D(17,14,16,36)        -59.1709         estimate D2E/DX2                !
 ! D86   D(12,14,17,37)         65.8668         estimate D2E/DX2                !
 ! D87   D(12,14,17,38)        -53.9389         estimate D2E/DX2                !
 ! D88   D(12,14,17,39)       -174.0394         estimate D2E/DX2                !
 ! D89   D(15,14,17,37)        -55.5884         estimate D2E/DX2                !
 ! D90   D(15,14,17,38)       -175.3941         estimate D2E/DX2                !
 ! D91   D(15,14,17,39)         64.5054         estimate D2E/DX2                !
 ! D92   D(16,14,17,37)       -175.1228         estimate D2E/DX2                !
 ! D93   D(16,14,17,38)         65.0715         estimate D2E/DX2                !
 ! D94   D(16,14,17,39)        -55.029          estimate D2E/DX2                !
 --------------------------------------------------------------------------------
 Trust Radius=3.00D-01 FncErr=1.00D-07 GrdErr=1.00D-06
 Number of steps in this run= 213 maximum allowed number of steps= 234.
 GradGradGradGradGradGradGradGradGradGradGradGradGradGradGradGradGradGrad

 Leave Link  103 at Thu Sep 30 23:49:50 2021, MaxMem= 1610612736 cpu:       0.0
 (Enter /sw/target/amd/app/gaussian/Gaussian09RevA.02_gcc-4.9.2/g09/l202.exe)
                          Input orientation:                          
 ---------------------------------------------------------------------
 Center     Atomic      Atomic             Coordinates (Angstroms)
 Number     Number       Type             X           Y           Z
 ---------------------------------------------------------------------
      1          6           0        5.900376    1.598217   -2.153756
      2          6           0        4.993342    0.854276   -1.185292
      3          6           0        5.549025   -0.529737   -0.849292
      4          6           0        4.639241   -1.281675    0.125594
      5          6           0        5.200479   -2.640692    0.469983
      6          6           0        6.070993   -2.786138    1.558641
      7          6           0        6.620129   -4.032127    1.873430
      8          6           0        6.283222   -5.147193    1.109576
      9          6           0        5.437742   -5.015141    0.007062
     10          6           0        4.896390   -3.765209   -0.310243
     11          8           0        6.802803   -6.441483    1.342052
     12          6           0        7.108970   -6.898007    2.626309
     13          8           0        6.960507   -6.261743    3.663824
     14          6           0        7.644974   -8.335597    2.572242
     15          6           0        8.903068   -8.390049    1.697218
     16          6           0        8.008611   -8.783749    3.999626
     17          6           0        6.565992   -9.276039    2.021422
     18          1           0        5.472135    2.574689   -2.400951
     19          1           0        6.025929    1.037063   -3.085294
     20          1           0        6.890236    1.763150   -1.716149
     21          1           0        3.996087    0.757217   -1.629576
     22          1           0        4.885061    1.446249   -0.269015
     23          1           0        6.551689   -0.424743   -0.415644
     24          1           0        5.664277   -1.112006   -1.772280
     25          1           0        3.633979   -1.396020   -0.299457
     26          1           0        4.511786   -0.698702    1.046922
     27          1           0        6.329938   -1.924459    2.171184
     28          1           0        7.301874   -4.103945    2.714521
     29          1           0        5.198892   -5.879404   -0.605514
     30          1           0        4.237259   -3.673961   -1.170581
     31          1           0        9.652117   -7.667063    2.038543
     32          1           0        8.676884   -8.154817    0.650945
     33          1           0        9.359687   -9.386188    1.719387
     34          1           0        8.762190   -8.122990    4.443558
     35          1           0        8.408792   -9.803471    4.010768
     36          1           0        7.130319   -8.763622    4.655999
     37          1           0        6.331356   -9.053850    0.974620
     38          1           0        5.634075   -9.184955    2.590909
     39          1           0        6.889759  -10.322436    2.072499
 ---------------------------------------------------------------------
                    Distance matrix (angstroms):
                    1          2          3          4          5
     1  C    0.000000
     2  C    1.521211   0.000000
     3  C    2.520568   1.528781   0.000000
     4  C    3.883256   2.531026   1.530856   0.000000
     5  C    5.034105   3.872679   2.513584   1.510139   0.000000
     6  C    5.747484   4.684347   3.340948   2.523281   1.401473
     7  C    6.959673   5.989921   4.563685   3.813639   2.433344
     8  C    7.503097   6.553460   5.069232   4.314293   2.804275
     9  C    6.972780   6.005768   4.567776   3.819741   2.430760
    10  C    5.759589   4.702633   3.344367   2.534566   1.402056
    11  O    8.813162   7.930304   6.428273   5.725766   4.215917
    12  C    9.823214   8.893934   7.420788   6.625430   5.139728
    13  O    9.836010   8.832972   7.430773   6.535169   5.139098
    14  C   11.138193  10.276379   8.776750   8.048499   6.544233
    15  C   11.118076  10.442814   8.917333   8.436777   6.947688
    16  C   12.251284  11.351948   9.883839   9.090758   7.621097
    17  C   11.667245  10.741486   9.261373   8.438981   6.949778
    18  H    1.094529   2.160299   3.471457   4.684942   5.959552
    19  H    1.094723   2.170174   2.771643   4.196338   5.181433
    20  H    1.094772   2.169348   2.794212   4.210695   5.198873
    21  H    2.146710   1.096050   2.162570   2.766107   4.171869
    22  H    2.146209   1.096230   2.163813   2.767256   4.165176
    23  H    2.745470   2.157937   1.097456   2.164423   2.742359
    24  H    2.747103   2.158928   1.097373   2.163657   2.753132
    25  H    4.188131   2.774240   2.172595   1.097404   2.143635
    26  H    4.177124   2.761597   2.167958   1.097702   2.139740
    27  H    5.594540   4.557827   3.417360   2.730580   2.163967
    28  H    7.627514   6.717278   5.343052   4.664480   3.405132
    29  H    7.668374   6.761719   5.366653   4.689013   3.412616
    30  H    5.615020   4.590948   3.422003   2.750398   2.164921
    31  H   10.839573  10.232816   8.724470   8.340353   6.895061
    32  H   10.521265   9.904746   8.377115   7.988657   6.521020
    33  H   12.150112  11.505183   9.977775   9.513460   8.022576
    34  H   12.091998  11.246309   9.797765   9.080040   7.650534
    35  H   13.201969  12.339040  10.853598  10.095796   8.610216
    36  H   12.460066  11.453878  10.030234   9.094481   7.664026
    37  H   11.110312  10.228708   8.752098   7.999426   6.531626
    38  H   11.783869  10.745063   9.314237   8.338424   6.893019
    39  H   12.686295  11.795274  10.306861   9.517911   8.026886
                    6          7          8          9         10
     6  C    0.000000
     7  C    1.397545   0.000000
     8  C    2.412733   1.392965   0.000000
     9  C    2.788702   2.418198   1.395639   0.000000
    10  C    2.414747   2.794808   2.418484   1.398597   0.000000
    11  O    3.734168   2.474011   1.413930   2.383284   3.677898
    12  C    4.373188   3.003174   2.459205   3.632993   4.830452
    13  O    4.159671   2.879680   2.867947   4.152679   5.127033
    14  C    5.856731   4.478671   3.762935   4.741039   6.062333
    15  C    6.280420   4.922839   4.210111   5.123975   6.439916
    16  C    6.759002   5.387624   4.955188   6.062370   7.310720
    17  C    6.525183   5.246279   4.237782   4.846220   6.212365
    18  H    6.691447   7.952248   8.521098   7.962740   6.700511
    19  H    6.015399   7.116088   7.477176   6.821862   5.660264
    20  H    5.664930   6.822263   7.490396   7.143138   6.042744
    21  H    5.198588   6.488025   6.898985   6.170661   4.796199
    22  H    4.760237   6.132955   6.879596   6.490857   5.211633
    23  H    3.115294   4.272911   4.969900   4.742501   3.729590
    24  H    3.750089   4.767805   4.997091   4.295560   3.125171
    25  H    3.365114   4.537355   4.803661   4.055311   2.684559
    26  H    2.655254   4.029882   4.788631   4.535455   3.375394
    27  H    1.088463   2.148286   3.393407   3.877080   3.406010
    28  H    2.141902   1.085066   2.168379   3.411099   3.879471
    29  H    3.874587   3.402574   2.157182   1.085933   2.156041
    30  H    3.405798   3.882313   3.399337   2.150992   1.087640
    31  H    6.072741   4.736346   4.308385   5.377784   6.584695
    32  H    6.036331   4.766684   3.871145   4.556774   5.872365
    33  H    7.375772   6.016217   5.273100   6.117170   7.458943
    34  H    6.636813   5.284803   5.110391   6.355563   7.518863
    35  H    7.792381   6.409051   5.883527   6.912663   8.213934
    36  H    6.815139   5.512715   5.135490   6.207137   7.391761
    37  H    6.300245   5.109692   3.909284   4.248046   5.628475
    38  H    6.496256   5.295159   4.349628   4.909395   6.191486
    39  H    7.598040   6.299231   5.298891   5.877224   7.255908
                   11         12         13         14         15
    11  O    0.000000
    12  C    1.396949   0.000000
    13  O    2.334053   1.226096   0.000000
    14  C    2.410453   1.535217   2.441499   0.000000
    15  C    2.886895   2.511611   3.488663   1.533438   0.000000
    16  C    3.742042   2.500275   2.751690   1.539641   2.501227
    17  C    2.924437   2.513115   3.455301   1.533635   2.520320
    18  H    9.852518  10.848250  10.820318  12.185574  12.198023
    19  H    8.725457   9.836703   9.984819  11.066878  10.955401
    20  H    8.756498   9.691255   9.661675  10.997482  10.899084
    21  H    8.278255   9.295431   9.277590  10.660624  10.900390
    22  H    8.275844   9.107978   8.898754  10.553405  10.805702
    23  H    6.273255   7.174063   7.133006   8.526685   8.569672
    24  H    6.276834   7.410299   7.599424   8.659001   8.688907
    25  H    6.180024   7.134950   7.102721   8.514250   8.981450
    26  H    6.189944   6.904434   6.617540   8.394381   8.880488
    27  H    4.616770   5.054721   4.630078   6.556894   6.974919
    28  H    2.756234   2.802102   2.381974   4.247921   4.687154
    29  H    2.584855   3.889810   4.634298   4.702588   5.032577
    30  H    4.533710   5.749571   6.122432   6.881286   7.227415
    31  H    3.178952   2.721124   3.444014   2.181833   1.095576
    32  H    2.631600   2.817798   3.950584   2.188355   1.095984
    33  H    3.918076   3.475526   4.393069   2.184340   1.096031
    34  H    4.035592   2.745200   2.705234   2.189794   2.762889
    35  H    4.583034   3.471021   3.842100   2.192585   2.755827
    36  H    4.059784   2.756923   2.696785   2.188635   3.469378
    37  H    2.679875   2.824963   3.927278   2.189492   2.752541
    38  H    3.232987   2.721525   3.384632   2.182996   3.480930
    39  H    3.950051   3.475841   4.361943   2.183489   2.815736
                   16         17         18         19         20
    16  C    0.000000
    17  C    2.497356   0.000000
    18  H   13.282138  12.696206   0.000000
    19  H   12.270920  11.520864   1.771809   0.000000
    20  H   12.048150  11.659257   1.771597   1.774482   0.000000
    21  H   11.782117  10.981822   2.465146   2.513501   3.065207
    22  H   11.516540  11.092298   2.482576   3.066014   2.493061
    23  H    9.565051   9.180683   3.755458   3.088743   2.567645
    24  H    9.882633   9.047470   3.744845   2.544267   3.126123
    25  H    9.601981   8.722263   4.854032   4.404794   4.752956
    26  H    9.290545   8.873563   4.850277   4.730827   4.399125
    27  H    7.294586   7.356893   6.471675   6.040993   5.387370
    28  H    4.904236   5.269958   8.609306   7.854671   7.363633
    29  H    6.126748   4.506316   8.646962   7.393972   7.905871
    30  H    8.189265   6.855302   6.487245   5.390660   6.074381
    31  H    2.791764   3.480412  11.919515  10.731485  10.519250
    32  H    3.472147   2.755215  11.606325  10.270234  10.351875
    33  H    2.718056   2.812133  13.234531  11.951698  11.925135
    34  H    1.096157   3.466923  13.119150  12.168703  11.797541
    35  H    1.095492   2.762533  14.246155  13.173812  12.995781
    36  H    1.096644   2.742632  13.457616  12.537972  12.307512
    37  H    3.469408   1.095544  12.139014  10.881302  11.160649
    38  H    2.789958   1.095938  12.776311  11.698824  11.831724
    39  H    2.707989   1.096531  13.724330  12.505489  12.665514
                   21         22         23         24         25
    21  H    0.000000
    22  H    1.765267   0.000000
    23  H    3.066229   2.509932   0.000000
    24  H    2.509425   3.067841   1.760764   0.000000
    25  H    2.556711   3.105580   3.077322   2.524279   0.000000
    26  H    3.090192   2.543980   2.524947   3.073590   1.752009
    27  H    5.204231   4.404987   2.998333   4.080943   3.694795
    28  H    7.309603   6.748861   4.888481   5.636028   5.465380
    29  H    6.822036   7.340089   5.623117   4.930113   4.758503
    30  H    4.461409   5.239181   4.060041   2.993666   2.512333
    31  H   10.789544  10.540498   8.251478   8.567031   9.000567
    32  H   10.321578  10.363624   8.087528   8.034240   8.486194
    33  H   11.952925  11.887712   9.630717   9.711328  10.035051
    34  H   11.766766  11.349485   9.368094   9.868517   9.697776
    35  H   12.759842  12.541507  10.535772  10.794331  10.585939
    36  H   11.831240  11.555882   9.777182  10.100460   9.542667
    37  H   10.415967  10.671948   8.743162   8.429908   8.218362
    38  H   10.924389  11.034613   9.307131   9.176647   8.545297
    39  H   12.034841  12.165666  10.211243  10.055653   9.793221
                   26         27         28         29         30
    26  H    0.000000
    27  H    2.464168   0.000000
    28  H    4.707564   2.447455   0.000000
    29  H    5.481089   4.962953   4.312473   0.000000
    30  H    3.720867   4.313636   4.966968   2.471441   0.000000
    31  H    8.715755   6.635659   4.321620   5.478867   7.454129
    32  H    8.549766   6.829102   4.749585   4.341961   6.565539
    33  H    9.971297   8.066033   5.755603   5.917340   8.198825
    34  H    9.204517   7.035717   4.612463   6.574489   8.472746
    35  H   10.337691   8.353713   5.948959   6.856516   9.045383
    36  H    9.215481   7.320455   5.050877   6.303384   8.259751
    37  H    8.551291   7.229107   5.335796   3.722420   6.158762
    38  H    8.698271   7.305833   5.349158   4.618784   6.816961
    39  H    9.966083   8.417194   6.265114   5.456309   7.858469
                   31         32         33         34         35
    31  H    0.000000
    32  H    1.764770   0.000000
    33  H    1.772784   1.767502   0.000000
    34  H    2.604600   3.793706   3.061663   0.000000
    35  H    3.162241   3.752112   2.515701   1.770936   0.000000
    36  H    3.796444   4.336239   3.739166   1.765940   1.769774
    37  H    3.752675   2.532692   3.136227   4.336933   3.754446
    38  H    4.330562   3.752776   3.831479   3.787504   3.177674
    39  H    3.831812   3.148524   2.664920   3.737042   2.516679
                   36         37         38         39
    36  H    0.000000
    37  H    3.778244   0.000000
    38  H    2.584737   1.765156   0.000000
    39  H    3.026920   1.768180   1.771822   0.000000
 Stoichiometry    C15H22O2
 Framework group  C1[X(C15H22O2)]
 Deg. of freedom   111
 Full point group                 C1      NOp   1
 Largest Abelian subgroup         C1      NOp   1
 Largest concise Abelian subgroup C1      NOp   1
                         Standard orientation:                         
 ---------------------------------------------------------------------
 Center     Atomic      Atomic             Coordinates (Angstroms)
 Number     Number       Type             X           Y           Z
 ---------------------------------------------------------------------
      1          6           0       -6.818733    0.012559    1.311539
      2          6           0       -5.997784   -0.157784    0.042244
      3          6           0       -4.503858    0.019306    0.314259
      4          6           0       -3.673957   -0.151810   -0.960694
      5          6           0       -2.197501    0.005091   -0.685051
      6          6           0       -1.426456   -1.110215   -0.330500
      7          6           0       -0.064757   -0.976679   -0.045761
      8          6           0        0.538938    0.275507   -0.134837
      9          6           0       -0.219628    1.400389   -0.461989
     10          6           0       -1.583918    1.264631   -0.738314
     11          8           0        1.903687    0.508887    0.151851
     12          6           0        2.890204   -0.444670   -0.110790
     13          8           0        2.700620   -1.548333   -0.610085
     14          6           0        4.272611    0.086564    0.293724
     15          6           0        4.281207    0.432461    1.787616
     16          6           0        5.322277   -1.007912    0.027607
     17          6           0        4.625211    1.320625   -0.545802
     18          1           0       -7.885567   -0.092360    1.090522
     19          1           0       -6.659361    1.001340    1.753502
     20          1           0       -6.550892   -0.743732    2.056396
     21          1           0       -6.330182    0.575319   -0.701663
     22          1           0       -6.186281   -1.153588   -0.375564
     23          1           0       -4.181375   -0.710355    1.067922
     24          1           0       -4.324911    1.013987    0.741830
     25          1           0       -3.985391    0.575845   -1.720840
     26          1           0       -3.857154   -1.141517   -1.398723
     27          1           0       -1.884507   -2.095858   -0.271771
     28          1           0        0.497267   -1.859891    0.239604
     29          1           0        0.245591    2.380787   -0.502509
     30          1           0       -2.165255    2.147626   -0.993908
     31          1           0        3.958092   -0.422338    2.391936
     32          1           0        3.604231    1.264474    2.012647
     33          1           0        5.283421    0.723764    2.122271
     34          1           0        5.095941   -1.920694    0.590778
     35          1           0        6.327284   -0.678531    0.313218
     36          1           0        5.350109   -1.278908   -1.034661
     37          1           0        3.957522    2.161768   -0.329270
     38          1           0        4.542796    1.106359   -1.617425
     39          1           0        5.651028    1.653684   -0.347934
 ---------------------------------------------------------------------
 Rotational constants (GHZ):      1.5462863      0.1450978      0.1427246
 Leave Link  202 at Thu Sep 30 23:49:50 2021, MaxMem= 1610612736 cpu:       0.1
 (Enter /sw/target/amd/app/gaussian/Gaussian09RevA.02_gcc-4.9.2/g09/l301.exe)
 Standard basis: 6-31G(d) (6D, 7F)
 Ernie: Thresh=  0.10000D-02 Tol=  0.10000D-05 Strict=F.
 There are   299 symmetry adapted basis functions of A   symmetry.
 Integral buffers will be    131072 words long.
 Raffenetti 2 integral format.
 Two-electron integral symmetry is turned on.
   299 basis functions,   564 primitive gaussians,   299 cartesian basis functions
    64 alpha electrons       64 beta electrons
       nuclear repulsion energy      1161.6247409432 Hartrees.
 IExCor=  402 DFT=T Ex+Corr=B3LYP ExCW=0 ScaHFX=  0.200000
 ScaDFX=  0.800000  0.720000  1.000000  0.810000 ScalE2=  1.000000  1.000000
 IRadAn=      0 IRanWt=     -1 IRanGd=            0 ICorTp=0
 NAtoms=   39 NActive=   39 NUniq=   39 SFac= 7.50D-01 NAtFMM=   80 NAOKFM=F Big=F
 Leave Link  301 at Thu Sep 30 23:49:51 2021, MaxMem= 1610612736 cpu:       0.1
 (Enter /sw/target/amd/app/gaussian/Gaussian09RevA.02_gcc-4.9.2/g09/l302.exe)
 NPDir=0 NMtPBC=     1 NCelOv=     1 NCel=       1 NClECP=     1 NCelD=      1
         NCelK=      1 NCelE2=     1 NClLst=     1 CellRange=     0.0.
 One-electron integrals computed using PRISM.
 NBasis=   299 RedAO= T  NBF=   299
 NBsUse=   299 1.00D-06 NBFU=   299
 Precomputing XC quadrature grid using
 IXCGrd= 2 IRadAn=           0 IRanWt=          -1 IRanGd=           0 AccXCQ= 1.00D-10.
 NRdTot=    2506 NPtTot=      319836 NUsed=      337898 NTot=      337930
 NSgBfM=   292   292   292   292   292 NAtAll=    39    39.
 Leave Link  302 at Thu Sep 30 23:49:57 2021, MaxMem= 1610612736 cpu:       3.8
 (Enter /sw/target/amd/app/gaussian/Gaussian09RevA.02_gcc-4.9.2/g09/l303.exe)
 DipDrv:  MaxL=1.
 Leave Link  303 at Thu Sep 30 23:49:58 2021, MaxMem= 1610612736 cpu:       0.2
 (Enter /sw/target/amd/app/gaussian/Gaussian09RevA.02_gcc-4.9.2/g09/l401.exe)
 Harris functional with IExCor=  402 diagonalized for initial guess.
 ExpMin= 1.61D-01 ExpMax= 5.48D+03 ExpMxC= 8.25D+02 IAcc=1 IRadAn=         1 AccDes= 0.00D+00
 HarFok:  IExCor=  402 AccDes= 0.00D+00 IRadAn=         1 IDoV= 1
 ScaDFX=  1.000000  1.000000  1.000000  1.000000
 FoFCou: FMM=F IPFlag=           0 FMFlag=      100000 FMFlg1=           0
         NFxFlg=           0 DoJE=T BraDBF=F KetDBF=T FulRan=T
         Omega=  0.000000  0.000000  1.000000  0.000000  0.000000 ICntrl=     500 IOpCl=  0
         NMat0=    1 NMatS0=    1 NMatT0=    0 NMatD0=    1 NMtDS0=    0 NMtDT0=    0
         I1Cent=           4 NGrid=           0.
 Petite list used in FoFCou.
 Harris En= -735.481777128285    
 Initial guess orbital symmetries:
       Occupied  (A) (A) (A) (A) (A) (A) (A) (A) (A) (A) (A) (A)
                 (A) (A) (A) (A) (A) (A) (A) (A) (A) (A) (A) (A)
                 (A) (A) (A) (A) (A) (A) (A) (A) (A) (A) (A) (A)
                 (A) (A) (A) (A) (A) (A) (A) (A) (A) (A) (A) (A)
                 (A) (A) (A) (A) (A) (A) (A) (A) (A) (A) (A) (A)
                 (A) (A) (A) (A)
       Virtual   (A) (A) (A) (A) (A) (A) (A) (A) (A) (A) (A) (A)
                 (A) (A) (A) (A) (A) (A) (A) (A) (A) (A) (A) (A)
                 (A) (A) (A) (A) (A) (A) (A) (A) (A) (A) (A) (A)
                 (A) (A) (A) (A) (A) (A) (A) (A) (A) (A) (A) (A)
                 (A) (A) (A) (A) (A) (A) (A) (A) (A) (A) (A) (A)
                 (A) (A) (A) (A) (A) (A) (A) (A) (A) (A) (A) (A)
                 (A) (A) (A) (A) (A) (A) (A) (A) (A) (A) (A) (A)
                 (A) (A) (A) (A) (A) (A) (A) (A) (A) (A) (A) (A)
                 (A) (A) (A) (A) (A) (A) (A) (A) (A) (A) (A) (A)
                 (A) (A) (A) (A) (A) (A) (A) (A) (A) (A) (A) (A)
                 (A) (A) (A) (A) (A) (A) (A) (A) (A) (A) (A) (A)
                 (A) (A) (A) (A) (A) (A) (A) (A) (A) (A) (A) (A)
                 (A) (A) (A) (A) (A) (A) (A) (A) (A) (A) (A) (A)
                 (A) (A) (A) (A) (A) (A) (A) (A) (A) (A) (A) (A)
                 (A) (A) (A) (A) (A) (A) (A) (A) (A) (A) (A) (A)
                 (A) (A) (A) (A) (A) (A) (A) (A) (A) (A) (A) (A)
                 (A) (A) (A) (A) (A) (A) (A) (A) (A) (A) (A) (A)
                 (A) (A) (A) (A) (A) (A) (A) (A) (A) (A) (A) (A)
                 (A) (A) (A) (A) (A) (A) (A) (A) (A) (A) (A) (A)
                 (A) (A) (A) (A) (A) (A) (A)
 The electronic state of the initial guess is 1-A.
 Leave Link  401 at Thu Sep 30 23:50:10 2021, MaxMem= 1610612736 cpu:      14.4
 (Enter /sw/target/amd/app/gaussian/Gaussian09RevA.02_gcc-4.9.2/g09/l502.exe)
 Closed shell SCF:
 Requested convergence on RMS density matrix=1.00D-08 within  64 cycles.
 Requested convergence on MAX density matrix=1.00D-06.
 Requested convergence on             energy=1.00D-06.
 No special actions if energy rises.
 Using DIIS extrapolation, IDIIS=  1040.
 Integral symmetry usage will be decided dynamically.
       337534 words used for storage of precomputed grid.
 Keep R1 ints in memory in canonical form, NReq=1019898891.
 IEnd=      615352 IEndB=      615352 NGot=  1610612736 MDV=   604307606
 LenX=   604307606 LenY=   604217764
 Symmetry not used in FoFDir.
 MinBra= 0 MaxBra= 2 Meth= 1.
 IRaf=       0 NMat=   1 IRICut=       1 DoRegI=T DoRafI=F ISym2E= 0 JSym2E=0.
 Integral accuracy reduced to 1.0D-05 until final iterations.

 Cycle   1  Pass 0  IDiag  1:
 E= -734.735450480189    
 DIIS: error= 3.74D-02 at cycle   1 NSaved=   1.
 NSaved= 1 IEnMin= 1 EnMin= -734.735450480189     IErMin= 1 ErrMin= 3.74D-02
 ErrMax= 3.74D-02 EMaxC= 1.00D-01 BMatC= 5.68D-01 BMatP= 5.68D-01
 IDIUse=3 WtCom= 6.26D-01 WtEn= 3.74D-01
 Coeff-Com:  0.100D+01
 Coeff-En:   0.100D+01
 Coeff:      0.100D+01
 Gap=     0.263 Goal=   None    Shift=    0.000
 GapD=    0.263 DampG=1.000 DampE=0.500 DampFc=0.5000 IDamp=-1.
 Damping current iteration by 5.00D-01
 RMSDP=5.62D-03 MaxDP=2.05D-01              OVMax= 2.20D-01

 Cycle   2  Pass 0  IDiag  1:
 E= -734.947168607289     Delta-E=       -0.211718127100 Rises=F Damp=T
 DIIS: error= 1.73D-02 at cycle   2 NSaved=   2.
 NSaved= 2 IEnMin= 2 EnMin= -734.947168607289     IErMin= 2 ErrMin= 1.73D-02
 ErrMax= 1.73D-02 EMaxC= 1.00D-01 BMatC= 6.42D-02 BMatP= 5.68D-01
 IDIUse=3 WtCom= 8.27D-01 WtEn= 1.73D-01
 Coeff-Com:  0.168D+00 0.832D+00
 Coeff-En:   0.251D+00 0.749D+00
 Coeff:      0.183D+00 0.817D+00
 Gap=     0.224 Goal=   None    Shift=    0.000
 RMSDP=1.63D-03 MaxDP=7.77D-02 DE=-2.12D-01 OVMax= 2.01D-01

 Cycle   3  Pass 0  IDiag  1:
 E= -735.244122678555     Delta-E=       -0.296954071267 Rises=F Damp=F
 DIIS: error= 2.46D-02 at cycle   3 NSaved=   3.
 NSaved= 3 IEnMin= 3 EnMin= -735.244122678555     IErMin= 2 ErrMin= 1.73D-02
 ErrMax= 2.46D-02 EMaxC= 1.00D-01 BMatC= 9.14D-02 BMatP= 6.42D-02
 IDIUse=2 WtCom= 0.00D+00 WtEn= 1.00D+00
 Coeff-En:   0.000D+00 0.000D+00 0.100D+01
 Coeff:      0.000D+00 0.000D+00 0.100D+01
 Gap=     0.233 Goal=   None    Shift=    0.000
 RMSDP=2.97D-03 MaxDP=1.82D-01 DE=-2.97D-01 OVMax= 3.33D-01

 Cycle   4  Pass 0  IDiag  1:
 E= -734.824567610232     Delta-E=        0.419555068323 Rises=F Damp=F
 DIIS: error= 6.65D-02 at cycle   4 NSaved=   4.
 NSaved= 4 IEnMin= 3 EnMin= -735.244122678555     IErMin= 2 ErrMin= 1.73D-02
 ErrMax= 6.65D-02 EMaxC= 1.00D-01 BMatC= 6.18D-01 BMatP= 6.42D-02
 IDIUse=2 WtCom= 0.00D+00 WtEn= 1.00D+00
 Coeff-En:   0.000D+00 0.000D+00 0.808D+00 0.192D+00
 Coeff:      0.000D+00 0.000D+00 0.808D+00 0.192D+00
 Gap=     0.235 Goal=   None    Shift=    0.000
 RMSDP=1.59D-03 MaxDP=9.30D-02 DE= 4.20D-01 OVMax= 1.19D-01

 Cycle   5  Pass 0  IDiag  1:
 E= -735.282866924533     Delta-E=       -0.458299314301 Rises=F Damp=F
 DIIS: error= 1.72D-02 at cycle   5 NSaved=   5.
 NSaved= 5 IEnMin= 5 EnMin= -735.282866924533     IErMin= 5 ErrMin= 1.72D-02
 ErrMax= 1.72D-02 EMaxC= 1.00D-01 BMatC= 4.76D-02 BMatP= 6.42D-02
 IDIUse=3 WtCom= 8.28D-01 WtEn= 1.72D-01
 Coeff-Com: -0.342D-02 0.466D-01 0.335D+00-0.795D-01 0.701D+00
 Coeff-En:   0.000D+00 0.000D+00 0.375D+00 0.000D+00 0.625D+00
 Coeff:     -0.283D-02 0.385D-01 0.342D+00-0.658D-01 0.688D+00
 Gap=     0.215 Goal=   None    Shift=    0.000
 RMSDP=6.43D-04 MaxDP=3.48D-02 DE=-4.58D-01 OVMax= 5.10D-02

 Cycle   6  Pass 0  IDiag  1:
 E= -735.321614690895     Delta-E=       -0.038747766362 Rises=F Damp=F
 DIIS: error= 1.31D-03 at cycle   6 NSaved=   6.
 NSaved= 6 IEnMin= 6 EnMin= -735.321614690895     IErMin= 6 ErrMin= 1.31D-03
 ErrMax= 1.31D-03 EMaxC= 1.00D-01 BMatC= 5.19D-04 BMatP= 4.76D-02
 IDIUse=3 WtCom= 9.87D-01 WtEn= 1.31D-02
 Coeff-Com: -0.540D-02 0.204D-01 0.173D+00-0.625D-01 0.451D+00 0.423D+00
 Coeff-En:   0.000D+00 0.000D+00 0.000D+00 0.000D+00 0.000D+00 0.100D+01
 Coeff:     -0.533D-02 0.201D-01 0.171D+00-0.617D-01 0.445D+00 0.431D+00
 Gap=     0.215 Goal=   None    Shift=    0.000
 RMSDP=8.43D-05 MaxDP=4.02D-03 DE=-3.87D-02 OVMax= 9.60D-03

 Cycle   7  Pass 0  IDiag  1:
 E= -735.322080747314     Delta-E=       -0.000466056419 Rises=F Damp=F
 DIIS: error= 3.32D-04 at cycle   7 NSaved=   7.
 NSaved= 7 IEnMin= 7 EnMin= -735.322080747314     IErMin= 7 ErrMin= 3.32D-04
 ErrMax= 3.32D-04 EMaxC= 1.00D-01 BMatC= 2.54D-05 BMatP= 5.19D-04
 IDIUse=3 WtCom= 9.97D-01 WtEn= 3.32D-03
 Coeff-Com: -0.729D-03 0.167D-02 0.349D-01-0.142D-01 0.885D-01 0.167D+00
 Coeff-Com:  0.723D+00
 Coeff-En:   0.000D+00 0.000D+00 0.000D+00 0.000D+00 0.000D+00 0.000D+00
 Coeff-En:   0.100D+01
 Coeff:     -0.727D-03 0.167D-02 0.348D-01-0.142D-01 0.882D-01 0.166D+00
 Coeff:      0.724D+00
 Gap=     0.215 Goal=   None    Shift=    0.000
 RMSDP=1.93D-05 MaxDP=6.15D-04 DE=-4.66D-04 OVMax= 1.84D-03

 Cycle   8  Pass 0  IDiag  1:
 E= -735.322104140610     Delta-E=       -0.000023393296 Rises=F Damp=F
 DIIS: error= 7.54D-05 at cycle   8 NSaved=   8.
 NSaved= 8 IEnMin= 8 EnMin= -735.322104140610     IErMin= 8 ErrMin= 7.54D-05
 ErrMax= 7.54D-05 EMaxC= 1.00D-01 BMatC= 1.97D-06 BMatP= 2.54D-05
 IDIUse=1 WtCom= 1.00D+00 WtEn= 0.00D+00
 Coeff-Com:  0.792D-04-0.742D-03 0.868D-02-0.348D-02 0.183D-01 0.651D-01
 Coeff-Com:  0.406D+00 0.506D+00
 Coeff:      0.792D-04-0.742D-03 0.868D-02-0.348D-02 0.183D-01 0.651D-01
 Coeff:      0.406D+00 0.506D+00
 Gap=     0.215 Goal=   None    Shift=    0.000
 RMSDP=5.36D-06 MaxDP=2.19D-04 DE=-2.34D-05 OVMax= 5.31D-04

 Initial convergence to 1.0D-05 achieved.  Increase integral accuracy.
 Cycle   9  Pass 1  IDiag  1:
 E= -735.322288994411     Delta-E=       -0.000184853800 Rises=F Damp=F
 DIIS: error= 2.99D-05 at cycle   1 NSaved=   1.
 NSaved= 1 IEnMin= 1 EnMin= -735.322288994411     IErMin= 1 ErrMin= 2.99D-05
 ErrMax= 2.99D-05 EMaxC= 1.00D-01 BMatC= 2.68D-07 BMatP= 2.68D-07
 IDIUse=1 WtCom= 1.00D+00 WtEn= 0.00D+00
 Coeff-Com:  0.100D+01
 Coeff:      0.100D+01
 Gap=     0.215 Goal=   None    Shift=    0.000
 RMSDP=5.36D-06 MaxDP=2.19D-04 DE=-1.85D-04 OVMax= 4.02D-04

 Cycle  10  Pass 1  IDiag  1:
 E= -735.322288866933     Delta-E=        0.000000127478 Rises=F Damp=F
 DIIS: error= 5.93D-05 at cycle   2 NSaved=   2.
 NSaved= 2 IEnMin= 1 EnMin= -735.322288994411     IErMin= 1 ErrMin= 2.99D-05
 ErrMax= 5.93D-05 EMaxC= 1.00D-01 BMatC= 4.35D-07 BMatP= 2.68D-07
 IDIUse=1 WtCom= 1.00D+00 WtEn= 0.00D+00
 Coeff-Com:  0.573D+00 0.427D+00
 Coeff:      0.573D+00 0.427D+00
 Gap=     0.215 Goal=   None    Shift=    0.000
 RMSDP=2.86D-06 MaxDP=1.25D-04 DE= 1.27D-07 OVMax= 3.39D-04

 Cycle  11  Pass 1  IDiag  1:
 E= -735.322289282399     Delta-E=       -0.000000415466 Rises=F Damp=F
 DIIS: error= 1.78D-05 at cycle   3 NSaved=   3.
 NSaved= 3 IEnMin= 3 EnMin= -735.322289282399     IErMin= 3 ErrMin= 1.78D-05
 ErrMax= 1.78D-05 EMaxC= 1.00D-01 BMatC= 3.92D-08 BMatP= 2.68D-07
 IDIUse=1 WtCom= 1.00D+00 WtEn= 0.00D+00
 Coeff-Com:  0.415D-01 0.228D+00 0.730D+00
 Coeff:      0.415D-01 0.228D+00 0.730D+00
 Gap=     0.215 Goal=   None    Shift=    0.000
 RMSDP=9.48D-07 MaxDP=3.41D-05 DE=-4.15D-07 OVMax= 9.54D-05

 Cycle  12  Pass 1  IDiag  1:
 E= -735.322289314011     Delta-E=       -0.000000031613 Rises=F Damp=F
 DIIS: error= 6.59D-06 at cycle   4 NSaved=   4.
 NSaved= 4 IEnMin= 4 EnMin= -735.322289314011     IErMin= 4 ErrMin= 6.59D-06
 ErrMax= 6.59D-06 EMaxC= 1.00D-01 BMatC= 1.37D-08 BMatP= 3.92D-08
 IDIUse=1 WtCom= 1.00D+00 WtEn= 0.00D+00
 Coeff-Com: -0.130D-01 0.128D+00 0.512D+00 0.373D+00
 Coeff:     -0.130D-01 0.128D+00 0.512D+00 0.373D+00
 Gap=     0.215 Goal=   None    Shift=    0.000
 RMSDP=3.41D-07 MaxDP=2.27D-05 DE=-3.16D-08 OVMax= 2.53D-05

 Cycle  13  Pass 1  IDiag  1:
 E= -735.322289324709     Delta-E=       -0.000000010697 Rises=F Damp=F
 DIIS: error= 1.06D-06 at cycle   5 NSaved=   5.
 NSaved= 5 IEnMin= 5 EnMin= -735.322289324709     IErMin= 5 ErrMin= 1.06D-06
 ErrMax= 1.06D-06 EMaxC= 1.00D-01 BMatC= 3.43D-10 BMatP= 1.37D-08
 IDIUse=1 WtCom= 1.00D+00 WtEn= 0.00D+00
 Coeff-Com: -0.101D-01 0.522D-01 0.228D+00 0.198D+00 0.532D+00
 Coeff:     -0.101D-01 0.522D-01 0.228D+00 0.198D+00 0.532D+00
 Gap=     0.215 Goal=   None    Shift=    0.000
 RMSDP=7.48D-08 MaxDP=3.62D-06 DE=-1.07D-08 OVMax= 4.97D-06

 Cycle  14  Pass 1  IDiag  1:
 E= -735.322289324984     Delta-E=       -0.000000000275 Rises=F Damp=F
 DIIS: error= 4.70D-07 at cycle   6 NSaved=   6.
 NSaved= 6 IEnMin= 6 EnMin= -735.322289324984     IErMin= 6 ErrMin= 4.70D-07
 ErrMax= 4.70D-07 EMaxC= 1.00D-01 BMatC= 4.64D-11 BMatP= 3.43D-10
 IDIUse=1 WtCom= 1.00D+00 WtEn= 0.00D+00
 Coeff-Com: -0.531D-02 0.215D-01 0.997D-01 0.910D-01 0.328D+00 0.465D+00
 Coeff:     -0.531D-02 0.215D-01 0.997D-01 0.910D-01 0.328D+00 0.465D+00
 Gap=     0.215 Goal=   None    Shift=    0.000
 RMSDP=2.19D-08 MaxDP=1.30D-06 DE=-2.75D-10 OVMax= 1.66D-06

 Cycle  15  Pass 1  IDiag  1:
 E= -735.322289325012     Delta-E=       -0.000000000029 Rises=F Damp=F
 DIIS: error= 6.33D-08 at cycle   7 NSaved=   7.
 NSaved= 7 IEnMin= 7 EnMin= -735.322289325012     IErMin= 7 ErrMin= 6.33D-08
 ErrMax= 6.33D-08 EMaxC= 1.00D-01 BMatC= 2.30D-12 BMatP= 4.64D-11
 IDIUse=1 WtCom= 1.00D+00 WtEn= 0.00D+00
 Coeff-Com: -0.984D-03 0.267D-02 0.149D-01 0.153D-01 0.812D-01 0.218D+00
 Coeff-Com:  0.669D+00
 Coeff:     -0.984D-03 0.267D-02 0.149D-01 0.153D-01 0.812D-01 0.218D+00
 Coeff:      0.669D+00
 Gap=     0.215 Goal=   None    Shift=    0.000
 RMSDP=6.70D-09 MaxDP=2.32D-07 DE=-2.86D-11 OVMax= 5.48D-07

 SCF Done:  E(RB3LYP) =  -735.322289325     A.U. after   15 cycles
             Convg  =    0.6698D-08             -V/T =  2.0098
 KE= 7.281596257962D+02 PE=-4.030077478450D+03 EE= 1.404970822385D+03
 Leave Link  502 at Fri Oct  1 00:03:40 2021, MaxMem= 1610612736 cpu:     412.0
 (Enter /sw/target/amd/app/gaussian/Gaussian09RevA.02_gcc-4.9.2/g09/l508.exe)
 QCSCF skips out because SCF is already converged.
 Leave Link  508 at Fri Oct  1 00:03:41 2021, MaxMem= 1610612736 cpu:       0.0
 (Enter /sw/target/amd/app/gaussian/Gaussian09RevA.02_gcc-4.9.2/g09/l601.exe)
 Copying SCF densities to generalized density rwf, IOpCl= 0 IROHF=0.

 **********************************************************************

            Population analysis using the SCF density.

 **********************************************************************

 Orbital symmetries:
       Occupied  (A) (A) (A) (A) (A) (A) (A) (A) (A) (A) (A) (A)
                 (A) (A) (A) (A) (A) (A) (A) (A) (A) (A) (A) (A)
                 (A) (A) (A) (A) (A) (A) (A) (A) (A) (A) (A) (A)
                 (A) (A) (A) (A) (A) (A) (A) (A) (A) (A) (A) (A)
                 (A) (A) (A) (A) (A) (A) (A) (A) (A) (A) (A) (A)
                 (A) (A) (A) (A)
       Virtual   (A) (A) (A) (A) (A) (A) (A) (A) (A) (A) (A) (A)
                 (A) (A) (A) (A) (A) (A) (A) (A) (A) (A) (A) (A)
                 (A) (A) (A) (A) (A) (A) (A) (A) (A) (A) (A) (A)
                 (A) (A) (A) (A) (A) (A) (A) (A) (A) (A) (A) (A)
                 (A) (A) (A) (A) (A) (A) (A) (A) (A) (A) (A) (A)
                 (A) (A) (A) (A) (A) (A) (A) (A) (A) (A) (A) (A)
                 (A) (A) (A) (A) (A) (A) (A) (A) (A) (A) (A) (A)
                 (A) (A) (A) (A) (A) (A) (A) (A) (A) (A) (A) (A)
                 (A) (A) (A) (A) (A) (A) (A) (A) (A) (A) (A) (A)
                 (A) (A) (A) (A) (A) (A) (A) (A) (A) (A) (A) (A)
                 (A) (A) (A) (A) (A) (A) (A) (A) (A) (A) (A) (A)
                 (A) (A) (A) (A) (A) (A) (A) (A) (A) (A) (A) (A)
                 (A) (A) (A) (A) (A) (A) (A) (A) (A) (A) (A) (A)
                 (A) (A) (A) (A) (A) (A) (A) (A) (A) (A) (A) (A)
                 (A) (A) (A) (A) (A) (A) (A) (A) (A) (A) (A) (A)
                 (A) (A) (A) (A) (A) (A) (A) (A) (A) (A) (A) (A)
                 (A) (A) (A) (A) (A) (A) (A) (A) (A) (A) (A) (A)
                 (A) (A) (A) (A) (A) (A) (A) (A) (A) (A) (A) (A)
                 (A) (A) (A) (A) (A) (A) (A) (A) (A) (A) (A) (A)
                 (A) (A) (A) (A) (A) (A) (A)
 The electronic state is 1-A.
 Alpha  occ. eigenvalues --  -19.20171 -19.14366 -10.32136 -10.24993 -10.21377
 Alpha  occ. eigenvalues --  -10.19190 -10.19170 -10.18999 -10.18823 -10.18768
 Alpha  occ. eigenvalues --  -10.18357 -10.18148 -10.18096 -10.17953 -10.17803
 Alpha  occ. eigenvalues --  -10.17327 -10.17097  -1.09224  -1.01724  -0.85667
 Alpha  occ. eigenvalues --   -0.82480  -0.80202  -0.76284  -0.74604  -0.71315
 Alpha  occ. eigenvalues --   -0.69263  -0.68459  -0.65891  -0.62150  -0.61401
 Alpha  occ. eigenvalues --   -0.58255  -0.57585  -0.55049  -0.49244  -0.48617
 Alpha  occ. eigenvalues --   -0.47533  -0.47100  -0.46325  -0.45082  -0.44157
 Alpha  occ. eigenvalues --   -0.43150  -0.43059  -0.42515  -0.42206  -0.40990
 Alpha  occ. eigenvalues --   -0.39772  -0.39100  -0.38819  -0.38199  -0.37245
 Alpha  occ. eigenvalues --   -0.36530  -0.36114  -0.35581  -0.35040  -0.34094
 Alpha  occ. eigenvalues --   -0.33706  -0.33467  -0.32987  -0.32630  -0.32196
 Alpha  occ. eigenvalues --   -0.31008  -0.26992  -0.24834  -0.22800
 Alpha virt. eigenvalues --   -0.01267  -0.00161   0.02054   0.08276   0.08597
 Alpha virt. eigenvalues --    0.09888   0.11898   0.12336   0.12574   0.13828
 Alpha virt. eigenvalues --    0.14207   0.14951   0.15375   0.15437   0.16074
 Alpha virt. eigenvalues --    0.16378   0.16698   0.17617   0.17899   0.18498
 Alpha virt. eigenvalues --    0.18976   0.19289   0.19371   0.19610   0.19642
 Alpha virt. eigenvalues --    0.21009   0.21781   0.22199   0.22340   0.22996
 Alpha virt. eigenvalues --    0.24229   0.25439   0.26179   0.27277   0.28353
 Alpha virt. eigenvalues --    0.31008   0.32891   0.33751   0.35133   0.35748
 Alpha virt. eigenvalues --    0.38722   0.47680   0.49935   0.50129   0.50342
 Alpha virt. eigenvalues --    0.50424   0.50910   0.51482   0.51783   0.53079
 Alpha virt. eigenvalues --    0.54244   0.54908   0.55657   0.56686   0.57776
 Alpha virt. eigenvalues --    0.59231   0.59280   0.60312   0.60705   0.61436
 Alpha virt. eigenvalues --    0.62423   0.62552   0.63268   0.64928   0.65279
 Alpha virt. eigenvalues --    0.66069   0.67130   0.68013   0.70016   0.70361
 Alpha virt. eigenvalues --    0.70555   0.71056   0.73185   0.75206   0.77252
 Alpha virt. eigenvalues --    0.78533   0.79604   0.80195   0.82353   0.82562
 Alpha virt. eigenvalues --    0.83840   0.84400   0.85362   0.85767   0.86806
 Alpha virt. eigenvalues --    0.87170   0.87188   0.88029   0.88756   0.89405
 Alpha virt. eigenvalues --    0.89494   0.90248   0.90692   0.91055   0.92101
 Alpha virt. eigenvalues --    0.92856   0.93203   0.93824   0.94151   0.94599
 Alpha virt. eigenvalues --    0.95240   0.95763   0.96988   0.97329   0.98357
 Alpha virt. eigenvalues --    0.98653   0.98776   1.00325   1.01324   1.04614
 Alpha virt. eigenvalues --    1.06833   1.07479   1.12156   1.14244   1.16003
 Alpha virt. eigenvalues --    1.16553   1.18819   1.21916   1.23399   1.26244
 Alpha virt. eigenvalues --    1.27065   1.31472   1.33290   1.34724   1.37964
 Alpha virt. eigenvalues --    1.40437   1.41097   1.44399   1.45485   1.47031
 Alpha virt. eigenvalues --    1.47546   1.49135   1.50254   1.50453   1.51285
 Alpha virt. eigenvalues --    1.53302   1.53979   1.60119   1.63386   1.64862
 Alpha virt. eigenvalues --    1.67132   1.69318   1.72388   1.72979   1.73909
 Alpha virt. eigenvalues --    1.76201   1.79606   1.81130   1.83576   1.83728
 Alpha virt. eigenvalues --    1.85298   1.86008   1.86864   1.87666   1.89801
 Alpha virt. eigenvalues --    1.90439   1.91157   1.92841   1.94186   1.96168
 Alpha virt. eigenvalues --    1.97165   1.97422   1.97794   1.98520   1.99249
 Alpha virt. eigenvalues --    2.00594   2.01593   2.01779   2.06247   2.07358
 Alpha virt. eigenvalues --    2.08850   2.09223   2.13973   2.14140   2.15045
 Alpha virt. eigenvalues --    2.16772   2.17493   2.21691   2.22949   2.24310
 Alpha virt. eigenvalues --    2.24701   2.26493   2.27042   2.28270   2.29145
 Alpha virt. eigenvalues --    2.30540   2.31207   2.31793   2.33873   2.37193
 Alpha virt. eigenvalues --    2.39964   2.40390   2.41489   2.43099   2.48146
 Alpha virt. eigenvalues --    2.51494   2.52507   2.55456   2.57066   2.59208
 Alpha virt. eigenvalues --    2.61726   2.64196   2.66234   2.67426   2.69117
 Alpha virt. eigenvalues --    2.71739   2.74801   2.77033   2.79636   2.80674
 Alpha virt. eigenvalues --    2.82673   2.84679   2.93538   2.96328   3.02830
 Alpha virt. eigenvalues --    3.07699   3.27032   3.42626   4.05858   4.10227
 Alpha virt. eigenvalues --    4.12121   4.13484   4.15185   4.20059   4.26248
 Alpha virt. eigenvalues --    4.29736   4.31654   4.32401   4.33648   4.39337
 Alpha virt. eigenvalues --    4.49064   4.51046   4.55603   4.71266   4.78646
          Condensed to atoms (all electrons):
              1          2          3          4          5          6
     1  C    5.065725   0.372821  -0.045316   0.004003  -0.000151  -0.000003
     2  C    0.372821   4.967748   0.370493  -0.039293   0.004486   0.000083
     3  C   -0.045316   0.370493   5.014067   0.365254  -0.044143  -0.004228
     4  C    0.004003  -0.039293   0.365254   5.147795   0.357172  -0.055845
     5  C   -0.000151   0.004486  -0.044143   0.357172   4.644209   0.544226
     6  C   -0.000003   0.000083  -0.004228  -0.055845   0.544226   4.988536
     7  C   -0.000000   0.000002  -0.000111   0.006778  -0.023086   0.478363
     8  C    0.000000  -0.000000   0.000031   0.000385  -0.031897  -0.012839
     9  C   -0.000000   0.000002  -0.000086   0.006514  -0.023384  -0.045089
    10  C   -0.000002   0.000071  -0.003782  -0.057084   0.545605  -0.033021
    11  O   -0.000000  -0.000000   0.000000   0.000000   0.000119   0.003333
    12  C   -0.000000  -0.000000   0.000000   0.000000   0.000018   0.000340
    13  O   -0.000000   0.000000  -0.000000   0.000000   0.000001   0.000151
    14  C   -0.000000   0.000000  -0.000000   0.000000   0.000000   0.000005
    15  C   -0.000000   0.000000  -0.000000  -0.000000   0.000000  -0.000001
    16  C    0.000000  -0.000000  -0.000000  -0.000000   0.000000  -0.000000
    17  C    0.000000  -0.000000   0.000000   0.000000   0.000000  -0.000000
    18  H    0.371191  -0.029361   0.004547  -0.000161   0.000002   0.000000
    19  H    0.378802  -0.035672  -0.005143   0.000054   0.000002   0.000000
    20  H    0.378782  -0.035167  -0.004772   0.000036   0.000003  -0.000002
    21  H   -0.039682   0.378345  -0.040021  -0.003432   0.000100  -0.000002
    22  H   -0.039495   0.378455  -0.039998  -0.003503   0.000087   0.000005
    23  H   -0.002985  -0.039136   0.374003  -0.040480  -0.001597   0.003877
    24  H   -0.003322  -0.038627   0.373361  -0.040238  -0.001789  -0.000067
    25  H    0.000036  -0.004196  -0.037023   0.359506  -0.030324   0.003974
    26  H    0.000043  -0.004353  -0.037493   0.360898  -0.031086  -0.005403
    27  H    0.000001  -0.000061   0.000398  -0.009023  -0.043682   0.355502
    28  H    0.000000  -0.000000  -0.000000  -0.000158   0.003677  -0.037549
    29  H    0.000000  -0.000000  -0.000000  -0.000162   0.003915   0.000380
    30  H    0.000001  -0.000058   0.000393  -0.008848  -0.043590   0.006028
    31  H    0.000000  -0.000000  -0.000000  -0.000000   0.000000  -0.000000
    32  H   -0.000000   0.000000  -0.000000  -0.000000   0.000000  -0.000000
    33  H   -0.000000   0.000000  -0.000000  -0.000000  -0.000000   0.000000
    34  H    0.000000  -0.000000   0.000000  -0.000000  -0.000000   0.000000
    35  H    0.000000   0.000000  -0.000000  -0.000000  -0.000000   0.000000
    36  H    0.000000  -0.000000   0.000000  -0.000000  -0.000000  -0.000000
    37  H    0.000000   0.000000  -0.000000  -0.000000   0.000000  -0.000000
    38  H    0.000000   0.000000  -0.000000  -0.000000  -0.000000  -0.000000
    39  H    0.000000  -0.000000   0.000000   0.000000   0.000000  -0.000000
              7          8          9         10         11         12
     1  C   -0.000000   0.000000  -0.000000  -0.000002  -0.000000  -0.000000
     2  C    0.000002  -0.000000   0.000002   0.000071  -0.000000  -0.000000
     3  C   -0.000111   0.000031  -0.000086  -0.003782   0.000000   0.000000
     4  C    0.006778   0.000385   0.006514  -0.057084   0.000000   0.000000
     5  C   -0.023086  -0.031897  -0.023384   0.545605   0.000119   0.000018
     6  C    0.478363  -0.012839  -0.045089  -0.033021   0.003333   0.000340
     7  C    5.017433   0.511108  -0.063623  -0.044784  -0.048239  -0.002316
     8  C    0.511108   4.539100   0.539378  -0.018585   0.203312  -0.008768
     9  C   -0.063623   0.539378   5.003191   0.497067  -0.048105   0.000899
    10  C   -0.044784  -0.018585   0.497067   4.968330   0.003138  -0.000036
    11  O   -0.048239   0.203312  -0.048105   0.003138   8.361719   0.220946
    12  C   -0.002316  -0.008768   0.000899  -0.000036   0.220946   4.403355
    13  O   -0.001310  -0.002319   0.000197   0.000001  -0.065652   0.536121
    14  C    0.000408   0.003655  -0.000390   0.000003  -0.094794   0.352579
    15  C   -0.000067   0.000021  -0.000005  -0.000000   0.002051  -0.043050
    16  C   -0.000001  -0.000053   0.000003  -0.000000   0.003211  -0.046900
    17  C   -0.000002  -0.000228  -0.000002   0.000000   0.001806  -0.040779
    18  H    0.000000  -0.000000   0.000000   0.000000   0.000000   0.000000
    19  H   -0.000000   0.000000  -0.000000  -0.000002   0.000000  -0.000000
    20  H   -0.000000   0.000000  -0.000000   0.000000   0.000000   0.000000
    21  H   -0.000000   0.000000  -0.000000   0.000004   0.000000   0.000000
    22  H   -0.000000   0.000000  -0.000000  -0.000002   0.000000  -0.000000
    23  H   -0.000145  -0.000008  -0.000009  -0.000084  -0.000000  -0.000000
    24  H   -0.000006  -0.000006  -0.000140   0.003820  -0.000000  -0.000000
    25  H   -0.000222   0.000010   0.000128  -0.005231  -0.000000  -0.000000
    26  H    0.000166   0.000013  -0.000215   0.004002  -0.000000  -0.000000
    27  H   -0.041021   0.003341   0.000473   0.005807  -0.000045  -0.000011
    28  H    0.349924  -0.033779   0.005047   0.000539  -0.006753   0.001561
    29  H    0.006554  -0.038183   0.344914  -0.038447  -0.001005  -0.000070
    30  H    0.000190   0.003932  -0.043235   0.356060  -0.000053   0.000000
    31  H    0.000000  -0.000019   0.000002  -0.000000  -0.000068  -0.002264
    32  H    0.000018   0.000101  -0.000007  -0.000000   0.005482  -0.006195
    33  H    0.000000  -0.000001  -0.000000   0.000000   0.000110   0.004107
    34  H   -0.000002  -0.000004  -0.000000  -0.000000   0.000032  -0.004873
    35  H    0.000000   0.000001  -0.000000   0.000000  -0.000030   0.005130
    36  H    0.000000  -0.000004  -0.000000   0.000000   0.000034  -0.005195
    37  H    0.000012   0.000039   0.000004   0.000000   0.005259  -0.005823
    38  H   -0.000002   0.000001  -0.000001  -0.000000  -0.000100  -0.002743
    39  H    0.000000   0.000005  -0.000001   0.000000   0.000081   0.003984
             13         14         15         16         17         18
     1  C   -0.000000  -0.000000  -0.000000   0.000000   0.000000   0.371191
     2  C    0.000000   0.000000   0.000000  -0.000000  -0.000000  -0.029361
     3  C   -0.000000  -0.000000  -0.000000  -0.000000   0.000000   0.004547
     4  C    0.000000   0.000000  -0.000000  -0.000000   0.000000  -0.000161
     5  C    0.000001   0.000000   0.000000   0.000000   0.000000   0.000002
     6  C    0.000151   0.000005  -0.000001  -0.000000  -0.000000   0.000000
     7  C   -0.001310   0.000408  -0.000067  -0.000001  -0.000002   0.000000
     8  C   -0.002319   0.003655   0.000021  -0.000053  -0.000228  -0.000000
     9  C    0.000197  -0.000390  -0.000005   0.000003  -0.000002   0.000000
    10  C    0.000001   0.000003  -0.000000  -0.000000   0.000000   0.000000
    11  O   -0.065652  -0.094794   0.002051   0.003211   0.001806   0.000000
    12  C    0.536121   0.352579  -0.043050  -0.046900  -0.040779   0.000000
    13  O    8.053529  -0.075673   0.000305   0.001997  -0.000142   0.000000
    14  C   -0.075673   4.980454   0.361375   0.371400   0.364146   0.000000
    15  C    0.000305   0.361375   5.147076  -0.060950  -0.054558   0.000000
    16  C    0.001997   0.371400  -0.060950   5.131622  -0.060483   0.000000
    17  C   -0.000142   0.364146  -0.054558  -0.060483   5.141179   0.000000
    18  H    0.000000   0.000000   0.000000   0.000000   0.000000   0.580316
    19  H    0.000000  -0.000000  -0.000000  -0.000000   0.000000  -0.030759
    20  H    0.000000   0.000000  -0.000000  -0.000000   0.000000  -0.030709
    21  H   -0.000000   0.000000   0.000000   0.000000  -0.000000  -0.003200
    22  H    0.000000  -0.000000   0.000000  -0.000000  -0.000000  -0.002676
    23  H   -0.000000  -0.000000   0.000000   0.000000  -0.000000  -0.000022
    24  H   -0.000000  -0.000000   0.000000   0.000000  -0.000000  -0.000019
    25  H   -0.000000  -0.000000   0.000000   0.000000  -0.000000   0.000001
    26  H    0.000000   0.000000   0.000000   0.000000  -0.000000   0.000001
    27  H   -0.000007  -0.000000  -0.000000   0.000000   0.000000  -0.000000
    28  H    0.010730   0.000000  -0.000029   0.000008   0.000003  -0.000000
    29  H    0.000010  -0.000021  -0.000006   0.000000   0.000012  -0.000000
    30  H   -0.000000  -0.000000   0.000000   0.000000  -0.000000  -0.000000
    31  H    0.000551  -0.032822   0.369501  -0.003723   0.005572  -0.000000
    32  H    0.000017  -0.027265   0.367060   0.005561  -0.005012   0.000000
    33  H   -0.000065  -0.028936   0.369085  -0.005303  -0.004801   0.000000
    34  H    0.003379  -0.027427  -0.003780   0.369153   0.005577   0.000000
    35  H    0.000575  -0.027495  -0.005087   0.361229  -0.004969   0.000000
    36  H    0.003721  -0.026775   0.005586   0.369123  -0.004068   0.000000
    37  H    0.000009  -0.028026  -0.005134   0.005641   0.366704  -0.000000
    38  H    0.000713  -0.031731   0.005613  -0.003861   0.369143   0.000000
    39  H   -0.000068  -0.029673  -0.004924  -0.005306   0.370659   0.000000
             19         20         21         22         23         24
     1  C    0.378802   0.378782  -0.039682  -0.039495  -0.002985  -0.003322
     2  C   -0.035672  -0.035167   0.378345   0.378455  -0.039136  -0.038627
     3  C   -0.005143  -0.004772  -0.040021  -0.039998   0.374003   0.373361
     4  C    0.000054   0.000036  -0.003432  -0.003503  -0.040480  -0.040238
     5  C    0.000002   0.000003   0.000100   0.000087  -0.001597  -0.001789
     6  C    0.000000  -0.000002  -0.000002   0.000005   0.003877  -0.000067
     7  C   -0.000000  -0.000000  -0.000000  -0.000000  -0.000145  -0.000006
     8  C    0.000000   0.000000   0.000000   0.000000  -0.000008  -0.000006
     9  C   -0.000000  -0.000000  -0.000000  -0.000000  -0.000009  -0.000140
    10  C   -0.000002   0.000000   0.000004  -0.000002  -0.000084   0.003820
    11  O    0.000000   0.000000   0.000000   0.000000  -0.000000  -0.000000
    12  C   -0.000000   0.000000   0.000000  -0.000000  -0.000000  -0.000000
    13  O    0.000000   0.000000  -0.000000   0.000000  -0.000000  -0.000000
    14  C   -0.000000   0.000000   0.000000  -0.000000  -0.000000  -0.000000
    15  C   -0.000000  -0.000000   0.000000   0.000000   0.000000   0.000000
    16  C   -0.000000  -0.000000   0.000000  -0.000000   0.000000   0.000000
    17  C    0.000000   0.000000  -0.000000  -0.000000  -0.000000  -0.000000
    18  H   -0.030759  -0.030709  -0.003200  -0.002676  -0.000022  -0.000019
    19  H    0.577202  -0.032031  -0.004438   0.005462  -0.000417   0.005177
    20  H   -0.032031   0.576615   0.005464  -0.004979   0.004905  -0.000406
    21  H   -0.004438   0.005464   0.608954  -0.038653   0.005795  -0.005227
    22  H    0.005462  -0.004979  -0.038653   0.608031  -0.005221   0.005771
    23  H   -0.000417   0.004905   0.005795  -0.005221   0.602104  -0.038218
    24  H    0.005177  -0.000406  -0.005227   0.005771  -0.038218   0.603631
    25  H    0.000004   0.000005   0.005005  -0.000417   0.005806  -0.005070
    26  H    0.000007   0.000004  -0.000426   0.005146  -0.004980   0.005833
    27  H    0.000000   0.000000   0.000001   0.000006   0.000729   0.000031
    28  H   -0.000000  -0.000000   0.000000  -0.000000   0.000003   0.000000
    29  H   -0.000000  -0.000000  -0.000000   0.000000   0.000000   0.000003
    30  H    0.000000   0.000000   0.000006   0.000001   0.000036   0.000740
    31  H    0.000000   0.000000   0.000000  -0.000000   0.000000  -0.000000
    32  H   -0.000000  -0.000000   0.000000  -0.000000   0.000000   0.000000
    33  H   -0.000000  -0.000000   0.000000   0.000000   0.000000   0.000000
    34  H    0.000000   0.000000   0.000000  -0.000000  -0.000000  -0.000000
    35  H    0.000000   0.000000   0.000000  -0.000000   0.000000   0.000000
    36  H   -0.000000  -0.000000   0.000000  -0.000000   0.000000   0.000000
    37  H   -0.000000  -0.000000  -0.000000   0.000000   0.000000   0.000000
    38  H   -0.000000  -0.000000   0.000000   0.000000   0.000000   0.000000
    39  H    0.000000   0.000000  -0.000000   0.000000  -0.000000  -0.000000
             25         26         27         28         29         30
     1  C    0.000036   0.000043   0.000001   0.000000   0.000000   0.000001
[...]

    46    C    4  S      Cor( 1S)     1.99928
    47    C    4  S      Val( 2S)     1.02868
    48    C    4  S      Ryd( 3S)     0.00073
    49    C    4  S      Ryd( 4S)     0.00002
    50    C    4  px     Val( 2p)     1.04991
    51    C    4  px     Ryd( 3p)     0.00197
    52    C    4  py     Val( 2p)     1.23894
    53    C    4  py     Ryd( 3p)     0.00517
    54    C    4  pz     Val( 2p)     1.14217
    55    C    4  pz     Ryd( 3p)     0.00167
    56    C    4  dxy    Ryd( 3d)     0.00038
    57    C    4  dxz    Ryd( 3d)     0.00070
    58    C    4  dyz    Ryd( 3d)     0.00082
    59    C    4  dx2y2  Ryd( 3d)     0.00103
    60    C    4  dz2    Ryd( 3d)     0.00070

    61    C    5  S      Cor( 1S)     1.99906
    62    C    5  S      Val( 2S)     0.88957
    63    C    5  S      Ryd( 3S)     0.00086
    64    C    5  S      Ryd( 4S)     0.00005
    65    C    5  px     Val( 2p)     1.05392
    66    C    5  px     Ryd( 3p)     0.00500
    67    C    5  py     Val( 2p)     1.06537
    68    C    5  py     Ryd( 3p)     0.00456
    69    C    5  pz     Val( 2p)     0.97406
    70    C    5  pz     Ryd( 3p)     0.00406
    71    C    5  dxy    Ryd( 3d)     0.00084
    72    C    5  dxz    Ryd( 3d)     0.00060
    73    C    5  dyz    Ryd( 3d)     0.00068
    74    C    5  dx2y2  Ryd( 3d)     0.00070
    75    C    5  dz2    Ryd( 3d)     0.00055

    76    C    6  S      Cor( 1S)     1.99907
    77    C    6  S      Val( 2S)     0.95662
    78    C    6  S      Ryd( 3S)     0.00062
    79    C    6  S      Ryd( 4S)     0.00005
    80    C    6  px     Val( 2p)     1.07588
    81    C    6  px     Ryd( 3p)     0.00416
    82    C    6  py     Val( 2p)     1.15174
    83    C    6  py     Ryd( 3p)     0.00472
    84    C    6  pz     Val( 2p)     1.02775
    85    C    6  pz     Ryd( 3p)     0.00468
    86    C    6  dxy    Ryd( 3d)     0.00078
    87    C    6  dxz    Ryd( 3d)     0.00061
    88    C    6  dyz    Ryd( 3d)     0.00043
    89    C    6  dx2y2  Ryd( 3d)     0.00069
    90    C    6  dz2    Ryd( 3d)     0.00052

    91    C    7  S      Cor( 1S)     1.99903
    92    C    7  S      Val( 2S)     0.96669
    93    C    7  S      Ryd( 3S)     0.00078
    94    C    7  S      Ryd( 4S)     0.00005
    95    C    7  px     Val( 2p)     1.09717
    96    C    7  px     Ryd( 3p)     0.00460
    97    C    7  py     Val( 2p)     1.12903
    98    C    7  py     Ryd( 3p)     0.00480
    99    C    7  pz     Val( 2p)     1.06743
   100    C    7  pz     Ryd( 3p)     0.00509
   101    C    7  dxy    Ryd( 3d)     0.00070
   102    C    7  dxz    Ryd( 3d)     0.00066
   103    C    7  dyz    Ryd( 3d)     0.00058
   104    C    7  dx2y2  Ryd( 3d)     0.00062
   105    C    7  dz2    Ryd( 3d)     0.00041

   106    C    8  S      Cor( 1S)     1.99873
   107    C    8  S      Val( 2S)     0.84696
   108    C    8  S      Ryd( 3S)     0.00139
   109    C    8  S      Ryd( 4S)     0.00011
   110    C    8  px     Val( 2p)     0.75256
   111    C    8  px     Ryd( 3p)     0.00684
   112    C    8  py     Val( 2p)     1.07120
   113    C    8  py     Ryd( 3p)     0.00614
   114    C    8  pz     Val( 2p)     0.99258
   115    C    8  pz     Ryd( 3p)     0.00328
   116    C    8  dxy    Ryd( 3d)     0.00134
   117    C    8  dxz    Ryd( 3d)     0.00133
   118    C    8  dyz    Ryd( 3d)     0.00085
   119    C    8  dx2y2  Ryd( 3d)     0.00161
   120    C    8  dz2    Ryd( 3d)     0.00084

   121    C    9  S      Cor( 1S)     1.99904
   122    C    9  S      Val( 2S)     0.96791
   123    C    9  S      Ryd( 3S)     0.00076
   124    C    9  S      Ryd( 4S)     0.00005
   125    C    9  px     Val( 2p)     1.08773
   126    C    9  px     Ryd( 3p)     0.00506
   127    C    9  py     Val( 2p)     1.15517
   128    C    9  py     Ryd( 3p)     0.00453
   129    C    9  pz     Val( 2p)     1.03243
   130    C    9  pz     Ryd( 3p)     0.00530
   131    C    9  dxy    Ryd( 3d)     0.00083
   132    C    9  dxz    Ryd( 3d)     0.00059
   133    C    9  dyz    Ryd( 3d)     0.00047
   134    C    9  dx2y2  Ryd( 3d)     0.00056
   135    C    9  dz2    Ryd( 3d)     0.00055

   136    C   10  S      Cor( 1S)     1.99906
   137    C   10  S      Val( 2S)     0.95601
   138    C   10  S      Ryd( 3S)     0.00057
   139    C   10  S      Ryd( 4S)     0.00005
   140    C   10  px     Val( 2p)     1.08324
   141    C   10  px     Ryd( 3p)     0.00409
   142    C   10  py     Val( 2p)     1.12648
   143    C   10  py     Ryd( 3p)     0.00479
   144    C   10  pz     Val( 2p)     1.06007
   145    C   10  pz     Ryd( 3p)     0.00487
   146    C   10  dxy    Ryd( 3d)     0.00072
   147    C   10  dxz    Ryd( 3d)     0.00064
   148    C   10  dyz    Ryd( 3d)     0.00057
   149    C   10  dx2y2  Ryd( 3d)     0.00067
   150    C   10  dz2    Ryd( 3d)     0.00038

   151    O   11  S      Cor( 1S)     1.99969
   152    O   11  S      Val( 2S)     1.59882
   153    O   11  S      Ryd( 3S)     0.00133
   154    O   11  S      Ryd( 4S)     0.00010
   155    O   11  px     Val( 2p)     1.42263
   156    O   11  px     Ryd( 3p)     0.00081
   157    O   11  py     Val( 2p)     1.76421
   158    O   11  py     Ryd( 3p)     0.00221
   159    O   11  pz     Val( 2p)     1.72785
   160    O   11  pz     Ryd( 3p)     0.00160
   161    O   11  dxy    Ryd( 3d)     0.00100
   162    O   11  dxz    Ryd( 3d)     0.00070
   163    O   11  dyz    Ryd( 3d)     0.00126
   164    O   11  dx2y2  Ryd( 3d)     0.00119
   165    O   11  dz2    Ryd( 3d)     0.00107

   166    C   12  S      Cor( 1S)     1.99927
   167    C   12  S      Val( 2S)     0.77723
   168    C   12  S      Ryd( 3S)     0.00663
   169    C   12  S      Ryd( 4S)     0.00049
   170    C   12  px     Val( 2p)     0.84406
   171    C   12  px     Ryd( 3p)     0.00571
   172    C   12  py     Val( 2p)     0.73555
   173    C   12  py     Ryd( 3p)     0.01828
   174    C   12  pz     Val( 2p)     0.77971
   175    C   12  pz     Ryd( 3p)     0.00822
   176    C   12  dxy    Ryd( 3d)     0.00314
   177    C   12  dxz    Ryd( 3d)     0.00175
   178    C   12  dyz    Ryd( 3d)     0.00122
   179    C   12  dx2y2  Ryd( 3d)     0.00194
   180    C   12  dz2    Ryd( 3d)     0.00150

   181    O   13  S      Cor( 1S)     1.99977
   182    O   13  S      Val( 2S)     1.69631
   183    O   13  S      Ryd( 3S)     0.00056
   184    O   13  S      Ryd( 4S)     0.00013
   185    O   13  px     Val( 2p)     1.79556
   186    O   13  px     Ryd( 3p)     0.00175
   187    O   13  py     Val( 2p)     1.56731
   188    O   13  py     Ryd( 3p)     0.00061
   189    O   13  pz     Val( 2p)     1.48419
   190    O   13  pz     Ryd( 3p)     0.00079
   191    O   13  dxy    Ryd( 3d)     0.00356
   192    O   13  dxz    Ryd( 3d)     0.00143
   193    O   13  dyz    Ryd( 3d)     0.00460
   194    O   13  dx2y2  Ryd( 3d)     0.00365
   195    O   13  dz2    Ryd( 3d)     0.00296

   196    C   14  S      Cor( 1S)     1.99905
   197    C   14  S      Val( 2S)     0.94073
   198    C   14  S      Ryd( 3S)     0.00046
   199    C   14  S      Ryd( 4S)     0.00003
   200    C   14  px     Val( 2p)     1.06193
   201    C   14  px     Ryd( 3p)     0.00227
   202    C   14  py     Val( 2p)     1.06976
   203    C   14  py     Ryd( 3p)     0.00343
   204    C   14  pz     Val( 2p)     1.06472
   205    C   14  pz     Ryd( 3p)     0.00238
   206    C   14  dxy    Ryd( 3d)     0.00080
   207    C   14  dxz    Ryd( 3d)     0.00066
   208    C   14  dyz    Ryd( 3d)     0.00070
   209    C   14  dx2y2  Ryd( 3d)     0.00087
   210    C   14  dz2    Ryd( 3d)     0.00091

   211    C   15  S      Cor( 1S)     1.99938
   212    C   15  S      Val( 2S)     1.09615
   213    C   15  S      Ryd( 3S)     0.00059
   214    C   15  S      Ryd( 4S)     0.00002
   215    C   15  px     Val( 2p)     1.25182
   216    C   15  px     Ryd( 3p)     0.00194
   217    C   15  py     Val( 2p)     1.25074
   218    C   15  py     Ryd( 3p)     0.00234
   219    C   15  pz     Val( 2p)     1.06196
   220    C   15  pz     Ryd( 3p)     0.00150
   221    C   15  dxy    Ryd( 3d)     0.00075
   222    C   15  dxz    Ryd( 3d)     0.00053
   223    C   15  dyz    Ryd( 3d)     0.00071
   224    C   15  dx2y2  Ryd( 3d)     0.00066
   225    C   15  dz2    Ryd( 3d)     0.00071

   226    C   16  S      Cor( 1S)     1.99939
   227    C   16  S      Val( 2S)     1.09065
   228    C   16  S      Ryd( 3S)     0.00058
   229    C   16  S      Ryd( 4S)     0.00002
   230    C   16  px     Val( 2p)     1.14963
   231    C   16  px     Ryd( 3p)     0.00233
   232    C   16  py     Val( 2p)     1.17955
   233    C   16  py     Ryd( 3p)     0.00224
   234    C   16  pz     Val( 2p)     1.23956
   235    C   16  pz     Ryd( 3p)     0.00255
   236    C   16  dxy    Ryd( 3d)     0.00057
   237    C   16  dxz    Ryd( 3d)     0.00033
   238    C   16  dyz    Ryd( 3d)     0.00046
   239    C   16  dx2y2  Ryd( 3d)     0.00087
   240    C   16  dz2    Ryd( 3d)     0.00110

   241    C   17  S      Cor( 1S)     1.99938
   242    C   17  S      Val( 2S)     1.09537
   243    C   17  S      Ryd( 3S)     0.00058
   244    C   17  S      Ryd( 4S)     0.00002
   245    C   17  px     Val( 2p)     1.24495
   246    C   17  px     Ryd( 3p)     0.00197
   247    C   17  py     Val( 2p)     1.09822
   248    C   17  py     Ryd( 3p)     0.00167
   249    C   17  pz     Val( 2p)     1.22177
   250    C   17  pz     Ryd( 3p)     0.00224
   251    C   17  dxy    Ryd( 3d)     0.00093
   252    C   17  dxz    Ryd( 3d)     0.00028
   253    C   17  dyz    Ryd( 3d)     0.00039
   254    C   17  dx2y2  Ryd( 3d)     0.00055
   255    C   17  dz2    Ryd( 3d)     0.00120

   256    H   18  S      Val( 1S)     0.76604
   257    H   18  S      Ryd( 2S)     0.00083

   258    H   19  S      Val( 1S)     0.77357
   259    H   19  S      Ryd( 2S)     0.00107

   260    H   20  S      Val( 1S)     0.77344
   261    H   20  S      Ryd( 2S)     0.00107

   262    H   21  S      Val( 1S)     0.77150
   263    H   21  S      Ryd( 2S)     0.00167

   264    H   22  S      Val( 1S)     0.77132
   265    H   22  S      Ryd( 2S)     0.00167

   266    H   23  S      Val( 1S)     0.76709
   267    H   23  S      Ryd( 2S)     0.00188

   268    H   24  S      Val( 1S)     0.76720
   269    H   24  S      Ryd( 2S)     0.00188

   270    H   25  S      Val( 1S)     0.75884
   271    H   25  S      Ryd( 2S)     0.00211

   272    H   26  S      Val( 1S)     0.75791
   273    H   26  S      Ryd( 2S)     0.00209

   274    H   27  S      Val( 1S)     0.76912
   275    H   27  S      Ryd( 2S)     0.00105

   276    H   28  S      Val( 1S)     0.75065
   277    H   28  S      Ryd( 2S)     0.00106

   278    H   29  S      Val( 1S)     0.75842
   279    H   29  S      Ryd( 2S)     0.00120

   280    H   30  S      Val( 1S)     0.76962
   281    H   30  S      Ryd( 2S)     0.00105

   282    H   31  S      Val( 1S)     0.76349
   283    H   31  S      Ryd( 2S)     0.00094

   284    H   32  S      Val( 1S)     0.75551
   285    H   32  S      Ryd( 2S)     0.00106

   286    H   33  S      Val( 1S)     0.76471
   287    H   33  S      Ryd( 2S)     0.00121

   288    H   34  S      Val( 1S)     0.75637
   289    H   34  S      Ryd( 2S)     0.00105

   290    H   35  S      Val( 1S)     0.76947
   291    H   35  S      Ryd( 2S)     0.00092

   292    H   36  S      Val( 1S)     0.75619
   293    H   36  S      Ryd( 2S)     0.00104

   294    H   37  S      Val( 1S)     0.75644
   295    H   37  S      Ryd( 2S)     0.00114

   296    H   38  S      Val( 1S)     0.76288
   297    H   38  S      Ryd( 2S)     0.00092

   298    H   39  S      Val( 1S)     0.76503
   299    H   39  S      Ryd( 2S)     0.00109

 WARNING:  1 low occupancy (<1.9990e) core orbital  found on  C    8


 Summary of Natural Population Analysis:                  
                                                          
                                       Natural Population 
                Natural  -----------------------------------------------
    Atom  No    Charge         Core      Valence    Rydberg      Total
 -----------------------------------------------------------------------
      C    1   -0.67279      1.99946     4.66583    0.00750     6.67279
      C    2   -0.45436      1.99935     4.44505    0.00996     6.45436
      C    3   -0.44284      1.99931     4.43263    0.01090     6.44284
      C    4   -0.47217      1.99928     4.45969    0.01320     6.47217
      C    5    0.00012      1.99906     3.98292    0.01790     5.99988
      C    6   -0.22831      1.99907     4.21199    0.01726     6.22831
      C    7   -0.27766      1.99903     4.26032    0.01830     6.27766
      C    8    0.31424      1.99873     3.66329    0.02373     5.68576
      C    9   -0.26097      1.99904     4.24325    0.01869     6.26097
      C   10   -0.24222      1.99906     4.22579    0.01736     6.24222
      O   11   -0.52447      1.99969     6.51350    0.01127     8.52447
      C   12    0.81530      1.99927     3.13655    0.04888     5.18470
      O   13   -0.56320      1.99977     6.54336    0.02006     8.56320
      C   14   -0.14870      1.99905     4.13715    0.01250     6.14870
      C   15   -0.66978      1.99938     4.66066    0.00974     6.66978
      C   16   -0.66985      1.99939     4.65940    0.01105     6.66985
      C   17   -0.66953      1.99938     4.66031    0.00983     6.66953
      H   18    0.23313      0.00000     0.76604    0.00083     0.76687
      H   19    0.22536      0.00000     0.77357    0.00107     0.77464
      H   20    0.22549      0.00000     0.77344    0.00107     0.77451
      H   21    0.22683      0.00000     0.77150    0.00167     0.77317
      H   22    0.22701      0.00000     0.77132    0.00167     0.77299
      H   23    0.23103      0.00000     0.76709    0.00188     0.76897
      H   24    0.23092      0.00000     0.76720    0.00188     0.76908
      H   25    0.23905      0.00000     0.75884    0.00211     0.76095
      H   26    0.24000      0.00000     0.75791    0.00209     0.76000
      H   27    0.22983      0.00000     0.76912    0.00105     0.77017
      H   28    0.24829      0.00000     0.75065    0.00106     0.75171
      H   29    0.24038      0.00000     0.75842    0.00120     0.75962
      H   30    0.22933      0.00000     0.76962    0.00105     0.77067
      H   31    0.23556      0.00000     0.76349    0.00094     0.76444
      H   32    0.24343      0.00000     0.75551    0.00106     0.75657
      H   33    0.23408      0.00000     0.76471    0.00121     0.76592
      H   34    0.24258      0.00000     0.75637    0.00105     0.75742
      H   35    0.22961      0.00000     0.76947    0.00092     0.77039
      H   36    0.24277      0.00000     0.75619    0.00104     0.75723
      H   37    0.24242      0.00000     0.75644    0.00114     0.75758
      H   38    0.23620      0.00000     0.76288    0.00092     0.76380
      H   39    0.23389      0.00000     0.76503    0.00109     0.76611
 =======================================================================
   * Total *    0.00000     33.98734    93.70650    0.30615   128.00000

                                 Natural Population      
 --------------------------------------------------------
   Core                      33.98734 ( 99.9628% of  34)
   Valence                   93.70650 ( 99.6878% of  94)
   Natural Minimal Basis    127.69385 ( 99.7608% of 128)
   Natural Rydberg Basis      0.30615 (  0.2392% of 128)
 --------------------------------------------------------

    Atom  No          Natural Electron Configuration
 ----------------------------------------------------------------------------
      C    1      [core]2S( 1.10)2p( 3.56)
      C    2      [core]2S( 1.04)2p( 3.41)3p( 0.01)
      C    3      [core]2S( 1.04)2p( 3.39)3p( 0.01)
      C    4      [core]2S( 1.03)2p( 3.43)3p( 0.01)
      C    5      [core]2S( 0.89)2p( 3.09)3p( 0.01)
      C    6      [core]2S( 0.96)2p( 3.26)3p( 0.01)
      C    7      [core]2S( 0.97)2p( 3.29)3p( 0.01)
      C    8      [core]2S( 0.85)2p( 2.82)3p( 0.02)3d( 0.01)
      C    9      [core]2S( 0.97)2p( 3.28)3p( 0.01)
      C   10      [core]2S( 0.96)2p( 3.27)3p( 0.01)
      O   11      [core]2S( 1.60)2p( 4.91)3d( 0.01)
      C   12      [core]2S( 0.78)2p( 2.36)3S( 0.01)3p( 0.03)3d( 0.01)
      O   13      [core]2S( 1.70)2p( 4.85)3d( 0.02)
      C   14      [core]2S( 0.94)2p( 3.20)3p( 0.01)
      C   15      [core]2S( 1.10)2p( 3.56)3p( 0.01)
      C   16      [core]2S( 1.09)2p( 3.57)3p( 0.01)
      C   17      [core]2S( 1.10)2p( 3.56)3p( 0.01)
      H   18            1S( 0.77)
      H   19            1S( 0.77)
      H   20            1S( 0.77)
      H   21            1S( 0.77)
      H   22            1S( 0.77)
      H   23            1S( 0.77)
      H   24            1S( 0.77)
      H   25            1S( 0.76)
      H   26            1S( 0.76)
      H   27            1S( 0.77)
      H   28            1S( 0.75)
      H   29            1S( 0.76)
      H   30            1S( 0.77)
      H   31            1S( 0.76)
      H   32            1S( 0.76)
      H   33            1S( 0.76)
      H   34            1S( 0.76)
      H   35            1S( 0.77)
      H   36            1S( 0.76)
      H   37            1S( 0.76)
      H   38            1S( 0.76)
      H   39            1S( 0.77)


 NBO analysis skipped by request.
 Leave Link  607 at Fri Oct  1 06:28:55 2021, MaxMem= 1610612736 cpu:      20.6
 (Enter /sw/target/amd/app/gaussian/Gaussian09RevA.02_gcc-4.9.2/g09/l9999.exe)
 1\1\GINC-HERMITE\SP\RTD-B3LYP-FC\6-31G(d)\C15H22O2\JSCHLEINITZ\01-Oct-
 2021\0\\#p TD(NStates=10, Root=1) b3lyp/6-31G* volume pop=NPA density=
 current Geom=AllCheck Guess=Read\\CCCCc1ccc(cc1)OC(=O)C(C)(C)C_conf_0\
 \0,1\C,0,5.7695907081,1.5419053137,-2.345933285\C,0,4.9848642655,0.851
 0716448,-1.2259360362\C,0,5.5297819991,-0.5399028005,-0.8792427422\C,0
 ,4.7434097457,-1.2362770267,0.249841965\C,0,5.2843361453,-2.6074369841
 ,0.5938499215\C,0,6.3019501973,-2.7639287303,1.5449471276\C,0,6.839011
 9224,-4.0152068948,1.8447018815\C,0,6.3433328261,-5.1369949942,1.18250
 58086\C,0,5.3327305029,-5.0153075173,0.2325380952\C,0,4.8116735749,-3.
 75482421,-0.0563085819\O,0,6.8772321389,-6.4154545396,1.3675321759\C,0
 ,7.0152860747,-6.9411403093,2.6280974097\O,0,6.6988290638,-6.354915988
 2,3.6346726746\C,0,7.6192771489,-8.3482522007,2.5592911581\C,0,9.01854
 20971,-8.2595262227,1.9088256769\C,0,7.7321293787,-8.9022003026,3.9882
 969382\C,0,6.7037248072,-9.2551857983,1.7072659536\H,0,5.3572471097,2.
 5320140526,-2.5712989372\H,0,5.7437939888,0.9517150654,-3.2701688674\H
 ,0,6.8224997337,1.6745241718,-2.0683769922\H,0,3.9284145567,0.76443386
 37,-1.5177390555\H,0,4.9999217514,1.4810534015,-0.3250454784\H,0,6.585
 7653892,-0.459555172,-0.5847990117\H,0,5.512653816,-1.1770085777,-1.77
 48303367\H,0,3.6898600265,-1.3198825423,-0.0486209834\H,0,4.7624587555
 ,-0.5977301763,1.1431085506\H,0,6.6826848392,-1.8891751933,2.067483113
 6\H,0,7.6189916073,-4.1194730997,2.5891288681\H,0,4.9654190433,-5.9053
 45411,-0.2689793998\H,0,4.0202338017,-3.6643566279,-0.7970352384\H,0,9
 .6852536708,-7.610551226,2.4886246053\H,0,8.9607372377,-7.8691770112,0
 .888938611\H,0,9.4710314216,-9.2571970458,1.8717494641\H,0,8.366022708
 7,-8.265141864,4.6122531387\H,0,8.1679436521,-9.9072796736,3.962677277
 2\H,0,6.7507942322,-8.9625647924,4.4685749429\H,0,6.6141868329,-8.8823
 678702,0.6833219997\H,0,5.6984021285,-9.3212332339,2.1392255508\H,0,7.
 1201654951,-10.2684756141,1.6706520591\\Version=AM64L-G09RevA.02\State
 =1-A\HF=-735.326425\RMSD=5.642e-10\Dipole=0.1155086,0.0295452,-0.68912
 38\Quadrupole=-0.5233309,7.2662433,-6.7429124,-2.6050334,3.3969213,-0.
 2156466\PG=C01 [X(C15H22O2)]\\@


 WOMEN HOLD UP HALF THE SKY. -- MAO TSE TUNG
 Job cpu time:  0 days  5 hours 42 minutes 59.8 seconds.
 File lengths (MBytes):  RWF=    300 Int=      0 D2E=      0 Chk=     41 Scr=      1
 Normal termination of Gaussian 09 at Fri Oct  1 06:28:56 2021.
