 Entering Gaussian System, Link 0=g09
 Input=C15H15NO4_eba3_conf_0.com
 Output=C15H15NO4_eba3_conf_0.log
 Initial command:
 /sw/target/amd/app/gaussian/Gaussian09RevA.02_gcc-4.9.2/g09/l1.exe /home/jschleinitz/gaussian/Gau-1713829.inp -scrdir=/home/jschleinitz/gaussian/
 Entering Link 1 = /sw/target/amd/app/gaussian/Gaussian09RevA.02_gcc-4.9.2/g09/l1.exe PID=   1713836.
  
 Copyright (c) 1988,1990,1992,1993,1995,1998,2003,2009, Gaussian, Inc.
                  All Rights Reserved.
  
 This is part of the Gaussian(R) 09 program.  It is based on
 the Gaussian(R) 03 system (copyright 2003, Gaussian, Inc.),
 the Gaussian(R) 98 system (copyright 1998, Gaussian, Inc.),
 the Gaussian(R) 94 system (copyright 1995, Gaussian, Inc.),
 the Gaussian 92(TM) system (copyright 1992, Gaussian, Inc.),
 the Gaussian 90(TM) system (copyright 1990, Gaussian, Inc.),
 the Gaussian 88(TM) system (copyright 1988, Gaussian, Inc.),
 the Gaussian 86(TM) system (copyright 1986, Carnegie Mellon
 University), and the Gaussian 82(TM) system (copyright 1983,
 Carnegie Mellon University). Gaussian is a federally registered
 trademark of Gaussian, Inc.
  
 This software contains proprietary and confidential information,
 including trade secrets, belonging to Gaussian, Inc.
  
 This software is provided under written license and may be
 used, copied, transmitted, or stored only in accord with that
 written license.
  
 The following legend is applicable only to US Government
 contracts under FAR:
  
                    RESTRICTED RIGHTS LEGEND
  
 Use, reproduction and disclosure by the US Government is
 subject to restrictions as set forth in subparagraphs (a)
 and (c) of the Commercial Computer Software - Restricted
 Rights clause in FAR 52.227-19.
  
 Gaussian, Inc.
 340 Quinnipiac St., Bldg. 40, Wallingford CT 06492
  
  
 ---------------------------------------------------------------
 Warning -- This program may not be used in any manner that
 competes with the business of Gaussian, Inc. or will provide
 assistance to any competitor of Gaussian, Inc.  The licensee
 of this program is prohibited from giving any competitor of
 Gaussian, Inc. access to this program.  By using this program,
 the user acknowledges that Gaussian, Inc. is engaged in the
 business of creating and licensing software in the field of
 computational chemistry and represents and warrants to the
 licensee that it is not a competitor of Gaussian, Inc. and that
 it will not use this program in any manner prohibited above.
 ---------------------------------------------------------------
  

 Cite this work as:
 Gaussian 09, Revision A.02,
 M. J. Frisch, G. W. Trucks, H. B. Schlegel, G. E. Scuseria, 
 M. A. Robb, J. R. Cheeseman, G. Scalmani, V. Barone, B. Mennucci, 
 G. A. Petersson, H. Nakatsuji, M. Caricato, X. Li, H. P. Hratchian, 
 A. F. Izmaylov, J. Bloino, G. Zheng, J. L. Sonnenberg, M. Hada, 
 M. Ehara, K. Toyota, R. Fukuda, J. Hasegawa, M. Ishida, T. Nakajima, 
 Y. Honda, O. Kitao, H. Nakai, T. Vreven, J. A. Montgomery, Jr., 
 J. E. Peralta, F. Ogliaro, M. Bearpark, J. J. Heyd, E. Brothers, 
 K. N. Kudin, V. N. Staroverov, R. Kobayashi, J. Normand, 
 K. Raghavachari, A. Rendell, J. C. Burant, S. S. Iyengar, J. Tomasi, 
 M. Cossi, N. Rega, J. M. Millam, M. Klene, J. E. Knox, J. B. Cross, 
 V. Bakken, C. Adamo, J. Jaramillo, R. Gomperts, R. E. Stratmann, 
 O. Yazyev, A. J. Austin, R. Cammi, C. Pomelli, J. W. Ochterski, 
 R. L. Martin, K. Morokuma, V. G. Zakrzewski, G. A. Voth, 
 P. Salvador, J. J. Dannenberg, S. Dapprich, A. D. Daniels, 
 O. Farkas, J. B. Foresman, J. V. Ortiz, J. Cioslowski, 
 and D. J. Fox, Gaussian, Inc., Wallingford CT, 2009.
 
 ******************************************
 Gaussian 09:  AM64L-G09RevA.02 11-Jun-2009
                30-Sep-2021 
 ******************************************
 %nproc=5
 Will use up to    5 processors via shared memory.
 %mem=10gb
 %chk=C15H15NO4_eba3_conf_0.chk
 -----------------------------------
 #p opt b3lyp/6-31G* scf=(xqc,tight)
 -----------------------------------
 1/14=-1,18=20,19=15,26=3,38=1/1,3;
 2/9=110,12=2,17=6,18=5,40=1/2;
 3/5=1,6=6,7=1,11=2,16=1,25=1,30=1,71=1,74=-5/1,2,3;
 4//1;
 5/5=2,8=3,13=1,32=2,38=5/2,8;
 6/7=2,8=2,9=2,10=2,28=1/1;
 7//1,2,3,16;
 1/14=-1,18=20,19=15/3(2);
 2/9=110/2;
 99//99;
 2/9=110/2;
 3/5=1,6=6,7=1,11=2,16=1,25=1,30=1,71=1,74=-5/1,2,3;
 4/5=5,16=3/1;
 5/5=2,8=3,13=1,32=2,38=5/2,8;
 7//1,2,3,16;
 1/14=-1,18=20,19=15/3(-5);
 2/9=110/2;
 6/7=2,8=2,9=2,10=2,19=2,28=1/1;
 99/9=1/99;
 Leave Link    1 at Thu Sep 30 04:22:40 2021, MaxMem= 1342177280 cpu:       0.1
 (Enter /sw/target/amd/app/gaussian/Gaussian09RevA.02_gcc-4.9.2/g09/l101.exe)
 -----------------------------------------
 COC(=O)c1c(ccc2c1cccc2)OC(=O)N(C)C_conf_0
 -----------------------------------------
 Symbolic Z-matrix:
 Charge =  0 Multiplicity = 1
 C                     1.63384   0.96582  -1.14161 
 O                     3.04814   0.76645  -1.21304 
 C                     3.43694  -0.52659  -1.34816 
 O                     2.70808  -1.50527  -1.29886 
 C                     4.90602  -0.58946  -1.54979 
 C                     5.64448  -1.45621  -0.72546 
 C                     7.01596  -1.60791  -0.90024 
 C                     7.66681  -0.86473  -1.88235 
 C                     6.95877   0.01027  -2.72093 
 C                     5.55479   0.1566   -2.57978 
 C                     4.90091   1.01732  -3.49876 
 C                     5.60013   1.72232  -4.48063 
 C                     6.97618   1.57992  -4.58648 
 C                     7.64899   0.7259   -3.71374 
 O                     4.94842  -2.2401    0.22241 
 C                     5.42885  -2.46819   1.51341 
 O                     6.48559  -2.01957   1.94286 
 N                     4.5495   -3.23887   2.26828 
 C                     3.22061  -3.56148   1.77719 
 C                     4.77352  -3.34581   3.69581 
 H                     1.13646   0.20511  -0.53249 
 H                     1.21923   0.97493  -2.15435 
 H                     1.45182   1.94307  -0.68558 
 H                     7.58919  -2.29826  -0.28732 
 H                     8.74143  -0.98914  -1.99604 
 H                     3.82229   1.15499  -3.46613 
 H                     5.06682   2.37995  -5.16179 
 H                     7.52581   2.12235  -5.34892 
 H                     8.72679   0.61741  -3.82354 
 H                     3.24724  -3.80938   0.71246 
 H                     2.5725   -2.69333   1.9281 
 H                     2.82372  -4.42208   2.32286 
 H                     5.83197  -3.2308    3.94452 
 H                     4.43432  -4.32571   4.04454 
 H                     4.20383  -2.5585    4.19837 
 
 NAtoms=     35 NQM=     35 NQMF=      0 NMic=      0 NMicF=      0 NTot=     35.
                    Isotopes and Nuclear Properties:
 (Nuclear quadrupole moments (NQMom) in fm**2, nuclear magnetic moments (NMagM)
  in nuclear magnetons)

  Atom         1           2           3           4           5           6           7           8           9          10
 IAtWgt=          12          16          12          16          12          12          12          12          12          12
 AtmWgt=  12.0000000  15.9949146  12.0000000  15.9949146  12.0000000  12.0000000  12.0000000  12.0000000  12.0000000  12.0000000
 NucSpn=           0           0           0           0           0           0           0           0           0           0
 AtZEff=   0.0000000   0.0000000   0.0000000   0.0000000   0.0000000   0.0000000   0.0000000   0.0000000   0.0000000   0.0000000
 NQMom=    0.0000000   0.0000000   0.0000000   0.0000000   0.0000000   0.0000000   0.0000000   0.0000000   0.0000000   0.0000000
 NMagM=    0.0000000   0.0000000   0.0000000   0.0000000   0.0000000   0.0000000   0.0000000   0.0000000   0.0000000   0.0000000

  Atom        11          12          13          14          15          16          17          18          19          20
 IAtWgt=          12          12          12          12          16          12          16          14          12          12
 AtmWgt=  12.0000000  12.0000000  12.0000000  12.0000000  15.9949146  12.0000000  15.9949146  14.0030740  12.0000000  12.0000000
 NucSpn=           0           0           0           0           0           0           0           2           0           0
 AtZEff=   0.0000000   0.0000000   0.0000000   0.0000000   0.0000000   0.0000000   0.0000000   0.0000000   0.0000000   0.0000000
 NQMom=    0.0000000   0.0000000   0.0000000   0.0000000   0.0000000   0.0000000   0.0000000   2.0440000   0.0000000   0.0000000
 NMagM=    0.0000000   0.0000000   0.0000000   0.0000000   0.0000000   0.0000000   0.0000000   0.4037610   0.0000000   0.0000000

  Atom        21          22          23          24          25          26          27          28          29          30
 IAtWgt=           1           1           1           1           1           1           1           1           1           1
 AtmWgt=   1.0078250   1.0078250   1.0078250   1.0078250   1.0078250   1.0078250   1.0078250   1.0078250   1.0078250   1.0078250
 NucSpn=           1           1           1           1           1           1           1           1           1           1
 AtZEff=   0.0000000   0.0000000   0.0000000   0.0000000   0.0000000   0.0000000   0.0000000   0.0000000   0.0000000   0.0000000
 NQMom=    0.0000000   0.0000000   0.0000000   0.0000000   0.0000000   0.0000000   0.0000000   0.0000000   0.0000000   0.0000000
 NMagM=    2.7928460   2.7928460   2.7928460   2.7928460   2.7928460   2.7928460   2.7928460   2.7928460   2.7928460   2.7928460

  Atom        31          32          33          34          35
 IAtWgt=           1           1           1           1           1
 AtmWgt=   1.0078250   1.0078250   1.0078250   1.0078250   1.0078250
 NucSpn=           1           1           1           1           1
 AtZEff=   0.0000000   0.0000000   0.0000000   0.0000000   0.0000000
 NQMom=    0.0000000   0.0000000   0.0000000   0.0000000   0.0000000
 NMagM=    2.7928460   2.7928460   2.7928460   2.7928460   2.7928460
 Leave Link  101 at Thu Sep 30 04:22:41 2021, MaxMem= 1342177280 cpu:       0.2
 (Enter /sw/target/amd/app/gaussian/Gaussian09RevA.02_gcc-4.9.2/g09/l103.exe)

 GradGradGradGradGradGradGradGradGradGradGradGradGradGradGradGradGradGrad
 Berny optimization.
 Initialization pass.
                           ----------------------------
                           !    Initial Parameters    !
                           ! (Angstroms and Degrees)  !
 --------------------------                            --------------------------
 ! Name  Definition              Value          Derivative Info.                !
 --------------------------------------------------------------------------------
 ! R1    R(1,2)                  1.4301         estimate D2E/DX2                !
 ! R2    R(1,21)                 1.0941         estimate D2E/DX2                !
 ! R3    R(1,22)                 1.0944         estimate D2E/DX2                !
 ! R4    R(1,23)                 1.0937         estimate D2E/DX2                !
 ! R5    R(2,3)                  1.357          estimate D2E/DX2                !
 ! R6    R(3,4)                  1.2213         estimate D2E/DX2                !
 ! R7    R(3,5)                  1.4842         estimate D2E/DX2                !
 ! R8    R(5,6)                  1.4057         estimate D2E/DX2                !
 ! R9    R(5,10)                 1.4277         estimate D2E/DX2                !
 ! R10   R(6,7)                  1.3909         estimate D2E/DX2                !
 ! R11   R(6,15)                 1.4133         estimate D2E/DX2                !
 ! R12   R(7,8)                  1.393          estimate D2E/DX2                !
 ! R13   R(7,24)                 1.0867         estimate D2E/DX2                !
 ! R14   R(8,9)                  1.4036         estimate D2E/DX2                !
 ! R15   R(8,25)                 1.0878         estimate D2E/DX2                !
 ! R16   R(9,10)                 1.4186         estimate D2E/DX2                !
 ! R17   R(9,14)                 1.4051         estimate D2E/DX2                !
 ! R18   R(10,11)                1.4188         estimate D2E/DX2                !
 ! R19   R(11,12)                1.3964         estimate D2E/DX2                !
 ! R20   R(11,26)                1.0879         estimate D2E/DX2                !
 ! R21   R(12,13)                1.3874         estimate D2E/DX2                !
 ! R22   R(12,27)                1.0867         estimate D2E/DX2                !
 ! R23   R(13,14)                1.3942         estimate D2E/DX2                !
 ! R24   R(13,28)                1.0852         estimate D2E/DX2                !
 ! R25   R(14,29)                1.0888         estimate D2E/DX2                !
 ! R26   R(15,16)                1.3963         estimate D2E/DX2                !
 ! R27   R(16,17)                1.2257         estimate D2E/DX2                !
 ! R28   R(16,18)                1.3918         estimate D2E/DX2                !
 ! R29   R(18,19)                1.453          estimate D2E/DX2                !
 ! R30   R(18,20)                1.449          estimate D2E/DX2                !
 ! R31   R(19,30)                1.0935         estimate D2E/DX2                !
 ! R32   R(19,31)                1.0938         estimate D2E/DX2                !
 ! R33   R(19,32)                1.0936         estimate D2E/DX2                !
 ! R34   R(20,33)                1.0933         estimate D2E/DX2                !
 ! R35   R(20,34)                1.094          estimate D2E/DX2                !
 ! R36   R(20,35)                1.0941         estimate D2E/DX2                !
 ! A1    A(2,1,21)             112.3622         estimate D2E/DX2                !
 ! A2    A(2,1,22)             109.2452         estimate D2E/DX2                !
 ! A3    A(2,1,23)             108.059          estimate D2E/DX2                !
 ! A4    A(21,1,22)            110.4116         estimate D2E/DX2                !
 ! A5    A(21,1,23)            108.2684         estimate D2E/DX2                !
 ! A6    A(22,1,23)            108.384          estimate D2E/DX2                !
 ! A7    A(1,2,3)              114.9095         estimate D2E/DX2                !
 ! A8    A(2,3,4)              126.057          estimate D2E/DX2                !
 ! A9    A(2,3,5)              109.7246         estimate D2E/DX2                !
 ! A10   A(4,3,5)              124.2133         estimate D2E/DX2                !
 ! A11   A(3,5,6)              117.8023         estimate D2E/DX2                !
 ! A12   A(3,5,10)             121.7126         estimate D2E/DX2                !
 ! A13   A(6,5,10)             120.4331         estimate D2E/DX2                !
 ! A14   A(5,6,7)              120.7677         estimate D2E/DX2                !
 ! A15   A(5,6,15)             118.4607         estimate D2E/DX2                !
 ! A16   A(7,6,15)             120.6248         estimate D2E/DX2                !
 ! A17   A(6,7,8)              119.4144         estimate D2E/DX2                !
 ! A18   A(6,7,24)             121.2366         estimate D2E/DX2                !
 ! A19   A(8,7,24)             119.3486         estimate D2E/DX2                !
 ! A20   A(7,8,9)              121.2049         estimate D2E/DX2                !
 ! A21   A(7,8,25)             118.3113         estimate D2E/DX2                !
 ! A22   A(9,8,25)             120.4775         estimate D2E/DX2                !
 ! A23   A(8,9,10)             120.271          estimate D2E/DX2                !
 ! A24   A(8,9,14)             119.4623         estimate D2E/DX2                !
 ! A25   A(10,9,14)            120.2607         estimate D2E/DX2                !
 ! A26   A(5,10,9)             117.8784         estimate D2E/DX2                !
 ! A27   A(5,10,11)            125.0909         estimate D2E/DX2                !
 ! A28   A(9,10,11)            117.0165         estimate D2E/DX2                !
 ! A29   A(10,11,12)           122.0697         estimate D2E/DX2                !
 ! A30   A(10,11,26)           120.9511         estimate D2E/DX2                !
 ! A31   A(12,11,26)           116.9792         estimate D2E/DX2                !
 ! A32   A(11,12,13)           119.8965         estimate D2E/DX2                !
 ! A33   A(11,12,27)           120.0355         estimate D2E/DX2                !
 ! A34   A(13,12,27)           120.068          estimate D2E/DX2                !
 ! A35   A(12,13,14)           119.5869         estimate D2E/DX2                !
 ! A36   A(12,13,28)           120.3059         estimate D2E/DX2                !
 ! A37   A(14,13,28)           120.105          estimate D2E/DX2                !
 ! A38   A(9,14,13)            121.148          estimate D2E/DX2                !
 ! A39   A(9,14,29)            120.4498         estimate D2E/DX2                !
 ! A40   A(13,14,29)           118.4001         estimate D2E/DX2                !
 ! A41   A(6,15,16)            122.77           estimate D2E/DX2                !
 ! A42   A(15,16,17)           124.1117         estimate D2E/DX2                !
 ! A43   A(15,16,18)           111.9967         estimate D2E/DX2                !
 ! A44   A(17,16,18)           123.8736         estimate D2E/DX2                !
 ! A45   A(16,18,19)           121.164          estimate D2E/DX2                !
 ! A46   A(16,18,20)           118.5251         estimate D2E/DX2                !
 ! A47   A(19,18,20)           117.2583         estimate D2E/DX2                !
 ! A48   A(18,19,30)           110.925          estimate D2E/DX2                !
 ! A49   A(18,19,31)           108.6056         estimate D2E/DX2                !
 ! A50   A(18,19,32)           109.756          estimate D2E/DX2                !
 ! A51   A(30,19,31)           109.1885         estimate D2E/DX2                !
 ! A52   A(30,19,32)           108.4374         estimate D2E/DX2                !
 ! A53   A(31,19,32)           109.9197         estimate D2E/DX2                !
 ! A54   A(18,20,33)           111.4706         estimate D2E/DX2                !
 ! A55   A(18,20,34)           109.4035         estimate D2E/DX2                !
 ! A56   A(18,20,35)           108.5989         estimate D2E/DX2                !
 ! A57   A(33,20,34)           108.7758         estimate D2E/DX2                !
 ! A58   A(33,20,35)           108.8986         estimate D2E/DX2                !
 ! A59   A(34,20,35)           109.6756         estimate D2E/DX2                !
 ! D1    D(21,1,2,3)            40.5771         estimate D2E/DX2                !
 ! D2    D(22,1,2,3)           -82.316          estimate D2E/DX2                !
 ! D3    D(23,1,2,3)           159.9612         estimate D2E/DX2                !
 ! D4    D(1,2,3,4)             -6.5595         estimate D2E/DX2                !
 ! D5    D(1,2,3,5)            174.2416         estimate D2E/DX2                !
 ! D6    D(2,3,5,6)            128.843          estimate D2E/DX2                !
 ! D7    D(2,3,5,10)           -53.768          estimate D2E/DX2                !
 ! D8    D(4,3,5,6)            -50.3739         estimate D2E/DX2                !
 ! D9    D(4,3,5,10)           127.0152         estimate D2E/DX2                !
 ! D10   D(3,5,6,7)            177.1422         estimate D2E/DX2                !
 ! D11   D(3,5,6,15)             1.5194         estimate D2E/DX2                !
 ! D12   D(10,5,6,7)            -0.2818         estimate D2E/DX2                !
 ! D13   D(10,5,6,15)         -175.9046         estimate D2E/DX2                !
 ! D14   D(3,5,10,9)          -178.4632         estimate D2E/DX2                !
 ! D15   D(3,5,10,11)            0.1199         estimate D2E/DX2                !
 ! D16   D(6,5,10,9)            -1.1419         estimate D2E/DX2                !
 ! D17   D(6,5,10,11)          177.4413         estimate D2E/DX2                !
 ! D18   D(5,6,7,8)              1.649          estimate D2E/DX2                !
 ! D19   D(5,6,7,24)          -178.1227         estimate D2E/DX2                !
 ! D20   D(15,6,7,8)           177.1768         estimate D2E/DX2                !
 ! D21   D(15,6,7,24)           -2.5948         estimate D2E/DX2                !
 ! D22   D(5,6,15,16)         -139.9343         estimate D2E/DX2                !
 ! D23   D(7,6,15,16)           44.4364         estimate D2E/DX2                !
 ! D24   D(6,7,8,9)             -1.5818         estimate D2E/DX2                !
 ! D25   D(6,7,8,25)           179.3208         estimate D2E/DX2                !
 ! D26   D(24,7,8,9)           178.1942         estimate D2E/DX2                !
 ! D27   D(24,7,8,25)           -0.9031         estimate D2E/DX2                !
 ! D28   D(7,8,9,10)             0.1328         estimate D2E/DX2                !
 ! D29   D(7,8,9,14)          -178.9743         estimate D2E/DX2                !
 ! D30   D(25,8,9,10)          179.2107         estimate D2E/DX2                !
 ! D31   D(25,8,9,14)            0.1036         estimate D2E/DX2                !
 ! D32   D(8,9,10,5)             1.2127         estimate D2E/DX2                !
 ! D33   D(8,9,10,11)         -177.486          estimate D2E/DX2                !
 ! D34   D(14,9,10,5)         -179.6874         estimate D2E/DX2                !
 ! D35   D(14,9,10,11)           1.6139         estimate D2E/DX2                !
 ! D36   D(8,9,14,13)          178.4516         estimate D2E/DX2                !
 ! D37   D(8,9,14,29)           -1.0131         estimate D2E/DX2                !
 ! D38   D(10,9,14,13)          -0.6556         estimate D2E/DX2                !
 ! D39   D(10,9,14,29)         179.8798         estimate D2E/DX2                !
 ! D40   D(5,10,11,12)         179.7561         estimate D2E/DX2                !
 ! D41   D(5,10,11,26)          -0.2883         estimate D2E/DX2                !
 ! D42   D(9,10,11,12)          -1.6498         estimate D2E/DX2                !
 ! D43   D(9,10,11,26)         178.3058         estimate D2E/DX2                !
 ! D44   D(10,11,12,13)          0.6821         estimate D2E/DX2                !
 ! D45   D(10,11,12,27)       -179.4322         estimate D2E/DX2                !
 ! D46   D(26,11,12,13)       -179.2752         estimate D2E/DX2                !
 ! D47   D(26,11,12,27)          0.6106         estimate D2E/DX2                !
 ! D48   D(11,12,13,14)          0.3605         estimate D2E/DX2                !
 ! D49   D(11,12,13,28)        179.8187         estimate D2E/DX2                !
 ! D50   D(27,12,13,14)       -179.5252         estimate D2E/DX2                !
 ! D51   D(27,12,13,28)         -0.067          estimate D2E/DX2                !
 ! D52   D(12,13,14,9)          -0.3695         estimate D2E/DX2                !
 ! D53   D(12,13,14,29)        179.1058         estimate D2E/DX2                !
 ! D54   D(28,13,14,9)        -179.8288         estimate D2E/DX2                !
 ! D55   D(28,13,14,29)         -0.3534         estimate D2E/DX2                !
 ! D56   D(6,15,16,17)          -0.1226         estimate D2E/DX2                !
 ! D57   D(6,15,16,18)         178.3825         estimate D2E/DX2                !
 ! D58   D(15,16,18,19)         -8.4654         estimate D2E/DX2                !
 ! D59   D(15,16,18,20)       -168.167          estimate D2E/DX2                !
 ! D60   D(17,16,18,19)        170.0438         estimate D2E/DX2                !
 ! D61   D(17,16,18,20)         10.3422         estimate D2E/DX2                !
 ! D62   D(16,18,19,30)         41.0481         estimate D2E/DX2                !
 ! D63   D(16,18,19,31)        -78.9526         estimate D2E/DX2                !
 ! D64   D(16,18,19,32)        160.8566         estimate D2E/DX2                !
 ! D65   D(20,18,19,30)       -159.004          estimate D2E/DX2                !
 ! D66   D(20,18,19,31)         80.9954         estimate D2E/DX2                !
 ! D67   D(20,18,19,32)        -39.1955         estimate D2E/DX2                !
 ! D68   D(16,18,20,33)        -28.0903         estimate D2E/DX2                !
 ! D69   D(16,18,20,34)       -148.437          estimate D2E/DX2                !
 ! D70   D(16,18,20,35)         91.8822         estimate D2E/DX2                !
 ! D71   D(19,18,20,33)        171.4172         estimate D2E/DX2                !
 ! D72   D(19,18,20,34)         51.0705         estimate D2E/DX2                !
 ! D73   D(19,18,20,35)        -68.6103         estimate D2E/DX2                !
 --------------------------------------------------------------------------------
 Trust Radius=3.00D-01 FncErr=1.00D-07 GrdErr=1.00D-06
 Number of steps in this run= 178 maximum allowed number of steps= 210.
 GradGradGradGradGradGradGradGradGradGradGradGradGradGradGradGradGradGrad

 Leave Link  103 at Thu Sep 30 04:22:41 2021, MaxMem= 1342177280 cpu:       0.0
 (Enter /sw/target/amd/app/gaussian/Gaussian09RevA.02_gcc-4.9.2/g09/l202.exe)
                          Input orientation:                          
 ---------------------------------------------------------------------
 Center     Atomic      Atomic             Coordinates (Angstroms)
 Number     Number       Type             X           Y           Z
 ---------------------------------------------------------------------
      1          6           0        1.633836    0.965821   -1.141605
      2          8           0        3.048137    0.766447   -1.213040
      3          6           0        3.436943   -0.526592   -1.348162
      4          8           0        2.708083   -1.505274   -1.298856
      5          6           0        4.906018   -0.589459   -1.549794
      6          6           0        5.644475   -1.456205   -0.725464
      7          6           0        7.015957   -1.607906   -0.900237
      8          6           0        7.666815   -0.864731   -1.882348
      9          6           0        6.958772    0.010269   -2.720928
     10          6           0        5.554786    0.156600   -2.579778
     11          6           0        4.900908    1.017322   -3.498761
     12          6           0        5.600126    1.722324   -4.480626
     13          6           0        6.976181    1.579917   -4.586477
     14          6           0        7.648991    0.725895   -3.713741
     15          8           0        4.948422   -2.240098    0.222407
     16          6           0        5.428850   -2.468195    1.513409
     17          8           0        6.485589   -2.019567    1.942858
     18          7           0        4.549495   -3.238869    2.268276
     19          6           0        3.220609   -3.561478    1.777188
     20          6           0        4.773518   -3.345813    3.695810
     21          1           0        1.136456    0.205113   -0.532488
     22          1           0        1.219233    0.974932   -2.154347
     23          1           0        1.451820    1.943074   -0.685575
     24          1           0        7.589186   -2.298261   -0.287320
     25          1           0        8.741431   -0.989139   -1.996040
     26          1           0        3.822286    1.154988   -3.466135
     27          1           0        5.066823    2.379954   -5.161786
     28          1           0        7.525809    2.122353   -5.348924
     29          1           0        8.726787    0.617407   -3.823539
     30          1           0        3.247236   -3.809380    0.712461
     31          1           0        2.572499   -2.693332    1.928096
     32          1           0        2.823715   -4.422080    2.322859
     33          1           0        5.831973   -3.230795    3.944522
     34          1           0        4.434323   -4.325711    4.044535
     35          1           0        4.203831   -2.558502    4.198371
 ---------------------------------------------------------------------
                    Distance matrix (angstroms):
                    1          2          3          4          5
     1  C    0.000000
     2  O    1.430070   0.000000
     3  C    2.349715   1.356974   0.000000
     4  O    2.699082   2.298633   1.221264   0.000000
     5  C    3.645914   2.324566   1.484180   2.394286   0.000000
     6  C    4.703681   3.452373   2.474900   2.992254   1.405734
     7  C    5.970725   4.634543   3.765530   4.327494   2.431255
     8  C    6.347949   4.943773   4.276857   5.033863   2.794345
     9  C    5.635803   4.258942   3.817850   4.731544   2.438242
    10  C    4.254060   2.919447   2.543400   3.536425   1.427715
    11  C    4.028969   2.953002   3.025217   4.001444   2.525915
    12  C    5.239543   4.254816   4.421460   5.376333   3.796827
    13  C    6.386306   5.241311   5.239301   6.208343   4.267694
    14  C    6.546414   5.236698   4.990595   5.934843   3.733192
    15  O    4.808839   3.835479   2.772609   2.805945   2.422211
    16  C    5.765735   4.854299   3.990752   4.029718   3.631283
    17  O    6.478113   5.434853   4.728004   5.004273   4.091316
    18  N    6.148802   5.515087   4.655409   4.372708   4.660916
    19  C    5.615482   5.263282   4.361782   3.735332   4.768890
    20  C    7.200582   6.632076   5.930944   5.709667   5.927176
    21  H    1.094115   2.105415   2.548129   2.445967   3.984452
    22  H    1.094361   2.067467   2.796918   3.016614   4.050332
    23  H    1.093671   2.052048   3.237127   3.720943   4.369449
    24  H    6.844723   5.556124   4.637383   5.047495   3.422460
    25  H    7.420905   6.009057   5.363887   6.095387   3.881916
    26  H    3.198208   2.413858   2.731668   3.607706   2.808902
    27  H    5.472388   4.719226   5.064410   5.964971   4.678649
    28  H    7.331742   6.244483   6.304112   7.264518   5.352627
    29  H    7.591055   6.251718   5.951359   6.863279   4.607029
    30  H    5.370583   4.968438   3.880573   3.105637   4.270509
    31  H    4.867603   4.697131   4.021927   3.441379   4.686930
    32  H    6.515198   6.282814   5.387696   4.651661   5.832873
    33  H    7.816945   7.094232   6.407916   6.342643   6.166162
    34  H    7.920801   7.449407   6.671526   6.283836   6.743782
    35  H    6.895004   6.455562   5.956577   5.793622   6.116503
                    6          7          8          9         10
     6  C    0.000000
     7  C    1.390870   0.000000
     8  C    2.403764   1.393006   0.000000
     9  C    2.803533   2.436529   1.403626   0.000000
    10  C    2.459201   2.840662   2.447487   1.418630   0.000000
    11  C    3.789777   4.256476   3.715530   2.419501   1.418777
    12  C    4.919985   5.090598   4.208932   2.805991   2.463081
    13  C    5.089097   4.873619   3.710202   2.438109   2.841309
    14  C    4.208260   3.709874   2.425780   1.405063   2.448605
    15  O    1.413307   2.436123   3.702876   4.215315   3.736855
    16  C    2.466408   3.014082   4.371584   5.139363   4.864112
    17  O    2.853907   2.921291   4.166670   5.108329   5.104540
    18  N    3.652307   4.333929   5.708055   6.422901   6.003619
    19  C    4.070696   5.038820   6.358726   6.853049   6.185114
    20  C    4.886394   5.401158   6.755944   7.563937   7.229128
    21  H    4.808270   6.163669   6.753686   6.223070   4.869845
    22  H    5.247371   6.468837   6.710414   5.847554   4.432570
    23  H    5.397689   6.604177   6.924030   6.181012   4.859405
    24  H    2.164007   1.086669   2.145960   3.413089   3.926893
    25  H    3.379889   2.135630   1.087751   2.168445   3.436303
    26  H    4.201188   4.941351   4.622558   3.421002   2.187227
    27  H    5.893281   6.153288   5.295531   3.892642   3.442118
    28  H    6.141814   5.828001   4.578177   3.418888   3.926485
    29  H    4.837208   4.052734   2.662423   2.170310   3.438150
    30  H    3.654013   4.653014   5.910724   6.336668   5.647355
    31  H    4.243689   5.377912   6.619314   6.939904   6.110407
    32  H    5.103467   5.990226   7.334447   7.885695   7.242852
    33  H    4.999309   5.244738   6.551131   7.496825   7.356478
    34  H    5.696614   6.205003   7.586522   8.422888   8.076390
    35  H    5.247348   5.899787   7.199741   7.878133   7.425643
                   11         12         13         14         15
    11  C    0.000000
    12  C    1.396421   0.000000
    13  C    2.409647   1.387448   0.000000
    14  C    2.771842   2.403920   1.394165   0.000000
    15  O    4.945720   6.184175   6.467588   5.619916   0.000000
    16  C    6.127757   7.315616   7.482651   6.515699   1.396254
    17  O    6.430018   7.486450   7.471893   6.394386   2.317642
    18  N    7.176167   8.441855   8.723367   7.817337   2.311334
    19  C    7.185016   8.528827   9.001917   8.254844   2.673710
    20  C    8.415167   9.655226   9.884879   8.930208   3.649346
    21  H    4.861024   6.149314   7.240670   7.266685   4.591298
    22  H    3.919691   5.016213   6.278831   6.620840   5.467379
    23  H    4.546123   5.626684   6.772554   7.004016   5.527168
    24  H    5.341656   6.140462   5.822267   4.570498   2.690138
    25  H    4.586249   4.836631   4.052965   2.661816   4.568733
    26  H    1.087860   2.124094   3.373838   3.858640   5.138106
    27  H    2.156373   1.086678   2.148647   3.391215   7.095663
    28  H    3.396219   2.149936   1.085197   2.153855   7.530846
    29  H    3.860410   3.380623   2.138486   1.088792   6.229852
    30  H    6.615593   7.943801   8.427829   7.715921   2.365762
    31  H    6.974326   8.350824   8.949455   8.324195   2.959697
    32  H    8.233656   9.578599  10.050168   9.285768   3.699638
    33  H    8.620664   9.776004   9.860533   8.809423   3.951744
    34  H    9.255648  10.517423  10.762521   9.800187   4.384374
    35  H    8.515767   9.777530  10.098812   9.233521   4.057596
                   16         17         18         19         20
    16  C    0.000000
    17  O    1.225720   0.000000
    18  N    1.391771   2.311071   0.000000
    19  C    2.478140   3.614557   1.452991   0.000000
    20  C    2.441833   2.786208   1.448958   2.477730   0.000000
    21  H    5.454991   6.299981   5.599476   4.885234   6.611793
    22  H    6.559606   7.313591   6.957468   6.327835   8.094821
    23  H    6.333371   6.924595   6.721113   6.284418   7.629059
    24  H    2.817544   2.503855   4.081120   4.994235   4.989057
    25  H    5.047477   4.654623   6.388896   7.164750   7.327715
    26  H    6.364304   6.813823   7.260735   7.078100   8.512080
    27  H    8.257956   8.476122   9.329770   9.319790  10.551182
    28  H    8.518332   8.450304   9.778695  10.080781  10.921683
    29  H    6.991448   6.725172   8.332517   8.896585   9.374223
    30  H    2.683232   3.899260   2.107587   1.093531   3.383017
    31  H    2.895064   3.970698   2.078905   1.093845   2.897417
    32  H    3.355534   4.396111   2.093152   1.093580   2.616310
    33  H    2.579608   2.429186   2.110596   3.409678   1.093350
    34  H    3.293334   3.734037   2.085567   2.682912   1.094012
    35  H    2.952601   3.253338   2.075488   2.799074   1.094061
                   21         22         23         24         25
    21  H    0.000000
    22  H    1.797192   0.000000
    23  H    1.772963   1.774455   0.000000
    24  H    6.925657   7.401073   7.470930   0.000000
    25  H    7.836062   7.775995   7.965778   2.441555   0.000000
    26  H    4.089283   2.920461   3.737874   6.018249   5.563852
    27  H    6.450436   5.081607   5.770232   7.211687   5.905546
    28  H    8.227861   7.162039   7.659785   6.720541   4.732964
    29  H    8.283365   7.699181   8.033016   4.722298   2.433302
    30  H    4.703344   5.934730   6.186174   4.704846   6.743583
    31  H    4.064195   5.652773   5.439069   5.498300   7.507252
    32  H    5.693046   7.193572   7.172724   5.833812   8.090570
    33  H    7.341455   8.727068   8.209291   4.676100   6.984285
    34  H    7.235568   8.766970   8.400413   5.729632   8.134644
    35  H    6.279124   7.858118   7.189623   5.625814   7.837311
                   26         27         28         29         30
    26  H    0.000000
    27  H    2.434060   0.000000
    28  H    4.265767   2.479514   0.000000
    29  H    4.946803   4.277009   2.456422   0.000000
    30  H    6.514314   8.724994   9.499054   8.378378   0.000000
    31  H    6.743090   9.067873  10.033999   9.050832   1.782863
    32  H    8.100203  10.359494  11.126345   9.900550   1.774304
    33  H    8.842611  10.723376  10.857873   9.139550   4.178737
    34  H    9.317876  11.407118  11.805587  10.235539   3.574702
    35  H    8.525271  10.618175  11.139874   9.741385   3.825094
                   31         32         33         34         35
    31  H    0.000000
    32  H    1.790954   0.000000
    33  H    3.870272   3.619194   0.000000
    34  H    3.257355   2.359559   1.778276   0.000000
    35  H    2.798852   2.982481   1.779681   1.788804   0.000000
 Stoichiometry    C15H15NO4
 Framework group  C1[X(C15H15NO4)]
 Deg. of freedom    99
 Full point group                 C1      NOp   1
 Largest Abelian subgroup         C1      NOp   1
 Largest concise Abelian subgroup C1      NOp   1
                         Standard orientation:                         
 ---------------------------------------------------------------------
 Center     Atomic      Atomic             Coordinates (Angstroms)
 Number     Number       Type             X           Y           Z
 ---------------------------------------------------------------------
      1          6           0        0.522502    3.774759    0.758914
      2          8           0        0.765648    2.365824    0.788663
      3          6           0        0.242855    1.673461   -0.254744
      4          8           0       -0.488963    2.124498   -1.122208
      5          6           0        0.677874    0.256243   -0.183741
      6          6           0       -0.311624   -0.738476   -0.270435
      7          6           0        0.032327   -2.086147   -0.270193
      8          6           0        1.371291   -2.450464   -0.148064
      9          6           0        2.383201   -1.481895   -0.058197
     10          6           0        2.056654   -0.101673   -0.087655
     11          6           0        3.136937    0.817181   -0.047347
     12          6           0        4.464750    0.396535    0.052452
     13          6           0        4.759121   -0.958452    0.101129
     14          6           0        3.723837   -1.890335    0.042180
     15          8           0       -1.654833   -0.338284   -0.452295
     16          6           0       -2.722882   -0.957920    0.199507
     17          8           0       -2.601549   -1.896028    0.979007
     18          7           0       -3.941220   -0.362883   -0.114519
     19          6           0       -4.000118    0.874311   -0.874165
     20          6           0       -5.106272   -0.714972    0.671716
     21          1           0       -0.492848    4.015096    0.429687
     22          1           0        1.258807    4.254176    0.106503
     23          1           0        0.655166    4.163176    1.772645
     24          1           0       -0.723665   -2.860689   -0.367202
     25          1           0        1.618956   -3.509604   -0.138683
     26          1           0        2.961214    1.889731   -0.094248
     27          1           0        5.266147    1.129487    0.090039
     28          1           0        5.788832   -1.292795    0.175721
     29          1           0        3.977802   -2.948803    0.067007
     30          1           0       -3.271414    0.867061   -1.689485
     31          1           0       -3.778571    1.707829   -0.201365
     32          1           0       -4.998333    0.997269   -1.303545
     33          1           0       -5.022608   -1.725501    1.080675
     34          1           0       -5.999176   -0.662862    0.041742
     35          1           0       -5.196916   -0.004408    1.498669
 ---------------------------------------------------------------------
 Rotational constants (GHZ):      0.5892620      0.2254863      0.1726626
 Leave Link  202 at Thu Sep 30 04:22:41 2021, MaxMem= 1342177280 cpu:       0.1
 (Enter /sw/target/amd/app/gaussian/Gaussian09RevA.02_gcc-4.9.2/g09/l301.exe)
 Standard basis: 6-31G(d) (6D, 7F)
 Ernie: Thresh=  0.10000D-02 Tol=  0.10000D-05 Strict=F.
 There are   330 symmetry adapted basis functions of A   symmetry.
 Integral buffers will be    131072 words long.
 Raffenetti 2 integral format.
 Two-electron integral symmetry is turned on.
   330 basis functions,   620 primitive gaussians,   330 cartesian basis functions
    72 alpha electrons       72 beta electrons
       nuclear repulsion energy      1531.7567830531 Hartrees.
 IExCor=  402 DFT=T Ex+Corr=B3LYP ExCW=0 ScaHFX=  0.200000
 ScaDFX=  0.800000  0.720000  1.000000  0.810000 ScalE2=  1.000000  1.000000
 IRadAn=      0 IRanWt=     -1 IRanGd=            0 ICorTp=0
 NAtoms=   35 NActive=   35 NUniq=   35 SFac= 7.50D-01 NAtFMM=   80 NAOKFM=F Big=F
 Leave Link  301 at Thu Sep 30 04:22:42 2021, MaxMem= 1342177280 cpu:       0.1
 (Enter /sw/target/amd/app/gaussian/Gaussian09RevA.02_gcc-4.9.2/g09/l302.exe)
 NPDir=0 NMtPBC=     1 NCelOv=     1 NCel=       1 NClECP=     1 NCelD=      1
         NCelK=      1 NCelE2=     1 NClLst=     1 CellRange=     0.0.
 One-electron integrals computed using PRISM.
 NBasis=   330 RedAO= T  NBF=   330
 NBsUse=   330 1.00D-06 NBFU=   330
 Precomputing XC quadrature grid using
 IXCGrd= 2 IRadAn=           0 IRanWt=          -1 IRanGd=           0 AccXCQ= 1.00D-10.
 NRdTot=    2228 NPtTot=      284024 NUsed=      300088 NTot=      300120
 NSgBfM=   327   327   327   327   327 NAtAll=    35    35.
 Leave Link  302 at Thu Sep 30 04:22:46 2021, MaxMem= 1342177280 cpu:       3.4
 (Enter /sw/target/amd/app/gaussian/Gaussian09RevA.02_gcc-4.9.2/g09/l303.exe)
 DipDrv:  MaxL=1.
 Leave Link  303 at Thu Sep 30 04:22:47 2021, MaxMem= 1342177280 cpu:       0.2
 (Enter /sw/target/amd/app/gaussian/Gaussian09RevA.02_gcc-4.9.2/g09/l401.exe)
 Harris functional with IExCor=  402 diagonalized for initial guess.
 ExpMin= 1.61D-01 ExpMax= 5.48D+03 ExpMxC= 8.25D+02 IAcc=1 IRadAn=         1 AccDes= 0.00D+00
 HarFok:  IExCor=  402 AccDes= 0.00D+00 IRadAn=         1 IDoV= 1
 ScaDFX=  1.000000  1.000000  1.000000  1.000000
 FoFCou: FMM=F IPFlag=           0 FMFlag=      100000 FMFlg1=           0
         NFxFlg=           0 DoJE=T BraDBF=F KetDBF=T FulRan=T
         Omega=  0.000000  0.000000  1.000000  0.000000  0.000000 ICntrl=     500 IOpCl=  0
         NMat0=    1 NMatS0=    1 NMatT0=    0 NMatD0=    1 NMtDS0=    0 NMtDT0=    0
         I1Cent=           4 NGrid=           0.
 Petite list used in FoFCou.
 Harris En= -936.404713002374    
 Initial guess orbital symmetries:
       Occupied  (A) (A) (A) (A) (A) (A) (A) (A) (A) (A) (A) (A)
                 (A) (A) (A) (A) (A) (A) (A) (A) (A) (A) (A) (A)
                 (A) (A) (A) (A) (A) (A) (A) (A) (A) (A) (A) (A)
                 (A) (A) (A) (A) (A) (A) (A) (A) (A) (A) (A) (A)
                 (A) (A) (A) (A) (A) (A) (A) (A) (A) (A) (A) (A)
                 (A) (A) (A) (A) (A) (A) (A) (A) (A) (A) (A) (A)
       Virtual   (A) (A) (A) (A) (A) (A) (A) (A) (A) (A) (A) (A)
                 (A) (A) (A) (A) (A) (A) (A) (A) (A) (A) (A) (A)
                 (A) (A) (A) (A) (A) (A) (A) (A) (A) (A) (A) (A)
                 (A) (A) (A) (A) (A) (A) (A) (A) (A) (A) (A) (A)
                 (A) (A) (A) (A) (A) (A) (A) (A) (A) (A) (A) (A)
                 (A) (A) (A) (A) (A) (A) (A) (A) (A) (A) (A) (A)
                 (A) (A) (A) (A) (A) (A) (A) (A) (A) (A) (A) (A)
                 (A) (A) (A) (A) (A) (A) (A) (A) (A) (A) (A) (A)
                 (A) (A) (A) (A) (A) (A) (A) (A) (A) (A) (A) (A)
                 (A) (A) (A) (A) (A) (A) (A) (A) (A) (A) (A) (A)
                 (A) (A) (A) (A) (A) (A) (A) (A) (A) (A) (A) (A)
                 (A) (A) (A) (A) (A) (A) (A) (A) (A) (A) (A) (A)
                 (A) (A) (A) (A) (A) (A) (A) (A) (A) (A) (A) (A)
                 (A) (A) (A) (A) (A) (A) (A) (A) (A) (A) (A) (A)
                 (A) (A) (A) (A) (A) (A) (A) (A) (A) (A) (A) (A)
                 (A) (A) (A) (A) (A) (A) (A) (A) (A) (A) (A) (A)
                 (A) (A) (A) (A) (A) (A) (A) (A) (A) (A) (A) (A)
                 (A) (A) (A) (A) (A) (A) (A) (A) (A) (A) (A) (A)
                 (A) (A) (A) (A) (A) (A) (A) (A) (A) (A) (A) (A)
                 (A) (A) (A) (A) (A) (A) (A) (A) (A) (A) (A) (A)
                 (A) (A) (A) (A) (A) (A) (A) (A) (A) (A) (A) (A)
                 (A) (A) (A) (A) (A) (A)
 The electronic state of the initial guess is 1-A.
 Leave Link  401 at Thu Sep 30 04:23:05 2021, MaxMem= 1342177280 cpu:      14.3
 (Enter /sw/target/amd/app/gaussian/Gaussian09RevA.02_gcc-4.9.2/g09/l502.exe)
 Closed shell SCF:
 Requested convergence on RMS density matrix=1.00D-08 within  64 cycles.
 Requested convergence on MAX density matrix=1.00D-06.
 Requested convergence on             energy=1.00D-06.
 No special actions if energy rises.
 Using DIIS extrapolation, IDIIS=  1040.
 Integral symmetry usage will be decided dynamically.
       299760 words used for storage of precomputed grid.
 IEnd=      636468 IEndB=      636468 NGot=  1342177280 MDV=  1341654267
 LenX=  1341654267 LenY=  1341544926
 Fock matrices will be formed incrementally for  20 cycles.
 Integral accuracy reduced to 1.0D-05 until final iterations.

 Cycle   1  Pass 0  IDiag  1:
 FoFCou: FMM=F IPFlag=           0 FMFlag=      100000 FMFlg1=           0
         NFxFlg=           0 DoJE=F BraDBF=F KetDBF=F FulRan=T
         Omega=  0.000000  0.000000  1.000000  0.000000  0.000000 ICntrl=       0 IOpCl=  0
         NMat0=    1 NMatS0=    1 NMatT0=    0 NMatD0=    1 NMtDS0=    0 NMtDT0=    0
         I1Cent=           0 NGrid=           0.
 Symmetry not used in FoFCou.
 E= -935.797180840274    
 DIIS: error= 3.30D-02 at cycle   1 NSaved=   1.
 NSaved= 1 IEnMin= 1 EnMin= -935.797180840274     IErMin= 1 ErrMin= 3.30D-02
 ErrMax= 3.30D-02 EMaxC= 1.00D-01 BMatC= 5.40D-01 BMatP= 5.40D-01
 IDIUse=3 WtCom= 6.70D-01 WtEn= 3.30D-01
 Coeff-Com:  0.100D+01
 Coeff-En:   0.100D+01
 Coeff:      0.100D+01
 Gap=     0.191 Goal=   None    Shift=    0.000
 GapD=    0.191 DampG=1.000 DampE=0.500 DampFc=0.5000 IDamp=-1.
 Damping current iteration by 5.00D-01
 RMSDP=5.19D-03 MaxDP=1.94D-01              OVMax= 2.29D-01

 Cycle   2  Pass 0  IDiag  1:
 RMSU=  1.80D-03    CP:  9.74D-01
 E= -935.930220736443     Delta-E=       -0.133039896170 Rises=F Damp=T
 DIIS: error= 1.07D-02 at cycle   2 NSaved=   2.
 NSaved= 2 IEnMin= 2 EnMin= -935.930220736443     IErMin= 2 ErrMin= 1.07D-02
 ErrMax= 1.07D-02 EMaxC= 1.00D-01 BMatC= 9.72D-02 BMatP= 5.40D-01
 IDIUse=3 WtCom= 8.93D-01 WtEn= 1.07D-01
 Coeff-Com:  0.229D+00 0.771D+00
 Coeff-En:   0.344D+00 0.656D+00
 Coeff:      0.241D+00 0.759D+00
 Gap=     0.171 Goal=   None    Shift=    0.000
 RMSDP=1.89D-03 MaxDP=5.82D-02 DE=-1.33D-01 OVMax= 1.59D-01

 Cycle   3  Pass 0  IDiag  1:
 RMSU=  1.28D-03    CP:  9.58D-01  8.34D-01
 E= -936.213613919216     Delta-E=       -0.283393182772 Rises=F Damp=F
 DIIS: error= 1.11D-02 at cycle   3 NSaved=   3.
 NSaved= 3 IEnMin= 3 EnMin= -936.213613919216     IErMin= 2 ErrMin= 1.07D-02
 ErrMax= 1.11D-02 EMaxC= 1.00D-01 BMatC= 9.23D-02 BMatP= 9.72D-02
 IDIUse=3 WtCom= 8.89D-01 WtEn= 1.11D-01
 Coeff-Com:  0.684D-01 0.484D+00 0.448D+00
 Coeff-En:   0.000D+00 0.000D+00 0.100D+01
 Coeff:      0.608D-01 0.430D+00 0.509D+00
 Gap=     0.163 Goal=   None    Shift=    0.000
 RMSDP=1.18D-03 MaxDP=4.30D-02 DE=-2.83D-01 OVMax= 8.12D-02

 Cycle   4  Pass 0  IDiag  1:
 RMSU=  5.37D-04    CP:  9.63D-01  9.22D-01  5.18D-01
 E= -936.281890086254     Delta-E=       -0.068276167039 Rises=F Damp=F
 DIIS: error= 4.31D-03 at cycle   4 NSaved=   4.
 NSaved= 4 IEnMin= 4 EnMin= -936.281890086254     IErMin= 4 ErrMin= 4.31D-03
 ErrMax= 4.31D-03 EMaxC= 1.00D-01 BMatC= 1.58D-02 BMatP= 9.23D-02
 IDIUse=3 WtCom= 9.57D-01 WtEn= 4.31D-02
 Coeff-Com:  0.155D-01 0.120D+00 0.307D+00 0.557D+00
 Coeff-En:   0.000D+00 0.000D+00 0.164D+00 0.836D+00
 Coeff:      0.148D-01 0.115D+00 0.301D+00 0.569D+00
 Gap=     0.157 Goal=   None    Shift=    0.000
 RMSDP=4.10D-04 MaxDP=1.53D-02 DE=-6.83D-02 OVMax= 3.48D-02

 Cycle   5  Pass 0  IDiag  1:
 RMSU=  1.44D-04    CP:  9.63D-01  8.78D-01  6.20D-01  6.27D-01
 E= -936.293789478102     Delta-E=       -0.011899391848 Rises=F Damp=F
 DIIS: error= 1.25D-03 at cycle   5 NSaved=   5.
 NSaved= 5 IEnMin= 5 EnMin= -936.293789478102     IErMin= 5 ErrMin= 1.25D-03
 ErrMax= 1.25D-03 EMaxC= 1.00D-01 BMatC= 1.38D-03 BMatP= 1.58D-02
 IDIUse=3 WtCom= 9.87D-01 WtEn= 1.25D-02
 Coeff-Com:  0.267D-02 0.195D-01 0.128D+00 0.343D+00 0.507D+00
 Coeff-En:   0.000D+00 0.000D+00 0.000D+00 0.410D-01 0.959D+00
 Coeff:      0.264D-02 0.193D-01 0.126D+00 0.339D+00 0.512D+00
 Gap=     0.158 Goal=   None    Shift=    0.000
 RMSDP=1.38D-04 MaxDP=4.97D-03 DE=-1.19D-02 OVMax= 1.65D-02

 Cycle   6  Pass 0  IDiag  1:
 RMSU=  5.28D-05    CP:  9.63D-01  8.87D-01  6.23D-01  6.77D-01  4.75D-01
 E= -936.294923423420     Delta-E=       -0.001133945319 Rises=F Damp=F
 DIIS: error= 5.52D-04 at cycle   6 NSaved=   6.
 NSaved= 6 IEnMin= 6 EnMin= -936.294923423420     IErMin= 6 ErrMin= 5.52D-04
 ErrMax= 5.52D-04 EMaxC= 1.00D-01 BMatC= 1.58D-04 BMatP= 1.38D-03
 IDIUse=3 WtCom= 9.94D-01 WtEn= 5.52D-03
 Coeff-Com:  0.492D-03 0.120D-02 0.505D-01 0.157D+00 0.320D+00 0.471D+00
 Coeff-En:   0.000D+00 0.000D+00 0.000D+00 0.000D+00 0.788D-01 0.921D+00
 Coeff:      0.490D-03 0.120D-02 0.503D-01 0.156D+00 0.319D+00 0.473D+00
 Gap=     0.158 Goal=   None    Shift=    0.000
 RMSDP=4.88D-05 MaxDP=1.69D-03 DE=-1.13D-03 OVMax= 6.00D-03

 Cycle   7  Pass 0  IDiag  1:
 RMSU=  1.98D-05    CP:  9.63D-01  8.87D-01  6.22D-01  6.71D-01  5.81D-01
                    CP:  5.54D-01
 E= -936.295060493946     Delta-E=       -0.000137070526 Rises=F Damp=F
 DIIS: error= 1.33D-04 at cycle   7 NSaved=   7.
 NSaved= 7 IEnMin= 7 EnMin= -936.295060493946     IErMin= 7 ErrMin= 1.33D-04
 ErrMax= 1.33D-04 EMaxC= 1.00D-01 BMatC= 2.00D-05 BMatP= 1.58D-04
 IDIUse=3 WtCom= 9.99D-01 WtEn= 1.33D-03
 Coeff-Com:  0.995D-05-0.166D-02 0.150D-01 0.518D-01 0.137D+00 0.308D+00
 Coeff-Com:  0.489D+00
 Coeff-En:   0.000D+00 0.000D+00 0.000D+00 0.000D+00 0.000D+00 0.847D-01
 Coeff-En:   0.915D+00
 Coeff:      0.994D-05-0.166D-02 0.150D-01 0.517D-01 0.137D+00 0.308D+00
 Coeff:      0.490D+00
 Gap=     0.158 Goal=   None    Shift=    0.000
 RMSDP=1.40D-05 MaxDP=5.07D-04 DE=-1.37D-04 OVMax= 9.73D-04

 Cycle   8  Pass 0  IDiag  1:
 RMSU=  4.43D-06    CP:  9.63D-01  8.87D-01  6.24D-01  6.75D-01  5.73D-01
                    CP:  6.03D-01  6.03D-01
 E= -936.295076867776     Delta-E=       -0.000016373830 Rises=F Damp=F
 DIIS: error= 3.83D-05 at cycle   8 NSaved=   8.
 NSaved= 8 IEnMin= 8 EnMin= -936.295076867776     IErMin= 8 ErrMin= 3.83D-05
 ErrMax= 3.83D-05 EMaxC= 1.00D-01 BMatC= 1.22D-06 BMatP= 2.00D-05
 IDIUse=1 WtCom= 1.00D+00 WtEn= 0.00D+00
 Coeff-Com:  0.136D-04-0.114D-02 0.500D-02 0.181D-01 0.577D-01 0.148D+00
 Coeff-Com:  0.280D+00 0.493D+00
 Coeff:      0.136D-04-0.114D-02 0.500D-02 0.181D-01 0.577D-01 0.148D+00
 Coeff:      0.280D+00 0.493D+00
 Gap=     0.158 Goal=   None    Shift=    0.000
 RMSDP=3.78D-06 MaxDP=1.73D-04 DE=-1.64D-05 OVMax= 2.67D-04

 Initial convergence to 1.0D-05 achieved.  Increase integral accuracy.
 Cycle   9  Pass 1  IDiag  1:
 E= -936.295036594271     Delta-E=        0.000040273505 Rises=F Damp=F
 DIIS: error= 4.34D-05 at cycle   1 NSaved=   1.
 NSaved= 1 IEnMin= 1 EnMin= -936.295036594271     IErMin= 1 ErrMin= 4.34D-05
 ErrMax= 4.34D-05 EMaxC= 1.00D-01 BMatC= 4.76D-07 BMatP= 4.76D-07
 IDIUse=1 WtCom= 1.00D+00 WtEn= 0.00D+00
 Coeff-Com:  0.100D+01
 Coeff:      0.100D+01
 Gap=     0.158 Goal=   None    Shift=    0.000
 RMSDP=3.78D-06 MaxDP=1.73D-04 DE= 4.03D-05 OVMax= 4.00D-04

 Cycle  10  Pass 1  IDiag  1:
 RMSU=  2.11D-05    CP:  1.00D+00
 E= -936.295036423403     Delta-E=        0.000000170868 Rises=F Damp=F
 DIIS: error= 4.09D-05 at cycle   2 NSaved=   2.
 NSaved= 2 IEnMin= 1 EnMin= -936.295036594271     IErMin= 2 ErrMin= 4.09D-05
 ErrMax= 4.09D-05 EMaxC= 1.00D-01 BMatC= 7.09D-07 BMatP= 4.76D-07
 IDIUse=1 WtCom= 1.00D+00 WtEn= 0.00D+00
 Coeff-Com:  0.564D+00 0.436D+00
 Coeff:      0.564D+00 0.436D+00
 Gap=     0.158 Goal=   None    Shift=    0.000
 RMSDP=3.36D-06 MaxDP=1.67D-04 DE= 1.71D-07 OVMax= 3.47D-04

 Cycle  11  Pass 1  IDiag  1:
 RMSU=  2.37D-06    CP:  1.00D+00  9.97D-01
 E= -936.295036959478     Delta-E=       -0.000000536076 Rises=F Damp=F
 DIIS: error= 1.71D-05 at cycle   3 NSaved=   3.
 NSaved= 3 IEnMin= 3 EnMin= -936.295036959478     IErMin= 3 ErrMin= 1.71D-05
 ErrMax= 1.71D-05 EMaxC= 1.00D-01 BMatC= 1.20D-07 BMatP= 4.76D-07
 IDIUse=1 WtCom= 1.00D+00 WtEn= 0.00D+00
 Coeff-Com:  0.775D-02 0.289D+00 0.703D+00
 Coeff:      0.775D-02 0.289D+00 0.703D+00
 Gap=     0.158 Goal=   None    Shift=    0.000
 RMSDP=1.02D-06 MaxDP=5.48D-05 DE=-5.36D-07 OVMax= 8.79D-05

 Cycle  12  Pass 1  IDiag  1:
 RMSU=  3.17D-07    CP:  1.00D+00  1.01D+00  7.36D-01
 E= -936.295037057402     Delta-E=       -0.000000097923 Rises=F Damp=F
 DIIS: error= 2.32D-06 at cycle   4 NSaved=   4.
 NSaved= 4 IEnMin= 4 EnMin= -936.295037057402     IErMin= 4 ErrMin= 2.32D-06
 ErrMax= 2.32D-06 EMaxC= 1.00D-01 BMatC= 6.98D-09 BMatP= 1.20D-07
 IDIUse=1 WtCom= 1.00D+00 WtEn= 0.00D+00
 Coeff-Com: -0.763D-02 0.170D+00 0.437D+00 0.400D+00
 Coeff:     -0.763D-02 0.170D+00 0.437D+00 0.400D+00
 Gap=     0.158 Goal=   None    Shift=    0.000
 RMSDP=2.87D-07 MaxDP=1.17D-05 DE=-9.79D-08 OVMax= 2.79D-05

 Cycle  13  Pass 1  IDiag  1:
 RMSU=  1.23D-07    CP:  1.00D+00  1.01D+00  7.29D-01  5.00D-01
 E= -936.295037063574     Delta-E=       -0.000000006172 Rises=F Damp=F
 DIIS: error= 6.45D-07 at cycle   5 NSaved=   5.
 NSaved= 5 IEnMin= 5 EnMin= -936.295037063574     IErMin= 5 ErrMin= 6.45D-07
 ErrMax= 6.45D-07 EMaxC= 1.00D-01 BMatC= 2.68D-10 BMatP= 6.98D-09
 IDIUse=1 WtCom= 1.00D+00 WtEn= 0.00D+00
 Coeff-Com: -0.458D-02 0.719D-01 0.187D+00 0.224D+00 0.522D+00
 Coeff:     -0.458D-02 0.719D-01 0.187D+00 0.224D+00 0.522D+00
 Gap=     0.158 Goal=   None    Shift=    0.000
 RMSDP=7.12D-08 MaxDP=3.32D-06 DE=-6.17D-09 OVMax= 7.16D-06

 Cycle  14  Pass 1  IDiag  1:
 RMSU=  3.38D-08    CP:  1.00D+00  1.01D+00  7.33D-01  5.47D-01  7.39D-01
 E= -936.295037063866     Delta-E=       -0.000000000291 Rises=F Damp=F
 DIIS: error= 1.94D-07 at cycle   6 NSaved=   6.
 NSaved= 6 IEnMin= 6 EnMin= -936.295037063866     IErMin= 6 ErrMin= 1.94D-07
 ErrMax= 1.94D-07 EMaxC= 1.00D-01 BMatC= 3.16D-11 BMatP= 2.68D-10
 IDIUse=1 WtCom= 1.00D+00 WtEn= 0.00D+00
 Coeff-Com: -0.188D-02 0.238D-01 0.626D-01 0.890D-01 0.306D+00 0.520D+00
 Coeff:     -0.188D-02 0.238D-01 0.626D-01 0.890D-01 0.306D+00 0.520D+00
 Gap=     0.158 Goal=   None    Shift=    0.000
 RMSDP=2.04D-08 MaxDP=9.96D-07 DE=-2.91D-10 OVMax= 2.24D-06

 Cycle  15  Pass 1  IDiag  1:
 RMSU=  1.11D-08    CP:  1.00D+00  1.01D+00  7.32D-01  5.41D-01  7.72D-01
                    CP:  8.04D-01
 E= -936.295037063858     Delta-E=        0.000000000007 Rises=F Damp=F
 DIIS: error= 5.21D-08 at cycle   7 NSaved=   7.
 NSaved= 7 IEnMin= 6 EnMin= -936.295037063866     IErMin= 7 ErrMin= 5.21D-08
 ErrMax= 5.21D-08 EMaxC= 1.00D-01 BMatC= 2.97D-12 BMatP= 3.16D-11
 IDIUse=1 WtCom= 1.00D+00 WtEn= 0.00D+00
 Coeff-Com: -0.387D-03 0.309D-02 0.847D-02 0.174D-01 0.946D-01 0.273D+00
 Coeff-Com:  0.604D+00
 Coeff:     -0.387D-03 0.309D-02 0.847D-02 0.174D-01 0.946D-01 0.273D+00
 Coeff:      0.604D+00
 Gap=     0.158 Goal=   None    Shift=    0.000
 RMSDP=7.60D-09 MaxDP=4.34D-07 DE= 7.28D-12 OVMax= 8.26D-07

 SCF Done:  E(RB3LYP) =  -936.295037064     A.U. after   15 cycles
             Convg  =    0.7601D-08             -V/T =  2.0095
 KE= 9.275083997017D+02 PE=-5.245007238336D+03 EE= 1.849447018518D+03
 Leave Link  502 at Thu Sep 30 04:32:42 2021, MaxMem= 1342177280 cpu:     572.7
 (Enter /sw/target/amd/app/gaussian/Gaussian09RevA.02_gcc-4.9.2/g09/l508.exe)
 QCSCF skips out because SCF is already converged.
 Leave Link  508 at Thu Sep 30 04:32:42 2021, MaxMem= 1342177280 cpu:       0.0
 (Enter /sw/target/amd/app/gaussian/Gaussian09RevA.02_gcc-4.9.2/g09/l601.exe)
 Copying SCF densities to generalized density rwf, IOpCl= 0 IROHF=0.

 **********************************************************************

            Population analysis using the SCF density.

 **********************************************************************

 Orbital symmetries:
       Occupied  (A) (A) (A) (A) (A) (A) (A) (A) (A) (A) (A) (A)
                 (A) (A) (A) (A) (A) (A) (A) (A) (A) (A) (A) (A)
                 (A) (A) (A) (A) (A) (A) (A) (A) (A) (A) (A) (A)
                 (A) (A) (A) (A) (A) (A) (A) (A) (A) (A) (A) (A)
                 (A) (A) (A) (A) (A) (A) (A) (A) (A) (A) (A) (A)
                 (A) (A) (A) (A) (A) (A) (A) (A) (A) (A) (A) (A)
       Virtual   (A) (A) (A) (A) (A) (A) (A) (A) (A) (A) (A) (A)
                 (A) (A) (A) (A) (A) (A) (A) (A) (A) (A) (A) (A)
                 (A) (A) (A) (A) (A) (A) (A) (A) (A) (A) (A) (A)
                 (A) (A) (A) (A) (A) (A) (A) (A) (A) (A) (A) (A)
                 (A) (A) (A) (A) (A) (A) (A) (A) (A) (A) (A) (A)
                 (A) (A) (A) (A) (A) (A) (A) (A) (A) (A) (A) (A)
                 (A) (A) (A) (A) (A) (A) (A) (A) (A) (A) (A) (A)
                 (A) (A) (A) (A) (A) (A) (A) (A) (A) (A) (A) (A)
                 (A) (A) (A) (A) (A) (A) (A) (A) (A) (A) (A) (A)
                 (A) (A) (A) (A) (A) (A) (A) (A) (A) (A) (A) (A)
                 (A) (A) (A) (A) (A) (A) (A) (A) (A) (A) (A) (A)
                 (A) (A) (A) (A) (A) (A) (A) (A) (A) (A) (A) (A)
                 (A) (A) (A) (A) (A) (A) (A) (A) (A) (A) (A) (A)
                 (A) (A) (A) (A) (A) (A) (A) (A) (A) (A) (A) (A)
                 (A) (A) (A) (A) (A) (A) (A) (A) (A) (A) (A) (A)
                 (A) (A) (A) (A) (A) (A) (A) (A) (A) (A) (A) (A)
                 (A) (A) (A) (A) (A) (A) (A) (A) (A) (A) (A) (A)
                 (A) (A) (A) (A) (A) (A) (A) (A) (A) (A) (A) (A)
                 (A) (A) (A) (A) (A) (A) (A) (A) (A) (A) (A) (A)
                 (A) (A) (A) (A) (A) (A) (A) (A) (A) (A) (A) (A)
                 (A) (A) (A) (A) (A) (A) (A) (A) (A) (A) (A) (A)
                 (A) (A) (A) (A) (A) (A)
 The electronic state is 1-A.
 Alpha  occ. eigenvalues --  -19.19783 -19.19718 -19.13711 -19.11876 -14.36792
 Alpha  occ. eigenvalues --  -10.33719 -10.31823 -10.26668 -10.24166 -10.21718
 Alpha  occ. eigenvalues --  -10.21442 -10.21046 -10.20991 -10.20021 -10.19936
 Alpha  occ. eigenvalues --  -10.19550 -10.19417 -10.19367 -10.19357 -10.19137
 Alpha  occ. eigenvalues --   -1.10232  -1.09496  -1.01502  -1.00853  -0.93679
 Alpha  occ. eigenvalues --   -0.88219  -0.82748  -0.79018  -0.75592  -0.73881
 Alpha  occ. eigenvalues --   -0.72582  -0.71732  -0.69528  -0.64353  -0.63032
 Alpha  occ. eigenvalues --   -0.61607  -0.57418  -0.56930  -0.53212  -0.52750
 Alpha  occ. eigenvalues --   -0.51213  -0.48997  -0.48346  -0.48072  -0.47963
 Alpha  occ. eigenvalues --   -0.47022  -0.46914  -0.44888  -0.43793  -0.43219
 Alpha  occ. eigenvalues --   -0.42320  -0.42127  -0.41603  -0.40737  -0.40188
 Alpha  occ. eigenvalues --   -0.39900  -0.39553  -0.38629  -0.38363  -0.37183
 Alpha  occ. eigenvalues --   -0.36190  -0.34933  -0.34182  -0.33388  -0.30868
 Alpha  occ. eigenvalues --   -0.30193  -0.28990  -0.27202  -0.26717  -0.24621
 Alpha  occ. eigenvalues --   -0.23849  -0.21264
 Alpha virt. eigenvalues --   -0.05459  -0.00901  -0.00309   0.03948   0.04669
 Alpha virt. eigenvalues --    0.08872   0.09025   0.09731   0.10208   0.11251
 Alpha virt. eigenvalues --    0.12480   0.13289   0.13953   0.14749   0.15294
 Alpha virt. eigenvalues --    0.15691   0.16180   0.17169   0.17558   0.17900
 Alpha virt. eigenvalues --    0.18749   0.19123   0.19357   0.20150   0.21047
 Alpha virt. eigenvalues --    0.22766   0.24063   0.25057   0.26659   0.27850
 Alpha virt. eigenvalues --    0.30033   0.30870   0.32714   0.34054   0.34856
 Alpha virt. eigenvalues --    0.36142   0.37987   0.38347   0.41547   0.47319
 Alpha virt. eigenvalues --    0.47964   0.49328   0.50137   0.50826   0.51012
 Alpha virt. eigenvalues --    0.51412   0.52101   0.52315   0.53048   0.54100
 Alpha virt. eigenvalues --    0.54706   0.55435   0.55610   0.56094   0.56923
 Alpha virt. eigenvalues --    0.57736   0.59031   0.59328   0.59379   0.60444
 Alpha virt. eigenvalues --    0.61447   0.61713   0.61951   0.62523   0.63826
 Alpha virt. eigenvalues --    0.64418   0.65238   0.65588   0.65783   0.68231
 Alpha virt. eigenvalues --    0.68773   0.70464   0.72908   0.73733   0.74604
 Alpha virt. eigenvalues --    0.76244   0.77300   0.79666   0.80059   0.81432
 Alpha virt. eigenvalues --    0.82058   0.82852   0.83559   0.83764   0.84548
 Alpha virt. eigenvalues --    0.84812   0.85198   0.86129   0.87291   0.87768
 Alpha virt. eigenvalues --    0.88538   0.89437   0.89962   0.90105   0.91955
 Alpha virt. eigenvalues --    0.92674   0.93789   0.94389   0.95399   0.96332
 Alpha virt. eigenvalues --    0.96886   0.98426   0.99317   0.99888   1.00650
 Alpha virt. eigenvalues --    1.02640   1.03643   1.04651   1.06499   1.07254
 Alpha virt. eigenvalues --    1.08678   1.10624   1.11664   1.14256   1.15008
 Alpha virt. eigenvalues --    1.15822   1.17284   1.18083   1.20701   1.21565
 Alpha virt. eigenvalues --    1.23880   1.24802   1.25639   1.27280   1.29624
 Alpha virt. eigenvalues --    1.31402   1.34583   1.36539   1.37165   1.39386
 Alpha virt. eigenvalues --    1.40539   1.41789   1.42494   1.43214   1.44866
 Alpha virt. eigenvalues --    1.45510   1.46591   1.47263   1.49159   1.50240
 Alpha virt. eigenvalues --    1.50555   1.51572   1.53296   1.54076   1.59683
 Alpha virt. eigenvalues --    1.60144   1.64382   1.67170   1.68010   1.69777
 Alpha virt. eigenvalues --    1.73483   1.75103   1.76137   1.77820   1.78830
 Alpha virt. eigenvalues --    1.81176   1.81366   1.82423   1.84706   1.86101
 Alpha virt. eigenvalues --    1.86824   1.88230   1.89107   1.89862   1.91277
 Alpha virt. eigenvalues --    1.92122   1.92365   1.94139   1.95343   1.96122
 Alpha virt. eigenvalues --    1.96530   1.97525   2.00219   2.00754   2.01940
 Alpha virt. eigenvalues --    2.02381   2.02988   2.04684   2.06443   2.07129
 Alpha virt. eigenvalues --    2.08386   2.09529   2.10917   2.13212   2.13337
 Alpha virt. eigenvalues --    2.14990   2.15172   2.18148   2.20552   2.21095
 Alpha virt. eigenvalues --    2.21768   2.24801   2.25427   2.27082   2.29839
 Alpha virt. eigenvalues --    2.30344   2.31949   2.32089   2.33149   2.33981
 Alpha virt. eigenvalues --    2.35148   2.36162   2.37864   2.39030   2.43880
 Alpha virt. eigenvalues --    2.47489   2.49850   2.53135   2.55165   2.57562
 Alpha virt. eigenvalues --    2.59501   2.61012   2.61754   2.62770   2.63974
 Alpha virt. eigenvalues --    2.64937   2.67117   2.69762   2.71173   2.73298
 Alpha virt. eigenvalues --    2.75916   2.77122   2.79124   2.81118   2.83314
 Alpha virt. eigenvalues --    2.88441   2.89590   2.90574   2.96111   2.97379
 Alpha virt. eigenvalues --    2.97735   3.04414   3.11997   3.15961   3.19810
 Alpha virt. eigenvalues --    3.24675   3.40879   3.49583   3.98810   4.00241
 Alpha virt. eigenvalues --    4.06507   4.09262   4.09776   4.10338   4.13413
 Alpha virt. eigenvalues --    4.16165   4.22547   4.24388   4.25879   4.29042
 Alpha virt. eigenvalues --    4.31107   4.34800   4.36758   4.43214   4.47161
 Alpha virt. eigenvalues --    4.59468   4.64379   4.86983
          Condensed to atoms (all electrons):
              1          2          3          4          5          6
     1  C    4.913303   0.206691  -0.018202  -0.002069   0.007461  -0.000092
     2  O    0.206691   8.259420   0.223874  -0.071128  -0.092483   0.000362
     3  C   -0.018202   0.223874   4.534394   0.534317   0.298586  -0.062256
     4  O   -0.002069  -0.071128   0.534317   8.065435  -0.070552  -0.000010
     5  C    0.007461  -0.092483   0.298586  -0.070552   5.321795   0.455817
     6  C   -0.000092   0.000362  -0.062256  -0.000010   0.455817   4.639229
     7  C    0.000004  -0.000063   0.008864   0.000096  -0.037177   0.429845
     8  C    0.000000   0.000004  -0.000644  -0.000009  -0.077739   0.011949
     9  C    0.000017  -0.000046   0.007710  -0.000041  -0.006516  -0.055743
    10  C    0.000150  -0.003596  -0.038450   0.000922   0.378522   0.028835
    11  C   -0.000656  -0.001767  -0.017913  -0.000027  -0.113964   0.010890
    12  C   -0.000016   0.000261  -0.000004  -0.000003   0.008288  -0.000216
    13  C    0.000000   0.000002   0.000005  -0.000000  -0.000869   0.000059
    14  C   -0.000000  -0.000007  -0.000107   0.000000   0.017274  -0.000763
    15  O   -0.000005  -0.000180  -0.000948  -0.003198  -0.055117   0.230803
    16  C   -0.000000   0.000002   0.000025   0.000085   0.000205  -0.008224
    17  O    0.000000  -0.000000   0.000005  -0.000001  -0.000217  -0.001467
    18  N    0.000000   0.000000  -0.000124  -0.000020  -0.000074   0.001654
    19  C   -0.000003  -0.000002   0.000168  -0.000256  -0.000092   0.000319
    20  C    0.000000  -0.000000  -0.000000  -0.000000   0.000004  -0.000023
    21  H    0.367657  -0.028542  -0.007820   0.013974   0.000335   0.000029
    22  H    0.377660  -0.035877  -0.002493   0.001394  -0.000149  -0.000012
    23  H    0.377077  -0.031173   0.004546   0.000525  -0.000051   0.000004
    24  H   -0.000000   0.000001  -0.000125   0.000002   0.004634  -0.028055
    25  H    0.000000  -0.000000   0.000010  -0.000000   0.000805   0.003043
    26  H    0.000527   0.008163   0.006805  -0.000180  -0.013800  -0.000110
    27  H   -0.000001  -0.000004  -0.000005   0.000000  -0.000171   0.000002
    28  H   -0.000000   0.000000   0.000000   0.000000   0.000016  -0.000001
    29  H    0.000000  -0.000000   0.000001  -0.000000  -0.000169  -0.000001
    30  H    0.000000   0.000005   0.000054   0.002248  -0.000072   0.000228
    31  H   -0.000006  -0.000010   0.000226   0.000499  -0.000055   0.000102
    32  H    0.000000  -0.000000   0.000002   0.000020  -0.000001  -0.000000
    33  H   -0.000000  -0.000000   0.000000   0.000000   0.000000  -0.000005
    34  H    0.000000   0.000000  -0.000000   0.000000   0.000000   0.000000
    35  H   -0.000000   0.000000   0.000000  -0.000000  -0.000001   0.000004
              7          8          9         10         11         12
     1  C    0.000004   0.000000   0.000017   0.000150  -0.000656  -0.000016
     2  O   -0.000063   0.000004  -0.000046  -0.003596  -0.001767   0.000261
     3  C    0.008864  -0.000644   0.007710  -0.038450  -0.017913  -0.000004
     4  O    0.000096  -0.000009  -0.000041   0.000922  -0.000027  -0.000003
     5  C   -0.037177  -0.077739  -0.006516   0.378522  -0.113964   0.008288
     6  C    0.429845   0.011949  -0.055743   0.028835   0.010890  -0.000216
     7  C    5.091961   0.439734   0.011944  -0.057475  -0.001860   0.000086
     8  C    0.439734   5.178253   0.422479  -0.019307   0.018074  -0.000721
     9  C    0.011944   0.422479   4.735490   0.452141  -0.043616  -0.038911
    10  C   -0.057475  -0.019307   0.452141   4.755877   0.454715  -0.001410
    11  C   -0.001860   0.018074  -0.043616   0.454715   5.166227   0.511456
    12  C    0.000086  -0.000721  -0.038911  -0.001410   0.511456   4.884171
    13  C   -0.000418   0.008753  -0.002154  -0.039953  -0.018598   0.506491
    14  C    0.009414  -0.096552   0.445065  -0.024078  -0.078045  -0.020044
    15  O   -0.054395   0.004025  -0.000035   0.002736  -0.000026   0.000000
    16  C   -0.003811   0.000256  -0.000001   0.000033   0.000001  -0.000000
    17  O    0.002509  -0.000028   0.000008  -0.000010  -0.000000  -0.000000
    18  N    0.000054   0.000001  -0.000000   0.000002  -0.000000   0.000000
    19  C    0.000030  -0.000000   0.000000  -0.000001  -0.000000   0.000000
    20  C   -0.000003  -0.000000  -0.000000  -0.000000   0.000000  -0.000000
    21  H    0.000000   0.000000   0.000000  -0.000026   0.000011   0.000001
    22  H    0.000000  -0.000000  -0.000001   0.000044   0.000244  -0.000021
    23  H   -0.000000   0.000000  -0.000000  -0.000015   0.000003   0.000001
    24  H    0.347642  -0.033409   0.002449   0.000971   0.000011  -0.000000
    25  H   -0.039130   0.356379  -0.039249   0.003912  -0.000202   0.000012
    26  H    0.000010  -0.000184   0.005269  -0.030524   0.346796  -0.045706
    27  H   -0.000001   0.000008   0.000953   0.002618  -0.036113   0.358932
    28  H    0.000003  -0.000210   0.002715   0.001093   0.004432  -0.041943
    29  H    0.000358  -0.008387  -0.043080   0.004090   0.000477   0.004818
    30  H   -0.000001   0.000000   0.000000  -0.000002   0.000000   0.000000
    31  H   -0.000001  -0.000000   0.000000  -0.000000   0.000000   0.000000
    32  H    0.000001  -0.000000  -0.000000   0.000000   0.000000   0.000000
    33  H   -0.000002   0.000000  -0.000000  -0.000000   0.000000  -0.000000
    34  H    0.000000   0.000000  -0.000000   0.000000  -0.000000  -0.000000
    35  H   -0.000001  -0.000000   0.000000   0.000000   0.000000   0.000000
             13         14         15         16         17         18
     1  C    0.000000  -0.000000  -0.000005  -0.000000   0.000000   0.000000
     2  O    0.000002  -0.000007  -0.000180   0.000002  -0.000000   0.000000
     3  C    0.000005  -0.000107  -0.000948   0.000025   0.000005  -0.000124
     4  O   -0.000000   0.000000  -0.003198   0.000085  -0.000001  -0.000020
     5  C   -0.000869   0.017274  -0.055117   0.000205  -0.000217  -0.000074
     6  C    0.000059  -0.000763   0.230803  -0.008224  -0.001467   0.001654
     7  C   -0.000418   0.009414  -0.054395  -0.003811   0.002509   0.000054
     8  C    0.008753  -0.096552   0.004025   0.000256  -0.000028   0.000001
     9  C   -0.002154   0.445065  -0.000035  -0.000001   0.000008  -0.000000
    10  C   -0.039953  -0.024078   0.002736   0.000033  -0.000010   0.000002
    11  C   -0.018598  -0.078045  -0.000026   0.000001  -0.000000  -0.000000
    12  C    0.506491  -0.020044   0.000000  -0.000000  -0.000000   0.000000
    13  C    4.897726   0.507011  -0.000000  -0.000000  -0.000000  -0.000000
    14  C    0.507011   5.125426  -0.000000   0.000000   0.000000   0.000000
    15  O   -0.000000  -0.000000   8.339404   0.255051  -0.071060  -0.088592
    16  C   -0.000000   0.000000   0.255051   4.161139   0.547846   0.334323
    17  O   -0.000000   0.000000  -0.071060   0.547846   8.098223  -0.087555
    18  N   -0.000000   0.000000  -0.088592   0.334323  -0.087555   6.941307
    19  C   -0.000000   0.000000   0.000172  -0.029458   0.002502   0.280941
    20  C    0.000000  -0.000000   0.002411  -0.032524  -0.003730   0.302113
    21  H    0.000000  -0.000000  -0.000002   0.000000   0.000000  -0.000000
    22  H   -0.000000   0.000000   0.000000  -0.000000  -0.000000  -0.000000
    23  H    0.000000  -0.000000   0.000000   0.000000   0.000000  -0.000000
    24  H    0.000003  -0.000186  -0.006638   0.002052   0.008726  -0.000155
    25  H    0.000278  -0.008068  -0.000052  -0.000016  -0.000006  -0.000000
    26  H    0.004790   0.000580  -0.000001  -0.000000   0.000000  -0.000000
    27  H   -0.042167   0.004489  -0.000000   0.000000  -0.000000  -0.000000
    28  H    0.356200  -0.036068   0.000000  -0.000000   0.000000   0.000000
    29  H   -0.044947   0.357727  -0.000000  -0.000000   0.000000   0.000000
    30  H   -0.000000   0.000000   0.005534  -0.005277   0.000057  -0.027528
    31  H   -0.000000   0.000000   0.001101  -0.003004   0.000061  -0.054552
    32  H    0.000000   0.000000   0.000358   0.002984  -0.000065  -0.035015
    33  H    0.000000  -0.000000   0.000232  -0.002064   0.013395  -0.029317
    34  H    0.000000  -0.000000  -0.000037   0.003905   0.000448  -0.041311
    35  H   -0.000000   0.000000   0.000013  -0.002327   0.001011  -0.056890
             19         20         21         22         23         24
     1  C   -0.000003   0.000000   0.367657   0.377660   0.377077  -0.000000
     2  O   -0.000002  -0.000000  -0.028542  -0.035877  -0.031173   0.000001
     3  C    0.000168  -0.000000  -0.007820  -0.002493   0.004546  -0.000125
     4  O   -0.000256  -0.000000   0.013974   0.001394   0.000525   0.000002
     5  C   -0.000092   0.000004   0.000335  -0.000149  -0.000051   0.004634
     6  C    0.000319  -0.000023   0.000029  -0.000012   0.000004  -0.028055
     7  C    0.000030  -0.000003   0.000000   0.000000  -0.000000   0.347642
     8  C   -0.000000  -0.000000   0.000000  -0.000000   0.000000  -0.033409
     9  C    0.000000  -0.000000   0.000000  -0.000001  -0.000000   0.002449
    10  C   -0.000001  -0.000000  -0.000026   0.000044  -0.000015   0.000971
    11  C   -0.000000   0.000000   0.000011   0.000244   0.000003   0.000011
    12  C    0.000000  -0.000000   0.000001  -0.000021   0.000001  -0.000000
    13  C   -0.000000   0.000000   0.000000  -0.000000   0.000000   0.000003
    14  C    0.000000  -0.000000  -0.000000   0.000000  -0.000000  -0.000186
    15  O    0.000172   0.002411  -0.000002   0.000000   0.000000  -0.006638
    16  C   -0.029458  -0.032524   0.000000  -0.000000   0.000000   0.002052
    17  O    0.002502  -0.003730   0.000000  -0.000000   0.000000   0.008726
    18  N    0.280941   0.302113  -0.000000  -0.000000  -0.000000  -0.000155
    19  C    4.978369  -0.052489   0.000002   0.000000   0.000000  -0.000002
    20  C   -0.052489   4.962566   0.000000  -0.000000  -0.000000   0.000006
    21  H    0.000002   0.000000   0.539014  -0.034273  -0.031009  -0.000000
    22  H    0.000000  -0.000000  -0.034273   0.568201  -0.036449   0.000000
    23  H    0.000000  -0.000000  -0.031009  -0.036449   0.549777   0.000000
    24  H   -0.000002   0.000006  -0.000000   0.000000   0.000000   0.540128
    25  H    0.000000   0.000000   0.000000   0.000000   0.000000  -0.004873
    26  H   -0.000000   0.000000   0.000093   0.000010   0.000003   0.000000
    27  H   -0.000000   0.000000  -0.000000  -0.000000   0.000000  -0.000000
    28  H   -0.000000  -0.000000   0.000000  -0.000000   0.000000  -0.000000
    29  H    0.000000  -0.000000   0.000000   0.000000   0.000000  -0.000012
    30  H    0.378648   0.003709  -0.000004  -0.000000  -0.000000   0.000006
    31  H    0.379583   0.001334   0.000079  -0.000000   0.000000  -0.000002
    32  H    0.368690  -0.004852   0.000000  -0.000000   0.000000   0.000000
    33  H    0.004232   0.373181  -0.000000  -0.000000  -0.000000   0.000007
    34  H   -0.004048   0.375548  -0.000000  -0.000000  -0.000000   0.000000
    35  H    0.001199   0.382523   0.000000   0.000000   0.000000  -0.000001
             25         26         27         28         29         30
     1  C    0.000000   0.000527  -0.000001  -0.000000   0.000000   0.000000
     2  O   -0.000000   0.008163  -0.000004   0.000000  -0.000000   0.000005
     3  C    0.000010   0.006805  -0.000005   0.000000   0.000001   0.000054
     4  O   -0.000000  -0.000180   0.000000   0.000000  -0.000000   0.002248
     5  C    0.000805  -0.013800  -0.000171   0.000016  -0.000169  -0.000072
     6  C    0.003043  -0.000110   0.000002  -0.000001  -0.000001   0.000228
     7  C   -0.039130   0.000010  -0.000001   0.000003   0.000358  -0.000001
     8  C    0.356379  -0.000184   0.000008  -0.000210  -0.008387   0.000000
     9  C   -0.039249   0.005269   0.000953   0.002715  -0.043080   0.000000
    10  C    0.003912  -0.030524   0.002618   0.001093   0.004090  -0.000002
    11  C   -0.000202   0.346796  -0.036113   0.004432   0.000477   0.000000
    12  C    0.000012  -0.045706   0.358932  -0.041943   0.004818   0.000000
    13  C    0.000278   0.004790  -0.042167   0.356200  -0.044947  -0.000000
    14  C   -0.008068   0.000580   0.004489  -0.036068   0.357727   0.000000
    15  O   -0.000052  -0.000001  -0.000000   0.000000  -0.000000   0.005534
    16  C   -0.000016  -0.000000   0.000000  -0.000000  -0.000000  -0.005277
    17  O   -0.000006   0.000000  -0.000000   0.000000   0.000000   0.000057
    18  N   -0.000000  -0.000000  -0.000000   0.000000   0.000000  -0.027528
    19  C    0.000000  -0.000000  -0.000000  -0.000000   0.000000   0.378648
    20  C    0.000000   0.000000   0.000000  -0.000000  -0.000000   0.003709
    21  H    0.000000   0.000093  -0.000000   0.000000   0.000000  -0.000004
    22  H    0.000000   0.000010  -0.000000  -0.000000   0.000000  -0.000000
    23  H    0.000000   0.000003   0.000000   0.000000   0.000000  -0.000000
    24  H   -0.004873   0.000000  -0.000000  -0.000000  -0.000012   0.000006
    25  H    0.578485   0.000002  -0.000000  -0.000014   0.006127  -0.000000
    26  H    0.000002   0.586505  -0.005500  -0.000205   0.000017  -0.000000
    27  H   -0.000000  -0.005500   0.589007  -0.005081  -0.000205   0.000000
    28  H   -0.000014  -0.000205  -0.005081   0.593157  -0.005288  -0.000000
    29  H    0.006127   0.000017  -0.000205  -0.005288   0.594832  -0.000000
    30  H   -0.000000  -0.000000   0.000000  -0.000000  -0.000000   0.490675
    31  H    0.000000   0.000000  -0.000000  -0.000000   0.000000  -0.030152
    32  H    0.000000   0.000000  -0.000000   0.000000   0.000000  -0.023425
    33  H    0.000000   0.000000   0.000000  -0.000000  -0.000000  -0.000167
    34  H   -0.000000   0.000000  -0.000000   0.000000  -0.000000   0.000239
    35  H    0.000000  -0.000000  -0.000000  -0.000000   0.000000  -0.000241
             31         32         33         34         35
     1  C   -0.000006   0.000000  -0.000000   0.000000  -0.000000
     2  O   -0.000010  -0.000000  -0.000000   0.000000   0.000000
     3  C    0.000226   0.000002   0.000000  -0.000000   0.000000
     4  O    0.000499   0.000020   0.000000   0.000000  -0.000000
     5  C   -0.000055  -0.000001   0.000000   0.000000  -0.000001
     6  C    0.000102  -0.000000  -0.000005   0.000000   0.000004
     7  C   -0.000001   0.000001  -0.000002   0.000000  -0.000001
     8  C   -0.000000  -0.000000   0.000000   0.000000  -0.000000
     9  C    0.000000  -0.000000  -0.000000  -0.000000   0.000000
    10  C   -0.000000   0.000000  -0.000000   0.000000   0.000000
    11  C    0.000000   0.000000   0.000000  -0.000000   0.000000
    12  C    0.000000   0.000000  -0.000000  -0.000000   0.000000
    13  C   -0.000000   0.000000   0.000000   0.000000  -0.000000
    14  C    0.000000   0.000000  -0.000000  -0.000000   0.000000
    15  O    0.001101   0.000358   0.000232  -0.000037   0.000013
    16  C   -0.003004   0.002984  -0.002064   0.003905  -0.002327
    17  O    0.000061  -0.000065   0.013395   0.000448   0.001011
    18  N   -0.054552  -0.035015  -0.029317  -0.041311  -0.056890
    19  C    0.379583   0.368690   0.004232  -0.004048   0.001199
    20  C    0.001334  -0.004852   0.373181   0.375548   0.382523
    21  H    0.000079   0.000000  -0.000000  -0.000000   0.000000
    22  H   -0.000000  -0.000000  -0.000000  -0.000000   0.000000
    23  H    0.000000   0.000000  -0.000000  -0.000000   0.000000
    24  H   -0.000002   0.000000   0.000007   0.000000  -0.000001
    25  H    0.000000   0.000000   0.000000  -0.000000   0.000000
    26  H    0.000000   0.000000   0.000000   0.000000  -0.000000
    27  H   -0.000000  -0.000000   0.000000  -0.000000  -0.000000
    28  H   -0.000000   0.000000  -0.000000   0.000000  -0.000000
    29  H    0.000000   0.000000  -0.000000  -0.000000   0.000000
    30  H   -0.030152  -0.023425  -0.000167   0.000239  -0.000241
    31  H    0.581190  -0.038813  -0.000263  -0.001155   0.005322
    32  H   -0.038813   0.573842   0.000166   0.005945  -0.001664
    33  H   -0.000263   0.000166   0.494253  -0.022518  -0.029520
    34  H   -0.001155   0.005945  -0.022518   0.568966  -0.041472
    35  H    0.005322  -0.001664  -0.029520  -0.041472   0.586282
 Mulliken atomic charges:
              1
     1  C   -0.229498
     2  O   -0.433906
     3  C    0.529498
     4  O   -0.472022
     5  C   -0.024474
     6  C    0.343802
     7  C   -0.148221
     8  C   -0.202725
     9  C    0.143151
[...]
    69    C    5  pz     Val( 2p)     1.06017
    70    C    5  pz     Ryd( 3p)     0.00516
    71    C    5  dxy    Ryd( 3d)     0.00084
    72    C    5  dxz    Ryd( 3d)     0.00055
    73    C    5  dyz    Ryd( 3d)     0.00055
    74    C    5  dx2y2  Ryd( 3d)     0.00063
    75    C    5  dz2    Ryd( 3d)     0.00042

    76    C    6  S      Cor( 1S)     1.99870
    77    C    6  S      Val( 2S)     0.82889
    78    C    6  S      Ryd( 3S)     0.00154
    79    C    6  S      Ryd( 4S)     0.00012
    80    C    6  px     Val( 2p)     0.75885
    81    C    6  px     Ryd( 3p)     0.00634
    82    C    6  py     Val( 2p)     1.05535
    83    C    6  py     Ryd( 3p)     0.00521
    84    C    6  pz     Val( 2p)     0.97304
    85    C    6  pz     Ryd( 3p)     0.00280
    86    C    6  dxy    Ryd( 3d)     0.00160
    87    C    6  dxz    Ryd( 3d)     0.00140
    88    C    6  dyz    Ryd( 3d)     0.00115
    89    C    6  dx2y2  Ryd( 3d)     0.00153
    90    C    6  dz2    Ryd( 3d)     0.00050

    91    C    7  S      Cor( 1S)     1.99903
    92    C    7  S      Val( 2S)     0.95912
    93    C    7  S      Ryd( 3S)     0.00085
    94    C    7  S      Ryd( 4S)     0.00005
    95    C    7  px     Val( 2p)     1.14961
    96    C    7  px     Ryd( 3p)     0.00435
    97    C    7  py     Val( 2p)     1.12106
    98    C    7  py     Ryd( 3p)     0.00475
    99    C    7  pz     Val( 2p)     1.03642
   100    C    7  pz     Ryd( 3p)     0.00214
   101    C    7  dxy    Ryd( 3d)     0.00071
   102    C    7  dxz    Ryd( 3d)     0.00068
   103    C    7  dyz    Ryd( 3d)     0.00052
   104    C    7  dx2y2  Ryd( 3d)     0.00067
   105    C    7  dz2    Ryd( 3d)     0.00046

   106    C    8  S      Cor( 1S)     1.99906
   107    C    8  S      Val( 2S)     0.94142
   108    C    8  S      Ryd( 3S)     0.00068
   109    C    8  S      Ryd( 4S)     0.00005
   110    C    8  px     Val( 2p)     1.06133
   111    C    8  px     Ryd( 3p)     0.00431
   112    C    8  py     Val( 2p)     1.17473
   113    C    8  py     Ryd( 3p)     0.00456
   114    C    8  pz     Val( 2p)     1.04374
   115    C    8  pz     Ryd( 3p)     0.00345
   116    C    8  dxy    Ryd( 3d)     0.00070
   117    C    8  dxz    Ryd( 3d)     0.00066
   118    C    8  dyz    Ryd( 3d)     0.00029
   119    C    8  dx2y2  Ryd( 3d)     0.00075
   120    C    8  dz2    Ryd( 3d)     0.00044

   121    C    9  S      Cor( 1S)     1.99903
   122    C    9  S      Val( 2S)     0.87160
   123    C    9  S      Ryd( 3S)     0.00048
   124    C    9  S      Ryd( 4S)     0.00006
   125    C    9  px     Val( 2p)     1.09256
   126    C    9  px     Ryd( 3p)     0.00482
   127    C    9  py     Val( 2p)     1.08408
   128    C    9  py     Ryd( 3p)     0.00555
   129    C    9  pz     Val( 2p)     1.00167
   130    C    9  pz     Ryd( 3p)     0.00060
   131    C    9  dxy    Ryd( 3d)     0.00067
   132    C    9  dxz    Ryd( 3d)     0.00078
   133    C    9  dyz    Ryd( 3d)     0.00066
   134    C    9  dx2y2  Ryd( 3d)     0.00075
   135    C    9  dz2    Ryd( 3d)     0.00034

   136    C   10  S      Cor( 1S)     1.99901
   137    C   10  S      Val( 2S)     0.86535
   138    C   10  S      Ryd( 3S)     0.00051
   139    C   10  S      Ryd( 4S)     0.00006
   140    C   10  px     Val( 2p)     1.07952
   141    C   10  px     Ryd( 3p)     0.00486
   142    C   10  py     Val( 2p)     1.08062
   143    C   10  py     Ryd( 3p)     0.00557
   144    C   10  pz     Val( 2p)     1.00835
   145    C   10  pz     Ryd( 3p)     0.00113
   146    C   10  dxy    Ryd( 3d)     0.00067
   147    C   10  dxz    Ryd( 3d)     0.00084
   148    C   10  dyz    Ryd( 3d)     0.00047
   149    C   10  dx2y2  Ryd( 3d)     0.00072
   150    C   10  dz2    Ryd( 3d)     0.00035

   151    C   11  S      Cor( 1S)     1.99907
   152    C   11  S      Val( 2S)     0.95955
   153    C   11  S      Ryd( 3S)     0.00065
   154    C   11  S      Ryd( 4S)     0.00005
   155    C   11  px     Val( 2p)     1.06071
   156    C   11  px     Ryd( 3p)     0.00370
   157    C   11  py     Val( 2p)     1.19231
   158    C   11  py     Ryd( 3p)     0.00471
   159    C   11  pz     Val( 2p)     0.90623
   160    C   11  pz     Ryd( 3p)     0.00152
   161    C   11  dxy    Ryd( 3d)     0.00072
   162    C   11  dxz    Ryd( 3d)     0.00073
   163    C   11  dyz    Ryd( 3d)     0.00033
   164    C   11  dx2y2  Ryd( 3d)     0.00084
   165    C   11  dz2    Ryd( 3d)     0.00042

   166    C   12  S      Cor( 1S)     1.99913
   167    C   12  S      Val( 2S)     0.96467
   168    C   12  S      Ryd( 3S)     0.00064
   169    C   12  S      Ryd( 4S)     0.00003
   170    C   12  px     Val( 2p)     1.13594
   171    C   12  px     Ryd( 3p)     0.00503
   172    C   12  py     Val( 2p)     1.11923
   173    C   12  py     Ryd( 3p)     0.00495
   174    C   12  pz     Val( 2p)     1.03160
   175    C   12  pz     Ryd( 3p)     0.00180
   176    C   12  dxy    Ryd( 3d)     0.00085
   177    C   12  dxz    Ryd( 3d)     0.00054
   178    C   12  dyz    Ryd( 3d)     0.00039
   179    C   12  dx2y2  Ryd( 3d)     0.00064
   180    C   12  dz2    Ryd( 3d)     0.00043

   181    C   13  S      Cor( 1S)     1.99910
   182    C   13  S      Val( 2S)     0.97119
   183    C   13  S      Ryd( 3S)     0.00059
   184    C   13  S      Ryd( 4S)     0.00003
   185    C   13  px     Val( 2p)     1.18744
   186    C   13  px     Ryd( 3p)     0.00502
   187    C   13  py     Val( 2p)     1.07143
   188    C   13  py     Ryd( 3p)     0.00467
   189    C   13  pz     Val( 2p)     0.94252
   190    C   13  pz     Ryd( 3p)     0.00115
   191    C   13  dxy    Ryd( 3d)     0.00077
   192    C   13  dxz    Ryd( 3d)     0.00041
   193    C   13  dyz    Ryd( 3d)     0.00068
   194    C   13  dx2y2  Ryd( 3d)     0.00078
   195    C   13  dz2    Ryd( 3d)     0.00042

   196    C   14  S      Cor( 1S)     1.99906
   197    C   14  S      Val( 2S)     0.95986
   198    C   14  S      Ryd( 3S)     0.00067
   199    C   14  S      Ryd( 4S)     0.00005
   200    C   14  px     Val( 2p)     1.05629
   201    C   14  px     Ryd( 3p)     0.00403
   202    C   14  py     Val( 2p)     1.19076
   203    C   14  py     Ryd( 3p)     0.00474
   204    C   14  pz     Val( 2p)     0.93491
   205    C   14  pz     Ryd( 3p)     0.00178
   206    C   14  dxy    Ryd( 3d)     0.00071
   207    C   14  dxz    Ryd( 3d)     0.00059
   208    C   14  dyz    Ryd( 3d)     0.00038
   209    C   14  dx2y2  Ryd( 3d)     0.00086
   210    C   14  dz2    Ryd( 3d)     0.00042

   211    O   15  S      Cor( 1S)     1.99968
   212    O   15  S      Val( 2S)     1.58857
   213    O   15  S      Ryd( 3S)     0.00095
   214    O   15  S      Ryd( 4S)     0.00013
   215    O   15  px     Val( 2p)     1.41696
   216    O   15  px     Ryd( 3p)     0.00080
   217    O   15  py     Val( 2p)     1.79942
   218    O   15  py     Ryd( 3p)     0.00220
   219    O   15  pz     Val( 2p)     1.71170
   220    O   15  pz     Ryd( 3p)     0.00135
   221    O   15  dxy    Ryd( 3d)     0.00082
   222    O   15  dxz    Ryd( 3d)     0.00089
   223    O   15  dyz    Ryd( 3d)     0.00118
   224    O   15  dx2y2  Ryd( 3d)     0.00106
   225    O   15  dz2    Ryd( 3d)     0.00134

   226    C   16  S      Cor( 1S)     1.99936
   227    C   16  S      Val( 2S)     0.69365
   228    C   16  S      Ryd( 3S)     0.00256
   229    C   16  S      Ryd( 4S)     0.00047
   230    C   16  px     Val( 2p)     0.76495
   231    C   16  px     Ryd( 3p)     0.00586
   232    C   16  py     Val( 2p)     0.78283
   233    C   16  py     Ryd( 3p)     0.01306
   234    C   16  pz     Val( 2p)     0.77390
   235    C   16  pz     Ryd( 3p)     0.01103
   236    C   16  dxy    Ryd( 3d)     0.00312
   237    C   16  dxz    Ryd( 3d)     0.00332
   238    C   16  dyz    Ryd( 3d)     0.00088
   239    C   16  dx2y2  Ryd( 3d)     0.00195
   240    C   16  dz2    Ryd( 3d)     0.00238

   241    O   17  S      Cor( 1S)     1.99978
   242    O   17  S      Val( 2S)     1.70444
   243    O   17  S      Ryd( 3S)     0.00046
   244    O   17  S      Ryd( 4S)     0.00012
   245    O   17  px     Val( 2p)     1.80015
   246    O   17  px     Ryd( 3p)     0.00097
   247    O   17  py     Val( 2p)     1.55721
   248    O   17  py     Ryd( 3p)     0.00062
   249    O   17  pz     Val( 2p)     1.55989
   250    O   17  pz     Ryd( 3p)     0.00068
   251    O   17  dxy    Ryd( 3d)     0.00277
   252    O   17  dxz    Ryd( 3d)     0.00237
   253    O   17  dyz    Ryd( 3d)     0.00434
   254    O   17  dx2y2  Ryd( 3d)     0.00274
   255    O   17  dz2    Ryd( 3d)     0.00399

   256    N   18  S      Cor( 1S)     1.99932
   257    N   18  S      Val( 2S)     1.20788
   258    N   18  S      Ryd( 3S)     0.00115
   259    N   18  S      Ryd( 4S)     0.00004
   260    N   18  px     Val( 2p)     1.29686
   261    N   18  px     Ryd( 3p)     0.00115
   262    N   18  py     Val( 2p)     1.45858
   263    N   18  py     Ryd( 3p)     0.00258
   264    N   18  pz     Val( 2p)     1.49927
   265    N   18  pz     Ryd( 3p)     0.00306
   266    N   18  dxy    Ryd( 3d)     0.00077
   267    N   18  dxz    Ryd( 3d)     0.00063
   268    N   18  dyz    Ryd( 3d)     0.00056
   269    N   18  dx2y2  Ryd( 3d)     0.00054
   270    N   18  dz2    Ryd( 3d)     0.00049

   271    C   19  S      Cor( 1S)     1.99945
   272    C   19  S      Val( 2S)     1.08950
   273    C   19  S      Ryd( 3S)     0.00104
   274    C   19  S      Ryd( 4S)     0.00002
   275    C   19  px     Val( 2p)     1.27869
   276    C   19  px     Ryd( 3p)     0.00335
   277    C   19  py     Val( 2p)     1.03008
   278    C   19  py     Ryd( 3p)     0.00144
   279    C   19  pz     Val( 2p)     1.06886
   280    C   19  pz     Ryd( 3p)     0.00139
   281    C   19  dxy    Ryd( 3d)     0.00093
   282    C   19  dxz    Ryd( 3d)     0.00069
   283    C   19  dyz    Ryd( 3d)     0.00120
   284    C   19  dx2y2  Ryd( 3d)     0.00071
   285    C   19  dz2    Ryd( 3d)     0.00105

   286    C   20  S      Cor( 1S)     1.99947
   287    C   20  S      Val( 2S)     1.08716
   288    C   20  S      Ryd( 3S)     0.00091
   289    C   20  S      Ryd( 4S)     0.00002
   290    C   20  px     Val( 2p)     0.97409
   291    C   20  px     Ryd( 3p)     0.00215
   292    C   20  py     Val( 2p)     1.20724
   293    C   20  py     Ryd( 3p)     0.00218
   294    C   20  pz     Val( 2p)     1.18943
   295    C   20  pz     Ryd( 3p)     0.00183
   296    C   20  dxy    Ryd( 3d)     0.00119
   297    C   20  dxz    Ryd( 3d)     0.00137
   298    C   20  dyz    Ryd( 3d)     0.00101
   299    C   20  dx2y2  Ryd( 3d)     0.00065
   300    C   20  dz2    Ryd( 3d)     0.00042

   301    H   21  S      Val( 1S)     0.78170
   302    H   21  S      Ryd( 2S)     0.00170

   303    H   22  S      Val( 1S)     0.78341
   304    H   22  S      Ryd( 2S)     0.00173

   305    H   23  S      Val( 1S)     0.78015
   306    H   23  S      Ryd( 2S)     0.00074

   307    H   24  S      Val( 1S)     0.73875
   308    H   24  S      Ryd( 2S)     0.00117

   309    H   25  S      Val( 1S)     0.76649
   310    H   25  S      Ryd( 2S)     0.00110

   311    H   26  S      Val( 1S)     0.74985
   312    H   26  S      Ryd( 2S)     0.00151

   313    H   27  S      Val( 1S)     0.75890
   314    H   27  S      Ryd( 2S)     0.00078

   315    H   28  S      Val( 1S)     0.75846
   316    H   28  S      Ryd( 2S)     0.00080

   317    H   29  S      Val( 1S)     0.76087
   318    H   29  S      Ryd( 2S)     0.00115

   319    H   30  S      Val( 1S)     0.72225
   320    H   30  S      Ryd( 2S)     0.00172

   321    H   31  S      Val( 1S)     0.77617
   322    H   31  S      Ryd( 2S)     0.00128

   323    H   32  S      Val( 1S)     0.77851
   324    H   32  S      Ryd( 2S)     0.00157

   325    H   33  S      Val( 1S)     0.73628
   326    H   33  S      Ryd( 2S)     0.00151

   327    H   34  S      Val( 1S)     0.77756
   328    H   34  S      Ryd( 2S)     0.00143

   329    H   35  S      Val( 1S)     0.77583
   330    H   35  S      Ryd( 2S)     0.00125

 WARNING:  1 low occupancy (<1.9990e) core orbital  found on  C    5
           1 low occupancy (<1.9990e) core orbital  found on  C    6


 Summary of Natural Population Analysis:                  
                                                          
                                       Natural Population 
                Natural  -----------------------------------------------
    Atom  No    Charge         Core      Valence    Rydberg      Total
 -----------------------------------------------------------------------
      C    1   -0.32354      1.99942     4.30981    0.01431     6.32354
      O    2   -0.55425      1.99975     6.54341    0.01109     8.55425
      C    3    0.75632      1.99940     3.19821    0.04607     5.24368
      O    4   -0.61149      1.99977     6.59229    0.01943     8.61149
      C    5   -0.15105      1.99882     4.13337    0.01886     6.15105
      C    6    0.36297      1.99870     3.61613    0.02220     5.63703
      C    7   -0.28042      1.99903     4.26621    0.01519     6.28042
      C    8   -0.23618      1.99906     4.22122    0.01590     6.23618
      C    9   -0.06365      1.99903     4.04991    0.01471     6.06365
      C   10   -0.04802      1.99901     4.03383    0.01518     6.04802
      C   11   -0.13153      1.99907     4.11880    0.01366     6.13153
      C   12   -0.26588      1.99913     4.25145    0.01530     6.26588
      C   13   -0.18621      1.99910     4.17258    0.01453     6.18621
      C   14   -0.15511      1.99906     4.14182    0.01423     6.15511
      O   15   -0.52703      1.99968     6.51665    0.01071     8.52703
      C   16    0.94069      1.99936     3.01534    0.04462     5.05931
      O   17   -0.64054      1.99978     6.62170    0.01906     8.64054
      N   18   -0.47291      1.99932     5.46259    0.01100     7.47291
      C   19   -0.47839      1.99945     4.46712    0.01182     6.47839
      C   20   -0.46913      1.99947     4.45792    0.01174     6.46913
      H   21    0.21660      0.00000     0.78170    0.00170     0.78340
      H   22    0.21486      0.00000     0.78341    0.00173     0.78514
      H   23    0.21911      0.00000     0.78015    0.00074     0.78089
      H   24    0.26008      0.00000     0.73875    0.00117     0.73992
      H   25    0.23241      0.00000     0.76649    0.00110     0.76759
      H   26    0.24864      0.00000     0.74985    0.00151     0.75136
      H   27    0.24032      0.00000     0.75890    0.00078     0.75968
      H   28    0.24074      0.00000     0.75846    0.00080     0.75926
      H   29    0.23798      0.00000     0.76087    0.00115     0.76202
      H   30    0.27603      0.00000     0.72225    0.00172     0.72397
      H   31    0.22255      0.00000     0.77617    0.00128     0.77745
      H   32    0.21992      0.00000     0.77851    0.00157     0.78008
      H   33    0.26221      0.00000     0.73628    0.00151     0.73779
      H   34    0.22102      0.00000     0.77756    0.00143     0.77898
      H   35    0.22292      0.00000     0.77583    0.00125     0.77708
 =======================================================================
   * Total *    0.00000     39.98540   103.63556    0.37905   144.00000

                                 Natural Population      
 --------------------------------------------------------
   Core                      39.98540 ( 99.9635% of  40)
   Valence                  103.63556 ( 99.6496% of 104)
   Natural Minimal Basis    143.62095 ( 99.7368% of 144)
   Natural Rydberg Basis      0.37905 (  0.2632% of 144)
 --------------------------------------------------------

    Atom  No          Natural Electron Configuration
 ----------------------------------------------------------------------------
      C    1      [core]2S( 1.11)2p( 3.20)3p( 0.01)3d( 0.01)
      O    2      [core]2S( 1.63)2p( 4.92)3d( 0.01)
      C    3      [core]2S( 0.76)2p( 2.44)3p( 0.03)3d( 0.01)
      O    4      [core]2S( 1.70)2p( 4.89)3d( 0.02)
      C    5      [core]2S( 0.90)2p( 3.24)3p( 0.01)
      C    6      [core]2S( 0.83)2p( 2.79)3p( 0.01)3d( 0.01)
      C    7      [core]2S( 0.96)2p( 3.31)3p( 0.01)
      C    8      [core]2S( 0.94)2p( 3.28)3p( 0.01)
      C    9      [core]2S( 0.87)2p( 3.18)3p( 0.01)
      C   10      [core]2S( 0.87)2p( 3.17)3p( 0.01)
      C   11      [core]2S( 0.96)2p( 3.16)3p( 0.01)
      C   12      [core]2S( 0.96)2p( 3.29)3p( 0.01)
      C   13      [core]2S( 0.97)2p( 3.20)3p( 0.01)
      C   14      [core]2S( 0.96)2p( 3.18)3p( 0.01)
      O   15      [core]2S( 1.59)2p( 4.93)3d( 0.01)
      C   16      [core]2S( 0.69)2p( 2.32)3p( 0.03)3d( 0.01)
      O   17      [core]2S( 1.70)2p( 4.92)3d( 0.02)
      N   18      [core]2S( 1.21)2p( 4.25)3p( 0.01)
      C   19      [core]2S( 1.09)2p( 3.38)3p( 0.01)
      C   20      [core]2S( 1.09)2p( 3.37)3p( 0.01)
      H   21            1S( 0.78)
      H   22            1S( 0.78)
      H   23            1S( 0.78)
      H   24            1S( 0.74)
      H   25            1S( 0.77)
      H   26            1S( 0.75)
      H   27            1S( 0.76)
      H   28            1S( 0.76)
      H   29            1S( 0.76)
      H   30            1S( 0.72)
      H   31            1S( 0.78)
      H   32            1S( 0.78)
      H   33            1S( 0.74)
      H   34            1S( 0.78)
      H   35            1S( 0.78)


 NBO analysis skipped by request.
 Leave Link  607 at Thu Sep 30 17:49:46 2021, MaxMem= 1342177280 cpu:      22.4
 (Enter /sw/target/amd/app/gaussian/Gaussian09RevA.02_gcc-4.9.2/g09/l9999.exe)
 1\1\GINC-HERMITE\SP\RTD-B3LYP-FC\6-31G(d)\C15H15N1O4\JSCHLEINITZ\30-Se
 p-2021\0\\#p TD(NStates=10, Root=1) b3lyp/6-31G* volume pop=NPA densit
 y=current Geom=AllCheck Guess=Read\\COC(=O)c1c(ccc2c1cccc2)OC(=O)N(C)C
 _conf_0\\0,1\C,0,1.6046095935,1.0128280307,-1.0444464688\O,0,3.0164000
 503,0.8291755897,-1.2439631362\C,0,3.4222295012,-0.4603727144,-1.33308
 36542\O,0,2.6546318519,-1.3956113657,-1.238921014\C,0,4.9042409113,-0.
 5673968791,-1.535232466\C,0,5.6226714418,-1.4135017091,-0.7014420662\C
 ,0,7.0194158219,-1.5852434658,-0.8388345831\C,0,7.6856923696,-0.906057
 3059,-1.8270486396\C,0,7.0046185366,-0.0391158673,-2.7204308163\C,0,5.
 5888438407,0.1426768949,-2.5787127771\C,0,4.9322307769,0.9946988418,-3
 .5105835268\C,0,5.6353230287,1.634322458,-4.5073885435\C,0,7.032920708
 3,1.4614661408,-4.6352492124\C,0,7.6989344871,0.639208051,-3.756947582
 4\O,0,4.9049391514,-2.1405386368,0.2266530078\C,0,5.3449358189,-2.2791
 73617,1.5287772886\O,0,6.3807664238,-1.802148912,1.9531750868\N,0,4.44
 75861207,-3.0118388974,2.2445191858\C,0,3.2162492243,-3.5726905605,1.6
 995161394\C,0,4.7659553876,-3.3432098794,3.6244478306\H,0,1.2876526236
 ,0.5480016982,-0.107231695\H,0,1.0367235656,0.5713921643,-1.8678522804
 \H,0,1.4550352398,2.0921969155,-1.0073917093\H,0,7.5412807242,-2.23850
 72541,-0.1531278563\H,0,8.7592839071,-1.0342093967,-1.9402677691\H,0,3
 .8640970772,1.1504066272,-3.426093899\H,0,5.1080074803,2.2802857375,-5
 .2042595604\H,0,7.5734132858,1.9742917444,-5.4259201865\H,0,8.77249849
 87,0.4897044463,-3.8443369188\H,0,2.9770693747,-3.1122040639,0.7429152
 354\H,0,2.3960619518,-3.3839429615,2.4028104224\H,0,3.3075263982,-4.65
 95732161,1.5652399207\H,0,5.7010091325,-2.8566277232,3.8980427597\H,0,
 4.8712133691,-4.4297898328,3.7461383001\H,0,3.9658529643,-2.9978710573
 ,4.2913506307\\Version=AM64L-G09RevA.02\State=1-A\HF=-936.3064903\RMSD
 =8.097e-09\Dipole=-0.2339693,0.2371589,-0.3396448\Quadrupole=-1.755725
 4,-1.3913487,3.1470741,-1.5142997,-9.7065673,-12.0304072\PG=C01 [X(C15
 H15N1O4)]\\@


 FORGIVE MY NONSENSE AS I ALSO FORGIVE THOSE WHO THINK THEY TALK SENSE

                                                       -- ROBERT FROST
 Job cpu time:  0 days  5 hours 58 minutes  6.3 seconds.
 File lengths (MBytes):  RWF=    359 Int=      0 D2E=      0 Chk=     49 Scr=      1
 Normal termination of Gaussian 09 at Thu Sep 30 17:49:49 2021.
