 Entering Gaussian System, Link 0=g09
 Input=C15H16O4_9bbe_conf_0.com
 Output=C15H16O4_9bbe_conf_0.log
 Initial command:
 /sw/target/amd/app/gaussian/Gaussian09RevA.02_gcc-4.9.2/g09/l1.exe /home/jschleinitz/gaussian/Gau-605679.inp -scrdir=/home/jschleinitz/gaussian/
 Entering Link 1 = /sw/target/amd/app/gaussian/Gaussian09RevA.02_gcc-4.9.2/g09/l1.exe PID=    605681.
  
 Copyright (c) 1988,1990,1992,1993,1995,1998,2003,2009, Gaussian, Inc.
                  All Rights Reserved.
  
 This is part of the Gaussian(R) 09 program.  It is based on
 the Gaussian(R) 03 system (copyright 2003, Gaussian, Inc.),
 the Gaussian(R) 98 system (copyright 1998, Gaussian, Inc.),
 the Gaussian(R) 94 system (copyright 1995, Gaussian, Inc.),
 the Gaussian 92(TM) system (copyright 1992, Gaussian, Inc.),
 the Gaussian 90(TM) system (copyright 1990, Gaussian, Inc.),
 the Gaussian 88(TM) system (copyright 1988, Gaussian, Inc.),
 the Gaussian 86(TM) system (copyright 1986, Carnegie Mellon
 University), and the Gaussian 82(TM) system (copyright 1983,
 Carnegie Mellon University). Gaussian is a federally registered
 trademark of Gaussian, Inc.
  
 This software contains proprietary and confidential information,
 including trade secrets, belonging to Gaussian, Inc.
  
 This software is provided under written license and may be
 used, copied, transmitted, or stored only in accord with that
 written license.
  
 The following legend is applicable only to US Government
 contracts under FAR:
  
                    RESTRICTED RIGHTS LEGEND
  
 Use, reproduction and disclosure by the US Government is
 subject to restrictions as set forth in subparagraphs (a)
 and (c) of the Commercial Computer Software - Restricted
 Rights clause in FAR 52.227-19.
  
 Gaussian, Inc.
 340 Quinnipiac St., Bldg. 40, Wallingford CT 06492
  
  
 ---------------------------------------------------------------
 Warning -- This program may not be used in any manner that
 competes with the business of Gaussian, Inc. or will provide
 assistance to any competitor of Gaussian, Inc.  The licensee
 of this program is prohibited from giving any competitor of
 Gaussian, Inc. access to this program.  By using this program,
 the user acknowledges that Gaussian, Inc. is engaged in the
 business of creating and licensing software in the field of
 computational chemistry and represents and warrants to the
 licensee that it is not a competitor of Gaussian, Inc. and that
 it will not use this program in any manner prohibited above.
 ---------------------------------------------------------------
  

 Cite this work as:
 Gaussian 09, Revision A.02,
 M. J. Frisch, G. W. Trucks, H. B. Schlegel, G. E. Scuseria, 
 M. A. Robb, J. R. Cheeseman, G. Scalmani, V. Barone, B. Mennucci, 
 G. A. Petersson, H. Nakatsuji, M. Caricato, X. Li, H. P. Hratchian, 
 A. F. Izmaylov, J. Bloino, G. Zheng, J. L. Sonnenberg, M. Hada, 
 M. Ehara, K. Toyota, R. Fukuda, J. Hasegawa, M. Ishida, T. Nakajima, 
 Y. Honda, O. Kitao, H. Nakai, T. Vreven, J. A. Montgomery, Jr., 
 J. E. Peralta, F. Ogliaro, M. Bearpark, J. J. Heyd, E. Brothers, 
 K. N. Kudin, V. N. Staroverov, R. Kobayashi, J. Normand, 
 K. Raghavachari, A. Rendell, J. C. Burant, S. S. Iyengar, J. Tomasi, 
 M. Cossi, N. Rega, J. M. Millam, M. Klene, J. E. Knox, J. B. Cross, 
 V. Bakken, C. Adamo, J. Jaramillo, R. Gomperts, R. E. Stratmann, 
 O. Yazyev, A. J. Austin, R. Cammi, C. Pomelli, J. W. Ochterski, 
 R. L. Martin, K. Morokuma, V. G. Zakrzewski, G. A. Voth, 
 P. Salvador, J. J. Dannenberg, S. Dapprich, A. D. Daniels, 
 O. Farkas, J. B. Foresman, J. V. Ortiz, J. Cioslowski, 
 and D. J. Fox, Gaussian, Inc., Wallingford CT, 2009.
 
 ******************************************
 Gaussian 09:  AM64L-G09RevA.02 11-Jun-2009
                29-Sep-2021 
 ******************************************
 %nproc=5
 Will use up to    5 processors via shared memory.
 %mem=10gb
 %chk=C15H16O4_9bbe_conf_0.chk
 -----------------------------------
 #p opt b3lyp/6-31G* scf=(xqc,tight)
 -----------------------------------
 1/14=-1,18=20,19=15,26=3,38=1/1,3;
 2/9=110,12=2,17=6,18=5,40=1/2;
 3/5=1,6=6,7=1,11=2,16=1,25=1,30=1,71=1,74=-5/1,2,3;
 4//1;
 5/5=2,8=3,13=1,32=2,38=5/2,8;
 6/7=2,8=2,9=2,10=2,28=1/1;
 7//1,2,3,16;
 1/14=-1,18=20,19=15/3(2);
 2/9=110/2;
 99//99;
 2/9=110/2;
 3/5=1,6=6,7=1,11=2,16=1,25=1,30=1,71=1,74=-5/1,2,3;
 4/5=5,16=3/1;
 5/5=2,8=3,13=1,32=2,38=5/2,8;
 7//1,2,3,16;
 1/14=-1,18=20,19=15/3(-5);
 2/9=110/2;
 6/7=2,8=2,9=2,10=2,19=2,28=1/1;
 99/9=1/99;
 Leave Link    1 at Wed Sep 29 01:53:23 2021, MaxMem= 1342177280 cpu:       0.1
 (Enter /sw/target/amd/app/gaussian/Gaussian09RevA.02_gcc-4.9.2/g09/l101.exe)
 -------------------------------------
 COCc1c(OC)ccc2c1ccc(c2)OC(=O)C_conf_0
 -------------------------------------
 Symbolic Z-matrix:
 Charge =  0 Multiplicity = 1
 C                     2.57078  -1.55223   1.64205 
 O                     2.36078  -0.86246   0.41734 
 C                     3.0572   -1.4595   -0.68257 
 C                     4.56741  -1.29192  -0.60459 
 C                     5.39266  -2.43838  -0.6313 
 O                     4.74774  -3.64456  -0.72781 
 C                     5.5389   -4.82424  -0.78075 
 C                     6.77829  -2.29534  -0.55862 
 C                     7.3557   -1.02728  -0.4609 
 C                     6.56555   0.12874  -0.44539 
 C                     5.1542    0.0076   -0.52452 
 C                     4.39742   1.20116  -0.52901 
 C                     4.99533   2.45737  -0.45809 
 C                     6.37621   2.54985  -0.36075 
 C                     7.16415   1.40109  -0.36597 
 O                     7.0245    3.79484  -0.40695 
 C                     6.51285   4.81907   0.38404 
 O                     5.73749   4.70211   1.32558 
 C                     7.03302   6.1384   -0.10491 
 H                     1.94557  -1.08268   2.40635 
 H                     3.61406  -1.47382   1.96261 
 H                     2.27952  -2.60252   1.55015 
 H                     2.70868  -0.96667  -1.59861 
 H                     2.73457  -2.50173  -0.77147 
 H                     4.8578   -5.67783  -0.85462 
 H                     6.12608  -4.94705   0.13485 
 H                     6.17842  -4.83157  -1.66933 
 H                     7.44396  -3.15201  -0.57464 
 H                     8.44029  -0.95276  -0.40313 
 H                     3.31176   1.17314  -0.59177 
 H                     4.369     3.34373  -0.48217 
 H                     8.24584   1.49929  -0.31987 
 H                     7.66737   6.00695  -0.9865 
 H                     7.61744   6.61887   0.68204 
 H                     6.18441   6.76643  -0.39112 
 
 NAtoms=     35 NQM=     35 NQMF=      0 NMic=      0 NMicF=      0 NTot=     35.
                    Isotopes and Nuclear Properties:
 (Nuclear quadrupole moments (NQMom) in fm**2, nuclear magnetic moments (NMagM)
  in nuclear magnetons)

  Atom         1           2           3           4           5           6           7           8           9          10
 IAtWgt=          12          16          12          12          12          16          12          12          12          12
 AtmWgt=  12.0000000  15.9949146  12.0000000  12.0000000  12.0000000  15.9949146  12.0000000  12.0000000  12.0000000  12.0000000
 NucSpn=           0           0           0           0           0           0           0           0           0           0
 AtZEff=   0.0000000   0.0000000   0.0000000   0.0000000   0.0000000   0.0000000   0.0000000   0.0000000   0.0000000   0.0000000
 NQMom=    0.0000000   0.0000000   0.0000000   0.0000000   0.0000000   0.0000000   0.0000000   0.0000000   0.0000000   0.0000000
 NMagM=    0.0000000   0.0000000   0.0000000   0.0000000   0.0000000   0.0000000   0.0000000   0.0000000   0.0000000   0.0000000

  Atom        11          12          13          14          15          16          17          18          19          20
 IAtWgt=          12          12          12          12          12          16          12          16          12           1
 AtmWgt=  12.0000000  12.0000000  12.0000000  12.0000000  12.0000000  15.9949146  12.0000000  15.9949146  12.0000000   1.0078250
 NucSpn=           0           0           0           0           0           0           0           0           0           1
 AtZEff=   0.0000000   0.0000000   0.0000000   0.0000000   0.0000000   0.0000000   0.0000000   0.0000000   0.0000000   0.0000000
 NQMom=    0.0000000   0.0000000   0.0000000   0.0000000   0.0000000   0.0000000   0.0000000   0.0000000   0.0000000   0.0000000
 NMagM=    0.0000000   0.0000000   0.0000000   0.0000000   0.0000000   0.0000000   0.0000000   0.0000000   0.0000000   2.7928460

  Atom        21          22          23          24          25          26          27          28          29          30
 IAtWgt=           1           1           1           1           1           1           1           1           1           1
 AtmWgt=   1.0078250   1.0078250   1.0078250   1.0078250   1.0078250   1.0078250   1.0078250   1.0078250   1.0078250   1.0078250
 NucSpn=           1           1           1           1           1           1           1           1           1           1
 AtZEff=   0.0000000   0.0000000   0.0000000   0.0000000   0.0000000   0.0000000   0.0000000   0.0000000   0.0000000   0.0000000
 NQMom=    0.0000000   0.0000000   0.0000000   0.0000000   0.0000000   0.0000000   0.0000000   0.0000000   0.0000000   0.0000000
 NMagM=    2.7928460   2.7928460   2.7928460   2.7928460   2.7928460   2.7928460   2.7928460   2.7928460   2.7928460   2.7928460

  Atom        31          32          33          34          35
 IAtWgt=           1           1           1           1           1
 AtmWgt=   1.0078250   1.0078250   1.0078250   1.0078250   1.0078250
 NucSpn=           1           1           1           1           1
 AtZEff=   0.0000000   0.0000000   0.0000000   0.0000000   0.0000000
 NQMom=    0.0000000   0.0000000   0.0000000   0.0000000   0.0000000
 NMagM=    2.7928460   2.7928460   2.7928460   2.7928460   2.7928460
 Leave Link  101 at Wed Sep 29 01:53:23 2021, MaxMem= 1342177280 cpu:       0.2
 (Enter /sw/target/amd/app/gaussian/Gaussian09RevA.02_gcc-4.9.2/g09/l103.exe)

 GradGradGradGradGradGradGradGradGradGradGradGradGradGradGradGradGradGrad
 Berny optimization.
 Initialization pass.
                           ----------------------------
                           !    Initial Parameters    !
                           ! (Angstroms and Degrees)  !
 --------------------------                            --------------------------
 ! Name  Definition              Value          Derivative Info.                !
 --------------------------------------------------------------------------------
 ! R1    R(1,2)                  1.4212         estimate D2E/DX2                !
 ! R2    R(1,20)                 1.0934         estimate D2E/DX2                !
 ! R3    R(1,21)                 1.0942         estimate D2E/DX2                !
 ! R4    R(1,22)                 1.0938         estimate D2E/DX2                !
 ! R5    R(2,3)                  1.4322         estimate D2E/DX2                !
 ! R6    R(3,4)                  1.5215         estimate D2E/DX2                !
 ! R7    R(3,23)                 1.097          estimate D2E/DX2                !
 ! R8    R(3,24)                 1.0946         estimate D2E/DX2                !
 ! R9    R(4,5)                  1.4128         estimate D2E/DX2                !
 ! R10   R(4,11)                 1.4281         estimate D2E/DX2                !
 ! R11   R(5,6)                  1.3712         estimate D2E/DX2                !
 ! R12   R(5,8)                  1.3949         estimate D2E/DX2                !
 ! R13   R(6,7)                  1.4214         estimate D2E/DX2                !
 ! R14   R(7,25)                 1.0945         estimate D2E/DX2                !
 ! R15   R(7,26)                 1.0946         estimate D2E/DX2                !
 ! R16   R(7,27)                 1.0948         estimate D2E/DX2                !
 ! R17   R(8,9)                  1.3968         estimate D2E/DX2                !
 ! R18   R(8,28)                 1.085          estimate D2E/DX2                !
 ! R19   R(9,10)                 1.4003         estimate D2E/DX2                !
 ! R20   R(9,29)                 1.0887         estimate D2E/DX2                !
 ! R21   R(10,11)                1.4187         estimate D2E/DX2                !
 ! R22   R(10,15)                1.4084         estimate D2E/DX2                !
 ! R23   R(11,12)                1.4133         estimate D2E/DX2                !
 ! R24   R(12,13)                1.3931         estimate D2E/DX2                !
 ! R25   R(12,30)                1.0878         estimate D2E/DX2                !
 ! R26   R(13,14)                1.3874         estimate D2E/DX2                !
 ! R27   R(13,31)                1.0856         estimate D2E/DX2                !
 ! R28   R(14,15)                1.393          estimate D2E/DX2                !
 ! R29   R(14,16)                1.4044         estimate D2E/DX2                !
 ! R30   R(15,32)                1.0871         estimate D2E/DX2                !
 ! R31   R(16,17)                1.3916         estimate D2E/DX2                !
 ! R32   R(17,18)                1.2253         estimate D2E/DX2                !
 ! R33   R(17,19)                1.5001         estimate D2E/DX2                !
 ! R34   R(19,33)                1.094          estimate D2E/DX2                !
 ! R35   R(19,34)                1.0916         estimate D2E/DX2                !
 ! R36   R(19,35)                1.0938         estimate D2E/DX2                !
 ! A1    A(2,1,20)             108.0265         estimate D2E/DX2                !
 ! A2    A(2,1,21)             111.0118         estimate D2E/DX2                !
 ! A3    A(2,1,22)             110.7494         estimate D2E/DX2                !
 ! A4    A(20,1,21)            108.0371         estimate D2E/DX2                !
 ! A5    A(20,1,22)            108.592          estimate D2E/DX2                !
 ! A6    A(21,1,22)            110.3226         estimate D2E/DX2                !
 ! A7    A(1,2,3)              112.8069         estimate D2E/DX2                !
 ! A8    A(2,3,4)              113.4146         estimate D2E/DX2                !
 ! A9    A(2,3,23)             107.4286         estimate D2E/DX2                !
 ! A10   A(2,3,24)             108.4185         estimate D2E/DX2                !
 ! A11   A(4,3,23)             107.9782         estimate D2E/DX2                !
 ! A12   A(4,3,24)             113.6775         estimate D2E/DX2                !
 ! A13   A(23,3,24)            105.443          estimate D2E/DX2                !
 ! A14   A(3,4,5)              119.3034         estimate D2E/DX2                !
 ! A15   A(3,4,11)             120.7267         estimate D2E/DX2                !
 ! A16   A(5,4,11)             119.9638         estimate D2E/DX2                !
 ! A17   A(4,5,6)              116.13           estimate D2E/DX2                !
 ! A18   A(4,5,8)              119.7377         estimate D2E/DX2                !
 ! A19   A(6,5,8)              124.1322         estimate D2E/DX2                !
 ! A20   A(5,6,7)              118.0924         estimate D2E/DX2                !
 ! A21   A(6,7,25)             107.6617         estimate D2E/DX2                !
 ! A22   A(6,7,26)             111.1338         estimate D2E/DX2                !
 ! A23   A(6,7,27)             111.1567         estimate D2E/DX2                !
 ! A24   A(25,7,26)            107.6232         estimate D2E/DX2                !
 ! A25   A(25,7,27)            107.6679         estimate D2E/DX2                !
 ! A26   A(26,7,27)            111.3951         estimate D2E/DX2                !
 ! A27   A(5,8,9)              120.4906         estimate D2E/DX2                !
 ! A28   A(5,8,28)             121.8504         estimate D2E/DX2                !
 ! A29   A(9,8,28)             117.659          estimate D2E/DX2                !
 ! A30   A(8,9,10)             121.1299         estimate D2E/DX2                !
 ! A31   A(8,9,29)             118.5352         estimate D2E/DX2                !
 ! A32   A(10,9,29)            120.3337         estimate D2E/DX2                !
 ! A33   A(9,10,11)            119.354          estimate D2E/DX2                !
 ! A34   A(9,10,15)            120.4372         estimate D2E/DX2                !
 ! A35   A(11,10,15)           120.2056         estimate D2E/DX2                !
 ! A36   A(4,11,10)            119.3122         estimate D2E/DX2                !
 ! A37   A(4,11,12)            123.2503         estimate D2E/DX2                !
 ! A38   A(10,11,12)           117.4359         estimate D2E/DX2                !
 ! A39   A(11,12,13)           122.1126         estimate D2E/DX2                !
 ! A40   A(11,12,30)           120.8537         estimate D2E/DX2                !
 ! A41   A(13,12,30)           117.0335         estimate D2E/DX2                !
 ! A42   A(12,13,14)           119.3977         estimate D2E/DX2                !
 ! A43   A(12,13,31)           119.1772         estimate D2E/DX2                !
 ! A44   A(14,13,31)           121.425          estimate D2E/DX2                !
 ! A45   A(13,14,15)           120.5141         estimate D2E/DX2                !
 ! A46   A(13,14,16)           121.0786         estimate D2E/DX2                !
 ! A47   A(15,14,16)           118.0221         estimate D2E/DX2                !
 ! A48   A(10,15,14)           120.3182         estimate D2E/DX2                !
 ! A49   A(10,15,32)           120.4584         estimate D2E/DX2                !
 ! A50   A(14,15,32)           119.2195         estimate D2E/DX2                !
 ! A51   A(14,16,17)           117.6485         estimate D2E/DX2                !
 ! A52   A(16,17,18)           126.8113         estimate D2E/DX2                !
 ! A53   A(16,17,19)           109.5461         estimate D2E/DX2                !
 ! A54   A(18,17,19)           123.6307         estimate D2E/DX2                !
 ! A55   A(17,19,33)           110.9798         estimate D2E/DX2                !
 ! A56   A(17,19,34)           109.7406         estimate D2E/DX2                !
 ! A57   A(17,19,35)           108.7379         estimate D2E/DX2                !
 ! A58   A(33,19,34)           108.8674         estimate D2E/DX2                !
 ! A59   A(33,19,35)           107.9373         estimate D2E/DX2                !
 ! A60   A(34,19,35)           110.5643         estimate D2E/DX2                !
 ! D1    D(20,1,2,3)          -175.5541         estimate D2E/DX2                !
 ! D2    D(21,1,2,3)            66.1641         estimate D2E/DX2                !
 ! D3    D(22,1,2,3)           -56.749          estimate D2E/DX2                !
 ! D4    D(1,2,3,4)            -69.849          estimate D2E/DX2                !
 ! D5    D(1,2,3,23)           170.9102         estimate D2E/DX2                !
 ! D6    D(1,2,3,24)            57.4131         estimate D2E/DX2                !
 ! D7    D(2,3,4,5)            123.5546         estimate D2E/DX2                !
 ! D8    D(2,3,4,11)           -57.3452         estimate D2E/DX2                !
 ! D9    D(23,3,4,5)          -117.5201         estimate D2E/DX2                !
 ! D10   D(23,3,4,11)           61.5802         estimate D2E/DX2                !
 ! D11   D(24,3,4,5)            -0.9063         estimate D2E/DX2                !
 ! D12   D(24,3,4,11)          178.1939         estimate D2E/DX2                !
 ! D13   D(3,4,5,6)             -0.0139         estimate D2E/DX2                !
 ! D14   D(3,4,5,8)           -179.918          estimate D2E/DX2                !
 ! D15   D(11,4,5,6)          -179.1211         estimate D2E/DX2                !
 ! D16   D(11,4,5,8)             0.9748         estimate D2E/DX2                !
 ! D17   D(3,4,11,10)          179.6444         estimate D2E/DX2                !
 ! D18   D(3,4,11,12)           -0.8195         estimate D2E/DX2                !
 ! D19   D(5,4,11,10)           -1.2613         estimate D2E/DX2                !
 ! D20   D(5,4,11,12)          178.2748         estimate D2E/DX2                !
 ! D21   D(4,5,6,7)            178.9591         estimate D2E/DX2                !
 ! D22   D(8,5,6,7)             -1.1415         estimate D2E/DX2                !
 ! D23   D(4,5,8,9)             -0.0589         estimate D2E/DX2                !
 ! D24   D(4,5,8,28)           179.8979         estimate D2E/DX2                !
 ! D25   D(6,5,8,9)           -179.9549         estimate D2E/DX2                !
 ! D26   D(6,5,8,28)             0.0019         estimate D2E/DX2                !
 ! D27   D(5,6,7,25)           179.9458         estimate D2E/DX2                !
 ! D28   D(5,6,7,26)            62.3183         estimate D2E/DX2                !
 ! D29   D(5,6,7,27)           -62.3597         estimate D2E/DX2                !
 ! D30   D(5,8,9,10)            -0.5767         estimate D2E/DX2                !
 ! D31   D(5,8,9,29)           179.8227         estimate D2E/DX2                !
 ! D32   D(28,8,9,10)          179.4648         estimate D2E/DX2                !
 ! D33   D(28,8,9,29)           -0.1358         estimate D2E/DX2                !
 ! D34   D(8,9,10,11)            0.2767         estimate D2E/DX2                !
 ! D35   D(8,9,10,15)         -179.0732         estimate D2E/DX2                !
 ! D36   D(29,9,10,11)         179.8701         estimate D2E/DX2                !
 ! D37   D(29,9,10,15)           0.5203         estimate D2E/DX2                !
 ! D38   D(9,10,11,4)            0.6369         estimate D2E/DX2                !
 ! D39   D(9,10,11,12)        -178.9261         estimate D2E/DX2                !
 ! D40   D(15,10,11,4)         179.9882         estimate D2E/DX2                !
 ! D41   D(15,10,11,12)          0.4253         estimate D2E/DX2                !
 ! D42   D(9,10,15,14)         179.5205         estimate D2E/DX2                !
 ! D43   D(9,10,15,32)           0.2446         estimate D2E/DX2                !
 ! D44   D(11,10,15,14)          0.1762         estimate D2E/DX2                !
 ! D45   D(11,10,15,32)       -179.0997         estimate D2E/DX2                !
 ! D46   D(4,11,12,13)        -179.5962         estimate D2E/DX2                !
 ! D47   D(4,11,12,30)           0.2197         estimate D2E/DX2                !
 ! D48   D(10,11,12,13)         -0.0519         estimate D2E/DX2                !
 ! D49   D(10,11,12,30)        179.764          estimate D2E/DX2                !
 ! D50   D(11,12,13,14)         -0.9273         estimate D2E/DX2                !
 ! D51   D(11,12,13,31)        178.9589         estimate D2E/DX2                !
 ! D52   D(30,12,13,14)        179.2502         estimate D2E/DX2                !
 ! D53   D(30,12,13,31)         -0.8637         estimate D2E/DX2                !
 ! D54   D(12,13,14,15)          1.5399         estimate D2E/DX2                !
 ! D55   D(12,13,14,16)        174.2741         estimate D2E/DX2                !
 ! D56   D(31,13,14,15)       -178.3435         estimate D2E/DX2                !
 ! D57   D(31,13,14,16)         -5.6094         estimate D2E/DX2                !
 ! D58   D(13,14,15,10)         -1.1783         estimate D2E/DX2                !
 ! D59   D(13,14,15,32)        178.1065         estimate D2E/DX2                !
 ! D60   D(16,14,15,10)       -174.1301         estimate D2E/DX2                !
 ! D61   D(16,14,15,32)          5.1547         estimate D2E/DX2                !
 ! D62   D(13,14,16,17)         47.0875         estimate D2E/DX2                !
 ! D63   D(15,14,16,17)       -140.0024         estimate D2E/DX2                !
 ! D64   D(14,16,17,18)         16.4839         estimate D2E/DX2                !
 ! D65   D(14,16,17,19)       -162.2865         estimate D2E/DX2                !
 ! D66   D(16,17,19,33)          1.8226         estimate D2E/DX2                !
 ! D67   D(16,17,19,34)       -118.5464         estimate D2E/DX2                !
 ! D68   D(16,17,19,35)        120.4022         estimate D2E/DX2                !
 ! D69   D(18,17,19,33)       -176.995          estimate D2E/DX2                !
 ! D70   D(18,17,19,34)         62.6359         estimate D2E/DX2                !
 ! D71   D(18,17,19,35)        -58.4154         estimate D2E/DX2                !
 --------------------------------------------------------------------------------
 Trust Radius=3.00D-01 FncErr=1.00D-07 GrdErr=1.00D-06
 Number of steps in this run= 177 maximum allowed number of steps= 210.
 GradGradGradGradGradGradGradGradGradGradGradGradGradGradGradGradGradGrad

 Leave Link  103 at Wed Sep 29 01:53:24 2021, MaxMem= 1342177280 cpu:       0.0
 (Enter /sw/target/amd/app/gaussian/Gaussian09RevA.02_gcc-4.9.2/g09/l202.exe)
                          Input orientation:                          
 ---------------------------------------------------------------------
 Center     Atomic      Atomic             Coordinates (Angstroms)
 Number     Number       Type             X           Y           Z
 ---------------------------------------------------------------------
      1          6           0        2.570782   -1.552228    1.642052
      2          8           0        2.360777   -0.862463    0.417341
      3          6           0        3.057203   -1.459501   -0.682567
      4          6           0        4.567408   -1.291917   -0.604594
      5          6           0        5.392664   -2.438383   -0.631296
      6          8           0        4.747738   -3.644556   -0.727814
      7          6           0        5.538900   -4.824236   -0.780750
      8          6           0        6.778286   -2.295338   -0.558616
      9          6           0        7.355695   -1.027281   -0.460901
     10          6           0        6.565546    0.128744   -0.445388
     11          6           0        5.154195    0.007603   -0.524519
     12          6           0        4.397419    1.201155   -0.529009
     13          6           0        4.995332    2.457375   -0.458091
     14          6           0        6.376215    2.549845   -0.360749
     15          6           0        7.164152    1.401088   -0.365965
     16          8           0        7.024503    3.794837   -0.406949
     17          6           0        6.512855    4.819068    0.384042
     18          8           0        5.737485    4.702110    1.325576
     19          6           0        7.033020    6.138403   -0.104909
     20          1           0        1.945570   -1.082683    2.406353
     21          1           0        3.614056   -1.473821    1.962607
     22          1           0        2.279520   -2.602522    1.550145
     23          1           0        2.708680   -0.966670   -1.598606
     24          1           0        2.734573   -2.501727   -0.771467
     25          1           0        4.857796   -5.677827   -0.854618
     26          1           0        6.126076   -4.947055    0.134848
     27          1           0        6.178417   -4.831569   -1.669327
     28          1           0        7.443960   -3.152011   -0.574638
     29          1           0        8.440295   -0.952757   -0.403133
     30          1           0        3.311762    1.173140   -0.591769
     31          1           0        4.369004    3.343726   -0.482171
     32          1           0        8.245842    1.499289   -0.319871
     33          1           0        7.667367    6.006950   -0.986498
     34          1           0        7.617437    6.618870    0.682044
     35          1           0        6.184406    6.766435   -0.391124
 ---------------------------------------------------------------------
                    Distance matrix (angstroms):
                    1          2          3          4          5
     1  C    0.000000
     2  O    1.421195   0.000000
     3  C    2.376775   1.432223   0.000000
     4  C    3.016902   2.469414   1.521474   0.000000
     5  C    3.730470   3.574284   2.532828   1.412850   0.000000
     6  O    3.838391   3.840444   2.763046   2.362755   1.371167
     7  C    5.038426   5.218384   4.182093   3.667711   2.394998
     8  C    4.806063   4.745525   3.815815   2.428363   1.394880
     9  C    5.252940   5.074217   4.325851   2.804501   2.423578
    10  C    4.810531   4.405323   3.858399   2.456864   2.828490
    11  C    3.714986   3.073646   2.564127   1.428104   2.459901
    12  C    3.953635   3.049919   2.983094   2.500004   3.774549
    13  C    5.134779   4.327653   4.375917   3.776476   4.914908
    14  C    5.943024   5.326632   5.214812   4.253279   5.091462
    15  C    5.818355   5.367462   5.015001   3.748640   4.236757
    16  O    7.254318   6.642306   6.589651   5.652561   6.447190
    17  C    7.597101   7.037091   7.245662   6.488937   7.413254
    18  O    7.017471   6.572025   7.012988   6.404920   7.411807
    19  C    9.061415   8.432954   8.594705   7.844653   8.748091
    20  H    1.093398   2.043787   3.304414   3.997952   4.790375
    21  H    1.094223   2.081422   2.703190   2.744539   3.289705
    22  H    1.093801   2.077897   2.626080   3.405147   3.804904
    23  H    3.296021   2.048399   1.097032   2.132772   3.210203
    24  H    2.598740   2.059169   1.094636   2.202447   2.662539
    25  H    5.337074   5.571419   4.589772   4.402618   3.290890
    26  H    5.141656   5.562479   4.716903   4.041813   2.723656
    27  H    5.893585   5.889173   4.699629   4.032139   2.724382
    28  H    5.587565   5.662579   4.703177   3.425697   2.172623
    29  H    6.244464   6.135297   5.414106   3.892925   3.398116
    30  H    3.600922   2.462997   2.646478   2.766463   4.168311
    31  H    5.631722   4.747012   4.983169   4.641502   5.873917
    32  H    6.735518   6.383991   5.983975   4.626313   4.872665
    33  H    9.488183   8.793150   8.780311   7.939084   8.753518
    34  H    9.651796   9.147288   9.376458   8.575469   9.418508
    35  H    9.294742   8.571688   8.805133   8.221757   9.241927
                    6          7          8          9         10
     6  O    0.000000
     7  C    1.421402   0.000000
     8  C    2.443797   2.825022   0.000000
     9  C    3.704431   4.221364   1.396752   0.000000
    10  C    4.197855   5.069367   2.436032   1.400347   0.000000
    11  C    3.680326   4.853897   2.818221   2.433441   1.418749
    12  C    4.862424   6.137727   4.230233   3.704318   2.420297
    13  C    6.112906   7.308997   5.077136   4.208818   2.808604
    14  C    6.415394   7.433342   4.865862   3.710155   2.429968
    15  C    5.606114   6.447337   3.721501   2.437761   1.408367
    16  O    7.786603   8.754151   6.097036   4.833779   3.694910
    17  C    8.716926   9.762103   7.181492   5.966918   4.763389
    18  O    8.652332   9.758448   7.321046   6.215788   4.973698
    19  C   10.065625  11.084611   8.449776   7.181774   6.037421
    20  H    4.923245   6.088421   5.797993   6.123207   5.562747
    21  H    3.638089   4.738809   4.128414   4.480251   4.132547
    22  H    3.516680   4.581773   4.977965   5.682715   5.460036
    23  H    3.476652   4.853849   4.405523   4.784642   4.171961
    24  H    2.315340   3.641207   4.054568   4.860578   4.658547
    25  H    2.040192   1.094521   3.900915   5.293590   6.066313
    26  H    2.083388   1.094614   2.817424   4.151085   5.127723
    27  H    2.083816   1.094808   2.833018   4.161596   5.123729
    28  H    2.745119   2.543241   1.085020   2.129602   3.398775
    29  H    4.581067   4.852735   2.142188   1.088690   2.164743
    30  H    5.028989   6.400342   4.903899   4.605690   3.420424
    31  H    7.002847   8.256719   6.132660   5.294004   3.893875
    32  H    6.233963   6.893976   4.075525   2.682500   2.171990
    33  H   10.086759  11.040258   8.360713   7.060722   6.005007
    34  H   10.749920  11.721977   9.039165   7.735532   6.670780
    35  H   10.515042  11.615169   9.082757   7.881548   6.648846
                   11         12         13         14         15
    11  C    0.000000
    12  C    1.413258   0.000000
    13  C    2.455816   1.393060   0.000000
    14  C    2.825447   2.400606   1.387395   0.000000
    15  C    2.450891   2.778735   2.414128   1.393024   0.000000
    16  O    4.225520   3.693732   2.430834   1.404427   2.398169
    17  C    5.081500   4.289292   2.930812   2.392228   3.559394
    18  O    5.079515   4.182337   2.961603   2.807830   3.974095
    19  C    6.425944   5.612723   4.222189   3.657129   4.746314
    20  H    4.480403   4.454642   5.480702   6.362604   6.410028
    21  H    3.279091   3.738624   4.818921   5.405312   5.127429
    22  H    4.402356   4.824556   6.083684   6.854292   6.600001
    23  H    2.843135   2.948787   4.272427   5.229626   5.193931
    24  H    3.494609   4.066347   5.459114   6.240884   5.917565
    25  H    5.702713   6.902055   8.146021   8.381175   7.461173
    26  H    5.091949   6.421016   7.513703   7.517426   6.451925
    27  H    5.077125   6.392656   7.483013   7.499119   6.443325
    28  H    3.902396   5.313526   6.121648   5.804911   4.566459
    29  H    3.425708   4.582579   4.847659   4.065766   2.677781
    30  H    2.181183   1.087830   2.121682   3.367426   3.865729
    31  H    3.427541   2.143271   1.085580   2.161917   3.405907
    32  H    3.438792   3.865616   3.391585   2.144958   1.087116
    33  H    6.520860   5.830739   4.474200   3.743021   4.674639
    34  H    7.157668   6.417694   5.049097   4.380070   5.341258
    35  H    6.838197   5.846766   4.470613   4.221059   5.454125
                   16         17         18         19         20
    16  O    0.000000
    17  C    1.391582   0.000000
    18  O    2.341196   1.225302   0.000000
    19  C    2.362964   1.500096   2.405750   0.000000
    20  H    7.582904   7.731785   7.000752   9.183282   0.000000
    21  H    6.708554   7.106009   6.561774   8.597086   1.770239
    22  H    8.201908   8.623278   8.084900  10.086562   1.776099
    23  H    6.535926   7.202597   7.061131   8.450628   4.078663
    24  H    7.627784   8.318934   8.081481   9.673303   3.568578
    25  H    9.727610  10.698519  10.642847  12.038146   6.342739
    26  H    8.804623   9.776955   9.730119  11.125080   6.129415
    27  H    8.759243   9.872334  10.002745  11.113867   6.970101
    28  H    6.961520   8.082334   8.258939   9.311353   6.587922
    29  H    4.954204   6.135849   6.501626   7.235600   7.077538
    30  H    4.548835   4.948938   4.691905   6.224036   3.992988
    31  H    2.694593   2.742819   2.643085   3.879372   5.814611
    32  H    2.601691   3.810469   4.388327   4.799846   7.334324
    33  H    2.375414   2.149963   3.282184   1.094018   9.721794
    34  H    3.084256   2.132649   2.760855   1.091644   9.718911
    35  H    3.088107   2.121555   2.721808   1.093841   9.348918
                   21         22         23         24         25
    21  H    0.000000
    22  H    1.795851   0.000000
    23  H    3.709333   3.574189   0.000000
    24  H    3.050450   2.367935   1.743912   0.000000
    25  H    5.211267   4.678450   5.231369   3.821335   0.000000
    26  H    4.659860   4.721853   5.525117   4.278239   1.766806
    27  H    5.571478   5.525853   5.194374   4.253749   1.767469
    28  H    4.891022   5.611425   5.314801   4.758145   3.625794
    29  H    5.400075   6.670245   5.854977   5.923701   5.946799
    30  H    3.690884   4.461944   2.440536   3.724257   7.028162
    31  H    5.454874   6.622245   4.752117   6.076543   9.042458
    32  H    5.958400   7.477889   6.194859   6.825405   7.954609
    33  H    9.004914  10.468355   8.578731   9.837493  12.018531
    34  H    9.119131  10.690231   9.318674  10.447026  12.695893
    35  H    8.946987  10.334120   8.563855   9.896709  12.523353
                   26         27         28         29         30
    26  H    0.000000
    27  H    1.808625   0.000000
    28  H    2.337172   2.370835   0.000000
    29  H    4.647520   4.665246   2.420498   0.000000
    30  H    6.775332   6.740577   5.981830   5.554896   0.000000
    31  H    8.497356   8.456877   7.187385   5.919580   2.416861
    32  H    6.801141   6.795222   4.726786   2.461153   4.952317
    33  H   11.118597  10.961602   9.170938   7.026753   6.518652
    34  H   11.674510  11.777618   9.852890   7.693130   7.058145
    35  H   11.725438  11.668228   9.999786   8.042083   6.291049
                   31         32         33         34         35
    31  H    0.000000
    32  H    4.296297   0.000000
    33  H    4.269228   4.593259   0.000000
    34  H    4.757550   5.254411   1.777912   0.000000
    35  H    3.875424   5.656626   1.769311   1.796397   0.000000
 Stoichiometry    C15H16O4
 Framework group  C1[X(C15H16O4)]
 Deg. of freedom    99
 Full point group                 C1      NOp   1
 Largest Abelian subgroup         C1      NOp   1
 Largest concise Abelian subgroup C1      NOp   1
                         Standard orientation:                         
 ---------------------------------------------------------------------
 Center     Atomic      Atomic             Coordinates (Angstroms)
 Number     Number       Type             X           Y           Z
 ---------------------------------------------------------------------
      1          6           0       -2.457415    2.720881    1.228192
      2          8           0       -1.911576    2.717328   -0.083998
      3          6           0       -2.380128    1.620734   -0.877221
      4          6           0       -1.841276    0.272311   -0.423043
      5          6           0       -2.748529   -0.757582   -0.087846
      6          8           0       -4.079937   -0.450217   -0.201773
      7          6           0       -5.029222   -1.463186    0.103412
      8          6           0       -2.264430   -1.996804    0.331280
      9          6           0       -0.889727   -2.227234    0.420790
     10          6           0        0.034792   -1.231169    0.083018
     11          6           0       -0.434826    0.035019   -0.351810
     12          6           0        0.533088    1.002513   -0.704510
     13          6           0        1.899867    0.742668   -0.633723
     14          6           0        2.335273   -0.496217   -0.186008
     15          6           0        1.417826   -1.485662    0.160125
     16          8           0        3.696941   -0.839111   -0.212469
     17          6           0        4.606752    0.090829    0.281449
     18          8           0        4.356059    1.058028    0.990704
     19          6           0        5.983556   -0.243301   -0.211557
     20          1           0       -2.113758    3.626641    1.735160
     21          1           0       -2.106133    1.857665    1.801590
     22          1           0       -3.550571    2.734283    1.193133
     23          1           0       -2.041392    1.791446   -1.906586
     24          1           0       -3.473040    1.666020   -0.918719
     25          1           0       -6.027147   -1.037806   -0.042102
     26          1           0       -4.951179   -1.774854    1.149811
     27          1           0       -4.929252   -2.315971   -0.575830
     28          1           0       -2.930049   -2.810936    0.598503
     29          1           0       -0.546974   -3.205248    0.754338
     30          1           0        0.234785    1.990342   -1.048870
     31          1           0        2.601615    1.515161   -0.932537
     32          1           0        1.782104   -2.459091    0.478806
     33          1           0        5.962568   -1.116646   -0.870118
     34          1           0        6.637255   -0.456216    0.636401
     35          1           0        6.365671    0.604174   -0.787979
 ---------------------------------------------------------------------
 Rotational constants (GHZ):      0.7958761      0.1897503      0.1614047
 Leave Link  202 at Wed Sep 29 01:53:24 2021, MaxMem= 1342177280 cpu:       0.1
 (Enter /sw/target/amd/app/gaussian/Gaussian09RevA.02_gcc-4.9.2/g09/l301.exe)
 Standard basis: 6-31G(d) (6D, 7F)
 Ernie: Thresh=  0.10000D-02 Tol=  0.10000D-05 Strict=F.
 There are   317 symmetry adapted basis functions of A   symmetry.
 Integral buffers will be    131072 words long.
 Raffenetti 2 integral format.
 Two-electron integral symmetry is turned on.
   317 basis functions,   596 primitive gaussians,   317 cartesian basis functions
    69 alpha electrons       69 beta electrons
       nuclear repulsion energy      1392.2316693543 Hartrees.
 IExCor=  402 DFT=T Ex+Corr=B3LYP ExCW=0 ScaHFX=  0.200000
 ScaDFX=  0.800000  0.720000  1.000000  0.810000 ScalE2=  1.000000  1.000000
 IRadAn=      0 IRanWt=     -1 IRanGd=            0 ICorTp=0
 NAtoms=   35 NActive=   35 NUniq=   35 SFac= 7.50D-01 NAtFMM=   80 NAOKFM=F Big=F
 Leave Link  301 at Wed Sep 29 01:53:24 2021, MaxMem= 1342177280 cpu:       0.1
 (Enter /sw/target/amd/app/gaussian/Gaussian09RevA.02_gcc-4.9.2/g09/l302.exe)
 NPDir=0 NMtPBC=     1 NCelOv=     1 NCel=       1 NClECP=     1 NCelD=      1
         NCelK=      1 NCelE2=     1 NClLst=     1 CellRange=     0.0.
 One-electron integrals computed using PRISM.
 NBasis=   317 RedAO= T  NBF=   317
 NBsUse=   317 1.00D-06 NBFU=   317
 Precomputing XC quadrature grid using
 IXCGrd= 2 IRadAn=           0 IRanWt=          -1 IRanGd=           0 AccXCQ= 1.00D-10.
 NRdTot=    2233 NPtTot=      285168 NUsed=      301267 NTot=      301299
 NSgBfM=   313   313   313   313   314 NAtAll=    35    35.
 Leave Link  302 at Wed Sep 29 01:53:29 2021, MaxMem= 1342177280 cpu:       3.2
 (Enter /sw/target/amd/app/gaussian/Gaussian09RevA.02_gcc-4.9.2/g09/l303.exe)
 DipDrv:  MaxL=1.
 Leave Link  303 at Wed Sep 29 01:53:29 2021, MaxMem= 1342177280 cpu:       0.2
 (Enter /sw/target/amd/app/gaussian/Gaussian09RevA.02_gcc-4.9.2/g09/l401.exe)
 Harris functional with IExCor=  402 diagonalized for initial guess.
 ExpMin= 1.61D-01 ExpMax= 5.48D+03 ExpMxC= 8.25D+02 IAcc=1 IRadAn=         1 AccDes= 0.00D+00
 HarFok:  IExCor=  402 AccDes= 0.00D+00 IRadAn=         1 IDoV= 1
 ScaDFX=  1.000000  1.000000  1.000000  1.000000
 FoFCou: FMM=F IPFlag=           0 FMFlag=      100000 FMFlg1=           0
         NFxFlg=           0 DoJE=T BraDBF=F KetDBF=T FulRan=T
         Omega=  0.000000  0.000000  1.000000  0.000000  0.000000 ICntrl=     500 IOpCl=  0
         NMat0=    1 NMatS0=    1 NMatT0=    0 NMatD0=    1 NMtDS0=    0 NMtDT0=    0
         I1Cent=           4 NGrid=           0.
 Petite list used in FoFCou.
 Harris En= -882.198468762587    
 Initial guess orbital symmetries:
       Occupied  (A) (A) (A) (A) (A) (A) (A) (A) (A) (A) (A) (A)
                 (A) (A) (A) (A) (A) (A) (A) (A) (A) (A) (A) (A)
                 (A) (A) (A) (A) (A) (A) (A) (A) (A) (A) (A) (A)
                 (A) (A) (A) (A) (A) (A) (A) (A) (A) (A) (A) (A)
                 (A) (A) (A) (A) (A) (A) (A) (A) (A) (A) (A) (A)
                 (A) (A) (A) (A) (A) (A) (A) (A) (A)
       Virtual   (A) (A) (A) (A) (A) (A) (A) (A) (A) (A) (A) (A)
                 (A) (A) (A) (A) (A) (A) (A) (A) (A) (A) (A) (A)
                 (A) (A) (A) (A) (A) (A) (A) (A) (A) (A) (A) (A)
                 (A) (A) (A) (A) (A) (A) (A) (A) (A) (A) (A) (A)
                 (A) (A) (A) (A) (A) (A) (A) (A) (A) (A) (A) (A)
                 (A) (A) (A) (A) (A) (A) (A) (A) (A) (A) (A) (A)
                 (A) (A) (A) (A) (A) (A) (A) (A) (A) (A) (A) (A)
                 (A) (A) (A) (A) (A) (A) (A) (A) (A) (A) (A) (A)
                 (A) (A) (A) (A) (A) (A) (A) (A) (A) (A) (A) (A)
                 (A) (A) (A) (A) (A) (A) (A) (A) (A) (A) (A) (A)
                 (A) (A) (A) (A) (A) (A) (A) (A) (A) (A) (A) (A)
                 (A) (A) (A) (A) (A) (A) (A) (A) (A) (A) (A) (A)
                 (A) (A) (A) (A) (A) (A) (A) (A) (A) (A) (A) (A)
                 (A) (A) (A) (A) (A) (A) (A) (A) (A) (A) (A) (A)
                 (A) (A) (A) (A) (A) (A) (A) (A) (A) (A) (A) (A)
                 (A) (A) (A) (A) (A) (A) (A) (A) (A) (A) (A) (A)
                 (A) (A) (A) (A) (A) (A) (A) (A) (A) (A) (A) (A)
                 (A) (A) (A) (A) (A) (A) (A) (A) (A) (A) (A) (A)
                 (A) (A) (A) (A) (A) (A) (A) (A) (A) (A) (A) (A)
                 (A) (A) (A) (A) (A) (A) (A) (A) (A) (A) (A) (A)
                 (A) (A) (A) (A) (A) (A) (A) (A)
 The electronic state of the initial guess is 1-A.
 Leave Link  401 at Wed Sep 29 01:53:43 2021, MaxMem= 1342177280 cpu:      13.9
 (Enter /sw/target/amd/app/gaussian/Gaussian09RevA.02_gcc-4.9.2/g09/l502.exe)
 Closed shell SCF:
 Requested convergence on RMS density matrix=1.00D-08 within  64 cycles.
 Requested convergence on MAX density matrix=1.00D-06.
 Requested convergence on             energy=1.00D-06.
 No special actions if energy rises.
 Using DIIS extrapolation, IDIIS=  1040.
 Integral symmetry usage will be decided dynamically.
       300939 words used for storage of precomputed grid.
 Keep R1 ints in memory in canonical form, NReq=1286947220.
 IEnd=      612243 IEndB=      612243 NGot=  1342177280 MDV=    71413634
 LenX=    71413634 LenY=    71312704
 Symmetry not used in FoFDir.
 MinBra= 0 MaxBra= 2 Meth= 1.
 IRaf=       0 NMat=   1 IRICut=       1 DoRegI=T DoRafI=F ISym2E= 0 JSym2E=0.
 Integral accuracy reduced to 1.0D-05 until final iterations.

 Cycle   1  Pass 0  IDiag  1:
 E= -881.671509851406    
 DIIS: error= 2.93D-02 at cycle   1 NSaved=   1.
 NSaved= 1 IEnMin= 1 EnMin= -881.671509851406     IErMin= 1 ErrMin= 2.93D-02
 ErrMax= 2.93D-02 EMaxC= 1.00D-01 BMatC= 4.50D-01 BMatP= 4.50D-01
 IDIUse=3 WtCom= 7.07D-01 WtEn= 2.93D-01
 Coeff-Com:  0.100D+01
 Coeff-En:   0.100D+01
 Coeff:      0.100D+01
 Gap=     0.181 Goal=   None    Shift=    0.000
 GapD=    0.181 DampG=1.000 DampE=0.500 DampFc=0.5000 IDamp=-1.
 Damping current iteration by 5.00D-01
 RMSDP=4.90D-03 MaxDP=1.96D-01              OVMax= 2.35D-01

 Cycle   2  Pass 0  IDiag  1:
 E= -881.821549725299     Delta-E=       -0.150039873894 Rises=F Damp=T
 DIIS: error= 1.08D-02 at cycle   2 NSaved=   2.
 NSaved= 2 IEnMin= 2 EnMin= -881.821549725299     IErMin= 2 ErrMin= 1.08D-02
 ErrMax= 1.08D-02 EMaxC= 1.00D-01 BMatC= 6.51D-02 BMatP= 4.50D-01
 IDIUse=3 WtCom= 8.92D-01 WtEn= 1.08D-01
 Coeff-Com:  0.174D+00 0.826D+00
 Coeff-En:   0.258D+00 0.742D+00
 Coeff:      0.183D+00 0.817D+00
 Gap=     0.160 Goal=   None    Shift=    0.000
 RMSDP=1.87D-03 MaxDP=7.67D-02 DE=-1.50D-01 OVMax= 2.28D-01

 Cycle   3  Pass 0  IDiag  1:
 E= -882.026572684875     Delta-E=       -0.205022959576 Rises=F Damp=F
 DIIS: error= 1.46D-02 at cycle   3 NSaved=   3.
 NSaved= 3 IEnMin= 3 EnMin= -882.026572684875     IErMin= 2 ErrMin= 1.08D-02
 ErrMax= 1.46D-02 EMaxC= 1.00D-01 BMatC= 9.73D-02 BMatP= 6.51D-02
 IDIUse=2 WtCom= 0.00D+00 WtEn= 1.00D+00
 Coeff-En:   0.000D+00 0.000D+00 0.100D+01
 Coeff:      0.000D+00 0.000D+00 0.100D+01
 Gap=     0.161 Goal=   None    Shift=    0.000
 RMSDP=2.86D-03 MaxDP=1.73D-01 DE=-2.05D-01 OVMax= 3.32D-01

 Cycle   4  Pass 0  IDiag  1:
 E= -881.593875384244     Delta-E=        0.432697300631 Rises=F Damp=F
 DIIS: error= 4.26D-02 at cycle   4 NSaved=   4.
 NSaved= 4 IEnMin= 3 EnMin= -882.026572684875     IErMin= 2 ErrMin= 1.08D-02
 ErrMax= 4.26D-02 EMaxC= 1.00D-01 BMatC= 6.45D-01 BMatP= 6.51D-02
 IDIUse=2 WtCom= 0.00D+00 WtEn= 1.00D+00
 Coeff-En:   0.000D+00 0.000D+00 0.808D+00 0.192D+00
 Coeff:      0.000D+00 0.000D+00 0.808D+00 0.192D+00
 Gap=     0.195 Goal=   None    Shift=    0.000
 RMSDP=1.54D-03 MaxDP=8.78D-02 DE= 4.33D-01 OVMax= 1.45D-01

 Cycle   5  Pass 0  IDiag  1:
 E= -882.068269711914     Delta-E=       -0.474394327671 Rises=F Damp=F
 DIIS: error= 1.05D-02 at cycle   5 NSaved=   5.
 NSaved= 5 IEnMin= 5 EnMin= -882.068269711914     IErMin= 5 ErrMin= 1.05D-02
 ErrMax= 1.05D-02 EMaxC= 1.00D-01 BMatC= 4.94D-02 BMatP= 6.51D-02
 IDIUse=3 WtCom= 8.95D-01 WtEn= 1.05D-01
 Coeff-Com: -0.987D-03 0.499D-01 0.344D+00-0.683D-01 0.675D+00
 Coeff-En:   0.000D+00 0.000D+00 0.369D+00 0.000D+00 0.631D+00
 Coeff:     -0.883D-03 0.447D-01 0.347D+00-0.611D-01 0.671D+00
 Gap=     0.153 Goal=   None    Shift=    0.000
 RMSDP=6.04D-04 MaxDP=3.24D-02 DE=-4.74D-01 OVMax= 5.06D-02

 Cycle   6  Pass 0  IDiag  1:
 E= -882.107563045682     Delta-E=       -0.039293333768 Rises=F Damp=F
 DIIS: error= 9.67D-04 at cycle   6 NSaved=   6.
 NSaved= 6 IEnMin= 6 EnMin= -882.107563045682     IErMin= 6 ErrMin= 9.67D-04
 ErrMax= 9.67D-04 EMaxC= 1.00D-01 BMatC= 5.74D-04 BMatP= 4.94D-02
 IDIUse=3 WtCom= 9.90D-01 WtEn= 9.67D-03
 Coeff-Com: -0.477D-02 0.245D-01 0.171D+00-0.611D-01 0.434D+00 0.436D+00
 Coeff-En:   0.000D+00 0.000D+00 0.000D+00 0.000D+00 0.000D+00 0.100D+01
 Coeff:     -0.473D-02 0.242D-01 0.170D+00-0.605D-01 0.430D+00 0.442D+00
 Gap=     0.153 Goal=   None    Shift=    0.000
 RMSDP=8.48D-05 MaxDP=2.97D-03 DE=-3.93D-02 OVMax= 6.41D-03

 Cycle   7  Pass 0  IDiag  1:
 E= -882.108072683588     Delta-E=       -0.000509637906 Rises=F Damp=F
 DIIS: error= 1.86D-04 at cycle   7 NSaved=   7.
 NSaved= 7 IEnMin= 7 EnMin= -882.108072683588     IErMin= 7 ErrMin= 1.86D-04
 ErrMax= 1.86D-04 EMaxC= 1.00D-01 BMatC= 2.83D-05 BMatP= 5.74D-04
 IDIUse=3 WtCom= 9.98D-01 WtEn= 1.86D-03
 Coeff-Com: -0.576D-03 0.224D-02 0.418D-01-0.162D-01 0.103D+00 0.175D+00
 Coeff-Com:  0.696D+00
 Coeff-En:   0.000D+00 0.000D+00 0.000D+00 0.000D+00 0.000D+00 0.000D+00
 Coeff-En:   0.100D+01
 Coeff:     -0.575D-03 0.224D-02 0.417D-01-0.162D-01 0.102D+00 0.174D+00
 Coeff:      0.696D+00
 Gap=     0.153 Goal=   None    Shift=    0.000
 RMSDP=2.03D-05 MaxDP=5.56D-04 DE=-5.10D-04 OVMax= 1.28D-03

 Cycle   8  Pass 0  IDiag  1:
 E= -882.108096405045     Delta-E=       -0.000023721457 Rises=F Damp=F
 DIIS: error= 7.49D-05 at cycle   8 NSaved=   8.
 NSaved= 8 IEnMin= 8 EnMin= -882.108096405045     IErMin= 8 ErrMin= 7.49D-05
 ErrMax= 7.49D-05 EMaxC= 1.00D-01 BMatC= 3.94D-06 BMatP= 2.83D-05
 IDIUse=1 WtCom= 1.00D+00 WtEn= 0.00D+00
 Coeff-Com:  0.354D-03-0.135D-02 0.105D-01-0.373D-02 0.208D-01 0.636D-01
 Coeff-Com:  0.418D+00 0.491D+00
 Coeff:      0.354D-03-0.135D-02 0.105D-01-0.373D-02 0.208D-01 0.636D-01
 Coeff:      0.418D+00 0.491D+00
 Gap=     0.153 Goal=   None    Shift=    0.000
 RMSDP=6.52D-06 MaxDP=2.77D-04 DE=-2.37D-05 OVMax= 3.35D-04

 Initial convergence to 1.0D-05 achieved.  Increase integral accuracy.
 Cycle   9  Pass 1  IDiag  1:
 E= -882.108227577981     Delta-E=       -0.000131172936 Rises=F Damp=F
 DIIS: error= 1.27D-05 at cycle   1 NSaved=   1.
 NSaved= 1 IEnMin= 1 EnMin= -882.108227577981     IErMin= 1 ErrMin= 1.27D-05
 ErrMax= 1.27D-05 EMaxC= 1.00D-01 BMatC= 2.34D-07 BMatP= 2.34D-07
 IDIUse=1 WtCom= 1.00D+00 WtEn= 0.00D+00
 Coeff-Com:  0.100D+01
 Coeff:      0.100D+01
 Gap=     0.153 Goal=   None    Shift=    0.000
 RMSDP=6.52D-06 MaxDP=2.77D-04 DE=-1.31D-04 OVMax= 2.40D-04

 Cycle  10  Pass 1  IDiag  1:
 E= -882.108227365502     Delta-E=        0.000000212478 Rises=F Damp=F
 DIIS: error= 2.37D-05 at cycle   2 NSaved=   2.
 NSaved= 2 IEnMin= 1 EnMin= -882.108227577981     IErMin= 1 ErrMin= 1.27D-05
 ErrMax= 2.37D-05 EMaxC= 1.00D-01 BMatC= 5.27D-07 BMatP= 2.34D-07
 IDIUse=1 WtCom= 1.00D+00 WtEn= 0.00D+00
 Coeff-Com:  0.613D+00 0.387D+00
 Coeff:      0.613D+00 0.387D+00
 Gap=     0.153 Goal=   None    Shift=    0.000
 RMSDP=2.55D-06 MaxDP=9.59D-05 DE= 2.12D-07 OVMax= 1.86D-04

 Cycle  11  Pass 1  IDiag  1:
 E= -882.108227819195     Delta-E=       -0.000000453693 Rises=F Damp=F
 DIIS: error= 5.51D-06 at cycle   3 NSaved=   3.
 NSaved= 3 IEnMin= 3 EnMin= -882.108227819195     IErMin= 3 ErrMin= 5.51D-06
 ErrMax= 5.51D-06 EMaxC= 1.00D-01 BMatC= 2.08D-08 BMatP= 2.34D-07
 IDIUse=1 WtCom= 1.00D+00 WtEn= 0.00D+00
 Coeff-Com:  0.991D-01 0.173D+00 0.728D+00
 Coeff:      0.991D-01 0.173D+00 0.728D+00
 Gap=     0.153 Goal=   None    Shift=    0.000
 RMSDP=6.82D-07 MaxDP=2.88D-05 DE=-4.54D-07 OVMax= 4.81D-05

 Cycle  12  Pass 1  IDiag  1:
 E= -882.108227828548     Delta-E=       -0.000000009353 Rises=F Damp=F
 DIIS: error= 4.36D-06 at cycle   4 NSaved=   4.
 NSaved= 4 IEnMin= 4 EnMin= -882.108227828548     IErMin= 4 ErrMin= 4.36D-06
 ErrMax= 4.36D-06 EMaxC= 1.00D-01 BMatC= 1.24D-08 BMatP= 2.08D-08
 IDIUse=1 WtCom= 1.00D+00 WtEn= 0.00D+00
 Coeff-Com: -0.750D-02 0.724D-01 0.518D+00 0.418D+00
 Coeff:     -0.750D-02 0.724D-01 0.518D+00 0.418D+00
 Gap=     0.153 Goal=   None    Shift=    0.000
 RMSDP=3.27D-07 MaxDP=1.87D-05 DE=-9.35D-09 OVMax= 2.43D-05

 Cycle  13  Pass 1  IDiag  1:
 E= -882.108227838156     Delta-E=       -0.000000009608 Rises=F Damp=F
 DIIS: error= 7.47D-07 at cycle   5 NSaved=   5.
 NSaved= 5 IEnMin= 5 EnMin= -882.108227838156     IErMin= 5 ErrMin= 7.47D-07
 ErrMax= 7.47D-07 EMaxC= 1.00D-01 BMatC= 4.08D-10 BMatP= 1.24D-08
 IDIUse=1 WtCom= 1.00D+00 WtEn= 0.00D+00
 Coeff-Com: -0.104D-01 0.322D-01 0.262D+00 0.241D+00 0.475D+00
 Coeff:     -0.104D-01 0.322D-01 0.262D+00 0.241D+00 0.475D+00
 Gap=     0.153 Goal=   None    Shift=    0.000
 RMSDP=7.23D-08 MaxDP=3.43D-06 DE=-9.61D-09 OVMax= 5.12D-06

 Cycle  14  Pass 1  IDiag  1:
 E= -882.108227838485     Delta-E=       -0.000000000329 Rises=F Damp=F
 DIIS: error= 2.04D-07 at cycle   6 NSaved=   6.
 NSaved= 6 IEnMin= 6 EnMin= -882.108227838485     IErMin= 6 ErrMin= 2.04D-07
 ErrMax= 2.04D-07 EMaxC= 1.00D-01 BMatC= 2.76D-11 BMatP= 4.08D-10
 IDIUse=1 WtCom= 1.00D+00 WtEn= 0.00D+00
 Coeff-Com: -0.487D-02 0.115D-01 0.984D-01 0.953D-01 0.266D+00 0.534D+00
 Coeff:     -0.487D-02 0.115D-01 0.984D-01 0.953D-01 0.266D+00 0.534D+00
 Gap=     0.153 Goal=   None    Shift=    0.000
 RMSDP=2.32D-08 MaxDP=7.23D-07 DE=-3.29D-10 OVMax= 1.77D-06

 Cycle  15  Pass 1  IDiag  1:
 E= -882.108227838520     Delta-E=       -0.000000000035 Rises=F Damp=F
 DIIS: error= 6.66D-08 at cycle   7 NSaved=   7.
 NSaved= 7 IEnMin= 7 EnMin= -882.108227838520     IErMin= 7 ErrMin= 6.66D-08
 ErrMax= 6.66D-08 EMaxC= 1.00D-01 BMatC= 4.01D-12 BMatP= 2.76D-11
 IDIUse=1 WtCom= 1.00D+00 WtEn= 0.00D+00
 Coeff-Com: -0.143D-02 0.248D-02 0.228D-01 0.237D-01 0.931D-01 0.318D+00
 Coeff-Com:  0.541D+00
 Coeff:     -0.143D-02 0.248D-02 0.228D-01 0.237D-01 0.931D-01 0.318D+00
 Coeff:      0.541D+00
 Gap=     0.153 Goal=   None    Shift=    0.000
 RMSDP=7.23D-09 MaxDP=2.85D-07 DE=-3.50D-11 OVMax= 7.57D-07

 SCF Done:  E(RB3LYP) =  -882.108227839     A.U. after   15 cycles
             Convg  =    0.7231D-08             -V/T =  2.0094
 KE= 8.739326008257D+02 PE=-4.839606129865D+03 EE= 1.691333631847D+03
 Leave Link  502 at Wed Sep 29 02:04:18 2021, MaxMem= 1342177280 cpu:     429.7
 (Enter /sw/target/amd/app/gaussian/Gaussian09RevA.02_gcc-4.9.2/g09/l508.exe)
 QCSCF skips out because SCF is already converged.
 Leave Link  508 at Wed Sep 29 02:04:21 2021, MaxMem= 1342177280 cpu:       0.0
 (Enter /sw/target/amd/app/gaussian/Gaussian09RevA.02_gcc-4.9.2/g09/l601.exe)
 Copying SCF densities to generalized density rwf, IOpCl= 0 IROHF=0.

 **********************************************************************

            Population analysis using the SCF density.

 **********************************************************************

 Orbital symmetries:
       Occupied  (A) (A) (A) (A) (A) (A) (A) (A) (A) (A) (A) (A)
                 (A) (A) (A) (A) (A) (A) (A) (A) (A) (A) (A) (A)
                 (A) (A) (A) (A) (A) (A) (A) (A) (A) (A) (A) (A)
                 (A) (A) (A) (A) (A) (A) (A) (A) (A) (A) (A) (A)
                 (A) (A) (A) (A) (A) (A) (A) (A) (A) (A) (A) (A)
                 (A) (A) (A) (A) (A) (A) (A) (A) (A)
       Virtual   (A) (A) (A) (A) (A) (A) (A) (A) (A) (A) (A) (A)
                 (A) (A) (A) (A) (A) (A) (A) (A) (A) (A) (A) (A)
                 (A) (A) (A) (A) (A) (A) (A) (A) (A) (A) (A) (A)
                 (A) (A) (A) (A) (A) (A) (A) (A) (A) (A) (A) (A)
                 (A) (A) (A) (A) (A) (A) (A) (A) (A) (A) (A) (A)
                 (A) (A) (A) (A) (A) (A) (A) (A) (A) (A) (A) (A)
                 (A) (A) (A) (A) (A) (A) (A) (A) (A) (A) (A) (A)
                 (A) (A) (A) (A) (A) (A) (A) (A) (A) (A) (A) (A)
                 (A) (A) (A) (A) (A) (A) (A) (A) (A) (A) (A) (A)
                 (A) (A) (A) (A) (A) (A) (A) (A) (A) (A) (A) (A)
                 (A) (A) (A) (A) (A) (A) (A) (A) (A) (A) (A) (A)
                 (A) (A) (A) (A) (A) (A) (A) (A) (A) (A) (A) (A)
                 (A) (A) (A) (A) (A) (A) (A) (A) (A) (A) (A) (A)
                 (A) (A) (A) (A) (A) (A) (A) (A) (A) (A) (A) (A)
                 (A) (A) (A) (A) (A) (A) (A) (A) (A) (A) (A) (A)
                 (A) (A) (A) (A) (A) (A) (A) (A) (A) (A) (A) (A)
                 (A) (A) (A) (A) (A) (A) (A) (A) (A) (A) (A) (A)
                 (A) (A) (A) (A) (A) (A) (A) (A) (A) (A) (A) (A)
                 (A) (A) (A) (A) (A) (A) (A) (A) (A) (A) (A) (A)
                 (A) (A) (A) (A) (A) (A) (A) (A) (A) (A) (A) (A)
                 (A) (A) (A) (A) (A) (A) (A) (A)
 The electronic state is 1-A.
 Alpha  occ. eigenvalues --  -19.20237 -19.18283 -19.14161 -19.13790 -10.32509
 Alpha  occ. eigenvalues --  -10.25154 -10.24738 -10.24652 -10.22499 -10.21467
 Alpha  occ. eigenvalues --  -10.19727 -10.19654 -10.19568 -10.19439 -10.19422
 Alpha  occ. eigenvalues --  -10.19162 -10.19040 -10.18978 -10.18675  -1.09701
 Alpha  occ. eigenvalues --   -1.06721  -1.01787  -1.01548  -0.87476  -0.82305
 Alpha  occ. eigenvalues --   -0.78289  -0.76798  -0.74146  -0.73436  -0.71136
 Alpha  occ. eigenvalues --   -0.68752  -0.64724  -0.62986  -0.62133  -0.58289
 Alpha  occ. eigenvalues --   -0.56739  -0.53322  -0.51945  -0.49705  -0.48240
 Alpha  occ. eigenvalues --   -0.47815  -0.47690  -0.47174  -0.46530  -0.46468
 Alpha  occ. eigenvalues --   -0.45549  -0.44731  -0.43691  -0.42617  -0.41049
 Alpha  occ. eigenvalues --   -0.40801  -0.40748  -0.40061  -0.39393  -0.38430
 Alpha  occ. eigenvalues --   -0.37939  -0.37042  -0.35618  -0.35460  -0.34744
 Alpha  occ. eigenvalues --   -0.33148  -0.32160  -0.30235  -0.29503  -0.27557
 Alpha  occ. eigenvalues --   -0.26662  -0.24442  -0.23386  -0.19785
 Alpha virt. eigenvalues --   -0.04451  -0.01106   0.01320   0.03087   0.09013
 Alpha virt. eigenvalues --    0.09784   0.10169   0.10719   0.11178   0.12585
 Alpha virt. eigenvalues --    0.12886   0.14131   0.14528   0.14661   0.15110
 Alpha virt. eigenvalues --    0.16257   0.16394   0.17360   0.17457   0.18547
 Alpha virt. eigenvalues --    0.18775   0.18978   0.19760   0.20926   0.22006
 Alpha virt. eigenvalues --    0.23176   0.23604   0.25011   0.25914   0.27296
 Alpha virt. eigenvalues --    0.28476   0.30256   0.32837   0.34174   0.34869
 Alpha virt. eigenvalues --    0.36889   0.38535   0.39093   0.47130   0.48071
 Alpha virt. eigenvalues --    0.49025   0.50618   0.50915   0.51684   0.52799
 Alpha virt. eigenvalues --    0.52862   0.54142   0.54559   0.54658   0.55036
 Alpha virt. eigenvalues --    0.55245   0.55744   0.56224   0.56603   0.57745
 Alpha virt. eigenvalues --    0.58598   0.59078   0.60215   0.60984   0.61332
 Alpha virt. eigenvalues --    0.61782   0.62714   0.63808   0.64930   0.66398
 Alpha virt. eigenvalues --    0.66695   0.66889   0.68704   0.70291   0.71192
 Alpha virt. eigenvalues --    0.72009   0.73863   0.76459   0.77213   0.78586
 Alpha virt. eigenvalues --    0.81030   0.81432   0.81932   0.82887   0.83568
 Alpha virt. eigenvalues --    0.84653   0.84863   0.85091   0.85548   0.86279
 Alpha virt. eigenvalues --    0.86615   0.87847   0.88625   0.89659   0.90485
 Alpha virt. eigenvalues --    0.91292   0.91750   0.92687   0.92887   0.93974
 Alpha virt. eigenvalues --    0.94890   0.95629   0.97336   0.97829   0.99778
 Alpha virt. eigenvalues --    1.01347   1.01567   1.03103   1.03691   1.05895
 Alpha virt. eigenvalues --    1.06109   1.07807   1.09137   1.10550   1.13137
 Alpha virt. eigenvalues --    1.13701   1.15415   1.16583   1.18241   1.21614
 Alpha virt. eigenvalues --    1.22336   1.23505   1.24681   1.25608   1.26542
 Alpha virt. eigenvalues --    1.29093   1.31327   1.34339   1.36027   1.37700
 Alpha virt. eigenvalues --    1.38299   1.39156   1.39753   1.41034   1.43819
 Alpha virt. eigenvalues --    1.45099   1.46849   1.47594   1.48590   1.49289
 Alpha virt. eigenvalues --    1.49558   1.50943   1.51425   1.54576   1.55525
 Alpha virt. eigenvalues --    1.63259   1.65694   1.68720   1.70739   1.71258
 Alpha virt. eigenvalues --    1.71506   1.73173   1.74455   1.77150   1.79588
 Alpha virt. eigenvalues --    1.79744   1.80840   1.82383   1.83608   1.85191
 Alpha virt. eigenvalues --    1.85503   1.86522   1.86776   1.89799   1.92026
 Alpha virt. eigenvalues --    1.92193   1.93963   1.94996   1.95545   1.96465
 Alpha virt. eigenvalues --    1.98027   1.99091   1.99495   2.02914   2.03204
 Alpha virt. eigenvalues --    2.04267   2.05252   2.07589   2.08508   2.08963
 Alpha virt. eigenvalues --    2.11477   2.12220   2.14103   2.16043   2.17497
 Alpha virt. eigenvalues --    2.18544   2.20365   2.22257   2.23324   2.24046
 Alpha virt. eigenvalues --    2.25332   2.26385   2.28680   2.29897   2.32361
 Alpha virt. eigenvalues --    2.32813   2.33059   2.34403   2.35379   2.37955
 Alpha virt. eigenvalues --    2.39939   2.41001   2.42147   2.43610   2.45200
 Alpha virt. eigenvalues --    2.50502   2.52157   2.55620   2.58275   2.59824
 Alpha virt. eigenvalues --    2.61183   2.64866   2.65597   2.67291   2.69656
 Alpha virt. eigenvalues --    2.71472   2.72563   2.74885   2.77030   2.80444
 Alpha virt. eigenvalues --    2.82604   2.85201   2.86731   2.91199   2.93536
 Alpha virt. eigenvalues --    2.94890   2.95848   3.01750   3.05057   3.09405
 Alpha virt. eigenvalues --    3.18220   3.19998   3.40487   3.49630   3.92366
 Alpha virt. eigenvalues --    4.01243   4.06845   4.09558   4.10043   4.11948
 Alpha virt. eigenvalues --    4.14773   4.15694   4.21953   4.26035   4.29049
 Alpha virt. eigenvalues --    4.30802   4.34398   4.39528   4.43598   4.46928
 Alpha virt. eigenvalues --    4.54346   4.68757   4.88276
          Condensed to atoms (all electrons):
              1          2          3          4          5          6
     1  C    4.888731   0.255960  -0.045119  -0.007282   0.000580   0.000127
     2  O    0.255960   8.188802   0.238531  -0.049272   0.000446   0.000066
     3  C   -0.045119   0.238531   5.021595   0.306186  -0.059493  -0.009690
     4  C   -0.007282  -0.049272   0.306186   5.217377   0.464319  -0.058088
     5  C    0.000580   0.000446  -0.059493   0.464319   4.697783   0.282212
     6  O    0.000127   0.000066  -0.009690  -0.058088   0.282212   8.213682
     7  C   -0.000013  -0.000003   0.000146   0.004605  -0.043696   0.248574
     8  C    0.000031  -0.000028   0.009327  -0.036824   0.386830  -0.067036
     9  C   -0.000008  -0.000003  -0.000759  -0.074332   0.014938   0.003798
    10  C   -0.000081   0.000045   0.007630  -0.019346  -0.053345   0.000153
    11  C   -0.002315  -0.003965  -0.059449   0.421972   0.014277   0.002445
    12  C    0.000536  -0.001836  -0.016539  -0.110260   0.011010  -0.000050
    13  C    0.000002   0.000260   0.000039   0.008476  -0.000246   0.000000
    14  C   -0.000001   0.000000  -0.000015  -0.000773   0.000043  -0.000000
    15  C    0.000002  -0.000001  -0.000072   0.016481  -0.000626   0.000000
    16  O    0.000000   0.000000   0.000000   0.000001  -0.000000   0.000000
    17  C   -0.000000   0.000000  -0.000000  -0.000000  -0.000000  -0.000000
    18  O   -0.000000   0.000000  -0.000000   0.000000  -0.000000   0.000000
    19  C   -0.000000   0.000000  -0.000000   0.000000  -0.000000   0.000000
    20  H    0.384364  -0.031681   0.005796  -0.000062   0.000008   0.000005
    21  H    0.363987  -0.041150  -0.007206   0.011016   0.000110  -0.000142
    22  H    0.360576  -0.038238  -0.007672  -0.002358  -0.000003   0.000225
    23  H    0.006637  -0.037045   0.363346  -0.034681   0.004083   0.000572
    24  H   -0.008540  -0.032877   0.366330  -0.042058  -0.006321   0.011152
    25  H   -0.000000  -0.000000  -0.000012   0.000062   0.002967  -0.031568
    26  H   -0.000000   0.000000  -0.000022  -0.000134  -0.005172  -0.035476
    27  H    0.000000   0.000000   0.000030  -0.000151  -0.004811  -0.035893
    28  H    0.000001   0.000001  -0.000138   0.002856  -0.041758  -0.007409
    29  H    0.000000  -0.000000   0.000010   0.000877   0.002817  -0.000049
    30  H   -0.000780   0.013089   0.002895  -0.015285  -0.000189  -0.000001
    31  H    0.000000  -0.000005  -0.000001  -0.000147   0.000003  -0.000000
    32  H    0.000000  -0.000000   0.000002  -0.000121  -0.000004  -0.000000
    33  H   -0.000000  -0.000000   0.000000  -0.000000  -0.000000   0.000000
    34  H   -0.000000   0.000000   0.000000  -0.000000   0.000000  -0.000000
    35  H    0.000000  -0.000000  -0.000000   0.000000   0.000000  -0.000000
              7          8          9         10         11         12
     1  C   -0.000013   0.000031  -0.000008  -0.000081  -0.002315   0.000536
     2  O   -0.000003  -0.000028  -0.000003   0.000045  -0.003965  -0.001836
     3  C    0.000146   0.009327  -0.000759   0.007630  -0.059449  -0.016539
     4  C    0.004605  -0.036824  -0.074332  -0.019346   0.421972  -0.110260
     5  C   -0.043696   0.386830   0.014938  -0.053345   0.014277   0.011010
     6  O    0.248574  -0.067036   0.003798   0.000153   0.002445  -0.000050
     7  C    4.892837  -0.006965   0.000418  -0.000048   0.000052   0.000004
     8  C   -0.006965   5.175730   0.456432   0.007512  -0.056245  -0.001705
     9  C    0.000418   0.456432   5.150423   0.433646  -0.019474   0.018825
    10  C   -0.000048   0.007512   0.433646   4.744447   0.456660  -0.038436
    11  C    0.000052  -0.056245  -0.019474   0.456660   4.788730   0.442102
    12  C    0.000004  -0.001705   0.018825  -0.038436   0.442102   5.196946
    13  C   -0.000000   0.000073  -0.000695  -0.039852  -0.007536   0.470720
    14  C    0.000000  -0.000336   0.007588   0.009238  -0.035139   0.005803
    15  C   -0.000000   0.009002  -0.091060   0.405868  -0.032623  -0.077817
    16  O   -0.000000   0.000000  -0.000083   0.002155   0.000388   0.003799
    17  C    0.000000  -0.000000   0.000001  -0.000011   0.000010   0.000240
    18  O   -0.000000  -0.000000  -0.000000  -0.000002   0.000009  -0.000281
    19  C   -0.000000   0.000000  -0.000000   0.000004   0.000001  -0.000005
    20  H   -0.000000  -0.000000  -0.000000   0.000000   0.000001  -0.000009
    21  H   -0.000003  -0.000032   0.000010  -0.000075   0.003576  -0.000296
    22  H    0.000017   0.000003  -0.000001   0.000004   0.000132   0.000036
    23  H   -0.000015  -0.000225   0.000021  -0.000395  -0.011307   0.004607
    24  H   -0.000282   0.000486  -0.000040  -0.000041   0.003920   0.000277
    25  H    0.385029   0.000076   0.000001  -0.000000   0.000005  -0.000000
    26  H    0.364460   0.004548  -0.000125   0.000002  -0.000007  -0.000000
    27  H    0.364996   0.005093  -0.000129   0.000006  -0.000025  -0.000000
    28  H    0.006345   0.349428  -0.032636   0.002440   0.001249   0.000017
    29  H   -0.000009  -0.040341   0.352353  -0.036413   0.004121  -0.000235
    30  H    0.000000   0.000014  -0.000185   0.005235  -0.023742   0.346599
    31  H    0.000000  -0.000000   0.000007   0.000627   0.002722  -0.032879
    32  H   -0.000000   0.000327  -0.008881  -0.042302   0.004347  -0.000116
    33  H    0.000000   0.000000   0.000000  -0.000000  -0.000000  -0.000000
    34  H    0.000000  -0.000000   0.000000  -0.000000  -0.000000   0.000000
    35  H    0.000000  -0.000000   0.000000  -0.000000   0.000000  -0.000002
             13         14         15         16         17         18
     1  C    0.000002  -0.000001   0.000002   0.000000  -0.000000  -0.000000
     2  O    0.000260   0.000000  -0.000001   0.000000   0.000000   0.000000
     3  C    0.000039  -0.000015  -0.000072   0.000000  -0.000000  -0.000000
     4  C    0.008476  -0.000773   0.016481   0.000001  -0.000000   0.000000
     5  C   -0.000246   0.000043  -0.000626  -0.000000  -0.000000  -0.000000
     6  O    0.000000  -0.000000   0.000000   0.000000  -0.000000   0.000000
     7  C   -0.000000   0.000000  -0.000000  -0.000000   0.000000  -0.000000
     8  C    0.000073  -0.000336   0.009002   0.000000  -0.000000  -0.000000
     9  C   -0.000695   0.007588  -0.091060  -0.000083   0.000001  -0.000000
    10  C   -0.039852   0.009238   0.405868   0.002155  -0.000011  -0.000002
    11  C   -0.007536  -0.035139  -0.032623   0.000388   0.000010   0.000009
    12  C    0.470720   0.005803  -0.077817   0.003799   0.000240  -0.000281
    13  C    5.028466   0.466458  -0.055631  -0.046070  -0.001424   0.002229
    14  C    0.466458   4.589782   0.501624   0.176679  -0.010391   0.001285
    15  C   -0.055631   0.501624   5.277731  -0.039984  -0.000125  -0.000087
    16  O   -0.046070   0.176679  -0.039984   8.346321   0.243380  -0.063876
    17  C   -0.001424  -0.010391  -0.000125   0.243380   4.332985   0.540517
    18  O    0.002229   0.001285  -0.000087  -0.063876   0.540517   8.037802
    19  C    0.000182   0.005309  -0.000404  -0.097955   0.354499  -0.078547
    20  H   -0.000001  -0.000000   0.000000  -0.000000  -0.000000  -0.000000
    21  H   -0.000046   0.000005  -0.000015   0.000000  -0.000000   0.000000
    22  H    0.000001   0.000000  -0.000000   0.000000   0.000000   0.000000
    23  H    0.000078  -0.000010   0.000007  -0.000000  -0.000000   0.000000
    24  H    0.000004   0.000000   0.000002  -0.000000   0.000000   0.000000
    25  H    0.000000   0.000000  -0.000000  -0.000000   0.000000  -0.000000
    26  H   -0.000000   0.000000   0.000000  -0.000000  -0.000000   0.000000
    27  H    0.000000   0.000000   0.000000   0.000000   0.000000   0.000000
    28  H   -0.000000   0.000003  -0.000224  -0.000000   0.000000  -0.000000
    29  H    0.000012   0.000193  -0.008006  -0.000002   0.000000  -0.000000
    30  H   -0.042001   0.003568   0.000607  -0.000054  -0.000014  -0.000003
    31  H    0.351423  -0.037410   0.005349  -0.006454   0.004056   0.003533
    32  H    0.006568  -0.039764   0.347847  -0.000717   0.000111   0.000011
    33  H    0.000016  -0.000067  -0.000000   0.007940  -0.023960   0.003303
    34  H    0.000000  -0.000124   0.000011   0.001937  -0.020340   0.000246
    35  H    0.000010  -0.000068   0.000002   0.001473  -0.022748  -0.000900
             19         20         21         22         23         24
     1  C   -0.000000   0.384364   0.363987   0.360576   0.006637  -0.008540
     2  O    0.000000  -0.031681  -0.041150  -0.038238  -0.037045  -0.032877
     3  C   -0.000000   0.005796  -0.007206  -0.007672   0.363346   0.366330
     4  C    0.000000  -0.000062   0.011016  -0.002358  -0.034681  -0.042058
     5  C   -0.000000   0.000008   0.000110  -0.000003   0.004083  -0.006321
     6  O    0.000000   0.000005  -0.000142   0.000225   0.000572   0.011152
     7  C   -0.000000  -0.000000  -0.000003   0.000017  -0.000015  -0.000282
     8  C    0.000000  -0.000000  -0.000032   0.000003  -0.000225   0.000486
     9  C   -0.000000  -0.000000   0.000010  -0.000001   0.000021  -0.000040
    10  C    0.000004   0.000000  -0.000075   0.000004  -0.000395  -0.000041
    11  C    0.000001   0.000001   0.003576   0.000132  -0.011307   0.003920
    12  C   -0.000005  -0.000009  -0.000296   0.000036   0.004607   0.000277
    13  C    0.000182  -0.000001  -0.000046   0.000001   0.000078   0.000004
    14  C    0.005309  -0.000000   0.000005   0.000000  -0.000010   0.000000
    15  C   -0.000404   0.000000  -0.000015  -0.000000   0.000007   0.000002
    16  O   -0.097955  -0.000000   0.000000   0.000000  -0.000000  -0.000000
    17  C    0.354499  -0.000000  -0.000000   0.000000  -0.000000   0.000000
    18  O   -0.078547  -0.000000   0.000000   0.000000   0.000000   0.000000
    19  C    5.277943   0.000000  -0.000000   0.000000   0.000000   0.000000
    20  H    0.000000   0.557137  -0.036325  -0.034325  -0.000194  -0.000061
    21  H   -0.000000  -0.036325   0.612260  -0.047802  -0.000153  -0.001392
    22  H    0.000000  -0.034325  -0.047802   0.626980  -0.000208   0.012559
    23  H    0.000000  -0.000194  -0.000153  -0.000208   0.596345  -0.040055
    24  H    0.000000  -0.000061  -0.001392   0.012559  -0.040055   0.577410
    25  H   -0.000000  -0.000000  -0.000000   0.000003  -0.000001   0.000001
    26  H    0.000000  -0.000000   0.000008  -0.000007   0.000001   0.000032
    27  H   -0.000000   0.000000  -0.000000   0.000000   0.000000   0.000025
    28  H   -0.000000   0.000000  -0.000006   0.000000   0.000004  -0.000002
    29  H   -0.000000   0.000000   0.000000  -0.000000   0.000000   0.000000
    30  H   -0.000000  -0.000078   0.000157   0.000067  -0.001589   0.000350
    31  H   -0.000420   0.000000  -0.000001  -0.000000   0.000003  -0.000000
    32  H   -0.000017   0.000000   0.000000  -0.000000   0.000000  -0.000000
    33  H    0.345366   0.000000   0.000000  -0.000000   0.000000   0.000000
    34  H    0.360587   0.000000   0.000000  -0.000000   0.000000   0.000000
    35  H    0.367077  -0.000000   0.000000  -0.000000  -0.000000  -0.000000
             25         26         27         28         29         30
     1  C   -0.000000  -0.000000   0.000000   0.000001   0.000000  -0.000780
     2  O   -0.000000   0.000000   0.000000   0.000001  -0.000000   0.013089
     3  C   -0.000012  -0.000022   0.000030  -0.000138   0.000010   0.002895
     4  C    0.000062  -0.000134  -0.000151   0.002856   0.000877  -0.015285
     5  C    0.002967  -0.005172  -0.004811  -0.041758   0.002817  -0.000189
     6  O   -0.031568  -0.035476  -0.035893  -0.007409  -0.000049  -0.000001
     7  C    0.385029   0.364460   0.364996   0.006345  -0.000009   0.000000
     8  C    0.000076   0.004548   0.005093   0.349428  -0.040341   0.000014
     9  C    0.000001  -0.000125  -0.000129  -0.032636   0.352353  -0.000185
    10  C   -0.000000   0.000002   0.000006   0.002440  -0.036413   0.005235
    11  C    0.000005  -0.000007  -0.000025   0.001249   0.004121  -0.023742
    12  C   -0.000000  -0.000000  -0.000000   0.000017  -0.000235   0.346599
    13  C    0.000000  -0.000000   0.000000  -0.000000   0.000012  -0.042001
    14  C    0.000000   0.000000   0.000000   0.000003   0.000193   0.003568
    15  C   -0.000000   0.000000   0.000000  -0.000224  -0.008006   0.000607
    16  O   -0.000000  -0.000000   0.000000  -0.000000  -0.000002  -0.000054
    17  C    0.000000  -0.000000   0.000000   0.000000   0.000000  -0.000014
    18  O   -0.000000   0.000000   0.000000  -0.000000  -0.000000  -0.000003
    19  C   -0.000000   0.000000  -0.000000  -0.000000  -0.000000  -0.000000
    20  H   -0.000000  -0.000000   0.000000   0.000000   0.000000  -0.000078
    21  H   -0.000000   0.000008  -0.000000  -0.000006   0.000000   0.000157
    22  H    0.000003  -0.000007   0.000000   0.000000  -0.000000   0.000067
    23  H   -0.000001   0.000001   0.000000   0.000004   0.000000  -0.001589
    24  H    0.000001   0.000032   0.000025  -0.000002   0.000000   0.000350
    25  H    0.540743  -0.033998  -0.033821  -0.000090  -0.000000  -0.000000
    26  H   -0.033998   0.594922  -0.045414   0.001824   0.000003   0.000000
    27  H   -0.033821  -0.045414   0.593414   0.001576   0.000002  -0.000000
    28  H   -0.000090   0.001824   0.001576   0.587801  -0.005112   0.000000
    29  H   -0.000000   0.000003   0.000002  -0.005112   0.589859   0.000002
    30  H   -0.000000   0.000000  -0.000000   0.000000   0.000002   0.555168
    31  H   -0.000000  -0.000000   0.000000  -0.000000  -0.000000  -0.005373
    32  H   -0.000000   0.000000   0.000000  -0.000014   0.005970   0.000015
    33  H    0.000000   0.000000  -0.000000   0.000000   0.000000   0.000000
    34  H    0.000000   0.000000  -0.000000   0.000000   0.000000  -0.000000
    35  H    0.000000  -0.000000   0.000000   0.000000   0.000000   0.000000
             31         32         33         34         35
     1  C    0.000000   0.000000  -0.000000  -0.000000   0.000000
     2  O   -0.000005  -0.000000  -0.000000   0.000000  -0.000000
     3  C   -0.000001   0.000002   0.000000   0.000000  -0.000000
     4  C   -0.000147  -0.000121  -0.000000  -0.000000   0.000000
     5  C    0.000003  -0.000004  -0.000000   0.000000   0.000000
     6  O   -0.000000  -0.000000   0.000000  -0.000000  -0.000000
     7  C    0.000000  -0.000000   0.000000   0.000000   0.000000
     8  C   -0.000000   0.000327   0.000000  -0.000000  -0.000000
     9  C    0.000007  -0.008881   0.000000   0.000000   0.000000
    10  C    0.000627  -0.042302  -0.000000  -0.000000  -0.000000
    11  C    0.002722   0.004347  -0.000000  -0.000000   0.000000
    12  C   -0.032879  -0.000116  -0.000000   0.000000  -0.000002
    13  C    0.351423   0.006568   0.000016   0.000000   0.000010
    14  C   -0.037410  -0.039764  -0.000067  -0.000124  -0.000068
    15  C    0.005349   0.347847  -0.000000   0.000011   0.000002
    16  O   -0.006454  -0.000717   0.007940   0.001937   0.001473
    17  C    0.004056   0.000111  -0.023960  -0.020340  -0.022748
    18  O    0.003533   0.000011   0.003303   0.000246  -0.000900
    19  C   -0.000420  -0.000017   0.345366   0.360587   0.367077
    20  H    0.000000   0.000000   0.000000   0.000000  -0.000000
    21  H   -0.000001   0.000000   0.000000   0.000000   0.000000
    22  H   -0.000000  -0.000000  -0.000000  -0.000000  -0.000000
    23  H    0.000003   0.000000   0.000000   0.000000  -0.000000
    24  H   -0.000000  -0.000000   0.000000   0.000000  -0.000000
    25  H   -0.000000  -0.000000   0.000000   0.000000   0.000000
    26  H   -0.000000   0.000000   0.000000   0.000000  -0.000000
    27  H    0.000000   0.000000  -0.000000  -0.000000   0.000000
    28  H   -0.000000  -0.000014   0.000000   0.000000   0.000000
    29  H   -0.000000   0.005970   0.000000   0.000000   0.000000
    30  H   -0.005373   0.000015   0.000000  -0.000000   0.000000
    31  H    0.566370  -0.000162  -0.000001   0.000008   0.000064
    32  H   -0.000162   0.590096   0.000009  -0.000001   0.000001
    33  H   -0.000001   0.000009   0.538144  -0.023759  -0.025758
    34  H    0.000008  -0.000001  -0.023759   0.510667  -0.018958
    35  H    0.000064   0.000001  -0.025758  -0.018958   0.509701
 Mulliken atomic charges:
              1
     1  C   -0.197397
     2  O   -0.461095
     3  C   -0.115677
     4  C   -0.003051
     5  C    0.333239
     6  O   -0.517610
     7  C   -0.216448
     8  C   -0.195176
     9  C   -0.210047
    10  C    0.154674
    11  C    0.105110
    12  C   -0.221055
    13  C   -0.141515
    14  C    0.356520
    15  C   -0.257859
    16  O   -0.528879
    17  C    0.603214
    18  O   -0.445239
    19  C   -0.533619
    20  H    0.155424
    21  H    0.143515
    22  H    0.130009
    23  H    0.150175
    24  H    0.159122
    25  H    0.170605
    26  H    0.154555
    27  H    0.155102
    28  H    0.133846
    29  H    0.133946
    30  H    0.161530
    31  H    0.148687
    32  H    0.136793
    33  H    0.178768
    34  H    0.189725
    35  H    0.190106
 Sum of Mulliken atomic charges =  -0.00000
 Mulliken charges with hydrogens summed into heavy atoms:
              1
     1  C    0.231552
     2  O   -0.461095
     3  C    0.193620
     4  C   -0.003051
     5  C    0.333239
     6  O   -0.517610
     7  C    0.263814
     8  C   -0.061330
     9  C   -0.076100
    10  C    0.154674
    11  C    0.105110
    12  C   -0.059525
    13  C    0.007172
    14  C    0.356520
    15  C   -0.121065
    16  O   -0.528879
    17  C    0.603214
    18  O   -0.445239
    19  C    0.024980
 Sum of Mulliken charges with hydrogens summed into heavy atoms =  -0.00000
 Electronic spatial extent (au):  <R**2>=           6591.4659
 Charge=             -0.0000 electrons
 Dipole moment (field-independent basis, Debye):
    X=             -1.7450    Y=             -3.1073    Z=             -0.5008  Tot=              3.5988
 Quadrupole moment (field-independent basis, Debye-Ang):
   XX=            -85.0458   YY=           -107.9483   ZZ=           -110.5410
   XY=              1.8809   XZ=             -8.4580   YZ=             -3.8287
[...]
    58    C    4  dyz    Ryd( 3d)     0.00058
    59    C    4  dx2y2  Ryd( 3d)     0.00055
    60    C    4  dz2    Ryd( 3d)     0.00043

    61    C    5  S      Cor( 1S)     1.99871
    62    C    5  S      Val( 2S)     0.83507
    63    C    5  S      Ryd( 3S)     0.00168
    64    C    5  S      Ryd( 4S)     0.00013
    65    C    5  px     Val( 2p)     0.74884
    66    C    5  px     Ryd( 3p)     0.00664
    67    C    5  py     Val( 2p)     1.06911
    68    C    5  py     Ryd( 3p)     0.00517
    69    C    5  pz     Val( 2p)     0.95071
    70    C    5  pz     Ryd( 3p)     0.00140
    71    C    5  dxy    Ryd( 3d)     0.00143
    72    C    5  dxz    Ryd( 3d)     0.00171
    73    C    5  dyz    Ryd( 3d)     0.00102
    74    C    5  dx2y2  Ryd( 3d)     0.00174
    75    C    5  dz2    Ryd( 3d)     0.00074

    76    O    6  S      Cor( 1S)     1.99974
    77    O    6  S      Val( 2S)     1.59331
    78    O    6  S      Ryd( 3S)     0.00085
    79    O    6  S      Ryd( 4S)     0.00008
    80    O    6  px     Val( 2p)     1.42355
    81    O    6  px     Ryd( 3p)     0.00100
    82    O    6  py     Val( 2p)     1.69638
    83    O    6  py     Ryd( 3p)     0.00210
    84    O    6  pz     Val( 2p)     1.74171
    85    O    6  pz     Ryd( 3p)     0.00212
    86    O    6  dxy    Ryd( 3d)     0.00118
    87    O    6  dxz    Ryd( 3d)     0.00066
    88    O    6  dyz    Ryd( 3d)     0.00126
    89    O    6  dx2y2  Ryd( 3d)     0.00126
    90    O    6  dz2    Ryd( 3d)     0.00083

    91    C    7  S      Cor( 1S)     1.99942
    92    C    7  S      Val( 2S)     1.10261
    93    C    7  S      Ryd( 3S)     0.00151
    94    C    7  S      Ryd( 4S)     0.00003
    95    C    7  px     Val( 2p)     1.01958
    96    C    7  px     Ryd( 3p)     0.00240
    97    C    7  py     Val( 2p)     0.97901
    98    C    7  py     Ryd( 3p)     0.00312
    99    C    7  pz     Val( 2p)     1.20600
   100    C    7  pz     Ryd( 3p)     0.00055
   101    C    7  dxy    Ryd( 3d)     0.00168
   102    C    7  dxz    Ryd( 3d)     0.00067
   103    C    7  dyz    Ryd( 3d)     0.00145
   104    C    7  dx2y2  Ryd( 3d)     0.00133
   105    C    7  dz2    Ryd( 3d)     0.00131

   106    C    8  S      Cor( 1S)     1.99904
   107    C    8  S      Val( 2S)     0.94697
   108    C    8  S      Ryd( 3S)     0.00074
   109    C    8  S      Ryd( 4S)     0.00005
   110    C    8  px     Val( 2p)     1.13110
   111    C    8  px     Ryd( 3p)     0.00416
   112    C    8  py     Val( 2p)     1.13100
   113    C    8  py     Ryd( 3p)     0.00408
   114    C    8  pz     Val( 2p)     1.15381
   115    C    8  pz     Ryd( 3p)     0.00351
   116    C    8  dxy    Ryd( 3d)     0.00074
   117    C    8  dxz    Ryd( 3d)     0.00062
   118    C    8  dyz    Ryd( 3d)     0.00041
   119    C    8  dx2y2  Ryd( 3d)     0.00053
   120    C    8  dz2    Ryd( 3d)     0.00042

   121    C    9  S      Cor( 1S)     1.99907
   122    C    9  S      Val( 2S)     0.94055
   123    C    9  S      Ryd( 3S)     0.00076
   124    C    9  S      Ryd( 4S)     0.00005
   125    C    9  px     Val( 2p)     1.07155
   126    C    9  px     Ryd( 3p)     0.00429
   127    C    9  py     Val( 2p)     1.15376
   128    C    9  py     Ryd( 3p)     0.00478
   129    C    9  pz     Val( 2p)     1.03553
   130    C    9  pz     Ryd( 3p)     0.00353
   131    C    9  dxy    Ryd( 3d)     0.00075
   132    C    9  dxz    Ryd( 3d)     0.00072
   133    C    9  dyz    Ryd( 3d)     0.00039
   134    C    9  dx2y2  Ryd( 3d)     0.00067
   135    C    9  dz2    Ryd( 3d)     0.00039

   136    C   10  S      Cor( 1S)     1.99903
   137    C   10  S      Val( 2S)     0.86731
   138    C   10  S      Ryd( 3S)     0.00048
   139    C   10  S      Ryd( 4S)     0.00007
   140    C   10  px     Val( 2p)     1.08555
   141    C   10  px     Ryd( 3p)     0.00483
   142    C   10  py     Val( 2p)     1.07686
   143    C   10  py     Ryd( 3p)     0.00519
   144    C   10  pz     Val( 2p)     0.99992
   145    C   10  pz     Ryd( 3p)     0.00130
   146    C   10  dxy    Ryd( 3d)     0.00071
   147    C   10  dxz    Ryd( 3d)     0.00085
   148    C   10  dyz    Ryd( 3d)     0.00058
   149    C   10  dx2y2  Ryd( 3d)     0.00071
   150    C   10  dz2    Ryd( 3d)     0.00043

   151    C   11  S      Cor( 1S)     1.99900
   152    C   11  S      Val( 2S)     0.86271
   153    C   11  S      Ryd( 3S)     0.00047
   154    C   11  S      Ryd( 4S)     0.00006
   155    C   11  px     Val( 2p)     1.08362
   156    C   11  px     Ryd( 3p)     0.00459
   157    C   11  py     Val( 2p)     1.07715
   158    C   11  py     Ryd( 3p)     0.00529
   159    C   11  pz     Val( 2p)     1.01166
   160    C   11  pz     Ryd( 3p)     0.00168
   161    C   11  dxy    Ryd( 3d)     0.00070
   162    C   11  dxz    Ryd( 3d)     0.00076
   163    C   11  dyz    Ryd( 3d)     0.00057
   164    C   11  dx2y2  Ryd( 3d)     0.00072
   165    C   11  dz2    Ryd( 3d)     0.00041

   166    C   12  S      Cor( 1S)     1.99909
   167    C   12  S      Val( 2S)     0.94701
   168    C   12  S      Ryd( 3S)     0.00074
   169    C   12  S      Ryd( 4S)     0.00005
   170    C   12  px     Val( 2p)     1.07088
   171    C   12  px     Ryd( 3p)     0.00437
   172    C   12  py     Val( 2p)     1.16582
   173    C   12  py     Ryd( 3p)     0.00445
   174    C   12  pz     Val( 2p)     1.01224
   175    C   12  pz     Ryd( 3p)     0.00313
   176    C   12  dxy    Ryd( 3d)     0.00076
   177    C   12  dxz    Ryd( 3d)     0.00072
   178    C   12  dyz    Ryd( 3d)     0.00038
   179    C   12  dx2y2  Ryd( 3d)     0.00069
   180    C   12  dz2    Ryd( 3d)     0.00040

   181    C   13  S      Cor( 1S)     1.99902
   182    C   13  S      Val( 2S)     0.95648
   183    C   13  S      Ryd( 3S)     0.00082
   184    C   13  S      Ryd( 4S)     0.00005
   185    C   13  px     Val( 2p)     1.12906
   186    C   13  px     Ryd( 3p)     0.00444
   187    C   13  py     Val( 2p)     1.12806
   188    C   13  py     Ryd( 3p)     0.00439
   189    C   13  pz     Val( 2p)     1.08844
   190    C   13  pz     Ryd( 3p)     0.00306
   191    C   13  dxy    Ryd( 3d)     0.00072
   192    C   13  dxz    Ryd( 3d)     0.00063
   193    C   13  dyz    Ryd( 3d)     0.00045
   194    C   13  dx2y2  Ryd( 3d)     0.00059
   195    C   13  dz2    Ryd( 3d)     0.00042

   196    C   14  S      Cor( 1S)     1.99869
   197    C   14  S      Val( 2S)     0.84501
   198    C   14  S      Ryd( 3S)     0.00141
   199    C   14  S      Ryd( 4S)     0.00013
   200    C   14  px     Val( 2p)     0.74239
   201    C   14  px     Ryd( 3p)     0.00632
   202    C   14  py     Val( 2p)     1.07286
   203    C   14  py     Ryd( 3p)     0.00599
   204    C   14  pz     Val( 2p)     0.96758
   205    C   14  pz     Ryd( 3p)     0.00235
   206    C   14  dxy    Ryd( 3d)     0.00140
   207    C   14  dxz    Ryd( 3d)     0.00136
   208    C   14  dyz    Ryd( 3d)     0.00093
   209    C   14  dx2y2  Ryd( 3d)     0.00165
   210    C   14  dz2    Ryd( 3d)     0.00071

   211    C   15  S      Cor( 1S)     1.99896
   212    C   15  S      Val( 2S)     0.95009
   213    C   15  S      Ryd( 3S)     0.00082
   214    C   15  S      Ryd( 4S)     0.00006
   215    C   15  px     Val( 2p)     1.06979
   216    C   15  px     Ryd( 3p)     0.00444
   217    C   15  py     Val( 2p)     1.17264
   218    C   15  py     Ryd( 3p)     0.00405
   219    C   15  pz     Val( 2p)     1.05635
   220    C   15  pz     Ryd( 3p)     0.00316
   221    C   15  dxy    Ryd( 3d)     0.00077
   222    C   15  dxz    Ryd( 3d)     0.00049
   223    C   15  dyz    Ryd( 3d)     0.00049
   224    C   15  dx2y2  Ryd( 3d)     0.00057
   225    C   15  dz2    Ryd( 3d)     0.00045

   226    O   16  S      Cor( 1S)     1.99970
   227    O   16  S      Val( 2S)     1.60282
   228    O   16  S      Ryd( 3S)     0.00146
   229    O   16  S      Ryd( 4S)     0.00009
   230    O   16  px     Val( 2p)     1.43419
   231    O   16  px     Ryd( 3p)     0.00108
   232    O   16  py     Val( 2p)     1.76866
   233    O   16  py     Ryd( 3p)     0.00213
   234    O   16  pz     Val( 2p)     1.72185
   235    O   16  pz     Ryd( 3p)     0.00129
   236    O   16  dxy    Ryd( 3d)     0.00099
   237    O   16  dxz    Ryd( 3d)     0.00073
   238    O   16  dyz    Ryd( 3d)     0.00118
   239    O   16  dx2y2  Ryd( 3d)     0.00117
   240    O   16  dz2    Ryd( 3d)     0.00124

   241    C   17  S      Cor( 1S)     1.99945
   242    C   17  S      Val( 2S)     0.78798
   243    C   17  S      Ryd( 3S)     0.00363
   244    C   17  S      Ryd( 4S)     0.00035
   245    C   17  px     Val( 2p)     0.86738
   246    C   17  px     Ryd( 3p)     0.00478
   247    C   17  py     Val( 2p)     0.73918
   248    C   17  py     Ryd( 3p)     0.01568
   249    C   17  pz     Val( 2p)     0.73780
   250    C   17  pz     Ryd( 3p)     0.00902
   251    C   17  dxy    Ryd( 3d)     0.00277
   252    C   17  dxz    Ryd( 3d)     0.00199
   253    C   17  dyz    Ryd( 3d)     0.00116
   254    C   17  dx2y2  Ryd( 3d)     0.00190
   255    C   17  dz2    Ryd( 3d)     0.00196

   256    O   18  S      Cor( 1S)     1.99978
   257    O   18  S      Val( 2S)     1.69957
   258    O   18  S      Ryd( 3S)     0.00060
   259    O   18  S      Ryd( 4S)     0.00008
   260    O   18  px     Val( 2p)     1.81612
   261    O   18  px     Ryd( 3p)     0.00157
   262    O   18  py     Val( 2p)     1.53544
   263    O   18  py     Ryd( 3p)     0.00048
   264    O   18  pz     Val( 2p)     1.49439
   265    O   18  pz     Ryd( 3p)     0.00058
   266    O   18  dxy    Ryd( 3d)     0.00340
   267    O   18  dxz    Ryd( 3d)     0.00198
   268    O   18  dyz    Ryd( 3d)     0.00453
   269    O   18  dx2y2  Ryd( 3d)     0.00352
   270    O   18  dz2    Ryd( 3d)     0.00332

   271    C   19  S      Cor( 1S)     1.99933
   272    C   19  S      Val( 2S)     1.13788
   273    C   19  S      Ryd( 3S)     0.00033
   274    C   19  S      Ryd( 4S)     0.00001
   275    C   19  px     Val( 2p)     1.12472
   276    C   19  px     Ryd( 3p)     0.00117
   277    C   19  py     Val( 2p)     1.24835
   278    C   19  py     Ryd( 3p)     0.00115
   279    C   19  pz     Val( 2p)     1.25848
   280    C   19  pz     Ryd( 3p)     0.00087
   281    C   19  dxy    Ryd( 3d)     0.00055
   282    C   19  dxz    Ryd( 3d)     0.00038
   283    C   19  dyz    Ryd( 3d)     0.00043
   284    C   19  dx2y2  Ryd( 3d)     0.00083
   285    C   19  dz2    Ryd( 3d)     0.00095

   286    H   20  S      Val( 1S)     0.77979
   287    H   20  S      Ryd( 2S)     0.00068

   288    H   21  S      Val( 1S)     0.80288
   289    H   21  S      Ryd( 2S)     0.00196

   290    H   22  S      Val( 1S)     0.81187
   291    H   22  S      Ryd( 2S)     0.00211

   292    H   23  S      Val( 1S)     0.76435
   293    H   23  S      Ryd( 2S)     0.00241

   294    H   24  S      Val( 1S)     0.77748
   295    H   24  S      Ryd( 2S)     0.00211

   296    H   25  S      Val( 1S)     0.76700
   297    H   25  S      Ryd( 2S)     0.00055

   298    H   26  S      Val( 1S)     0.78159
   299    H   26  S      Ryd( 2S)     0.00194

   300    H   27  S      Val( 1S)     0.78128
   301    H   27  S      Ryd( 2S)     0.00194

   302    H   28  S      Val( 1S)     0.76664
   303    H   28  S      Ryd( 2S)     0.00089

   304    H   29  S      Val( 1S)     0.76738
   305    H   29  S      Ryd( 2S)     0.00109

   306    H   30  S      Val( 1S)     0.74870
   307    H   30  S      Ryd( 2S)     0.00204

   308    H   31  S      Val( 1S)     0.75101
   309    H   31  S      Ryd( 2S)     0.00087

   310    H   32  S      Val( 1S)     0.75740
   311    H   32  S      Ryd( 2S)     0.00148

   312    H   33  S      Val( 1S)     0.73986
   313    H   33  S      Ryd( 2S)     0.00085

   314    H   34  S      Val( 1S)     0.74055
   315    H   34  S      Ryd( 2S)     0.00087

   316    H   35  S      Val( 1S)     0.74073
   317    H   35  S      Ryd( 2S)     0.00092

 WARNING:  1 low occupancy (<1.9990e) core orbital  found on  C    4
           1 low occupancy (<1.9990e) core orbital  found on  C    5
           1 low occupancy (<1.9990e) core orbital  found on  C   14
           1 low occupancy (<1.9990e) core orbital  found on  C   15


 Summary of Natural Population Analysis:                  
                                                          
                                       Natural Population 
                Natural  -----------------------------------------------
    Atom  No    Charge         Core      Valence    Rydberg      Total
 -----------------------------------------------------------------------
      C    1   -0.31193      1.99946     4.29780    0.01468     6.31193
      O    2   -0.57291      1.99981     6.56084    0.01225     8.57291
      C    3   -0.13238      1.99921     4.11195    0.02122     6.13238
      C    4   -0.08990      1.99894     4.07405    0.01690     6.08990
      C    5    0.37589      1.99871     3.60374    0.02166     5.62411
      O    6   -0.46602      1.99974     6.45494    0.01134     8.46602
      C    7   -0.32067      1.99942     4.30720    0.01405     6.32067
      C    8   -0.37719      1.99904     4.36288    0.01526     6.37719
      C    9   -0.21679      1.99907     4.20139    0.01633     6.21679
      C   10   -0.04381      1.99903     4.02963    0.01514     6.04381
      C   11   -0.04939      1.99900     4.03514    0.01525     6.04939
      C   12   -0.21073      1.99909     4.19595    0.01569     6.21073
      C   13   -0.31665      1.99902     4.30205    0.01558     6.31665
      C   14    0.35123      1.99869     3.62784    0.02225     5.64877
      C   15   -0.26311      1.99896     4.24887    0.01528     6.26311
      O   16   -0.53859      1.99970     6.52752    0.01138     8.53859
      C   17    0.82496      1.99945     3.13234    0.04325     5.17504
      O   18   -0.56536      1.99978     6.54551    0.02007     8.56536
      C   19   -0.77544      1.99933     4.76943    0.00668     6.77544
      H   20    0.21953      0.00000     0.77979    0.00068     0.78047
      H   21    0.19515      0.00000     0.80288    0.00196     0.80485
      H   22    0.18603      0.00000     0.81187    0.00211     0.81397
      H   23    0.23324      0.00000     0.76435    0.00241     0.76676
      H   24    0.22042      0.00000     0.77748    0.00211     0.77958
      H   25    0.23245      0.00000     0.76700    0.00055     0.76755
      H   26    0.21646      0.00000     0.78159    0.00194     0.78354
      H   27    0.21678      0.00000     0.78128    0.00194     0.78322
      H   28    0.23247      0.00000     0.76664    0.00089     0.76753
      H   29    0.23153      0.00000     0.76738    0.00109     0.76847
      H   30    0.24926      0.00000     0.74870    0.00204     0.75074
      H   31    0.24812      0.00000     0.75101    0.00087     0.75188
      H   32    0.24111      0.00000     0.75740    0.00148     0.75889
      H   33    0.25929      0.00000     0.73986    0.00085     0.74071
      H   34    0.25858      0.00000     0.74055    0.00087     0.74142
      H   35    0.25835      0.00000     0.74073    0.00092     0.74165
 =======================================================================
   * Total *   -0.00000     37.98544    99.66759    0.34697   138.00000

                                 Natural Population      
 --------------------------------------------------------
   Core                      37.98544 ( 99.9617% of  38)
   Valence                   99.66759 ( 99.6676% of 100)
   Natural Minimal Basis    137.65303 ( 99.7486% of 138)
   Natural Rydberg Basis      0.34697 (  0.2514% of 138)
 --------------------------------------------------------

    Atom  No          Natural Electron Configuration
 ----------------------------------------------------------------------------
      C    1      [core]2S( 1.09)2p( 3.20)3p( 0.01)3d( 0.01)
      O    2      [core]2S( 1.63)2p( 4.94)3p( 0.01)3d( 0.01)
      C    3      [core]2S( 1.01)2p( 3.10)3p( 0.01)3d( 0.01)
      C    4      [core]2S( 0.89)2p( 3.19)3p( 0.01)
      C    5      [core]2S( 0.84)2p( 2.77)3p( 0.01)3d( 0.01)
      O    6      [core]2S( 1.59)2p( 4.86)3p( 0.01)3d( 0.01)
      C    7      [core]2S( 1.10)2p( 3.20)3p( 0.01)3d( 0.01)
      C    8      [core]2S( 0.95)2p( 3.42)3p( 0.01)
      C    9      [core]2S( 0.94)2p( 3.26)3p( 0.01)
      C   10      [core]2S( 0.87)2p( 3.16)3p( 0.01)
      C   11      [core]2S( 0.86)2p( 3.17)3p( 0.01)
      C   12      [core]2S( 0.95)2p( 3.25)3p( 0.01)
      C   13      [core]2S( 0.96)2p( 3.35)3p( 0.01)
      C   14      [core]2S( 0.85)2p( 2.78)3p( 0.01)3d( 0.01)
      C   15      [core]2S( 0.95)2p( 3.30)3p( 0.01)
      O   16      [core]2S( 1.60)2p( 4.92)3d( 0.01)
      C   17      [core]2S( 0.79)2p( 2.34)3p( 0.03)3d( 0.01)
      O   18      [core]2S( 1.70)2p( 4.85)3d( 0.02)
      C   19      [core]2S( 1.14)2p( 3.63)
      H   20            1S( 0.78)
      H   21            1S( 0.80)
      H   22            1S( 0.81)
      H   23            1S( 0.76)
      H   24            1S( 0.78)
      H   25            1S( 0.77)
      H   26            1S( 0.78)
      H   27            1S( 0.78)
      H   28            1S( 0.77)
      H   29            1S( 0.77)
      H   30            1S( 0.75)
      H   31            1S( 0.75)
      H   32            1S( 0.76)
      H   33            1S( 0.74)
      H   34            1S( 0.74)
      H   35            1S( 0.74)


 NBO analysis skipped by request.
 Leave Link  607 at Thu Sep 30 03:51:46 2021, MaxMem= 1342177280 cpu:      22.9
 (Enter /sw/target/amd/app/gaussian/Gaussian09RevA.02_gcc-4.9.2/g09/l9999.exe)
 1\1\GINC-HERMITE\SP\RTD-B3LYP-FC\6-31G(d)\C15H16O4\JSCHLEINITZ\30-Sep-
 2021\0\\#p TD(NStates=10, Root=1) b3lyp/6-31G* volume pop=NPA density=
 current Geom=AllCheck Guess=Read\\COCc1c(OC)ccc2c1ccc(c2)OC(=O)C_conf_
 0\\0,1\C,0,2.4788683911,-1.6406498972,1.564616851\O,0,2.2788361554,-0.
 9632413386,0.3388394608\C,0,3.0397257337,-1.5023818038,-0.7402040318\C
 ,0,4.53972144,-1.3004637237,-0.6166230331\C,0,5.3989772366,-2.39578334
 57,-0.5774965601\O,0,4.8200438374,-3.6382642725,-0.6111032478\C,0,5.64
 74137556,-4.789340236,-0.5841371121\C,0,6.8058731777,-2.2206961627,-0.
 5170430195\C,0,7.3441010641,-0.9560078563,-0.493302173\C,0,6.516324060
 1,0.1925878471,-0.51880375\C,0,5.094112968,0.0158333751,-0.5703964538\
 C,0,4.2803699481,1.1870291724,-0.582252765\C,0,4.8325244048,2.44661584
 72,-0.562067382\C,0,6.2378339845,2.595572506,-0.5164904739\C,0,7.06437
 79062,1.5018189367,-0.4926998686\O,0,6.8409198774,3.8560948455,-0.5847
 295776\C,0,6.4914368482,4.8303400697,0.313917028\O,0,5.6859171903,4.68
 23299126,1.1988243054\C,0,7.267374096,6.0916397281,0.020317938\H,0,1.8
 172473461,-1.1695608146,2.2963864452\H,0,3.517110502,-1.5595416451,1.9
 172811689\H,0,2.2214555895,-2.7086043317,1.4813857701\H,0,2.6681968079
 ,-0.9790091363,-1.6282883513\H,0,2.819198065,-2.5690167112,-0.86008320
 08\H,0,4.9674405139,-5.6426968025,-0.6204676576\H,0,6.2420669195,-4.84
 28318177,0.3372889918\H,0,6.3197805053,-4.8283231514,-1.4512116181\H,0
 ,7.4639911116,-3.0811345907,-0.4916055063\H,0,8.4230863101,-0.82841880
 08,-0.452624821\H,0,3.2024445225,1.0809854754,-0.5735637152\H,0,4.1994
 646745,3.3260086376,-0.5653984556\H,0,8.1411833959,1.6401876566,-0.460
 346248\H,0,7.0552394287,6.4351328593,-0.9975072757\H,0,8.3428225077,5.
 8949787453,0.0800833511\H,0,6.989454473,6.8629007682,0.7391730107\\Ver
 sion=AM64L-G09RevA.02\State=1-A\HF=-882.1175145\RMSD=7.344e-10\Dipole=
 0.9760062,-1.2236144,-0.4099371\Quadrupole=-5.5904245,15.7624219,-10.1
 719974,3.4648628,0.5649069,-3.9878856\PG=C01 [X(C15H16O4)]\\@


 CONFIDENCE: THAT QUIET ASSURED FEELING YOU HAVE
 JUST BEFORE YOU FALL FLAT ON YOUR FACE.
 Job cpu time:  0 days  5 hours 29 minutes 50.5 seconds.
 File lengths (MBytes):  RWF=    335 Int=      0 D2E=      0 Chk=     45 Scr=      1
 Normal termination of Gaussian 09 at Thu Sep 30 03:51:53 2021.
