 Entering Gaussian System, Link 0=g09
 Input=C15H12O_d275_conf_0.com
 Output=C15H12O_d275_conf_0.log
 Initial command:
 /sw/target/amd/app/gaussian/Gaussian09RevA.02_gcc-4.9.2/g09/l1.exe /home/jschleinitz/gaussian/Gau-3536250.inp -scrdir=/home/jschleinitz/gaussian/
 Entering Link 1 = /sw/target/amd/app/gaussian/Gaussian09RevA.02_gcc-4.9.2/g09/l1.exe PID=   3536252.
  
 Copyright (c) 1988,1990,1992,1993,1995,1998,2003,2009, Gaussian, Inc.
                  All Rights Reserved.
  
 This is part of the Gaussian(R) 09 program.  It is based on
 the Gaussian(R) 03 system (copyright 2003, Gaussian, Inc.),
 the Gaussian(R) 98 system (copyright 1998, Gaussian, Inc.),
 the Gaussian(R) 94 system (copyright 1995, Gaussian, Inc.),
 the Gaussian 92(TM) system (copyright 1992, Gaussian, Inc.),
 the Gaussian 90(TM) system (copyright 1990, Gaussian, Inc.),
 the Gaussian 88(TM) system (copyright 1988, Gaussian, Inc.),
 the Gaussian 86(TM) system (copyright 1986, Carnegie Mellon
 University), and the Gaussian 82(TM) system (copyright 1983,
 Carnegie Mellon University). Gaussian is a federally registered
 trademark of Gaussian, Inc.
  
 This software contains proprietary and confidential information,
 including trade secrets, belonging to Gaussian, Inc.
  
 This software is provided under written license and may be
 used, copied, transmitted, or stored only in accord with that
 written license.
  
 The following legend is applicable only to US Government
 contracts under FAR:
  
                    RESTRICTED RIGHTS LEGEND
  
 Use, reproduction and disclosure by the US Government is
 subject to restrictions as set forth in subparagraphs (a)
 and (c) of the Commercial Computer Software - Restricted
 Rights clause in FAR 52.227-19.
  
 Gaussian, Inc.
 340 Quinnipiac St., Bldg. 40, Wallingford CT 06492
  
  
 ---------------------------------------------------------------
 Warning -- This program may not be used in any manner that
 competes with the business of Gaussian, Inc. or will provide
 assistance to any competitor of Gaussian, Inc.  The licensee
 of this program is prohibited from giving any competitor of
 Gaussian, Inc. access to this program.  By using this program,
 the user acknowledges that Gaussian, Inc. is engaged in the
 business of creating and licensing software in the field of
 computational chemistry and represents and warrants to the
 licensee that it is not a competitor of Gaussian, Inc. and that
 it will not use this program in any manner prohibited above.
 ---------------------------------------------------------------
  

 Cite this work as:
 Gaussian 09, Revision A.02,
 M. J. Frisch, G. W. Trucks, H. B. Schlegel, G. E. Scuseria, 
 M. A. Robb, J. R. Cheeseman, G. Scalmani, V. Barone, B. Mennucci, 
 G. A. Petersson, H. Nakatsuji, M. Caricato, X. Li, H. P. Hratchian, 
 A. F. Izmaylov, J. Bloino, G. Zheng, J. L. Sonnenberg, M. Hada, 
 M. Ehara, K. Toyota, R. Fukuda, J. Hasegawa, M. Ishida, T. Nakajima, 
 Y. Honda, O. Kitao, H. Nakai, T. Vreven, J. A. Montgomery, Jr., 
 J. E. Peralta, F. Ogliaro, M. Bearpark, J. J. Heyd, E. Brothers, 
 K. N. Kudin, V. N. Staroverov, R. Kobayashi, J. Normand, 
 K. Raghavachari, A. Rendell, J. C. Burant, S. S. Iyengar, J. Tomasi, 
 M. Cossi, N. Rega, J. M. Millam, M. Klene, J. E. Knox, J. B. Cross, 
 V. Bakken, C. Adamo, J. Jaramillo, R. Gomperts, R. E. Stratmann, 
 O. Yazyev, A. J. Austin, R. Cammi, C. Pomelli, J. W. Ochterski, 
 R. L. Martin, K. Morokuma, V. G. Zakrzewski, G. A. Voth, 
 P. Salvador, J. J. Dannenberg, S. Dapprich, A. D. Daniels, 
 O. Farkas, J. B. Foresman, J. V. Ortiz, J. Cioslowski, 
 and D. J. Fox, Gaussian, Inc., Wallingford CT, 2009.
 
 ******************************************
 Gaussian 09:  AM64L-G09RevA.02 11-Jun-2009
                30-Sep-2021 
 ******************************************
 %nproc=4
 Will use up to    4 processors via shared memory.
 %mem=8gb
 %chk=C15H12O_d275_conf_0.chk
 -----------------------------------
 #p opt b3lyp/6-31G* scf=(xqc,tight)
 -----------------------------------
 1/14=-1,18=20,19=15,26=3,38=1/1,3;
 2/9=110,12=2,17=6,18=5,40=1/2;
 3/5=1,6=6,7=1,11=2,16=1,25=1,30=1,71=1,74=-5/1,2,3;
 4//1;
 5/5=2,8=3,13=1,32=2,38=5/2,8;
 6/7=2,8=2,9=2,10=2,28=1/1;
 7//1,2,3,16;
 1/14=-1,18=20,19=15/3(2);
 2/9=110/2;
 99//99;
 2/9=110/2;
 3/5=1,6=6,7=1,11=2,16=1,25=1,30=1,71=1,74=-5/1,2,3;
 4/5=5,16=3/1;
 5/5=2,8=3,13=1,32=2,38=5/2,8;
 7//1,2,3,16;
 1/14=-1,18=20,19=15/3(-5);
 2/9=110/2;
 6/7=2,8=2,9=2,10=2,19=2,28=1/1;
 99/9=1/99;
 Leave Link    1 at Thu Sep 30 14:37:31 2021, MaxMem= 1073741824 cpu:       0.1
 (Enter /sw/target/amd/app/gaussian/Gaussian09RevA.02_gcc-4.9.2/g09/l101.exe)
 -----------------------------
 COc1cc2ccccc2c2c1cccc2_conf_0
 -----------------------------
 Symbolic Z-matrix:
 Charge =  0 Multiplicity = 1
 C                     1.33231  -0.1195    0.03381 
 O                     2.52891  -0.67508   0.58456 
 C                     3.05526   0.16227   1.53912 
 C                     3.94177   1.14689   1.11281 
 C                     4.51777   2.02549   2.03081 
 C                     5.40229   3.01803   1.57405 
 C                     5.99363   3.91653   2.45741 
 C                     5.70603   3.83245   3.81057 
 C                     4.82972   2.84759   4.27705 
 C                     4.20793   1.91147   3.41167 
 C                     3.30764   0.87281   3.85212 
 C                     2.74259  -0.01301   2.89813 
 C                     1.87974  -1.04778   3.32304 
 C                     1.54894  -1.21775   4.66407 
 C                     2.07865  -0.35532   5.60824 
 C                     2.94293   0.66824   5.20857 
 H                     1.51527   0.13863  -1.01342 
 H                     0.96597   0.76801   0.56451 
 H                     0.55382  -0.88772   0.06977 
 H                     4.17651   1.21813   0.05356 
 H                     5.64005   3.09843   0.51491 
 H                     6.67593   4.67729   2.08842 
 H                     6.16198   4.52824   4.51005 
 H                     4.64345   2.82609   5.34702 
 H                     1.46065  -1.74124   2.59633 
 H                     0.88327  -2.02195   4.96429 
 H                     1.82903  -0.476     6.65906 
 H                     3.33393   1.31      5.99268 
 
 NAtoms=     28 NQM=     28 NQMF=      0 NMic=      0 NMicF=      0 NTot=     28.
                    Isotopes and Nuclear Properties:
 (Nuclear quadrupole moments (NQMom) in fm**2, nuclear magnetic moments (NMagM)
  in nuclear magnetons)

  Atom         1           2           3           4           5           6           7           8           9          10
 IAtWgt=          12          16          12          12          12          12          12          12          12          12
 AtmWgt=  12.0000000  15.9949146  12.0000000  12.0000000  12.0000000  12.0000000  12.0000000  12.0000000  12.0000000  12.0000000
 NucSpn=           0           0           0           0           0           0           0           0           0           0
 AtZEff=   0.0000000   0.0000000   0.0000000   0.0000000   0.0000000   0.0000000   0.0000000   0.0000000   0.0000000   0.0000000
 NQMom=    0.0000000   0.0000000   0.0000000   0.0000000   0.0000000   0.0000000   0.0000000   0.0000000   0.0000000   0.0000000
 NMagM=    0.0000000   0.0000000   0.0000000   0.0000000   0.0000000   0.0000000   0.0000000   0.0000000   0.0000000   0.0000000

  Atom        11          12          13          14          15          16          17          18          19          20
 IAtWgt=          12          12          12          12          12          12           1           1           1           1
 AtmWgt=  12.0000000  12.0000000  12.0000000  12.0000000  12.0000000  12.0000000   1.0078250   1.0078250   1.0078250   1.0078250
 NucSpn=           0           0           0           0           0           0           1           1           1           1
 AtZEff=   0.0000000   0.0000000   0.0000000   0.0000000   0.0000000   0.0000000   0.0000000   0.0000000   0.0000000   0.0000000
 NQMom=    0.0000000   0.0000000   0.0000000   0.0000000   0.0000000   0.0000000   0.0000000   0.0000000   0.0000000   0.0000000
 NMagM=    0.0000000   0.0000000   0.0000000   0.0000000   0.0000000   0.0000000   2.7928460   2.7928460   2.7928460   2.7928460

  Atom        21          22          23          24          25          26          27          28
 IAtWgt=           1           1           1           1           1           1           1           1
 AtmWgt=   1.0078250   1.0078250   1.0078250   1.0078250   1.0078250   1.0078250   1.0078250   1.0078250
 NucSpn=           1           1           1           1           1           1           1           1
 AtZEff=   0.0000000   0.0000000   0.0000000   0.0000000   0.0000000   0.0000000   0.0000000   0.0000000
 NQMom=    0.0000000   0.0000000   0.0000000   0.0000000   0.0000000   0.0000000   0.0000000   0.0000000
 NMagM=    2.7928460   2.7928460   2.7928460   2.7928460   2.7928460   2.7928460   2.7928460   2.7928460
 Leave Link  101 at Thu Sep 30 14:37:32 2021, MaxMem= 1073741824 cpu:       0.2
 (Enter /sw/target/amd/app/gaussian/Gaussian09RevA.02_gcc-4.9.2/g09/l103.exe)

 GradGradGradGradGradGradGradGradGradGradGradGradGradGradGradGradGradGrad
 Berny optimization.
 Initialization pass.
                           ----------------------------
                           !    Initial Parameters    !
                           ! (Angstroms and Degrees)  !
 --------------------------                            --------------------------
 ! Name  Definition              Value          Derivative Info.                !
 --------------------------------------------------------------------------------
 ! R1    R(1,2)                  1.4296         estimate D2E/DX2                !
 ! R2    R(1,17)                 1.094          estimate D2E/DX2                !
 ! R3    R(1,18)                 1.097          estimate D2E/DX2                !
 ! R4    R(1,19)                 1.0943         estimate D2E/DX2                !
 ! R5    R(2,3)                  1.3746         estimate D2E/DX2                !
 ! R6    R(3,4)                  1.3918         estimate D2E/DX2                !
 ! R7    R(3,12)                 1.4055         estimate D2E/DX2                !
 ! R8    R(4,5)                  1.3951         estimate D2E/DX2                !
 ! R9    R(4,20)                 1.0873         estimate D2E/DX2                !
 ! R10   R(5,6)                  1.4058         estimate D2E/DX2                !
 ! R11   R(5,10)                 1.4198         estimate D2E/DX2                !
 ! R12   R(6,7)                  1.3919         estimate D2E/DX2                !
 ! R13   R(6,21)                 1.0885         estimate D2E/DX2                !
 ! R14   R(7,8)                  1.3859         estimate D2E/DX2                !
 ! R15   R(7,22)                 1.0865         estimate D2E/DX2                !
 ! R16   R(8,9)                  1.3984         estimate D2E/DX2                !
 ! R17   R(8,23)                 1.0869         estimate D2E/DX2                !
 ! R18   R(9,10)                 1.4184         estimate D2E/DX2                !
 ! R19   R(9,24)                 1.0863         estimate D2E/DX2                !
 ! R20   R(10,11)                1.4434         estimate D2E/DX2                !
 ! R21   R(11,12)                1.4192         estimate D2E/DX2                !
 ! R22   R(11,16)                1.4194         estimate D2E/DX2                !
 ! R23   R(12,13)                1.4127         estimate D2E/DX2                !
 ! R24   R(13,14)                1.3916         estimate D2E/DX2                !
 ! R25   R(13,25)                1.0884         estimate D2E/DX2                !
 ! R26   R(14,15)                1.3841         estimate D2E/DX2                !
 ! R27   R(14,26)                1.0863         estimate D2E/DX2                !
 ! R28   R(15,16)                1.398          estimate D2E/DX2                !
 ! R29   R(15,27)                1.0868         estimate D2E/DX2                !
 ! R30   R(16,28)                1.0861         estimate D2E/DX2                !
 ! A1    A(2,1,17)             108.6924         estimate D2E/DX2                !
 ! A2    A(2,1,18)             114.0503         estimate D2E/DX2                !
 ! A3    A(2,1,19)             108.0571         estimate D2E/DX2                !
 ! A4    A(17,1,18)            109.1499         estimate D2E/DX2                !
 ! A5    A(17,1,19)            108.4254         estimate D2E/DX2                !
 ! A6    A(18,1,19)            108.3292         estimate D2E/DX2                !
 ! A7    A(1,2,3)              110.5662         estimate D2E/DX2                !
 ! A8    A(2,3,4)              117.5263         estimate D2E/DX2                !
 ! A9    A(2,3,12)             120.6855         estimate D2E/DX2                !
 ! A10   A(4,3,12)             121.7422         estimate D2E/DX2                !
 ! A11   A(3,4,5)              120.4601         estimate D2E/DX2                !
 ! A12   A(3,4,20)             118.8336         estimate D2E/DX2                !
 ! A13   A(5,4,20)             120.7063         estimate D2E/DX2                !
 ! A14   A(4,5,6)              119.3815         estimate D2E/DX2                !
 ! A15   A(4,5,10)             119.953          estimate D2E/DX2                !
 ! A16   A(6,5,10)             120.6655         estimate D2E/DX2                !
 ! A17   A(5,6,7)              121.1242         estimate D2E/DX2                !
 ! A18   A(5,6,21)             120.3816         estimate D2E/DX2                !
 ! A19   A(7,6,21)             118.4943         estimate D2E/DX2                !
 ! A20   A(6,7,8)              119.4933         estimate D2E/DX2                !
 ! A21   A(6,7,22)             120.2162         estimate D2E/DX2                !
 ! A22   A(8,7,22)             120.2905         estimate D2E/DX2                !
 ! A23   A(7,8,9)              119.8983         estimate D2E/DX2                !
 ! A24   A(7,8,23)             120.1629         estimate D2E/DX2                !
 ! A25   A(9,8,23)             119.9387         estimate D2E/DX2                !
 ! A26   A(8,9,10)             122.4123         estimate D2E/DX2                !
 ! A27   A(8,9,24)             116.7415         estimate D2E/DX2                !
 ! A28   A(10,9,24)            120.8459         estimate D2E/DX2                !
 ! A29   A(5,10,9)             116.4057         estimate D2E/DX2                !
 ! A30   A(5,10,11)            119.3862         estimate D2E/DX2                !
 ! A31   A(9,10,11)            124.207          estimate D2E/DX2                !
 ! A32   A(10,11,12)           119.4972         estimate D2E/DX2                !
 ! A33   A(10,11,16)           123.7507         estimate D2E/DX2                !
 ! A34   A(12,11,16)           116.7517         estimate D2E/DX2                !
 ! A35   A(3,12,11)            118.9185         estimate D2E/DX2                !
 ! A36   A(3,12,13)            121.2016         estimate D2E/DX2                !
 ! A37   A(11,12,13)           119.8798         estimate D2E/DX2                !
 ! A38   A(12,13,14)           121.6334         estimate D2E/DX2                !
 ! A39   A(12,13,25)           120.0678         estimate D2E/DX2                !
 ! A40   A(14,13,25)           118.2975         estimate D2E/DX2                !
 ! A41   A(13,14,15)           119.357          estimate D2E/DX2                !
 ! A42   A(13,14,26)           120.16           estimate D2E/DX2                !
 ! A43   A(15,14,26)           120.4827         estimate D2E/DX2                !
 ! A44   A(14,15,16)           119.8534         estimate D2E/DX2                !
 ! A45   A(14,15,27)           120.1637         estimate D2E/DX2                !
 ! A46   A(16,15,27)           119.9818         estimate D2E/DX2                !
 ! A47   A(11,16,15)           122.5178         estimate D2E/DX2                !
 ! A48   A(11,16,28)           120.8148         estimate D2E/DX2                !
 ! A49   A(15,16,28)           116.667          estimate D2E/DX2                !
 ! D1    D(17,1,2,3)           112.8511         estimate D2E/DX2                !
 ! D2    D(18,1,2,3)            -9.1692         estimate D2E/DX2                !
 ! D3    D(19,1,2,3)          -129.6805         estimate D2E/DX2                !
 ! D4    D(1,2,3,4)            -88.4712         estimate D2E/DX2                !
 ! D5    D(1,2,3,12)            93.9515         estimate D2E/DX2                !
 ! D6    D(2,3,4,5)           -179.6615         estimate D2E/DX2                !
 ! D7    D(2,3,4,20)             0.3254         estimate D2E/DX2                !
 ! D8    D(12,3,4,5)            -2.1115         estimate D2E/DX2                !
 ! D9    D(12,3,4,20)          177.8754         estimate D2E/DX2                !
 ! D10   D(2,3,12,11)          179.9642         estimate D2E/DX2                !
 ! D11   D(2,3,12,13)           -0.1485         estimate D2E/DX2                !
 ! D12   D(4,3,12,11)            2.4906         estimate D2E/DX2                !
 ! D13   D(4,3,12,13)         -177.622          estimate D2E/DX2                !
 ! D14   D(3,4,5,6)           -179.5145         estimate D2E/DX2                !
 ! D15   D(3,4,5,10)             0.4748         estimate D2E/DX2                !
 ! D16   D(20,4,5,6)             0.4988         estimate D2E/DX2                !
 ! D17   D(20,4,5,10)         -179.5119         estimate D2E/DX2                !
 ! D18   D(4,5,6,7)            179.764          estimate D2E/DX2                !
 ! D19   D(4,5,6,21)            -0.2872         estimate D2E/DX2                !
 ! D20   D(10,5,6,7)            -0.2251         estimate D2E/DX2                !
 ! D21   D(10,5,6,21)          179.7236         estimate D2E/DX2                !
 ! D22   D(4,5,10,9)          -179.6678         estimate D2E/DX2                !
 ! D23   D(4,5,10,11)            0.6913         estimate D2E/DX2                !
 ! D24   D(6,5,10,9)             0.3213         estimate D2E/DX2                !
 ! D25   D(6,5,10,11)         -179.3196         estimate D2E/DX2                !
 ! D26   D(5,6,7,8)             -0.0162         estimate D2E/DX2                !
 ! D27   D(5,6,7,22)           179.9395         estimate D2E/DX2                !
 ! D28   D(21,6,7,8)          -179.9659         estimate D2E/DX2                !
 ! D29   D(21,6,7,22)           -0.0102         estimate D2E/DX2                !
 ! D30   D(6,7,8,9)              0.1433         estimate D2E/DX2                !
 ! D31   D(6,7,8,23)           179.9758         estimate D2E/DX2                !
 ! D32   D(22,7,8,9)          -179.8123         estimate D2E/DX2                !
 ! D33   D(22,7,8,23)            0.0202         estimate D2E/DX2                !
 ! D34   D(7,8,9,10)            -0.0327         estimate D2E/DX2                !
 ! D35   D(7,8,9,24)           179.7924         estimate D2E/DX2                !
 ! D36   D(23,8,9,10)         -179.8655         estimate D2E/DX2                !
 ! D37   D(23,8,9,24)           -0.0404         estimate D2E/DX2                !
 ! D38   D(8,9,10,5)            -0.1973         estimate D2E/DX2                !
 ! D39   D(8,9,10,11)          179.4243         estimate D2E/DX2                !
 ! D40   D(24,9,10,5)          179.9846         estimate D2E/DX2                !
 ! D41   D(24,9,10,11)          -0.3938         estimate D2E/DX2                !
 ! D42   D(5,10,11,12)          -0.28           estimate D2E/DX2                !
 ! D43   D(5,10,11,16)         179.4856         estimate D2E/DX2                !
 ! D44   D(9,10,11,12)        -179.891          estimate D2E/DX2                !
 ! D45   D(9,10,11,16)          -0.1255         estimate D2E/DX2                !
 ! D46   D(10,11,12,3)          -1.2689         estimate D2E/DX2                !
 ! D47   D(10,11,12,13)        178.8422         estimate D2E/DX2                !
 ! D48   D(16,11,12,3)         178.9495         estimate D2E/DX2                !
 ! D49   D(16,11,12,13)         -0.9395         estimate D2E/DX2                !
 ! D50   D(10,11,16,15)       -179.3285         estimate D2E/DX2                !
 ! D51   D(10,11,16,28)          0.4461         estimate D2E/DX2                !
 ! D52   D(12,11,16,15)          0.4429         estimate D2E/DX2                !
 ! D53   D(12,11,16,28)       -179.7824         estimate D2E/DX2                !
 ! D54   D(3,12,13,14)        -179.067          estimate D2E/DX2                !
 ! D55   D(3,12,13,25)           1.3497         estimate D2E/DX2                !
 ! D56   D(11,12,13,14)          0.8193         estimate D2E/DX2                !
 ! D57   D(11,12,13,25)       -178.7639         estimate D2E/DX2                !
 ! D58   D(12,13,14,15)         -0.1367         estimate D2E/DX2                !
 ! D59   D(12,13,14,26)       -179.978          estimate D2E/DX2                !
 ! D60   D(25,13,14,15)        179.4537         estimate D2E/DX2                !
 ! D61   D(25,13,14,26)         -0.3876         estimate D2E/DX2                !
 ! D62   D(13,14,15,16)         -0.3791         estimate D2E/DX2                !
 ! D63   D(13,14,15,27)        179.9945         estimate D2E/DX2                !
 ! D64   D(26,14,15,16)        179.4617         estimate D2E/DX2                !
 ! D65   D(26,14,15,27)         -0.1647         estimate D2E/DX2                !
 ! D66   D(14,15,16,11)          0.2198         estimate D2E/DX2                !
 ! D67   D(14,15,16,28)       -179.5637         estimate D2E/DX2                !
 ! D68   D(27,15,16,11)        179.8469         estimate D2E/DX2                !
 ! D69   D(27,15,16,28)          0.0634         estimate D2E/DX2                !
 --------------------------------------------------------------------------------
 Trust Radius=3.00D-01 FncErr=1.00D-07 GrdErr=1.00D-06
 Number of steps in this run= 158 maximum allowed number of steps= 168.
 GradGradGradGradGradGradGradGradGradGradGradGradGradGradGradGradGradGrad

 Leave Link  103 at Thu Sep 30 14:37:32 2021, MaxMem= 1073741824 cpu:       0.0
 (Enter /sw/target/amd/app/gaussian/Gaussian09RevA.02_gcc-4.9.2/g09/l202.exe)
                          Input orientation:                          
 ---------------------------------------------------------------------
 Center     Atomic      Atomic             Coordinates (Angstroms)
 Number     Number       Type             X           Y           Z
 ---------------------------------------------------------------------
      1          6           0        1.332309   -0.119495    0.033812
      2          8           0        2.528915   -0.675084    0.584557
      3          6           0        3.055262    0.162273    1.539116
      4          6           0        3.941767    1.146894    1.112806
      5          6           0        4.517766    2.025487    2.030807
      6          6           0        5.402289    3.018031    1.574052
      7          6           0        5.993627    3.916530    2.457413
      8          6           0        5.706028    3.832447    3.810574
      9          6           0        4.829715    2.847585    4.277052
     10          6           0        4.207929    1.911469    3.411672
     11          6           0        3.307642    0.872813    3.852119
     12          6           0        2.742590   -0.013010    2.898129
     13          6           0        1.879740   -1.047779    3.323044
     14          6           0        1.548937   -1.217754    4.664068
     15          6           0        2.078647   -0.355320    5.608239
     16          6           0        2.942934    0.668243    5.208573
     17          1           0        1.515268    0.138634   -1.013419
     18          1           0        0.965969    0.768006    0.564508
     19          1           0        0.553819   -0.887719    0.069765
     20          1           0        4.176511    1.218125    0.053559
     21          1           0        5.640055    3.098425    0.514909
     22          1           0        6.675932    4.677289    2.088420
     23          1           0        6.161980    4.528239    4.510055
     24          1           0        4.643452    2.826091    5.347021
     25          1           0        1.460648   -1.741242    2.596327
     26          1           0        0.883273   -2.021954    4.964289
     27          1           0        1.829029   -0.476003    6.659063
     28          1           0        3.333930    1.310003    5.992680
 ---------------------------------------------------------------------
                    Distance matrix (angstroms):
                    1          2          3          4          5
     1  C    0.000000
     2  O    1.429638   0.000000
     3  C    2.305190   1.374551   0.000000
     4  C    3.094712   2.365333   1.391800   0.000000
     5  C    4.328519   3.652431   2.419141   1.395144   0.000000
     6  C    5.364807   4.782727   3.696634   2.418063   1.405756
     7  C    6.625045   6.049359   4.855069   3.699863   2.436432
     8  C    7.000800   6.388980   5.065201   4.195565   2.800829
     9  C    6.248240   5.597982   4.225622   3.700440   2.412213
    10  C    4.878929   4.183530   2.809767   2.437253   1.419784
    11  C    4.412039   3.698563   2.432807   2.825080   2.471889
    12  C    3.194455   2.415908   1.405491   2.443518   2.838832
    13  C    3.461277   2.838950   2.455296   3.735465   4.251355
    14  C    4.763651   4.230514   3.733472   4.891692   5.125097
    15  C    5.629109   5.053946   4.216568   5.092817   4.941211
    16  C    5.476568   4.832956   3.705879   4.242886   3.797421
    17  H    1.093982   2.059889   2.981204   3.380135   4.673598
    18  H    1.097043   2.127372   2.383677   3.049518   4.043087
    19  H    1.094307   2.052128   3.085238   4.087270   5.295784
    20  H    3.143105   2.565302   2.139837   1.087282   2.162822
    21  H    5.398439   4.891157   4.043654   2.655210   2.169948
    22  H    7.468927   6.935940   5.813463   4.570687   3.419511
    23  H    8.060019   7.462122   6.126975   5.282437   3.887656
    24  H    6.918839   6.277783   4.911050   4.608758   3.413801
    25  H    3.035295   2.514976   2.698863   4.086333   4.884059
    26  H    5.303828   4.868701   4.606539   5.850633   6.180343
    27  H    6.653404   6.117932   5.303292   6.152920   5.908258
    28  H    6.446554   5.816907   4.607512   4.920289   4.196406
                    6          7          8          9         10
     6  C    0.000000
     7  C    1.391872   0.000000
     8  C    2.399492   1.385940   0.000000
     9  C    2.768231   2.410066   1.398384   0.000000
    10  C    2.455162   2.849491   2.468518   1.418384   0.000000
    11  C    3.765514   4.292311   3.809648   2.529229   1.443370
    12  C    4.244336   5.119058   4.939844   3.800069   2.472764
    13  C    5.656689   6.505209   6.220512   4.978589   3.766360
    14  C    6.506796   7.140411   6.596544   5.238346   4.293107
    15  C    6.220993   6.595716   5.824679   4.427080   3.807503
    16  C    4.977919   5.237077   4.427333   3.029391   2.524812
    17  H    5.485878   6.809909   7.380896   6.805370   5.474924
    18  H    5.075699   6.226847   6.511213   5.747709   4.463648
    19  H    6.405109   7.640234   7.925836   7.066615   5.688262
    20  H    2.655954   4.044974   4.825895   4.573807   3.429087
    21  H    1.088476   2.137201   3.377062   3.856590   3.442540
    22  H    2.154038   1.086485   2.149485   3.398006   3.935962
    23  H    3.387915   2.148457   1.086872   2.157270   3.445612
    24  H    3.853307   3.370737   2.121907   1.086274   2.184443
    25  H    6.263566   7.251040   7.110813   5.935722   4.642698
    26  H    7.570777   8.225919   7.672290   6.305483   5.379198
    27  H    7.129782   7.368316   6.458154   5.071916   4.680250
    28  H    5.169114   5.134791   4.092817   2.746800   2.790562
                   11         12         13         14         15
    11  C    0.000000
    12  C    1.419177   0.000000
    13  C    2.451020   1.412731   0.000000
    14  C    2.850048   2.448419   1.391642   0.000000
    15  C    2.470363   2.811173   2.396076   1.384141   0.000000
    16  C    1.419446   2.417105   2.762306   2.407633   1.398001
    17  H    5.236896   4.102380   4.510580   5.837360   6.663913
    18  H    4.037673   3.035153   3.426598   4.592329   5.285748
    19  H    4.998922   3.681776   3.516747   4.712409   5.769163
    20  H    3.911935   3.415172   4.593366   5.839045   6.142576
    21  H    4.640094   4.874019   6.262316   7.251356   7.110133
    22  H    5.378667   6.174602   7.569951   8.226273   7.671461
    23  H    4.684256   5.908762   7.130115   7.370232   6.459780
    24  H    2.799002   4.203670   5.171214   5.137619   4.094855
    25  H    3.438268   2.172843   1.088415   2.134804   3.372583
    26  H    3.936263   3.429568   2.153056   1.086269   2.149712
    27  H    3.447395   3.897895   3.385044   2.146777   1.086786
    28  H    2.184908   3.417059   3.847176   3.367635   2.120573
                   16         17         18         19         20
    16  C    0.000000
    17  H    6.405615   0.000000
    18  H    5.048334   1.785411   0.000000
    19  H    5.876754   1.775126   1.776532   0.000000
    20  H    5.329001   3.063651   3.281959   4.190315   0.000000
    21  H    5.933863   5.301888   5.223063   6.477445   2.427001
    22  H    6.304211   7.540109   7.085794   8.516135   4.727957
    23  H    5.074421   8.448036   7.530286   8.972192   5.895701
    24  H    2.750861   7.580446   6.374325   7.639824   5.551967
    25  H    3.850535   4.070280   3.266393   2.816799   4.753887
    26  H    3.396916   6.387531   5.210450   5.035017   6.742315
    27  H    2.157314   7.703454   6.279811   6.724174   7.212034
    28  H    1.086074   7.332466   5.946936   6.902168   5.999295
                   21         22         23         24         25
    21  H    0.000000
    22  H    2.458005   0.000000
    23  H    4.275273   2.480056   0.000000
    24  H    4.941325   4.263378   2.429763   0.000000
    25  H    6.724740   8.285813   8.066676   6.209436   0.000000
    26  H    8.285061   9.311573   8.424731   6.147274   2.453448
    27  H    8.065425   8.422569   6.959535   4.532798   4.271108
    28  H    6.206660   6.144171   4.533550   2.104814   4.935028
                   26         27         28
    26  H    0.000000
    27  H    2.481265   0.000000
    28  H    4.262071   2.428706   0.000000
 Stoichiometry    C15H12O
 Framework group  C1[X(C15H12O)]
 Deg. of freedom    78
 Full point group                 C1      NOp   1
 Largest Abelian subgroup         C1      NOp   1
 Largest concise Abelian subgroup C1      NOp   1
                         Standard orientation:                         
 ---------------------------------------------------------------------
 Center     Atomic      Atomic             Coordinates (Angstroms)
 Number     Number       Type             X           Y           Z
 ---------------------------------------------------------------------
      1          6           0        2.341113   -2.739601    0.811908
      2          8           0        1.942908   -2.202616   -0.451796
      3          6           0        0.943844   -1.272840   -0.288161
      4          6           0       -0.369706   -1.732936   -0.290509
      5          6           0       -1.431656   -0.841367   -0.136247
      6          6           0       -2.749006   -1.331995   -0.131743
      7          6           0       -3.835122   -0.475691    0.024473
      8          6           0       -3.615366    0.884004    0.178628
      9          6           0       -2.309460    1.384062    0.173103
     10          6           0       -1.175485    0.546964    0.014424
     11          6           0        0.187139    1.022382   -0.009048
     12          6           0        1.248094    0.094748   -0.176181
     13          6           0        2.583257    0.553851   -0.224905
     14          6           0        2.896105    1.903714   -0.095823
     15          6           0        1.876387    2.822614    0.082066
     16          6           0        0.547966    2.388915    0.122169
     17          1           0        2.053671   -3.794425    0.850902
     18          1           0        1.910801   -2.217188    1.675284
     19          1           0        3.431461   -2.675514    0.879296
     20          1           0       -0.552172   -2.797576   -0.414733
     21          1           0       -2.940313   -2.396746   -0.252106
     22          1           0       -4.847248   -0.870724    0.024746
     23          1           0       -4.455523    1.562565    0.301027
     24          1           0       -2.196641    2.457636    0.294357
     25          1           0        3.397800   -0.152688   -0.373129
     26          1           0        3.931250    2.230421   -0.137269
     27          1           0        2.105817    3.879966    0.184408
     28          1           0       -0.210803    3.154251    0.256664
 ---------------------------------------------------------------------
 Rotational constants (GHZ):      0.8204263      0.4844695      0.3123595
 Leave Link  202 at Thu Sep 30 14:37:32 2021, MaxMem= 1073741824 cpu:       0.1
 (Enter /sw/target/amd/app/gaussian/Gaussian09RevA.02_gcc-4.9.2/g09/l301.exe)
 Standard basis: 6-31G(d) (6D, 7F)
 Ernie: Thresh=  0.10000D-02 Tol=  0.10000D-05 Strict=F.
 There are   264 symmetry adapted basis functions of A   symmetry.
 Integral buffers will be    131072 words long.
 Raffenetti 2 integral format.
 Two-electron integral symmetry is turned on.
   264 basis functions,   496 primitive gaussians,   264 cartesian basis functions
    55 alpha electrons       55 beta electrons
       nuclear repulsion energy      1003.3352933554 Hartrees.
 IExCor=  402 DFT=T Ex+Corr=B3LYP ExCW=0 ScaHFX=  0.200000
 ScaDFX=  0.800000  0.720000  1.000000  0.810000 ScalE2=  1.000000  1.000000
 IRadAn=      0 IRanWt=     -1 IRanGd=            0 ICorTp=0
 NAtoms=   28 NActive=   28 NUniq=   28 SFac= 7.50D-01 NAtFMM=   80 NAOKFM=F Big=F
 Leave Link  301 at Thu Sep 30 14:37:32 2021, MaxMem= 1073741824 cpu:       0.1
 (Enter /sw/target/amd/app/gaussian/Gaussian09RevA.02_gcc-4.9.2/g09/l302.exe)
 NPDir=0 NMtPBC=     1 NCelOv=     1 NCel=       1 NClECP=     1 NCelD=      1
         NCelK=      1 NCelE2=     1 NClLst=     1 CellRange=     0.0.
 One-electron integrals computed using PRISM.
 NBasis=   264 RedAO= T  NBF=   264
 NBsUse=   264 1.00D-06 NBFU=   264
 Precomputing XC quadrature grid using
 IXCGrd= 2 IRadAn=           0 IRanWt=          -1 IRanGd=           0 AccXCQ= 1.00D-10.
 NRdTot=    1769 NPtTot=      224854 NUsed=      237614 NTot=      237646
 NSgBfM=   263   263   263   263   263 NAtAll=    28    28.
 Leave Link  302 at Thu Sep 30 14:37:36 2021, MaxMem= 1073741824 cpu:       2.2
 (Enter /sw/target/amd/app/gaussian/Gaussian09RevA.02_gcc-4.9.2/g09/l303.exe)
 DipDrv:  MaxL=1.
 Leave Link  303 at Thu Sep 30 14:37:37 2021, MaxMem= 1073741824 cpu:       0.2
 (Enter /sw/target/amd/app/gaussian/Gaussian09RevA.02_gcc-4.9.2/g09/l401.exe)
 Harris functional with IExCor=  402 diagonalized for initial guess.
 ExpMin= 1.61D-01 ExpMax= 5.48D+03 ExpMxC= 8.25D+02 IAcc=1 IRadAn=         1 AccDes= 0.00D+00
 HarFok:  IExCor=  402 AccDes= 0.00D+00 IRadAn=         1 IDoV= 1
 ScaDFX=  1.000000  1.000000  1.000000  1.000000
 FoFCou: FMM=F IPFlag=           0 FMFlag=      100000 FMFlg1=           0
         NFxFlg=           0 DoJE=T BraDBF=F KetDBF=T FulRan=T
         Omega=  0.000000  0.000000  1.000000  0.000000  0.000000 ICntrl=     500 IOpCl=  0
         NMat0=    1 NMatS0=    1 NMatT0=    0 NMatD0=    1 NMtDS0=    0 NMtDT0=    0
         I1Cent=           4 NGrid=           0.
 Petite list used in FoFCou.
 Harris En= -654.114024048023    
 Initial guess orbital symmetries:
       Occupied  (A) (A) (A) (A) (A) (A) (A) (A) (A) (A) (A) (A)
                 (A) (A) (A) (A) (A) (A) (A) (A) (A) (A) (A) (A)
                 (A) (A) (A) (A) (A) (A) (A) (A) (A) (A) (A) (A)
                 (A) (A) (A) (A) (A) (A) (A) (A) (A) (A) (A) (A)
                 (A) (A) (A) (A) (A) (A) (A)
       Virtual   (A) (A) (A) (A) (A) (A) (A) (A) (A) (A) (A) (A)
                 (A) (A) (A) (A) (A) (A) (A) (A) (A) (A) (A) (A)
                 (A) (A) (A) (A) (A) (A) (A) (A) (A) (A) (A) (A)
                 (A) (A) (A) (A) (A) (A) (A) (A) (A) (A) (A) (A)
                 (A) (A) (A) (A) (A) (A) (A) (A) (A) (A) (A) (A)
                 (A) (A) (A) (A) (A) (A) (A) (A) (A) (A) (A) (A)
                 (A) (A) (A) (A) (A) (A) (A) (A) (A) (A) (A) (A)
                 (A) (A) (A) (A) (A) (A) (A) (A) (A) (A) (A) (A)
                 (A) (A) (A) (A) (A) (A) (A) (A) (A) (A) (A) (A)
                 (A) (A) (A) (A) (A) (A) (A) (A) (A) (A) (A) (A)
                 (A) (A) (A) (A) (A) (A) (A) (A) (A) (A) (A) (A)
                 (A) (A) (A) (A) (A) (A) (A) (A) (A) (A) (A) (A)
                 (A) (A) (A) (A) (A) (A) (A) (A) (A) (A) (A) (A)
                 (A) (A) (A) (A) (A) (A) (A) (A) (A) (A) (A) (A)
                 (A) (A) (A) (A) (A) (A) (A) (A) (A) (A) (A) (A)
                 (A) (A) (A) (A) (A) (A) (A) (A) (A) (A) (A) (A)
                 (A) (A) (A) (A) (A) (A) (A) (A) (A) (A) (A) (A)
                 (A) (A) (A) (A) (A)
 The electronic state of the initial guess is 1-A.
 Leave Link  401 at Thu Sep 30 14:37:50 2021, MaxMem= 1073741824 cpu:      10.4
 (Enter /sw/target/amd/app/gaussian/Gaussian09RevA.02_gcc-4.9.2/g09/l502.exe)
 Closed shell SCF:
 Requested convergence on RMS density matrix=1.00D-08 within  64 cycles.
 Requested convergence on MAX density matrix=1.00D-06.
 Requested convergence on             energy=1.00D-06.
 No special actions if energy rises.
 Using DIIS extrapolation, IDIIS=  1040.
 Integral symmetry usage will be decided dynamically.
       237349 words used for storage of precomputed grid.
 Keep R1 ints in memory in canonical form, NReq=621577935.
 IEnd=      455551 IEndB=      455551 NGot=  1073741824 MDV=   461542740
 LenX=   461542740 LenY=   461472603
 Symmetry not used in FoFDir.
 MinBra= 0 MaxBra= 2 Meth= 1.
 IRaf=       0 NMat=   1 IRICut=       1 DoRegI=T DoRafI=F ISym2E= 0 JSym2E=0.
 Integral accuracy reduced to 1.0D-05 until final iterations.

 Cycle   1  Pass 0  IDiag  1:
 E= -653.711582207822    
 DIIS: error= 4.22D-02 at cycle   1 NSaved=   1.
 NSaved= 1 IEnMin= 1 EnMin= -653.711582207822     IErMin= 1 ErrMin= 4.22D-02
 ErrMax= 4.22D-02 EMaxC= 1.00D-01 BMatC= 3.03D-01 BMatP= 3.03D-01
 IDIUse=3 WtCom= 5.78D-01 WtEn= 4.22D-01
 Coeff-Com:  0.100D+01
 Coeff-En:   0.100D+01
 Coeff:      0.100D+01
 Gap=     0.163 Goal=   None    Shift=    0.000
 GapD=    0.163 DampG=1.000 DampE=0.500 DampFc=0.5000 IDamp=-1.
 Damping current iteration by 5.00D-01
 RMSDP=5.71D-03 MaxDP=1.23D-01              OVMax= 1.89D-01

 Cycle   2  Pass 0  IDiag  1:
 E= -653.870902055842     Delta-E=       -0.159319848020 Rises=F Damp=T
 DIIS: error= 7.28D-03 at cycle   2 NSaved=   2.
 NSaved= 2 IEnMin= 2 EnMin= -653.870902055842     IErMin= 2 ErrMin= 7.28D-03
 ErrMax= 7.28D-03 EMaxC= 1.00D-01 BMatC= 1.96D-02 BMatP= 3.03D-01
 IDIUse=3 WtCom= 9.27D-01 WtEn= 7.28D-02
 Coeff-Com:  0.108D-03 0.100D+01
 Coeff-En:   0.000D+00 0.100D+01
 Coeff:      0.997D-04 0.100D+01
 Gap=     0.171 Goal=   None    Shift=    0.000
 RMSDP=1.92D-03 MaxDP=5.52D-02 DE=-1.59D-01 OVMax= 1.80D-01

 Cycle   3  Pass 0  IDiag  1:
 E= -654.023714085168     Delta-E=       -0.152812029326 Rises=F Damp=F
 DIIS: error= 6.12D-03 at cycle   3 NSaved=   3.
 NSaved= 3 IEnMin= 3 EnMin= -654.023714085168     IErMin= 3 ErrMin= 6.12D-03
 ErrMax= 6.12D-03 EMaxC= 1.00D-01 BMatC= 2.07D-02 BMatP= 1.96D-02
 IDIUse=3 WtCom= 9.39D-01 WtEn= 6.12D-02
 Coeff-Com: -0.513D-01 0.537D+00 0.514D+00
 Coeff-En:   0.000D+00 0.000D+00 0.100D+01
 Coeff:     -0.482D-01 0.504D+00 0.544D+00
 Gap=     0.167 Goal=   None    Shift=    0.000
 RMSDP=9.77D-04 MaxDP=4.64D-02 DE=-1.53D-01 OVMax= 9.95D-02

 Cycle   4  Pass 0  IDiag  1:
 E= -654.038572871554     Delta-E=       -0.014858786387 Rises=F Damp=F
 DIIS: error= 4.03D-03 at cycle   4 NSaved=   4.
 NSaved= 4 IEnMin= 4 EnMin= -654.038572871554     IErMin= 4 ErrMin= 4.03D-03
 ErrMax= 4.03D-03 EMaxC= 1.00D-01 BMatC= 6.65D-03 BMatP= 1.96D-02
 IDIUse=3 WtCom= 9.60D-01 WtEn= 4.03D-02
 Coeff-Com: -0.251D-01 0.132D+00 0.372D+00 0.521D+00
 Coeff-En:   0.000D+00 0.000D+00 0.298D+00 0.702D+00
 Coeff:     -0.241D-01 0.127D+00 0.369D+00 0.528D+00
 Gap=     0.162 Goal=   None    Shift=    0.000
 RMSDP=4.54D-04 MaxDP=1.43D-02 DE=-1.49D-02 OVMax= 3.88D-02

 Cycle   5  Pass 0  IDiag  1:
 E= -654.046086610290     Delta-E=       -0.007513738735 Rises=F Damp=F
 DIIS: error= 7.25D-04 at cycle   5 NSaved=   5.
 NSaved= 5 IEnMin= 5 EnMin= -654.046086610290     IErMin= 5 ErrMin= 7.25D-04
 ErrMax= 7.25D-04 EMaxC= 1.00D-01 BMatC= 2.31D-04 BMatP= 6.65D-03
 IDIUse=3 WtCom= 9.93D-01 WtEn= 7.25D-03
 Coeff-Com: -0.864D-02 0.320D-01 0.151D+00 0.267D+00 0.558D+00
 Coeff-En:   0.000D+00 0.000D+00 0.000D+00 0.000D+00 0.100D+01
 Coeff:     -0.857D-02 0.318D-01 0.150D+00 0.266D+00 0.562D+00
 Gap=     0.161 Goal=   None    Shift=    0.000
 RMSDP=8.99D-05 MaxDP=2.34D-03 DE=-7.51D-03 OVMax= 5.48D-03

 Cycle   6  Pass 0  IDiag  1:
 E= -654.046296568407     Delta-E=       -0.000209958117 Rises=F Damp=F
 DIIS: error= 2.39D-04 at cycle   6 NSaved=   6.
 NSaved= 6 IEnMin= 6 EnMin= -654.046296568407     IErMin= 6 ErrMin= 2.39D-04
 ErrMax= 2.39D-04 EMaxC= 1.00D-01 BMatC= 3.20D-05 BMatP= 2.31D-04
 IDIUse=3 WtCom= 9.98D-01 WtEn= 2.39D-03
 Coeff-Com: -0.191D-02 0.305D-02 0.430D-01 0.914D-01 0.320D+00 0.544D+00
 Coeff-En:   0.000D+00 0.000D+00 0.000D+00 0.000D+00 0.916D-01 0.908D+00
 Coeff:     -0.191D-02 0.304D-02 0.429D-01 0.912D-01 0.320D+00 0.545D+00
 Gap=     0.162 Goal=   None    Shift=    0.000
 RMSDP=2.62D-05 MaxDP=9.03D-04 DE=-2.10D-04 OVMax= 1.78D-03

 Cycle   7  Pass 0  IDiag  1:
 E= -654.046328120749     Delta-E=       -0.000031552342 Rises=F Damp=F
 DIIS: error= 6.86D-05 at cycle   7 NSaved=   7.
 NSaved= 7 IEnMin= 7 EnMin= -654.046328120749     IErMin= 7 ErrMin= 6.86D-05
 ErrMax= 6.86D-05 EMaxC= 1.00D-01 BMatC= 1.27D-06 BMatP= 3.20D-05
 IDIUse=1 WtCom= 1.00D+00 WtEn= 0.00D+00
 Coeff-Com: -0.577D-03 0.238D-03 0.159D-01 0.353D-01 0.140D+00 0.281D+00
 Coeff-Com:  0.527D+00
 Coeff:     -0.577D-03 0.238D-03 0.159D-01 0.353D-01 0.140D+00 0.281D+00
 Coeff:      0.527D+00
 Gap=     0.162 Goal=   None    Shift=    0.000
 RMSDP=6.72D-06 MaxDP=2.07D-04 DE=-3.16D-05 OVMax= 5.19D-04

 Initial convergence to 1.0D-05 achieved.  Increase integral accuracy.
 Cycle   8  Pass 1  IDiag  1:
 E= -654.046304021446     Delta-E=        0.000024099303 Rises=F Damp=F
 DIIS: error= 2.46D-05 at cycle   1 NSaved=   1.
 NSaved= 1 IEnMin= 1 EnMin= -654.046304021446     IErMin= 1 ErrMin= 2.46D-05
 ErrMax= 2.46D-05 EMaxC= 1.00D-01 BMatC= 2.54D-07 BMatP= 2.54D-07
 IDIUse=1 WtCom= 1.00D+00 WtEn= 0.00D+00
 Coeff-Com:  0.100D+01
 Coeff:      0.100D+01
 Gap=     0.162 Goal=   None    Shift=    0.000
 RMSDP=6.72D-06 MaxDP=2.07D-04 DE= 2.41D-05 OVMax= 4.59D-04

 Cycle   9  Pass 1  IDiag  1:
 E= -654.046303564425     Delta-E=        0.000000457022 Rises=F Damp=F
 DIIS: error= 4.34D-05 at cycle   2 NSaved=   2.
 NSaved= 2 IEnMin= 1 EnMin= -654.046304021446     IErMin= 1 ErrMin= 2.46D-05
 ErrMax= 4.34D-05 EMaxC= 1.00D-01 BMatC= 6.75D-07 BMatP= 2.54D-07
 IDIUse=1 WtCom= 1.00D+00 WtEn= 0.00D+00
 Coeff-Com:  0.632D+00 0.368D+00
 Coeff:      0.632D+00 0.368D+00
 Gap=     0.162 Goal=   None    Shift=    0.000
 RMSDP=4.20D-06 MaxDP=1.26D-04 DE= 4.57D-07 OVMax= 3.70D-04

 Cycle  10  Pass 1  IDiag  1:
 E= -654.046304287006     Delta-E=       -0.000000722581 Rises=F Damp=F
 DIIS: error= 9.69D-06 at cycle   3 NSaved=   3.
 NSaved= 3 IEnMin= 3 EnMin= -654.046304287006     IErMin= 3 ErrMin= 9.69D-06
 ErrMax= 9.69D-06 EMaxC= 1.00D-01 BMatC= 2.16D-08 BMatP= 2.54D-07
 IDIUse=1 WtCom= 1.00D+00 WtEn= 0.00D+00
 Coeff-Com:  0.131D+00 0.168D+00 0.701D+00
 Coeff:      0.131D+00 0.168D+00 0.701D+00
 Gap=     0.162 Goal=   None    Shift=    0.000
 RMSDP=9.36D-07 MaxDP=2.82D-05 DE=-7.23D-07 OVMax= 7.38D-05

 Cycle  11  Pass 1  IDiag  1:
 E= -654.046304305570     Delta-E=       -0.000000018565 Rises=F Damp=F
 DIIS: error= 3.68D-06 at cycle   4 NSaved=   4.
 NSaved= 4 IEnMin= 4 EnMin= -654.046304305570     IErMin= 4 ErrMin= 3.68D-06
 ErrMax= 3.68D-06 EMaxC= 1.00D-01 BMatC= 6.48D-09 BMatP= 2.16D-08
 IDIUse=1 WtCom= 1.00D+00 WtEn= 0.00D+00
 Coeff-Com: -0.874D-02 0.503D-01 0.434D+00 0.524D+00
 Coeff:     -0.874D-02 0.503D-01 0.434D+00 0.524D+00
 Gap=     0.162 Goal=   None    Shift=    0.000
 RMSDP=3.69D-07 MaxDP=1.11D-05 DE=-1.86D-08 OVMax= 2.28D-05

 Cycle  12  Pass 1  IDiag  1:
 E= -654.046304312072     Delta-E=       -0.000000006502 Rises=F Damp=F
 DIIS: error= 5.91D-07 at cycle   5 NSaved=   5.
 NSaved= 5 IEnMin= 5 EnMin= -654.046304312072     IErMin= 5 ErrMin= 5.91D-07
 ErrMax= 5.91D-07 EMaxC= 1.00D-01 BMatC= 1.55D-10 BMatP= 6.48D-09
 IDIUse=1 WtCom= 1.00D+00 WtEn= 0.00D+00
 Coeff-Com: -0.870D-02 0.191D-01 0.193D+00 0.262D+00 0.535D+00
 Coeff:     -0.870D-02 0.191D-01 0.193D+00 0.262D+00 0.535D+00
 Gap=     0.162 Goal=   None    Shift=    0.000
 RMSDP=7.67D-08 MaxDP=1.99D-06 DE=-6.50D-09 OVMax= 5.85D-06

 Cycle  13  Pass 1  IDiag  1:
 E= -654.046304312202     Delta-E=       -0.000000000131 Rises=F Damp=F
 DIIS: error= 2.54D-07 at cycle   6 NSaved=   6.
 NSaved= 6 IEnMin= 6 EnMin= -654.046304312202     IErMin= 6 ErrMin= 2.54D-07
 ErrMax= 2.54D-07 EMaxC= 1.00D-01 BMatC= 2.26D-11 BMatP= 1.55D-10
 IDIUse=1 WtCom= 1.00D+00 WtEn= 0.00D+00
 Coeff-Com: -0.431D-02 0.642D-02 0.733D-01 0.105D+00 0.315D+00 0.505D+00
 Coeff:     -0.431D-02 0.642D-02 0.733D-01 0.105D+00 0.315D+00 0.505D+00
 Gap=     0.162 Goal=   None    Shift=    0.000
 RMSDP=2.34D-08 MaxDP=1.00D-06 DE=-1.31D-10 OVMax= 1.87D-06

 Cycle  14  Pass 1  IDiag  1:
 E= -654.046304312253     Delta-E=       -0.000000000050 Rises=F Damp=F
 DIIS: error= 6.17D-08 at cycle   7 NSaved=   7.
 NSaved= 7 IEnMin= 7 EnMin= -654.046304312253     IErMin= 7 ErrMin= 6.17D-08
 ErrMax= 6.17D-08 EMaxC= 1.00D-01 BMatC= 1.10D-12 BMatP= 2.26D-11
 IDIUse=1 WtCom= 1.00D+00 WtEn= 0.00D+00
 Coeff-Com: -0.120D-02 0.123D-02 0.169D-01 0.257D-01 0.991D-01 0.237D+00
 Coeff-Com:  0.621D+00
 Coeff:     -0.120D-02 0.123D-02 0.169D-01 0.257D-01 0.991D-01 0.237D+00
 Coeff:      0.621D+00
 Gap=     0.162 Goal=   None    Shift=    0.000
 RMSDP=7.26D-09 MaxDP=1.91D-07 DE=-5.02D-11 OVMax= 5.89D-07

 SCF Done:  E(RB3LYP) =  -654.046304312     A.U. after   14 cycles
             Convg  =    0.7258D-08             -V/T =  2.0093
 KE= 6.479943534285D+02 PE=-3.524178712983D+03 EE= 1.218802761887D+03
 Leave Link  502 at Thu Sep 30 14:46:46 2021, MaxMem= 1073741824 cpu:     270.4
 (Enter /sw/target/amd/app/gaussian/Gaussian09RevA.02_gcc-4.9.2/g09/l508.exe)
 QCSCF skips out because SCF is already converged.
 Leave Link  508 at Thu Sep 30 14:46:48 2021, MaxMem= 1073741824 cpu:       0.0
 (Enter /sw/target/amd/app/gaussian/Gaussian09RevA.02_gcc-4.9.2/g09/l601.exe)
 Copying SCF densities to generalized density rwf, IOpCl= 0 IROHF=0.

 **********************************************************************

            Population analysis using the SCF density.

 **********************************************************************

 Orbital symmetries:
       Occupied  (A) (A) (A) (A) (A) (A) (A) (A) (A) (A) (A) (A)
                 (A) (A) (A) (A) (A) (A) (A) (A) (A) (A) (A) (A)
                 (A) (A) (A) (A) (A) (A) (A) (A) (A) (A) (A) (A)
                 (A) (A) (A) (A) (A) (A) (A) (A) (A) (A) (A) (A)
                 (A) (A) (A) (A) (A) (A) (A)
       Virtual   (A) (A) (A) (A) (A) (A) (A) (A) (A) (A) (A) (A)
                 (A) (A) (A) (A) (A) (A) (A) (A) (A) (A) (A) (A)
                 (A) (A) (A) (A) (A) (A) (A) (A) (A) (A) (A) (A)
                 (A) (A) (A) (A) (A) (A) (A) (A) (A) (A) (A) (A)
                 (A) (A) (A) (A) (A) (A) (A) (A) (A) (A) (A) (A)
                 (A) (A) (A) (A) (A) (A) (A) (A) (A) (A) (A) (A)
                 (A) (A) (A) (A) (A) (A) (A) (A) (A) (A) (A) (A)
                 (A) (A) (A) (A) (A) (A) (A) (A) (A) (A) (A) (A)
                 (A) (A) (A) (A) (A) (A) (A) (A) (A) (A) (A) (A)
                 (A) (A) (A) (A) (A) (A) (A) (A) (A) (A) (A) (A)
                 (A) (A) (A) (A) (A) (A) (A) (A) (A) (A) (A) (A)
                 (A) (A) (A) (A) (A) (A) (A) (A) (A) (A) (A) (A)
                 (A) (A) (A) (A) (A) (A) (A) (A) (A) (A) (A) (A)
                 (A) (A) (A) (A) (A) (A) (A) (A) (A) (A) (A) (A)
                 (A) (A) (A) (A) (A) (A) (A) (A) (A) (A) (A) (A)
                 (A) (A) (A) (A) (A) (A) (A) (A) (A) (A) (A) (A)
                 (A) (A) (A) (A) (A) (A) (A) (A) (A) (A) (A) (A)
                 (A) (A) (A) (A) (A)
 The electronic state is 1-A.
 Alpha  occ. eigenvalues --  -19.16085 -10.23856 -10.23329 -10.20203 -10.19820
 Alpha  occ. eigenvalues --  -10.19504 -10.19337 -10.19197 -10.19045 -10.19011
 Alpha  occ. eigenvalues --  -10.18919 -10.18838 -10.18754 -10.18706 -10.18668
 Alpha  occ. eigenvalues --  -10.18306  -1.05136  -0.88072  -0.84611  -0.80424
 Alpha  occ. eigenvalues --   -0.77200  -0.75712  -0.72167  -0.71945  -0.68487
 Alpha  occ. eigenvalues --   -0.63245  -0.62382  -0.60007  -0.58063  -0.53350
 Alpha  occ. eigenvalues --   -0.53218  -0.50353  -0.48291  -0.48152  -0.45960
 Alpha  occ. eigenvalues --   -0.45074  -0.44779  -0.42954  -0.42255  -0.41901
 Alpha  occ. eigenvalues --   -0.41692  -0.39935  -0.39527  -0.36699  -0.35947
 Alpha  occ. eigenvalues --   -0.35749  -0.35423  -0.33463  -0.32722  -0.30303
 Alpha  occ. eigenvalues --   -0.28099  -0.26791  -0.26071  -0.22211  -0.20207
 Alpha virt. eigenvalues --   -0.04047  -0.03238   0.01285   0.03848   0.08286
 Alpha virt. eigenvalues --    0.09368   0.10000   0.10770   0.11956   0.14017
 Alpha virt. eigenvalues --    0.14603   0.15051   0.15320   0.16034   0.16895
 Alpha virt. eigenvalues --    0.17454   0.18909   0.20302   0.22899   0.23266
 Alpha virt. eigenvalues --    0.24826   0.26088   0.26980   0.28024   0.29704
 Alpha virt. eigenvalues --    0.30271   0.32466   0.35444   0.37242   0.38078
 Alpha virt. eigenvalues --    0.39888   0.45367   0.48130   0.50199   0.50660
 Alpha virt. eigenvalues --    0.51173   0.51483   0.52682   0.53002   0.53662
 Alpha virt. eigenvalues --    0.54653   0.55096   0.55508   0.56826   0.57080
 Alpha virt. eigenvalues --    0.57418   0.58012   0.59176   0.59355   0.60933
 Alpha virt. eigenvalues --    0.61197   0.61464   0.62243   0.62502   0.62950
 Alpha virt. eigenvalues --    0.63404   0.63744   0.64606   0.67484   0.67872
 Alpha virt. eigenvalues --    0.69576   0.72809   0.73706   0.76859   0.77054
 Alpha virt. eigenvalues --    0.80655   0.80957   0.82073   0.83089   0.83662
 Alpha virt. eigenvalues --    0.84102   0.84658   0.85357   0.86599   0.87589
 Alpha virt. eigenvalues --    0.89103   0.89849   0.90512   0.91112   0.92904
 Alpha virt. eigenvalues --    0.94505   0.94694   0.95247   0.96545   0.96868
 Alpha virt. eigenvalues --    0.99536   1.02131   1.04431   1.06070   1.07283
 Alpha virt. eigenvalues --    1.07593   1.10874   1.12217   1.12683   1.15209
 Alpha virt. eigenvalues --    1.18669   1.19256   1.21959   1.22816   1.24229
 Alpha virt. eigenvalues --    1.25164   1.26717   1.29527   1.31253   1.34703
 Alpha virt. eigenvalues --    1.36267   1.40590   1.43546   1.44419   1.44624
 Alpha virt. eigenvalues --    1.45882   1.46104   1.48119   1.48199   1.49257
 Alpha virt. eigenvalues --    1.49694   1.50318   1.50786   1.52384   1.54424
 Alpha virt. eigenvalues --    1.55642   1.65807   1.68374   1.73767   1.75896
 Alpha virt. eigenvalues --    1.78196   1.78613   1.81051   1.82317   1.84689
 Alpha virt. eigenvalues --    1.87273   1.88652   1.89361   1.91263   1.92282
 Alpha virt. eigenvalues --    1.93450   1.94545   1.95675   1.97541   1.98610
 Alpha virt. eigenvalues --    1.99877   2.01323   2.04078   2.04710   2.08032
 Alpha virt. eigenvalues --    2.09344   2.11436   2.12950   2.14430   2.15272
 Alpha virt. eigenvalues --    2.16081   2.20754   2.22808   2.23615   2.24008
 Alpha virt. eigenvalues --    2.24605   2.25373   2.29561   2.30873   2.32218
 Alpha virt. eigenvalues --    2.32824   2.34100   2.36724   2.38424   2.40782
 Alpha virt. eigenvalues --    2.42112   2.45070   2.52514   2.54143   2.60148
 Alpha virt. eigenvalues --    2.61908   2.62497   2.65300   2.66409   2.67306
 Alpha virt. eigenvalues --    2.69213   2.69689   2.71054   2.77711   2.78529
 Alpha virt. eigenvalues --    2.80722   2.83110   2.84837   2.87087   2.88363
 Alpha virt. eigenvalues --    2.91717   3.01279   3.07236   3.09394   3.18591
 Alpha virt. eigenvalues --    3.35488   3.43591   3.54580   4.05598   4.08019
 Alpha virt. eigenvalues --    4.09720   4.11130   4.12352   4.13884   4.15633
 Alpha virt. eigenvalues --    4.21950   4.25897   4.29813   4.34878   4.39080
 Alpha virt. eigenvalues --    4.42713   4.57154   4.65227   4.91327
          Condensed to atoms (all electrons):
              1          2          3          4          5          6
     1  C    4.918010   0.245685  -0.043800  -0.008697  -0.000033   0.000009
     2  O    0.245685   8.267525   0.229703  -0.061804   0.005148  -0.000118
     3  C   -0.043800   0.229703   4.937945   0.400039   0.045923   0.007746
     4  C   -0.008697  -0.061804   0.400039   5.453852   0.300902  -0.086246
     5  C   -0.000033   0.005148   0.045923   0.300902   4.795962   0.454976
     6  C    0.000009  -0.000118   0.007746  -0.086246   0.454976   5.120107
     7  C   -0.000000   0.000000  -0.000391   0.008573  -0.002208   0.503082
     8  C   -0.000000  -0.000000   0.000076  -0.000546  -0.036814  -0.023746
     9  C   -0.000000   0.000001  -0.001976   0.018603  -0.060335  -0.073348
    10  C   -0.000033   0.000392  -0.077385  -0.010225   0.433614  -0.024072
    11  C    0.000070   0.004316   0.038070  -0.102954   0.026203   0.015120
    12  C   -0.005388  -0.067918   0.332392  -0.015495  -0.055180  -0.000082
    13  C   -0.000088  -0.001011  -0.103550   0.016394  -0.002398  -0.000004
    14  C   -0.000036   0.000808   0.007881  -0.000416   0.000074   0.000000
    15  C   -0.000004  -0.000005  -0.000533   0.000061  -0.000222   0.000000
    16  C    0.000009  -0.000085   0.015953  -0.001757   0.011354  -0.000112
    17  H    0.377269  -0.040114   0.002109   0.001222  -0.000181   0.000001
    18  H    0.354578  -0.029680   0.000702   0.004284  -0.000262   0.000001
    19  H    0.373491  -0.038074   0.002243  -0.000020   0.000028  -0.000000
    20  H    0.000546  -0.001346  -0.034450   0.347925  -0.041215  -0.008042
    21  H   -0.000000  -0.000001   0.000427  -0.008518  -0.042893   0.357125
    22  H    0.000000  -0.000000   0.000004  -0.000218   0.002554  -0.036262
    23  H    0.000000   0.000000  -0.000000   0.000008   0.000976   0.004498
    24  H    0.000000   0.000000   0.000018  -0.000214   0.004844   0.000749
    25  H   -0.000778   0.011424  -0.011569   0.000474  -0.000021   0.000000
    26  H   -0.000000  -0.000001  -0.000193   0.000003  -0.000001  -0.000000
    27  H   -0.000000   0.000000   0.000014  -0.000001   0.000002  -0.000000
    28  H    0.000000   0.000000  -0.000199   0.000019  -0.000151   0.000002
              7          8          9         10         11         12
     1  C   -0.000000  -0.000000  -0.000000  -0.000033   0.000070  -0.005388
     2  O    0.000000  -0.000000   0.000001   0.000392   0.004316  -0.067918
     3  C   -0.000391   0.000076  -0.001976  -0.077385   0.038070   0.332392
     4  C    0.008573  -0.000546   0.018603  -0.010225  -0.102954  -0.015495
     5  C   -0.002208  -0.036814  -0.060335   0.433614   0.026203  -0.055180
     6  C    0.503082  -0.023746  -0.073348  -0.024072   0.015120  -0.000082
     7  C    4.890423   0.517698  -0.018490  -0.040210  -0.000889   0.000043
     8  C    0.517698   4.884377   0.510442  -0.004131   0.007814  -0.000212
     9  C   -0.018490   0.510442   5.159572   0.471302  -0.102582   0.012149
    10  C   -0.040210  -0.004131   0.471302   4.994212   0.267457   0.003582
    11  C   -0.000889   0.007814  -0.102582   0.267457   5.054527   0.397438
    12  C    0.000043  -0.000212   0.012149   0.003582   0.397438   4.952251
    13  C    0.000000  -0.000000  -0.000032   0.017477  -0.054323   0.432310
    14  C   -0.000000   0.000000  -0.000021  -0.000793  -0.035097  -0.004455
    15  C    0.000000  -0.000005   0.000473   0.007361  -0.005875  -0.036585
    16  C   -0.000013   0.000466  -0.022174  -0.099130   0.472131  -0.056815
    17  H    0.000000  -0.000000   0.000000   0.000003   0.000010  -0.000431
    18  H   -0.000000   0.000000   0.000000  -0.000007  -0.000815   0.002779
    19  H    0.000000   0.000000  -0.000000  -0.000002   0.000012   0.001888
    20  H    0.000273   0.000016  -0.000200   0.004097   0.000624   0.005033
    21  H   -0.046068   0.004889   0.000489   0.004036  -0.000138  -0.000002
    22  H    0.355189  -0.041838   0.004387   0.001140   0.000017  -0.000001
    23  H   -0.042161   0.358423  -0.037007   0.002576  -0.000176   0.000002
    24  H    0.004712  -0.047127   0.344471  -0.029047  -0.013199  -0.000224
    25  H   -0.000000  -0.000000   0.000002  -0.000116   0.004434  -0.039860
    26  H    0.000000  -0.000000  -0.000000   0.000018   0.001131   0.002303
    27  H   -0.000000  -0.000000   0.000002  -0.000185   0.002453   0.001033
    28  H   -0.000001   0.000182   0.004755  -0.013068  -0.029566   0.004790
             13         14         15         16         17         18
     1  C   -0.000088  -0.000036  -0.000004   0.000009   0.377269   0.354578
     2  O   -0.001011   0.000808  -0.000005  -0.000085  -0.040114  -0.029680
     3  C   -0.103550   0.007881  -0.000533   0.015953   0.002109   0.000702
     4  C    0.016394  -0.000416   0.000061  -0.001757   0.001222   0.004284
     5  C   -0.002398   0.000074  -0.000222   0.011354  -0.000181  -0.000262
     6  C   -0.000004   0.000000   0.000000  -0.000112   0.000001   0.000001
     7  C    0.000000  -0.000000   0.000000  -0.000013   0.000000  -0.000000
     8  C   -0.000000   0.000000  -0.000005   0.000466  -0.000000   0.000000
     9  C   -0.000032  -0.000021   0.000473  -0.022174   0.000000   0.000000
    10  C    0.017477  -0.000793   0.007361  -0.099130   0.000003  -0.000007
    11  C   -0.054323  -0.035097  -0.005875   0.472131   0.000010  -0.000815
    12  C    0.432310  -0.004455  -0.036585  -0.056815  -0.000431   0.002779
    13  C    5.186759   0.486283  -0.020879  -0.073237   0.000168   0.001461
    14  C    0.486283   4.904491   0.512497  -0.020786   0.000003  -0.000013
    15  C   -0.020879   0.512497   4.886615   0.511713  -0.000000   0.000003
    16  C   -0.073237  -0.020786   0.511713   5.147735  -0.000000   0.000006
    17  H    0.000168   0.000003  -0.000000  -0.000000   0.583259  -0.034946
    18  H    0.001461  -0.000013   0.000003   0.000006  -0.034946   0.575594
    19  H   -0.001059  -0.000093   0.000001   0.000000  -0.041705  -0.031190
    20  H   -0.000168   0.000002  -0.000000   0.000016  -0.000142   0.000744
    21  H   -0.000000  -0.000000  -0.000000   0.000002  -0.000001   0.000000
    22  H    0.000000   0.000000  -0.000000  -0.000000   0.000000   0.000000
    23  H   -0.000000  -0.000000  -0.000000   0.000003  -0.000000  -0.000000
    24  H    0.000001  -0.000001   0.000178   0.004860   0.000000  -0.000000
    25  H    0.358039  -0.045672   0.004963   0.000415   0.000135   0.000076
    26  H   -0.036710   0.358077  -0.042106   0.004352   0.000000  -0.000001
    27  H    0.004312  -0.041929   0.358189  -0.036651  -0.000000   0.000000
    28  H    0.000718   0.004762  -0.047452   0.346392   0.000000  -0.000000
             19         20         21         22         23         24
     1  C    0.373491   0.000546  -0.000000   0.000000   0.000000   0.000000
     2  O   -0.038074  -0.001346  -0.000001  -0.000000   0.000000   0.000000
     3  C    0.002243  -0.034450   0.000427   0.000004  -0.000000   0.000018
     4  C   -0.000020   0.347925  -0.008518  -0.000218   0.000008  -0.000214
     5  C    0.000028  -0.041215  -0.042893   0.002554   0.000976   0.004844
     6  C   -0.000000  -0.008042   0.357125  -0.036262   0.004498   0.000749
     7  C    0.000000   0.000273  -0.046068   0.355189  -0.042161   0.004712
     8  C    0.000000   0.000016   0.004889  -0.041838   0.358423  -0.047127
     9  C   -0.000000  -0.000200   0.000489   0.004387  -0.037007   0.344471
    10  C   -0.000002   0.004097   0.004036   0.001140   0.002576  -0.029047
    11  C    0.000012   0.000624  -0.000138   0.000017  -0.000176  -0.013199
    12  C    0.001888   0.005033  -0.000002  -0.000001   0.000002  -0.000224
    13  C   -0.001059  -0.000168  -0.000000   0.000000  -0.000000   0.000001
    14  C   -0.000093   0.000002  -0.000000   0.000000  -0.000000  -0.000001
    15  C    0.000001  -0.000000  -0.000000  -0.000000  -0.000000   0.000178
    16  C    0.000000   0.000016   0.000002  -0.000000   0.000003   0.004860
    17  H   -0.041705  -0.000142  -0.000001   0.000000  -0.000000   0.000000
    18  H   -0.031190   0.000744   0.000000   0.000000  -0.000000  -0.000000
    19  H    0.580703   0.000004   0.000000  -0.000000   0.000000  -0.000000
    20  H    0.000004   0.588165   0.006154  -0.000017   0.000000   0.000002
    21  H    0.000000   0.006154   0.600351  -0.005328  -0.000210   0.000019
    22  H   -0.000000  -0.000017  -0.005328   0.597389  -0.005125  -0.000218
    23  H    0.000000   0.000000  -0.000210  -0.005125   0.595014  -0.005397
    24  H   -0.000000   0.000002   0.000019  -0.000218  -0.005397   0.599287
    25  H   -0.000066  -0.000008   0.000000   0.000000   0.000000   0.000000
    26  H   -0.000001  -0.000000  -0.000000   0.000000  -0.000000  -0.000000
    27  H   -0.000000   0.000000   0.000000  -0.000000   0.000000   0.000000
    28  H   -0.000000   0.000000   0.000000  -0.000000   0.000000   0.005649
             25         26         27         28
     1  C   -0.000778  -0.000000  -0.000000   0.000000
     2  O    0.011424  -0.000001   0.000000   0.000000
     3  C   -0.011569  -0.000193   0.000014  -0.000199
     4  C    0.000474   0.000003  -0.000001   0.000019
     5  C   -0.000021  -0.000001   0.000002  -0.000151
     6  C    0.000000  -0.000000  -0.000000   0.000002
     7  C   -0.000000   0.000000  -0.000000  -0.000001
     8  C   -0.000000  -0.000000  -0.000000   0.000182
     9  C    0.000002  -0.000000   0.000002   0.004755
    10  C   -0.000116   0.000018  -0.000185  -0.013068
    11  C    0.004434   0.001131   0.002453  -0.029566
    12  C   -0.039860   0.002303   0.001033   0.004790
    13  C    0.358039  -0.036710   0.004312   0.000718
    14  C   -0.045672   0.358077  -0.041929   0.004762
    15  C    0.004963  -0.042106   0.358189  -0.047452
    16  C    0.000415   0.004352  -0.036651   0.346392
    17  H    0.000135   0.000000  -0.000000   0.000000
    18  H    0.000076  -0.000001   0.000000  -0.000000
    19  H   -0.000066  -0.000001  -0.000000  -0.000000
    20  H   -0.000008  -0.000000   0.000000   0.000000
    21  H    0.000000  -0.000000   0.000000   0.000000
    22  H    0.000000   0.000000  -0.000000  -0.000000
    23  H    0.000000  -0.000000   0.000000   0.000000
    24  H    0.000000  -0.000000   0.000000   0.005649
    25  H    0.580436  -0.005090  -0.000204   0.000017
    26  H   -0.005090   0.593094  -0.005013  -0.000217
    27  H   -0.000204  -0.005013   0.592810  -0.005370
    28  H    0.000017  -0.000217  -0.005370   0.596031
 Mulliken atomic charges:
              1
     1  C   -0.210809
     2  O   -0.524847
     3  C    0.252801
     4  C   -0.255251
     5  C    0.159353
     6  C   -0.211383
     7  C   -0.129563
     8  C   -0.129963
     9  C   -0.210482
    10  C    0.091137
    11  C    0.053788
    12  C    0.134653
    13  C   -0.210463
    14  C   -0.125567
    15  C   -0.128388
    16  C   -0.204645
    17  H    0.153340
    18  H    0.156688
    19  H    0.153840
    20  H    0.131986
    21  H    0.129668
    22  H    0.128327
    23  H    0.128576
    24  H    0.130638
    25  H    0.142968
    26  H    0.130354
    27  H    0.130537
    28  H    0.132707
 Sum of Mulliken atomic charges =  -0.00000
 Mulliken charges with hydrogens summed into heavy atoms:
              1
     1  C    0.253059
     2  O   -0.524847
     3  C    0.252801
     4  C   -0.123265
     5  C    0.159353
     6  C   -0.081716
     7  C   -0.001236
     8  C   -0.001387
     9  C   -0.079844
    10  C    0.091137
    11  C    0.053788
    12  C    0.134653
    13  C   -0.067495
    14  C    0.004787
    15  C    0.002149
    16  C   -0.071937
 Sum of Mulliken charges with hydrogens summed into heavy atoms =  -0.00000
 Electronic spatial extent (au):  <R**2>=           3459.9721
 Charge=             -0.0000 electrons
 Dipole moment (field-independent basis, Debye):
    X=              0.0066    Y=              0.1134    Z=              1.4202  Tot=              1.4247
 Quadrupole moment (field-independent basis, Debye-Ang):
   XX=            -81.6693   YY=            -81.5451   ZZ=            -96.4337
   XY=              0.6739   XZ=              2.6827   YZ=             -2.3777
 Traceless Quadrupole moment (field-independent basis, Debye-Ang):
   XX=              4.8801   YY=              5.0043   ZZ=             -9.8843
   XY=              0.6739   XZ=              2.6827   YZ=             -2.3777
 Octapole moment (field-independent basis, Debye-Ang**2):
  XXX=              3.8538  YYY=             -4.9522  ZZZ=              0.6661  XYY=              3.6735
  XXY=             -0.3850  XXZ=              7.0181  XZZ=              7.2204  YZZ=             -8.1594
  YYZ=             10.9974  XYZ=            -10.7724
 Hexadecapole moment (field-independent basis, Debye-Ang**3):
 XXXX=          -2582.4016 YYYY=          -1560.5571 ZZZZ=           -157.7154 XXXY=             -6.6979
 XXXZ=             -1.1340 YYYX=             -6.5143 YYYZ=             -7.5011 ZZZX=              2.3935
 ZZZY=             -2.3850 XXYY=           -689.2021 XXZZ=           -539.3093 YYZZ=           -326.6092
 XXYZ=            -11.2893 YYXZ=             22.7728 ZZXY=            -16.5493
 N-N= 1.003335293355D+03 E-N=-3.524178710717D+03  KE= 6.479943534285D+02
 No NMR shielding tensors so no spin-rotation constants.
 Leave Link  601 at Thu Sep 30 14:46:51 2021, MaxMem= 1073741824 cpu:       1.3
 (Enter /sw/target/amd/app/gaussian/Gaussian09RevA.02_gcc-4.9.2/g09/l701.exe)
 Compute integral first derivatives.
 ... and contract with generalized density number  0.
 Leave Link  701 at Thu Sep 30 14:46:53 2021, MaxMem= 1073741824 cpu:       1.3
 (Enter /sw/target/amd/app/gaussian/Gaussian09RevA.02_gcc-4.9.2/g09/l702.exe)
 L702 exits ... SP integral derivatives will be done elsewhere.
 Leave Link  702 at Thu Sep 30 14:46:53 2021, MaxMem= 1073741824 cpu:       0.0
 (Enter /sw/target/amd/app/gaussian/Gaussian09RevA.02_gcc-4.9.2/g09/l703.exe)
 Compute integral first derivatives, UseDBF=F ICtDFT=           0.
 Integral derivatives from FoFDir, PRISM(SPDF).
 Calling FoFJK, ICntrl=      2127 FMM=F ISym2X=0 I1Cent= 0 IOpClX= 0 NMat=1 NMatS=1 NMatT=0.
 FoFCou: FMM=F IPFlag=           0 FMFlag=      100000 FMFlg1=         800
         NFxFlg=           0 DoJE=F BraDBF=F KetDBF=F FulRan=T
         Omega=  0.000000  0.000000  1.000000  0.000000  0.000000 ICntrl=    2127 IOpCl=  0
         NMat0=    1 NMatS0=    1 NMatT0=    0 NMatD0=    1 NMtDS0=    0 NMtDT0=    0
         I1Cent=           0 NGrid=           0.
 Symmetry not used in FoFCou.
 Leave Link  703 at Thu Sep 30 14:49:10 2021, MaxMem= 1073741824 cpu:     113.5
 (Enter /sw/target/amd/app/gaussian/Gaussian09RevA.02_gcc-4.9.2/g09/l716.exe)
 Dipole        = 2.57924444D-03 4.46011894D-02 5.58745851D-01
 ***** Axes restored to original set *****
 -------------------------------------------------------------------
 Center     Atomic                   Forces (Hartrees/Bohr)
 Number     Number              X              Y              Z
 -------------------------------------------------------------------
      1        6          -0.008064280   -0.007975302   -0.009814305
      2        8          -0.009192076    0.003722169    0.007637102
      3        6           0.034843265    0.019276528   -0.032475644
      4        6          -0.027656068   -0.033331020   -0.004090984
      5        6           0.008555061    0.010052296    0.002511281
      6        6           0.012262534    0.015903422    0.005233915
      7        6          -0.000397409   -0.004323999   -0.019306385
      8        6          -0.010730210   -0.010145613    0.015762490
      9        6           0.004643398    0.006186815    0.002697332
     10        6           0.009097612    0.013524195    0.009676646
     11        6          -0.003631956   -0.002132084    0.015381180
     12        6          -0.010108510   -0.008713596    0.013538732
     13        6          -0.008187778   -0.008354214    0.006638874
     14        6          -0.002446306   -0.007030340   -0.019014666
     15        6           0.013270538    0.017769130    0.004911286
     16        6          -0.003709220   -0.003885401    0.006512785
     17        1          -0.000906571    0.002210371   -0.001811139
     18        1           0.004238118   -0.001785400    0.001225642
     19        1          -0.001790909   -0.000589958   -0.001016201
     20        1          -0.000439901   -0.000141776    0.001012441
     21        1          -0.002550681   -0.003006827    0.000204862
     22        1           0.000056629   -0.000004397   -0.000773210
     23        1          -0.000853007   -0.000824681    0.000881072
     24        1          -0.001904496   -0.002425529   -0.000661100
     25        1           0.003161827    0.003522062   -0.001623049
     26        1          -0.000180110   -0.000462819   -0.000801674
     27        1           0.000913338    0.001366174    0.000215782
     28        1           0.001707168    0.001599790   -0.002653065
 -------------------------------------------------------------------
 Cartesian Forces:  Max     0.034843265 RMS     0.010187567
 Leave Link  716 at Thu Sep 30 14:49:11 2021, MaxMem= 1073741824 cpu:       0.1
 (Enter /sw/target/amd/app/gaussian/Gaussian09RevA.02_gcc-4.9.2/g09/l103.exe)

 GradGradGradGradGradGradGradGradGradGradGradGradGradGradGradGradGradGrad
 Berny optimization.
 Internal  Forces:  Max     0.030324672 RMS     0.005821349
 Search for a local minimum.
 Step number   1 out of a maximum of  158
 All quantities printed in internal units (Hartrees-Bohrs-Radians)
 RMS Force = .58213D-02 SwitMx=.10000D-02 MixMth= 1
 Mixed Optimization -- RFO/linear search
 Second derivative matrix not updated -- first step.
     Eigenvalues ---    0.01300   0.01707   0.01755   0.01791   0.01902
     Eigenvalues ---    0.01931   0.01960   0.01972   0.01984   0.02021
     Eigenvalues ---    0.02028   0.02054   0.02055   0.02091   0.02098
     Eigenvalues ---    0.02122   0.02175   0.02184   0.02196   0.02197
     Eigenvalues ---    0.02204   0.02238   0.02253   0.09845   0.10504
     Eigenvalues ---    0.16000   0.16000   0.16000   0.16000   0.16000
     Eigenvalues ---    0.16000   0.16000   0.16000   0.16000   0.16000
     Eigenvalues ---    0.16000   0.16000   0.22000   0.22000   0.22537
     Eigenvalues ---    0.22588   0.23527   0.24475   0.24516   0.24976
     Eigenvalues ---    0.24994   0.24999   0.25000   0.34011   0.34320
     Eigenvalues ---    0.34356   0.34989   0.34996   0.35129   0.35177
     Eigenvalues ---    0.35187   0.35222   0.35247   0.35247   0.35270
     Eigenvalues ---    0.37372   0.37529   0.39830   0.40140   0.40443
     Eigenvalues ---    0.41041   0.42732   0.43183   0.43956   0.45078
     Eigenvalues ---    0.45230   0.45382   0.45912   0.46003   0.46454
     Eigenvalues ---    0.47383   0.47615   0.501121000.000001000.00000
     Eigenvalues --- 1000.000001000.000001000.000001000.000001000.00000
     Eigenvalues --- 1000.000001000.000001000.000001000.000001000.00000
     Eigenvalues --- 1000.000001000.000001000.000001000.000001000.00000
     Eigenvalues --- 1000.000001000.000001000.000001000.000001000.00000
     Eigenvalues --- 1000.000001000.000001000.000001000.000001000.00000
     Eigenvalues --- 1000.000001000.000001000.000001000.000001000.00000
     Eigenvalues --- 1000.000001000.000001000.000001000.000001000.00000
     Eigenvalues --- 1000.000001000.000001000.000001000.000001000.00000
     Eigenvalues --- 1000.000001000.000001000.000001000.000001000.00000
     Eigenvalues --- 1000.000001000.000001000.000001000.000001000.00000
     Eigenvalues --- 1000.000001000.000001000.000001000.000001000.00000
     Eigenvalues --- 1000.000001000.000001000.000001000.000001000.00000
     Eigenvalues --- 1000.000001000.000001000.000001000.000001000.00000
     Eigenvalues --- 1000.000001000.000001000.00000
 RFO step:  Lambda=-1.35635783D-02 EMin= 1.29972435D-02
 Linear search not attempted -- first point.
 Iteration  1 RMS(Cart)=  0.06332054 RMS(Int)=  0.00104377
 Iteration  2 RMS(Cart)=  0.00226373 RMS(Int)=  0.00006184
 Iteration  3 RMS(Cart)=  0.00000500 RMS(Int)=  0.00006179
 Iteration  4 RMS(Cart)=  0.00000000 RMS(Int)=  0.00006179
 Variable       Old X    -DE/DX   Delta X   Delta X   Delta X     New X
                                 (Linear)    (Quad)   (Total)
    R1        2.70162   0.00669   0.00000   0.01578   0.01578   2.71740
    R2        2.06733   0.00210   0.00000   0.00588   0.00588   2.07321
    R3        2.07311  -0.00227   0.00000  -0.00641  -0.00641   2.06670
    R4        2.06794   0.00166   0.00000   0.00465   0.00465   2.07259
    R5        2.59753   0.01134   0.00000   0.02203   0.02203   2.61956
    R6        2.63012  -0.02107   0.00000  -0.04411  -0.04413   2.58599
    R7        2.65599   0.02387   0.00000   0.05128   0.05122   2.70722
    R8        2.63644   0.03032   0.00000   0.06339   0.06343   2.69987
    R9        2.05467  -0.00109   0.00000  -0.00299  -0.00299   2.05168
   R10        2.65649   0.00732   0.00000   0.01659   0.01663   2.67313
   R11        2.68300   0.01001   0.00000   0.02362   0.02371   2.70671
   R12        2.63026  -0.00726   0.00000  -0.01456  -0.01455   2.61571
   R13        2.05692  -0.00098   0.00000  -0.00269  -0.00269   2.05423
   R14        2.61905   0.01812   0.00000   0.03648   0.03645   2.65550
   R15        2.05316   0.00030   0.00000   0.00081   0.00081   2.05397
   R16        2.64256  -0.01101   0.00000  -0.02398  -0.02402   2.61854
   R17        2.05389  -0.00032   0.00000  -0.00087  -0.00087   2.05302
   R18        2.68036  -0.00516   0.00000  -0.01222  -0.01223   2.66813
   R19        2.05276  -0.00028   0.00000  -0.00076  -0.00076   2.05200
   R20        2.72757   0.00470   0.00000   0.01226   0.01227   2.73985
   R21        2.68186   0.01242   0.00000   0.02829   0.02824   2.71010
   R22        2.68236  -0.00624   0.00000  -0.01461  -0.01463   2.66774
   R23        2.66968  -0.00049   0.00000  -0.00076  -0.00075   2.66893
   R24        2.62982  -0.00775   0.00000  -0.01566  -0.01564   2.61418
   R25        2.05681  -0.00238   0.00000  -0.00654  -0.00654   2.05026
   R26        2.61565   0.02005   0.00000   0.04035   0.04037   2.65601
   R27        2.05275   0.00023   0.00000   0.00063   0.00063   2.05338
   R28        2.64184  -0.01132   0.00000  -0.02424  -0.02425   2.61759
   R29        2.05373  -0.00015   0.00000  -0.00042  -0.00042   2.05331
   R30        2.05238  -0.00035   0.00000  -0.00097  -0.00097   2.05142
    A1        1.89704   0.00345   0.00000   0.02005   0.01986   1.91690
    A2        1.99055  -0.00774   0.00000  -0.04734  -0.04733   1.94322
    A3        1.88595   0.00323   0.00000   0.02100   0.02086   1.90682
    A4        1.90503   0.00007   0.00000  -0.00411  -0.00415   1.90088
    A5        1.89238  -0.00038   0.00000   0.00386   0.00351   1.89589
    A6        1.89070   0.00164   0.00000   0.00868   0.00876   1.89946
    A7        1.92974   0.02563   0.00000   0.09723   0.09723   2.02698
    A8        2.05122   0.01037   0.00000   0.04043   0.04046   2.09168
    A9        2.10636  -0.00750   0.00000  -0.02746  -0.02744   2.07892
   A10        2.12480  -0.00286   0.00000  -0.01273  -0.01281   2.11199
   A11        2.10243   0.00384   0.00000   0.01510   0.01513   2.11755
   A12        2.07404  -0.00211   0.00000  -0.00867  -0.00869   2.06535
   A13        2.10672  -0.00172   0.00000  -0.00643  -0.00644   2.10028
   A14        2.08360   0.00668   0.00000   0.02397   0.02387   2.10747
   A15        2.09357  -0.00058   0.00000  -0.00246  -0.00240   2.09117
   A16        2.10601  -0.00609   0.00000  -0.02150  -0.02147   2.08454
   A17        2.11402  -0.00108   0.00000  -0.00193  -0.00187   2.11215
   A18        2.10105  -0.00339   0.00000  -0.02171  -0.02174   2.07932
   A19        2.06811   0.00448   0.00000   0.02364   0.02361   2.09172
   A20        2.08555   0.00068   0.00000   0.00378   0.00377   2.08932
   A21        2.09817  -0.00108   0.00000  -0.00614  -0.00613   2.09204
   A22        2.09947   0.00040   0.00000   0.00236   0.00236   2.10183
   A23        2.09262   0.00216   0.00000   0.00781   0.00775   2.10037
   A24        2.09724   0.00040   0.00000   0.00461   0.00464   2.10188
   A25        2.09332  -0.00256   0.00000  -0.01243  -0.01240   2.08093
   A26        2.13650  -0.00344   0.00000  -0.01664  -0.01667   2.11983
   A27        2.03752   0.00494   0.00000   0.02689   0.02690   2.06443
   A28        2.10916  -0.00150   0.00000  -0.01025  -0.01023   2.09892
   A29        2.03166   0.00778   0.00000   0.02848   0.02848   2.06015
   A30        2.08368  -0.00304   0.00000  -0.00959  -0.00954   2.07414
   A31        2.16782  -0.00474   0.00000  -0.01888  -0.01894   2.14888
   A32        2.08562   0.00021   0.00000   0.00206   0.00205   2.08767
   A33        2.15986  -0.00515   0.00000  -0.01989  -0.01986   2.14000
   A34        2.03770   0.00494   0.00000   0.01783   0.01780   2.05551
   A35        2.07552   0.00245   0.00000   0.00800   0.00790   2.08342
   A36        2.11537  -0.00178   0.00000  -0.00678  -0.00673   2.10864
   A37        2.09230  -0.00067   0.00000  -0.00121  -0.00118   2.09111
   A38        2.12290  -0.00408   0.00000  -0.01570  -0.01569   2.10721
   A39        2.09558  -0.00248   0.00000  -0.01822  -0.01824   2.07734
   A40        2.06468   0.00656   0.00000   0.03389   0.03387   2.09855
   A41        2.08317   0.00165   0.00000   0.00825   0.00827   2.09144
   A42        2.09719  -0.00176   0.00000  -0.00951  -0.00952   2.08767
   A43        2.10282   0.00011   0.00000   0.00126   0.00125   2.10407
   A44        2.09184   0.00221   0.00000   0.00923   0.00922   2.10106
   A45        2.09725   0.00059   0.00000   0.00515   0.00516   2.10241
   A46        2.09408  -0.00280   0.00000  -0.01438  -0.01437   2.07970
   A47        2.13834  -0.00406   0.00000  -0.01836  -0.01840   2.11994
   A48        2.10862  -0.00159   0.00000  -0.01163  -0.01162   2.09700
   A49        2.03622   0.00564   0.00000   0.03000   0.03002   2.06624
    D1        1.96962  -0.00282   0.00000  -0.04979  -0.05004   1.91958
    D2       -0.16003  -0.00021   0.00000  -0.02719  -0.02728  -0.18731
    D3       -2.26335   0.00038   0.00000  -0.02275  -0.02241  -2.28576
    D4       -1.54411  -0.00028   0.00000  -0.00733  -0.00733  -1.55144
    D5        1.63976  -0.00041   0.00000  -0.01321  -0.01322   1.62654
    D6       -3.13569   0.00037   0.00000   0.00428   0.00416  -3.13152
    D7        0.00568   0.00022   0.00000   0.00091   0.00080   0.00648
    D8       -0.03685   0.00039   0.00000   0.00986   0.00983  -0.02703
    D9        3.10451   0.00024   0.00000   0.00649   0.00646   3.11098
   D10        3.14097   0.00008   0.00000  -0.00439  -0.00451   3.13645
   D11       -0.00259   0.00029   0.00000   0.00249   0.00238  -0.00021
[...]
 Integrated density= 9.3335622674210342D+01 error=-1.6664377325789658D+01
 Molar volume = 2095.837 bohr**3/mol (187.030 cm**3/mol)
 Recommended a0 for SCRF calculation =  5.12 angstrom (  9.68 bohr)
 Leave Link  604 at Fri Oct  1 00:16:41 2021, MaxMem= 1073741824 cpu:       0.3
 (Enter /sw/target/amd/app/gaussian/Gaussian09RevA.02_gcc-4.9.2/g09/l607.exe)
 ******************************Gaussian NBO Version 3.1******************************
             N A T U R A L   A T O M I C   O R B I T A L   A N D
          N A T U R A L   B O N D   O R B I T A L   A N A L Y S I S
 ******************************Gaussian NBO Version 3.1******************************
       /RESON  / : Allow strongly delocalized NBO set

 Analyzing the CI density

 Job title: COc1cc2ccccc2c2c1cccc2_conf_0                                   

 Storage needed:    211732 in NPA (1073737624 available)


 NATURAL POPULATIONS:  Natural atomic orbital occupancies 
                                                          
   NAO  Atom  No  lang   Type(AO)    Occupancy
 --------------------------------------------
     1    C    1  S      Cor( 1S)     1.99943
     2    C    1  S      Val( 2S)     1.10246
     3    C    1  S      Ryd( 3S)     0.00148
     4    C    1  S      Ryd( 4S)     0.00002
     5    C    1  px     Val( 2p)     1.24592
     6    C    1  px     Ryd( 3p)     0.00301
     7    C    1  py     Val( 2p)     0.72989
     8    C    1  py     Ryd( 3p)     0.00296
     9    C    1  pz     Val( 2p)     1.23015
    10    C    1  pz     Ryd( 3p)     0.00024
    11    C    1  dxy    Ryd( 3d)     0.00125
    12    C    1  dxz    Ryd( 3d)     0.00084
    13    C    1  dyz    Ryd( 3d)     0.00153
    14    C    1  dx2y2  Ryd( 3d)     0.00179
    15    C    1  dz2    Ryd( 3d)     0.00110

    16    O    2  S      Cor( 1S)     1.99974
    17    O    2  S      Val( 2S)     1.59367
    18    O    2  S      Ryd( 3S)     0.00082
    19    O    2  S      Ryd( 4S)     0.00007
    20    O    2  px     Val( 2p)     1.66886
    21    O    2  px     Ryd( 3p)     0.00231
    22    O    2  py     Val( 2p)     1.42751
    23    O    2  py     Ryd( 3p)     0.00082
    24    O    2  pz     Val( 2p)     1.77907
    25    O    2  pz     Ryd( 3p)     0.00225
    26    O    2  dxy    Ryd( 3d)     0.00132
    27    O    2  dxz    Ryd( 3d)     0.00167
    28    O    2  dyz    Ryd( 3d)     0.00039
    29    O    2  dx2y2  Ryd( 3d)     0.00130
    30    O    2  dz2    Ryd( 3d)     0.00075

    31    C    3  S      Cor( 1S)     1.99876
    32    C    3  S      Val( 2S)     0.82776
    33    C    3  S      Ryd( 3S)     0.00136
    34    C    3  S      Ryd( 4S)     0.00015
    35    C    3  px     Val( 2p)     0.86632
    36    C    3  px     Ryd( 3p)     0.00872
    37    C    3  py     Val( 2p)     0.96717
    38    C    3  py     Ryd( 3p)     0.00442
    39    C    3  pz     Val( 2p)     0.93100
    40    C    3  pz     Ryd( 3p)     0.00105
    41    C    3  dxy    Ryd( 3d)     0.00171
    42    C    3  dxz    Ryd( 3d)     0.00177
    43    C    3  dyz    Ryd( 3d)     0.00114
    44    C    3  dx2y2  Ryd( 3d)     0.00145
    45    C    3  dz2    Ryd( 3d)     0.00045

    46    C    4  S      Cor( 1S)     1.99899
    47    C    4  S      Val( 2S)     0.95304
    48    C    4  S      Ryd( 3S)     0.00072
    49    C    4  S      Ryd( 4S)     0.00007
    50    C    4  px     Val( 2p)     1.07179
    51    C    4  px     Ryd( 3p)     0.00342
    52    C    4  py     Val( 2p)     1.19568
    53    C    4  py     Ryd( 3p)     0.00351
    54    C    4  pz     Val( 2p)     1.00099
    55    C    4  pz     Ryd( 3p)     0.00137
    56    C    4  dxy    Ryd( 3d)     0.00055
    57    C    4  dxz    Ryd( 3d)     0.00076
    58    C    4  dyz    Ryd( 3d)     0.00029
    59    C    4  dx2y2  Ryd( 3d)     0.00086
    60    C    4  dz2    Ryd( 3d)     0.00044

    61    C    5  S      Cor( 1S)     1.99903
    62    C    5  S      Val( 2S)     0.86605
    63    C    5  S      Ryd( 3S)     0.00055
    64    C    5  S      Ryd( 4S)     0.00007
    65    C    5  px     Val( 2p)     1.08333
    66    C    5  px     Ryd( 3p)     0.00507
    67    C    5  py     Val( 2p)     1.08328
    68    C    5  py     Ryd( 3p)     0.00548
    69    C    5  pz     Val( 2p)     1.01239
    70    C    5  pz     Ryd( 3p)     0.00090
    71    C    5  dxy    Ryd( 3d)     0.00072
    72    C    5  dxz    Ryd( 3d)     0.00074
    73    C    5  dyz    Ryd( 3d)     0.00062
    74    C    5  dx2y2  Ryd( 3d)     0.00070
    75    C    5  dz2    Ryd( 3d)     0.00034

    76    C    6  S      Cor( 1S)     1.99907
    77    C    6  S      Val( 2S)     0.94765
    78    C    6  S      Ryd( 3S)     0.00063
    79    C    6  S      Ryd( 4S)     0.00004
    80    C    6  px     Val( 2p)     1.05280
    81    C    6  px     Ryd( 3p)     0.00403
    82    C    6  py     Val( 2p)     1.18929
    83    C    6  py     Ryd( 3p)     0.00484
    84    C    6  pz     Val( 2p)     1.00404
    85    C    6  pz     Ryd( 3p)     0.00193
    86    C    6  dxy    Ryd( 3d)     0.00061
    87    C    6  dxz    Ryd( 3d)     0.00070
    88    C    6  dyz    Ryd( 3d)     0.00030
    89    C    6  dx2y2  Ryd( 3d)     0.00088
    90    C    6  dz2    Ryd( 3d)     0.00043

    91    C    7  S      Cor( 1S)     1.99911
    92    C    7  S      Val( 2S)     0.95643
    93    C    7  S      Ryd( 3S)     0.00060
    94    C    7  S      Ryd( 4S)     0.00003
    95    C    7  px     Val( 2p)     1.17434
    96    C    7  px     Ryd( 3p)     0.00488
    97    C    7  py     Val( 2p)     1.07706
    98    C    7  py     Ryd( 3p)     0.00492
    99    C    7  pz     Val( 2p)     1.05936
   100    C    7  pz     Ryd( 3p)     0.00286
   101    C    7  dxy    Ryd( 3d)     0.00075
   102    C    7  dxz    Ryd( 3d)     0.00040
   103    C    7  dyz    Ryd( 3d)     0.00046
   104    C    7  dx2y2  Ryd( 3d)     0.00071
   105    C    7  dz2    Ryd( 3d)     0.00043

   106    C    8  S      Cor( 1S)     1.99911
   107    C    8  S      Val( 2S)     0.96510
   108    C    8  S      Ryd( 3S)     0.00057
   109    C    8  S      Ryd( 4S)     0.00003
   110    C    8  px     Val( 2p)     1.14803
   111    C    8  px     Ryd( 3p)     0.00489
   112    C    8  py     Val( 2p)     1.10742
   113    C    8  py     Ryd( 3p)     0.00478
   114    C    8  pz     Val( 2p)     0.94937
   115    C    8  pz     Ryd( 3p)     0.00111
   116    C    8  dxy    Ryd( 3d)     0.00089
   117    C    8  dxz    Ryd( 3d)     0.00052
   118    C    8  dyz    Ryd( 3d)     0.00060
   119    C    8  dx2y2  Ryd( 3d)     0.00065
   120    C    8  dz2    Ryd( 3d)     0.00043

   121    C    9  S      Cor( 1S)     1.99908
   122    C    9  S      Val( 2S)     0.94363
   123    C    9  S      Ryd( 3S)     0.00064
   124    C    9  S      Ryd( 4S)     0.00005
   125    C    9  px     Val( 2p)     1.05897
   126    C    9  px     Ryd( 3p)     0.00381
   127    C    9  py     Val( 2p)     1.18981
   128    C    9  py     Ryd( 3p)     0.00464
   129    C    9  pz     Val( 2p)     1.03708
   130    C    9  pz     Ryd( 3p)     0.00270
   131    C    9  dxy    Ryd( 3d)     0.00064
   132    C    9  dxz    Ryd( 3d)     0.00054
   133    C    9  dyz    Ryd( 3d)     0.00030
   134    C    9  dx2y2  Ryd( 3d)     0.00083
   135    C    9  dz2    Ryd( 3d)     0.00042

   136    C   10  S      Cor( 1S)     1.99901
   137    C   10  S      Val( 2S)     0.85875
   138    C   10  S      Ryd( 3S)     0.00042
   139    C   10  S      Ryd( 4S)     0.00007
   140    C   10  px     Val( 2p)     1.08369
   141    C   10  px     Ryd( 3p)     0.00451
   142    C   10  py     Val( 2p)     1.07137
   143    C   10  py     Ryd( 3p)     0.00525
   144    C   10  pz     Val( 2p)     1.00578
   145    C   10  pz     Ryd( 3p)     0.00149
   146    C   10  dxy    Ryd( 3d)     0.00063
   147    C   10  dxz    Ryd( 3d)     0.00086
   148    C   10  dyz    Ryd( 3d)     0.00045
   149    C   10  dx2y2  Ryd( 3d)     0.00076
   150    C   10  dz2    Ryd( 3d)     0.00033

   151    C   11  S      Cor( 1S)     1.99903
   152    C   11  S      Val( 2S)     0.85579
   153    C   11  S      Ryd( 3S)     0.00048
   154    C   11  S      Ryd( 4S)     0.00007
   155    C   11  px     Val( 2p)     1.06151
   156    C   11  px     Ryd( 3p)     0.00493
   157    C   11  py     Val( 2p)     1.08972
   158    C   11  py     Ryd( 3p)     0.00505
   159    C   11  pz     Val( 2p)     1.03049
   160    C   11  pz     Ryd( 3p)     0.00175
   161    C   11  dxy    Ryd( 3d)     0.00074
   162    C   11  dxz    Ryd( 3d)     0.00064
   163    C   11  dyz    Ryd( 3d)     0.00062
   164    C   11  dx2y2  Ryd( 3d)     0.00062
   165    C   11  dz2    Ryd( 3d)     0.00034

   166    C   12  S      Cor( 1S)     1.99898
   167    C   12  S      Val( 2S)     0.86650
   168    C   12  S      Ryd( 3S)     0.00061
   169    C   12  S      Ryd( 4S)     0.00006
   170    C   12  px     Val( 2p)     1.10627
   171    C   12  px     Ryd( 3p)     0.00525
   172    C   12  py     Val( 2p)     1.06057
   173    C   12  py     Ryd( 3p)     0.00488
   174    C   12  pz     Val( 2p)     1.06309
   175    C   12  pz     Ryd( 3p)     0.00123
   176    C   12  dxy    Ryd( 3d)     0.00059
   177    C   12  dxz    Ryd( 3d)     0.00084
   178    C   12  dyz    Ryd( 3d)     0.00042
   179    C   12  dx2y2  Ryd( 3d)     0.00076
   180    C   12  dz2    Ryd( 3d)     0.00036

   181    C   13  S      Cor( 1S)     1.99908
   182    C   13  S      Val( 2S)     0.94687
   183    C   13  S      Ryd( 3S)     0.00068
   184    C   13  S      Ryd( 4S)     0.00005
   185    C   13  px     Val( 2p)     1.12739
   186    C   13  px     Ryd( 3p)     0.00455
   187    C   13  py     Val( 2p)     1.12702
   188    C   13  py     Ryd( 3p)     0.00482
   189    C   13  pz     Val( 2p)     0.99123
   190    C   13  pz     Ryd( 3p)     0.00188
   191    C   13  dxy    Ryd( 3d)     0.00086
   192    C   13  dxz    Ryd( 3d)     0.00042
   193    C   13  dyz    Ryd( 3d)     0.00062
   194    C   13  dx2y2  Ryd( 3d)     0.00061
   195    C   13  dz2    Ryd( 3d)     0.00043

   196    C   14  S      Cor( 1S)     1.99910
   197    C   14  S      Val( 2S)     0.95457
   198    C   14  S      Ryd( 3S)     0.00061
   199    C   14  S      Ryd( 4S)     0.00003
   200    C   14  px     Val( 2p)     1.17403
   201    C   14  px     Ryd( 3p)     0.00479
   202    C   14  py     Val( 2p)     1.07519
   203    C   14  py     Ryd( 3p)     0.00487
   204    C   14  pz     Val( 2p)     1.06444
   205    C   14  pz     Ryd( 3p)     0.00298
   206    C   14  dxy    Ryd( 3d)     0.00071
   207    C   14  dxz    Ryd( 3d)     0.00033
   208    C   14  dyz    Ryd( 3d)     0.00050
   209    C   14  dx2y2  Ryd( 3d)     0.00076
   210    C   14  dz2    Ryd( 3d)     0.00043

   211    C   15  S      Cor( 1S)     1.99911
   212    C   15  S      Val( 2S)     0.96223
   213    C   15  S      Ryd( 3S)     0.00058
   214    C   15  S      Ryd( 4S)     0.00003
   215    C   15  px     Val( 2p)     1.06742
   216    C   15  px     Ryd( 3p)     0.00455
   217    C   15  py     Val( 2p)     1.19017
   218    C   15  py     Ryd( 3p)     0.00519
   219    C   15  pz     Val( 2p)     0.96451
   220    C   15  pz     Ryd( 3p)     0.00100
   221    C   15  dxy    Ryd( 3d)     0.00065
   222    C   15  dxz    Ryd( 3d)     0.00080
   223    C   15  dyz    Ryd( 3d)     0.00031
   224    C   15  dx2y2  Ryd( 3d)     0.00088
   225    C   15  dz2    Ryd( 3d)     0.00043

   226    C   16  S      Cor( 1S)     1.99908
   227    C   16  S      Val( 2S)     0.94142
   228    C   16  S      Ryd( 3S)     0.00065
   229    C   16  S      Ryd( 4S)     0.00005
   230    C   16  px     Val( 2p)     1.14281
   231    C   16  px     Ryd( 3p)     0.00396
   232    C   16  py     Val( 2p)     1.10424
   233    C   16  py     Ryd( 3p)     0.00441
   234    C   16  pz     Val( 2p)     1.03790
   235    C   16  pz     Ryd( 3p)     0.00259
   236    C   16  dxy    Ryd( 3d)     0.00085
   237    C   16  dxz    Ryd( 3d)     0.00045
   238    C   16  dyz    Ryd( 3d)     0.00040
   239    C   16  dx2y2  Ryd( 3d)     0.00063
   240    C   16  dz2    Ryd( 3d)     0.00042

   241    H   17  S      Val( 1S)     0.78725
   242    H   17  S      Ryd( 2S)     0.00164

   243    H   18  S      Val( 1S)     0.78725
   244    H   18  S      Ryd( 2S)     0.00164

   245    H   19  S      Val( 1S)     0.76447
   246    H   19  S      Ryd( 2S)     0.00049

   247    H   20  S      Val( 1S)     0.76173
   248    H   20  S      Ryd( 2S)     0.00111

   249    H   21  S      Val( 1S)     0.77279
   250    H   21  S      Ryd( 2S)     0.00111

   251    H   22  S      Val( 1S)     0.76641
   252    H   22  S      Ryd( 2S)     0.00081

   253    H   23  S      Val( 1S)     0.76503
   254    H   23  S      Ryd( 2S)     0.00082

   255    H   24  S      Val( 1S)     0.76985
   256    H   24  S      Ryd( 2S)     0.00096

   257    H   25  S      Val( 1S)     0.75683
   258    H   25  S      Ryd( 2S)     0.00116

   259    H   26  S      Val( 1S)     0.76876
   260    H   26  S      Ryd( 2S)     0.00080

   261    H   27  S      Val( 1S)     0.76697
   262    H   27  S      Ryd( 2S)     0.00084

   263    H   28  S      Val( 1S)     0.77331
   264    H   28  S      Ryd( 2S)     0.00099

 WARNING:  1 low occupancy (<1.9990e) core orbital  found on  C    3
           1 low occupancy (<1.9990e) core orbital  found on  C    4
           1 low occupancy (<1.9990e) core orbital  found on  C   12


 Summary of Natural Population Analysis:                  
                                                          
                                       Natural Population 
                Natural  -----------------------------------------------
    Atom  No    Charge         Core      Valence    Rydberg      Total
 -----------------------------------------------------------------------
      C    1   -0.32207      1.99943     4.30842    0.01422     6.32207
      O    2   -0.48055      1.99974     6.46911    0.01169     8.48055
      C    3    0.38675      1.99876     3.59225    0.02224     5.61325
      C    4   -0.23250      1.99899     4.22151    0.01199     6.23250
      C    5   -0.05926      1.99903     4.04504    0.01518     6.05926
      C    6   -0.20724      1.99907     4.19378    0.01438     6.20724
      C    7   -0.28235      1.99911     4.26719    0.01605     6.28235
      C    8   -0.18351      1.99911     4.16992    0.01448     6.18351
      C    9   -0.24314      1.99908     4.22949    0.01457     6.24314
      C   10   -0.03339      1.99901     4.01960    0.01478     6.03339
      C   11   -0.05177      1.99903     4.03751    0.01523     6.05177
      C   12   -0.11040      1.99898     4.09642    0.01500     6.11040
      C   13   -0.20648      1.99908     4.19251    0.01489     6.20648
      C   14   -0.28336      1.99910     4.26824    0.01601     6.28336
      C   15   -0.19787      1.99911     4.18434    0.01442     6.19787
      C   16   -0.23987      1.99908     4.22638    0.01441     6.23987
      H   17    0.21110      0.00000     0.78725    0.00164     0.78890
      H   18    0.21110      0.00000     0.78725    0.00164     0.78890
      H   19    0.23504      0.00000     0.76447    0.00049     0.76496
      H   20    0.23715      0.00000     0.76173    0.00111     0.76285
      H   21    0.22610      0.00000     0.77279    0.00111     0.77390
      H   22    0.23278      0.00000     0.76641    0.00081     0.76722
      H   23    0.23415      0.00000     0.76503    0.00082     0.76585
      H   24    0.22919      0.00000     0.76985    0.00096     0.77081
      H   25    0.24202      0.00000     0.75683    0.00116     0.75798
      H   26    0.23044      0.00000     0.76876    0.00080     0.76956
      H   27    0.23220      0.00000     0.76697    0.00084     0.76780
      H   28    0.22570      0.00000     0.77331    0.00099     0.77430
 =======================================================================
   * Total *    0.00000     31.98570    77.76238    0.25191   110.00000

                                 Natural Population      
 --------------------------------------------------------
   Core                      31.98570 ( 99.9553% of  32)
   Valence                   77.76238 ( 99.6954% of  78)
   Natural Minimal Basis    109.74809 ( 99.7710% of 110)
   Natural Rydberg Basis      0.25191 (  0.2290% of 110)
 --------------------------------------------------------

    Atom  No          Natural Electron Configuration
 ----------------------------------------------------------------------------
      C    1      [core]2S( 1.10)2p( 3.21)3p( 0.01)3d( 0.01)
      O    2      [core]2S( 1.59)2p( 4.88)3p( 0.01)3d( 0.01)
      C    3      [core]2S( 0.83)2p( 2.76)3p( 0.01)3d( 0.01)
      C    4      [core]2S( 0.95)2p( 3.27)3p( 0.01)
      C    5      [core]2S( 0.87)2p( 3.18)3p( 0.01)
      C    6      [core]2S( 0.95)2p( 3.25)3p( 0.01)
      C    7      [core]2S( 0.96)2p( 3.31)3p( 0.01)
      C    8      [core]2S( 0.97)2p( 3.20)3p( 0.01)
      C    9      [core]2S( 0.94)2p( 3.29)3p( 0.01)
      C   10      [core]2S( 0.86)2p( 3.16)3p( 0.01)
      C   11      [core]2S( 0.86)2p( 3.18)3p( 0.01)
      C   12      [core]2S( 0.87)2p( 3.23)3p( 0.01)
      C   13      [core]2S( 0.95)2p( 3.25)3p( 0.01)
      C   14      [core]2S( 0.95)2p( 3.31)3p( 0.01)
      C   15      [core]2S( 0.96)2p( 3.22)3p( 0.01)
      C   16      [core]2S( 0.94)2p( 3.28)3p( 0.01)
      H   17            1S( 0.79)
      H   18            1S( 0.79)
      H   19            1S( 0.76)
      H   20            1S( 0.76)
      H   21            1S( 0.77)
      H   22            1S( 0.77)
      H   23            1S( 0.77)
      H   24            1S( 0.77)
      H   25            1S( 0.76)
      H   26            1S( 0.77)
      H   27            1S( 0.77)
      H   28            1S( 0.77)


 NBO analysis skipped by request.
 Leave Link  607 at Fri Oct  1 00:17:04 2021, MaxMem= 1073741824 cpu:      15.9
 (Enter /sw/target/amd/app/gaussian/Gaussian09RevA.02_gcc-4.9.2/g09/l9999.exe)
 1\1\GINC-HERMITE\SP\RTD-B3LYP-FC\6-31G(d)\C15H12O1\JSCHLEINITZ\01-Oct-
 2021\0\\#p TD(NStates=10, Root=1) b3lyp/6-31G* volume pop=NPA density=
 current Geom=AllCheck Guess=Read\\COc1cc2ccccc2c2c1cccc2_conf_0\\0,1\C
 ,0,1.7942085131,-0.2379787615,-0.4977335254\O,0,1.7737322147,-0.427020
 0288,0.9074930508\C,0,2.5760123144,0.3655737975,1.6752007102\C,0,3.404
 8501258,1.3357164054,1.1908021147\C,0,4.2152170869,2.1239339355,2.0739
 14411\C,0,5.0691909104,3.1254489654,1.5553749603\C,0,5.8572948374,3.89
 51114569,2.3889319322\C,0,5.8140697839,3.683732487,3.778665597\C,0,4.9
 858458156,2.7092647444,4.3075401253\C,0,4.1678163276,1.9057861727,3.48
 12009622\C,0,3.2819194926,0.8689232813,3.9983181616\C,0,2.489087298,0.
 1018382247,3.096062885\C,0,1.6291559437,-0.9041474656,3.5900293128\C,0
 ,1.5435129222,-1.1584967406,4.9455838702\C,0,2.3204073581,-0.408437473
 ,5.8451804393\C,0,3.1675252593,0.5801220563,5.3782308506\H,0,2.7940782
 907,-0.4227975221,-0.9116578298\H,0,1.4735737078,0.7761968706,-0.76968
 93772\H,0,1.0905834551,-0.9641476812,-0.9087297208\H,0,3.4734391604,1.
 5372998541,0.1276905103\H,0,5.0953557839,3.2810730243,0.4791695181\H,0
 ,6.5075941445,4.66019295,1.9732794638\H,0,6.4311623143,4.2853414366,4.
 4403741447\H,0,4.9726148111,2.567901384,5.3830203963\H,0,1.0369399314,
 -1.4734024326,2.8831469691\H,0,0.8784526594,-1.9349549959,5.3136307477
 \H,0,2.2575572999,-0.6034950911,6.9124613633\H,0,3.7547639016,1.142647
 1604,6.0957191733\\Version=AM64L-G09RevA.02\State=1-A\HF=-654.0620811\
 RMSD=4.932e-09\Dipole=-0.1445671,-0.0108047,-1.2538523\Quadrupole=-4.5
 487841,-4.5022735,9.0510576,3.7022327,3.8447763,2.1816679\PG=C01 [X(C1
 5H12O1)]\\@


 THE DIFFERENCE BETWEEN A NOOSE AND A HALO IS ONLY 12 INCHES.
 Job cpu time:  0 days  3 hours 19 minutes 10.0 seconds.
 File lengths (MBytes):  RWF=    223 Int=      0 D2E=      0 Chk=     31 Scr=      1
 Normal termination of Gaussian 09 at Fri Oct  1 00:17:08 2021.
