 Entering Gaussian System, Link 0=g09
 Input=C16H18O3_4be8_conf_0.com
 Output=C16H18O3_4be8_conf_0.log
 Initial command:
 /sw/target/amd/app/gaussian/Gaussian09RevA.02_gcc-4.9.2/g09/l1.exe /home/jschleinitz/gaussian/Gau-750215.inp -scrdir=/home/jschleinitz/gaussian/
 Entering Link 1 = /sw/target/amd/app/gaussian/Gaussian09RevA.02_gcc-4.9.2/g09/l1.exe PID=    750238.
  
 Copyright (c) 1988,1990,1992,1993,1995,1998,2003,2009, Gaussian, Inc.
                  All Rights Reserved.
  
 This is part of the Gaussian(R) 09 program.  It is based on
 the Gaussian(R) 03 system (copyright 2003, Gaussian, Inc.),
 the Gaussian(R) 98 system (copyright 1998, Gaussian, Inc.),
 the Gaussian(R) 94 system (copyright 1995, Gaussian, Inc.),
 the Gaussian 92(TM) system (copyright 1992, Gaussian, Inc.),
 the Gaussian 90(TM) system (copyright 1990, Gaussian, Inc.),
 the Gaussian 88(TM) system (copyright 1988, Gaussian, Inc.),
 the Gaussian 86(TM) system (copyright 1986, Carnegie Mellon
 University), and the Gaussian 82(TM) system (copyright 1983,
 Carnegie Mellon University). Gaussian is a federally registered
 trademark of Gaussian, Inc.
  
 This software contains proprietary and confidential information,
 including trade secrets, belonging to Gaussian, Inc.
  
 This software is provided under written license and may be
 used, copied, transmitted, or stored only in accord with that
 written license.
  
 The following legend is applicable only to US Government
 contracts under FAR:
  
                    RESTRICTED RIGHTS LEGEND
  
 Use, reproduction and disclosure by the US Government is
 subject to restrictions as set forth in subparagraphs (a)
 and (c) of the Commercial Computer Software - Restricted
 Rights clause in FAR 52.227-19.
  
 Gaussian, Inc.
 340 Quinnipiac St., Bldg. 40, Wallingford CT 06492
  
  
 ---------------------------------------------------------------
 Warning -- This program may not be used in any manner that
 competes with the business of Gaussian, Inc. or will provide
 assistance to any competitor of Gaussian, Inc.  The licensee
 of this program is prohibited from giving any competitor of
 Gaussian, Inc. access to this program.  By using this program,
 the user acknowledges that Gaussian, Inc. is engaged in the
 business of creating and licensing software in the field of
 computational chemistry and represents and warrants to the
 licensee that it is not a competitor of Gaussian, Inc. and that
 it will not use this program in any manner prohibited above.
 ---------------------------------------------------------------
  

 Cite this work as:
 Gaussian 09, Revision A.02,
 M. J. Frisch, G. W. Trucks, H. B. Schlegel, G. E. Scuseria, 
 M. A. Robb, J. R. Cheeseman, G. Scalmani, V. Barone, B. Mennucci, 
 G. A. Petersson, H. Nakatsuji, M. Caricato, X. Li, H. P. Hratchian, 
 A. F. Izmaylov, J. Bloino, G. Zheng, J. L. Sonnenberg, M. Hada, 
 M. Ehara, K. Toyota, R. Fukuda, J. Hasegawa, M. Ishida, T. Nakajima, 
 Y. Honda, O. Kitao, H. Nakai, T. Vreven, J. A. Montgomery, Jr., 
 J. E. Peralta, F. Ogliaro, M. Bearpark, J. J. Heyd, E. Brothers, 
 K. N. Kudin, V. N. Staroverov, R. Kobayashi, J. Normand, 
 K. Raghavachari, A. Rendell, J. C. Burant, S. S. Iyengar, J. Tomasi, 
 M. Cossi, N. Rega, J. M. Millam, M. Klene, J. E. Knox, J. B. Cross, 
 V. Bakken, C. Adamo, J. Jaramillo, R. Gomperts, R. E. Stratmann, 
 O. Yazyev, A. J. Austin, R. Cammi, C. Pomelli, J. W. Ochterski, 
 R. L. Martin, K. Morokuma, V. G. Zakrzewski, G. A. Voth, 
 P. Salvador, J. J. Dannenberg, S. Dapprich, A. D. Daniels, 
 O. Farkas, J. B. Foresman, J. V. Ortiz, J. Cioslowski, 
 and D. J. Fox, Gaussian, Inc., Wallingford CT, 2009.
 
 ******************************************
 Gaussian 09:  AM64L-G09RevA.02 11-Jun-2009
                29-Sep-2021 
 ******************************************
 %nproc=6
 Will use up to    6 processors via shared memory.
 %mem=12gb
 %chk=C16H18O3_4be8_conf_0.chk
 -----------------------------------
 #p opt b3lyp/6-31G* scf=(xqc,tight)
 -----------------------------------
 1/14=-1,18=20,19=15,26=3,38=1/1,3;
 2/9=110,12=2,17=6,18=5,40=1/2;
 3/5=1,6=6,7=1,11=2,16=1,25=1,30=1,71=1,74=-5/1,2,3;
 4//1;
 5/5=2,8=3,13=1,32=2,38=5/2,8;
 6/7=2,8=2,9=2,10=2,28=1/1;
 7//1,2,3,16;
 1/14=-1,18=20,19=15/3(2);
 2/9=110/2;
 99//99;
 2/9=110/2;
 3/5=1,6=6,7=1,11=2,16=1,25=1,30=1,71=1,74=-5/1,2,3;
 4/5=5,16=3/1;
 5/5=2,8=3,13=1,32=2,38=5/2,8;
 7//1,2,3,16;
 1/14=-1,18=20,19=15/3(-5);
 2/9=110/2;
 6/7=2,8=2,9=2,10=2,19=2,28=1/1;
 99/9=1/99;
 Leave Link    1 at Wed Sep 29 02:52:10 2021, MaxMem= 1610612736 cpu:       0.1
 (Enter /sw/target/amd/app/gaussian/Gaussian09RevA.02_gcc-4.9.2/g09/l101.exe)
 -----------------------------------------
 COc1ccc2c(c1)cc(cc2)OC(=O)C(C)(C)C_conf_0
 -----------------------------------------
 Symbolic Z-matrix:
 Charge =  0 Multiplicity = 1
 C                     3.23536   0.90614  -1.15672 
 O                     2.25092   0.11555  -0.49645 
 C                     2.72508  -0.65229   0.53282 
 C                     2.03445  -1.83845   0.77326 
 C                     2.43048  -2.68936   1.80862 
 C                     3.50615  -2.34514   2.64205 
 C                     4.19594  -1.13207   2.40933 
 C                     3.79593  -0.29962   1.35425 
 C                     5.26089  -0.76232   3.24433 
 C                     5.63257  -1.58758   4.29928 
 C                     4.94731  -2.77422   4.55262 
 C                     3.89827  -3.16033   3.71613 
 O                     6.64454  -1.25235   5.22206 
 C                     7.79469  -0.5238    4.8819 
 O                     8.07629  -0.10636   3.77095 
 C                     8.65907  -0.34572   6.13725 
 C                     9.0258   -1.7296    6.69223 
 C                     9.95738   0.39905   5.78932 
 C                     7.87971   0.48256   7.16765 
 H                     2.7632    1.37211  -2.02628 
 H                     4.06122   0.28102  -1.51384 
 H                     3.60284   1.71352  -0.51561 
 H                     1.187    -2.10602   0.14733 
 H                     1.88332  -3.61581   1.9653 
 H                     4.32032   0.63918   1.2078 
 H                     5.77957   0.17596   3.07092 
 H                     5.22092  -3.39514   5.40084 
 H                     3.37659  -4.09284   3.91882 
 H                     9.59609  -2.30389   5.95172 
 H                     8.13865  -2.32145   6.94257 
 H                     9.63638  -1.64795   7.5976 
 H                     10.5491  -0.15386   5.0512 
 H                     10.58094   0.53795   6.6807 
 H                     9.75078   1.38955   5.36897 
 H                     6.92885   0.01132   7.439 
 H                     7.64346   1.47632   6.76779 
 H                     8.45772   0.62034   8.08788 
 
 NAtoms=     37 NQM=     37 NQMF=      0 NMic=      0 NMicF=      0 NTot=     37.
                    Isotopes and Nuclear Properties:
 (Nuclear quadrupole moments (NQMom) in fm**2, nuclear magnetic moments (NMagM)
  in nuclear magnetons)

  Atom         1           2           3           4           5           6           7           8           9          10
 IAtWgt=          12          16          12          12          12          12          12          12          12          12
 AtmWgt=  12.0000000  15.9949146  12.0000000  12.0000000  12.0000000  12.0000000  12.0000000  12.0000000  12.0000000  12.0000000
 NucSpn=           0           0           0           0           0           0           0           0           0           0
 AtZEff=   0.0000000   0.0000000   0.0000000   0.0000000   0.0000000   0.0000000   0.0000000   0.0000000   0.0000000   0.0000000
 NQMom=    0.0000000   0.0000000   0.0000000   0.0000000   0.0000000   0.0000000   0.0000000   0.0000000   0.0000000   0.0000000
 NMagM=    0.0000000   0.0000000   0.0000000   0.0000000   0.0000000   0.0000000   0.0000000   0.0000000   0.0000000   0.0000000

  Atom        11          12          13          14          15          16          17          18          19          20
 IAtWgt=          12          12          16          12          16          12          12          12          12           1
 AtmWgt=  12.0000000  12.0000000  15.9949146  12.0000000  15.9949146  12.0000000  12.0000000  12.0000000  12.0000000   1.0078250
 NucSpn=           0           0           0           0           0           0           0           0           0           1
 AtZEff=   0.0000000   0.0000000   0.0000000   0.0000000   0.0000000   0.0000000   0.0000000   0.0000000   0.0000000   0.0000000
 NQMom=    0.0000000   0.0000000   0.0000000   0.0000000   0.0000000   0.0000000   0.0000000   0.0000000   0.0000000   0.0000000
 NMagM=    0.0000000   0.0000000   0.0000000   0.0000000   0.0000000   0.0000000   0.0000000   0.0000000   0.0000000   2.7928460

  Atom        21          22          23          24          25          26          27          28          29          30
 IAtWgt=           1           1           1           1           1           1           1           1           1           1
 AtmWgt=   1.0078250   1.0078250   1.0078250   1.0078250   1.0078250   1.0078250   1.0078250   1.0078250   1.0078250   1.0078250
 NucSpn=           1           1           1           1           1           1           1           1           1           1
 AtZEff=   0.0000000   0.0000000   0.0000000   0.0000000   0.0000000   0.0000000   0.0000000   0.0000000   0.0000000   0.0000000
 NQMom=    0.0000000   0.0000000   0.0000000   0.0000000   0.0000000   0.0000000   0.0000000   0.0000000   0.0000000   0.0000000
 NMagM=    2.7928460   2.7928460   2.7928460   2.7928460   2.7928460   2.7928460   2.7928460   2.7928460   2.7928460   2.7928460

  Atom        31          32          33          34          35          36          37
 IAtWgt=           1           1           1           1           1           1           1
 AtmWgt=   1.0078250   1.0078250   1.0078250   1.0078250   1.0078250   1.0078250   1.0078250
 NucSpn=           1           1           1           1           1           1           1
 AtZEff=   0.0000000   0.0000000   0.0000000   0.0000000   0.0000000   0.0000000   0.0000000
 NQMom=    0.0000000   0.0000000   0.0000000   0.0000000   0.0000000   0.0000000   0.0000000
 NMagM=    2.7928460   2.7928460   2.7928460   2.7928460   2.7928460   2.7928460   2.7928460
 Leave Link  101 at Wed Sep 29 02:52:11 2021, MaxMem= 1610612736 cpu:       0.2
 (Enter /sw/target/amd/app/gaussian/Gaussian09RevA.02_gcc-4.9.2/g09/l103.exe)

 GradGradGradGradGradGradGradGradGradGradGradGradGradGradGradGradGradGrad
 Berny optimization.
 Initialization pass.
                           ----------------------------
                           !    Initial Parameters    !
                           ! (Angstroms and Degrees)  !
 --------------------------                            --------------------------
 ! Name  Definition              Value          Derivative Info.                !
 --------------------------------------------------------------------------------
 ! R1    R(1,2)                  1.4248         estimate D2E/DX2                !
 ! R2    R(1,20)                 1.0937         estimate D2E/DX2                !
 ! R3    R(1,21)                 1.0956         estimate D2E/DX2                !
 ! R4    R(1,22)                 1.0945         estimate D2E/DX2                !
 ! R5    R(2,3)                  1.3689         estimate D2E/DX2                !
 ! R6    R(3,4)                  1.3935         estimate D2E/DX2                !
 ! R7    R(3,8)                  1.3949         estimate D2E/DX2                !
 ! R8    R(4,5)                  1.3974         estimate D2E/DX2                !
 ! R9    R(4,23)                 1.087          estimate D2E/DX2                !
 ! R10   R(5,6)                  1.4036         estimate D2E/DX2                !
 ! R11   R(5,24)                 1.0873         estimate D2E/DX2                !
 ! R12   R(6,7)                  1.4147         estimate D2E/DX2                !
 ! R13   R(6,12)                 1.4043         estimate D2E/DX2                !
 ! R14   R(7,8)                  1.4022         estimate D2E/DX2                !
 ! R15   R(7,9)                  1.4029         estimate D2E/DX2                !
 ! R16   R(8,25)                 1.0853         estimate D2E/DX2                !
 ! R17   R(9,10)                 1.39           estimate D2E/DX2                !
 ! R18   R(9,26)                 1.086          estimate D2E/DX2                !
 ! R19   R(10,11)                1.3935         estimate D2E/DX2                !
 ! R20   R(10,13)                1.41           estimate D2E/DX2                !
 ! R21   R(11,12)                1.3962         estimate D2E/DX2                !
 ! R22   R(11,27)                1.0862         estimate D2E/DX2                !
 ! R23   R(12,28)                1.0876         estimate D2E/DX2                !
 ! R24   R(13,14)                1.4033         estimate D2E/DX2                !
 ! R25   R(14,15)                1.2197         estimate D2E/DX2                !
 ! R26   R(14,16)                1.5345         estimate D2E/DX2                !
 ! R27   R(16,17)                1.5354         estimate D2E/DX2                !
 ! R28   R(16,18)                1.5367         estimate D2E/DX2                !
 ! R29   R(16,19)                1.5347         estimate D2E/DX2                !
 ! R30   R(17,29)                1.097          estimate D2E/DX2                !
 ! R31   R(17,30)                1.0954         estimate D2E/DX2                !
 ! R32   R(17,31)                1.0951         estimate D2E/DX2                !
 ! R33   R(18,32)                1.0957         estimate D2E/DX2                !
 ! R34   R(18,33)                1.0967         estimate D2E/DX2                !
 ! R35   R(18,34)                1.0957         estimate D2E/DX2                !
 ! R36   R(19,35)                1.0954         estimate D2E/DX2                !
 ! R37   R(19,36)                1.0969         estimate D2E/DX2                !
 ! R38   R(19,37)                1.0954         estimate D2E/DX2                !
 ! A1    A(2,1,20)             107.8516         estimate D2E/DX2                !
 ! A2    A(2,1,21)             110.8101         estimate D2E/DX2                !
 ! A3    A(2,1,22)             111.7059         estimate D2E/DX2                !
 ! A4    A(20,1,21)            108.0204         estimate D2E/DX2                !
 ! A5    A(20,1,22)            107.2399         estimate D2E/DX2                !
 ! A6    A(21,1,22)            111.023          estimate D2E/DX2                !
 ! A7    A(1,2,3)              114.8573         estimate D2E/DX2                !
 ! A8    A(2,3,4)              115.8204         estimate D2E/DX2                !
 ! A9    A(2,3,8)              124.5321         estimate D2E/DX2                !
 ! A10   A(4,3,8)              119.6084         estimate D2E/DX2                !
 ! A11   A(3,4,5)              120.3781         estimate D2E/DX2                !
 ! A12   A(3,4,23)             119.7735         estimate D2E/DX2                !
 ! A13   A(5,4,23)             119.8471         estimate D2E/DX2                !
 ! A14   A(4,5,6)              120.5155         estimate D2E/DX2                !
 ! A15   A(4,5,24)             118.8796         estimate D2E/DX2                !
 ! A16   A(6,5,24)             120.6003         estimate D2E/DX2                !
 ! A17   A(5,6,7)              119.095          estimate D2E/DX2                !
 ! A18   A(5,6,12)             121.721          estimate D2E/DX2                !
 ! A19   A(7,6,12)             119.172          estimate D2E/DX2                !
 ! A20   A(6,7,8)              119.5857         estimate D2E/DX2                !
 ! A21   A(6,7,9)              119.8818         estimate D2E/DX2                !
 ! A22   A(8,7,9)              120.5268         estimate D2E/DX2                !
 ! A23   A(3,8,7)              120.7965         estimate D2E/DX2                !
 ! A24   A(3,8,25)             120.6751         estimate D2E/DX2                !
 ! A25   A(7,8,25)             118.5065         estimate D2E/DX2                !
 ! A26   A(7,9,10)             119.8829         estimate D2E/DX2                !
 ! A27   A(7,9,26)             119.6839         estimate D2E/DX2                !
 ! A28   A(10,9,26)            120.4261         estimate D2E/DX2                !
 ! A29   A(9,10,11)            120.8015         estimate D2E/DX2                !
 ! A30   A(9,10,13)            123.1933         estimate D2E/DX2                !
 ! A31   A(11,10,13)           115.8758         estimate D2E/DX2                !
 ! A32   A(10,11,12)           119.7395         estimate D2E/DX2                !
 ! A33   A(10,11,27)           120.323          estimate D2E/DX2                !
 ! A34   A(12,11,27)           119.936          estimate D2E/DX2                !
 ! A35   A(6,12,11)            120.4992         estimate D2E/DX2                !
 ! A36   A(6,12,28)            120.4218         estimate D2E/DX2                !
 ! A37   A(11,12,28)           119.0695         estimate D2E/DX2                !
 ! A38   A(10,13,14)           123.5757         estimate D2E/DX2                !
 ! A39   A(13,14,15)           125.9913         estimate D2E/DX2                !
 ! A40   A(13,14,16)           108.8817         estimate D2E/DX2                !
 ! A41   A(15,14,16)           125.124          estimate D2E/DX2                !
 ! A42   A(14,16,17)           109.004          estimate D2E/DX2                !
 ! A43   A(14,16,18)           110.2995         estimate D2E/DX2                !
 ! A44   A(14,16,19)           109.0161         estimate D2E/DX2                !
 ! A45   A(17,16,18)           108.4738         estimate D2E/DX2                !
 ! A46   A(17,16,19)           111.4108         estimate D2E/DX2                !
 ! A47   A(18,16,19)           108.6333         estimate D2E/DX2                !
 ! A48   A(16,17,29)           110.6102         estimate D2E/DX2                !
 ! A49   A(16,17,30)           112.0938         estimate D2E/DX2                !
 ! A50   A(16,17,31)           111.3954         estimate D2E/DX2                !
 ! A51   A(29,17,30)           107.0039         estimate D2E/DX2                !
 ! A52   A(29,17,31)           107.8948         estimate D2E/DX2                !
 ! A53   A(30,17,31)           107.6319         estimate D2E/DX2                !
 ! A54   A(16,18,32)           111.359          estimate D2E/DX2                !
 ! A55   A(16,18,33)           110.9619         estimate D2E/DX2                !
 ! A56   A(16,18,34)           111.4509         estimate D2E/DX2                !
 ! A57   A(32,18,33)           107.7216         estimate D2E/DX2                !
 ! A58   A(32,18,34)           107.4312         estimate D2E/DX2                !
 ! A59   A(33,18,34)           107.7306         estimate D2E/DX2                !
 ! A60   A(16,19,35)           112.0233         estimate D2E/DX2                !
 ! A61   A(16,19,36)           110.7066         estimate D2E/DX2                !
 ! A62   A(16,19,37)           111.3435         estimate D2E/DX2                !
 ! A63   A(35,19,36)           107.043          estimate D2E/DX2                !
 ! A64   A(35,19,37)           107.7011         estimate D2E/DX2                !
 ! A65   A(36,19,37)           107.8142         estimate D2E/DX2                !
 ! D1    D(20,1,2,3)           173.1291         estimate D2E/DX2                !
 ! D2    D(21,1,2,3)            55.0891         estimate D2E/DX2                !
 ! D3    D(22,1,2,3)           -69.2688         estimate D2E/DX2                !
 ! D4    D(1,2,3,4)           -150.6063         estimate D2E/DX2                !
 ! D5    D(1,2,3,8)             31.6836         estimate D2E/DX2                !
 ! D6    D(2,3,4,5)           -179.4714         estimate D2E/DX2                !
 ! D7    D(2,3,4,23)             0.9374         estimate D2E/DX2                !
 ! D8    D(8,3,4,5)             -1.6411         estimate D2E/DX2                !
 ! D9    D(8,3,4,23)           178.7678         estimate D2E/DX2                !
 ! D10   D(2,3,8,7)            178.3918         estimate D2E/DX2                !
 ! D11   D(2,3,8,25)             0.1196         estimate D2E/DX2                !
 ! D12   D(4,3,8,7)              0.7627         estimate D2E/DX2                !
 ! D13   D(4,3,8,25)          -177.5095         estimate D2E/DX2                !
 ! D14   D(3,4,5,6)              1.6718         estimate D2E/DX2                !
 ! D15   D(3,4,5,24)          -179.1059         estimate D2E/DX2                !
 ! D16   D(23,4,5,6)          -178.7374         estimate D2E/DX2                !
 ! D17   D(23,4,5,24)            0.4849         estimate D2E/DX2                !
 ! D18   D(4,5,6,7)             -0.8002         estimate D2E/DX2                !
 ! D19   D(4,5,6,12)           177.9308         estimate D2E/DX2                !
 ! D20   D(24,5,6,7)           179.991          estimate D2E/DX2                !
 ! D21   D(24,5,6,12)           -1.278          estimate D2E/DX2                !
 ! D22   D(5,6,7,8)             -0.0748         estimate D2E/DX2                !
 ! D23   D(5,6,7,9)            179.0652         estimate D2E/DX2                !
 ! D24   D(12,6,7,8)          -178.8386         estimate D2E/DX2                !
 ! D25   D(12,6,7,9)             0.3014         estimate D2E/DX2                !
 ! D26   D(5,6,12,11)         -178.1323         estimate D2E/DX2                !
 ! D27   D(5,6,12,28)            0.7363         estimate D2E/DX2                !
 ! D28   D(7,6,12,11)            0.5978         estimate D2E/DX2                !
 ! D29   D(7,6,12,28)          179.4664         estimate D2E/DX2                !
 ! D30   D(6,7,8,3)              0.0918         estimate D2E/DX2                !
 ! D31   D(6,7,8,25)           178.4008         estimate D2E/DX2                !
 ! D32   D(9,7,8,3)           -179.0425         estimate D2E/DX2                !
 ! D33   D(9,7,8,25)            -0.7335         estimate D2E/DX2                !
 ! D34   D(6,7,9,10)            -0.15           estimate D2E/DX2                !
 ! D35   D(6,7,9,26)          -179.1825         estimate D2E/DX2                !
 ! D36   D(8,7,9,10)           178.9818         estimate D2E/DX2                !
 ! D37   D(8,7,9,26)            -0.0508         estimate D2E/DX2                !
 ! D38   D(7,9,10,11)           -0.9096         estimate D2E/DX2                !
 ! D39   D(7,9,10,13)         -176.6002         estimate D2E/DX2                !
 ! D40   D(26,9,10,11)         178.1157         estimate D2E/DX2                !
 ! D41   D(26,9,10,13)           2.4251         estimate D2E/DX2                !
 ! D42   D(9,10,11,12)           1.8065         estimate D2E/DX2                !
 ! D43   D(9,10,11,27)        -177.7543         estimate D2E/DX2                !
 ! D44   D(13,10,11,12)        177.7989         estimate D2E/DX2                !
 ! D45   D(13,10,11,27)         -1.7618         estimate D2E/DX2                !
 ! D46   D(9,10,13,14)         -34.3217         estimate D2E/DX2                !
 ! D47   D(11,10,13,14)        149.7919         estimate D2E/DX2                !
 ! D48   D(10,11,12,6)          -1.6448         estimate D2E/DX2                !
 ! D49   D(10,11,12,28)        179.4714         estimate D2E/DX2                !
 ! D50   D(27,11,12,6)         177.9177         estimate D2E/DX2                !
 ! D51   D(27,11,12,28)         -0.9661         estimate D2E/DX2                !
 ! D52   D(10,13,14,15)         -0.8954         estimate D2E/DX2                !
 ! D53   D(10,13,14,16)        179.7098         estimate D2E/DX2                !
 ! D54   D(13,14,16,17)         58.6714         estimate D2E/DX2                !
 ! D55   D(13,14,16,18)        177.6659         estimate D2E/DX2                !
 ! D56   D(13,14,16,19)        -63.137          estimate D2E/DX2                !
 ! D57   D(15,14,16,17)       -120.7299         estimate D2E/DX2                !
 ! D58   D(15,14,16,18)         -1.7354         estimate D2E/DX2                !
 ! D59   D(15,14,16,19)        117.4617         estimate D2E/DX2                !
 ! D60   D(14,16,17,29)         60.5757         estimate D2E/DX2                !
 ! D61   D(14,16,17,30)        -58.7554         estimate D2E/DX2                !
 ! D62   D(14,16,17,31)       -179.429          estimate D2E/DX2                !
 ! D63   D(18,16,17,29)        -59.5515         estimate D2E/DX2                !
 ! D64   D(18,16,17,30)       -178.8827         estimate D2E/DX2                !
 ! D65   D(18,16,17,31)         60.4437         estimate D2E/DX2                !
 ! D66   D(19,16,17,29)       -179.079          estimate D2E/DX2                !
 ! D67   D(19,16,17,30)         61.5898         estimate D2E/DX2                !
 ! D68   D(19,16,17,31)        -59.0838         estimate D2E/DX2                !
 ! D69   D(14,16,18,32)        -60.3733         estimate D2E/DX2                !
 ! D70   D(14,16,18,33)        179.6383         estimate D2E/DX2                !
 ! D71   D(14,16,18,34)         59.5771         estimate D2E/DX2                !
 ! D72   D(17,16,18,32)         58.9436         estimate D2E/DX2                !
 ! D73   D(17,16,18,33)        -61.0448         estimate D2E/DX2                !
 ! D74   D(17,16,18,34)        178.894          estimate D2E/DX2                !
 ! D75   D(19,16,18,32)       -179.8029         estimate D2E/DX2                !
 ! D76   D(19,16,18,33)         60.2087         estimate D2E/DX2                !
 ! D77   D(19,16,18,34)        -59.8525         estimate D2E/DX2                !
 ! D78   D(14,16,19,35)         58.4632         estimate D2E/DX2                !
 ! D79   D(14,16,19,36)        -60.9362         estimate D2E/DX2                !
 ! D80   D(14,16,19,37)        179.1401         estimate D2E/DX2                !
 ! D81   D(17,16,19,35)        -61.8749         estimate D2E/DX2                !
 ! D82   D(17,16,19,36)        178.7257         estimate D2E/DX2                !
 ! D83   D(17,16,19,37)         58.802          estimate D2E/DX2                !
 ! D84   D(18,16,19,35)        178.6923         estimate D2E/DX2                !
 ! D85   D(18,16,19,36)         59.293          estimate D2E/DX2                !
 ! D86   D(18,16,19,37)        -60.6308         estimate D2E/DX2                !
 --------------------------------------------------------------------------------
 Trust Radius=3.00D-01 FncErr=1.00D-07 GrdErr=1.00D-06
 Number of steps in this run= 199 maximum allowed number of steps= 222.
 GradGradGradGradGradGradGradGradGradGradGradGradGradGradGradGradGradGrad

 Leave Link  103 at Wed Sep 29 02:52:12 2021, MaxMem= 1610612736 cpu:       0.0
 (Enter /sw/target/amd/app/gaussian/Gaussian09RevA.02_gcc-4.9.2/g09/l202.exe)
                          Input orientation:                          
 ---------------------------------------------------------------------
 Center     Atomic      Atomic             Coordinates (Angstroms)
 Number     Number       Type             X           Y           Z
 ---------------------------------------------------------------------
      1          6           0        3.235364    0.906138   -1.156722
      2          8           0        2.250924    0.115552   -0.496447
      3          6           0        2.725080   -0.652292    0.532816
      4          6           0        2.034454   -1.838449    0.773261
      5          6           0        2.430485   -2.689364    1.808618
      6          6           0        3.506147   -2.345137    2.642051
      7          6           0        4.195943   -1.132071    2.409328
      8          6           0        3.795930   -0.299619    1.354253
      9          6           0        5.260893   -0.762315    3.244334
     10          6           0        5.632568   -1.587581    4.299277
     11          6           0        4.947307   -2.774216    4.552624
     12          6           0        3.898265   -3.160332    3.716126
     13          8           0        6.644542   -1.252349    5.222059
     14          6           0        7.794689   -0.523797    4.881903
     15          8           0        8.076289   -0.106360    3.770947
     16          6           0        8.659072   -0.345725    6.137254
     17          6           0        9.025796   -1.729601    6.692232
     18          6           0        9.957381    0.399048    5.789316
     19          6           0        7.879707    0.482558    7.167648
     20          1           0        2.763196    1.372107   -2.026277
     21          1           0        4.061217    0.281019   -1.513844
     22          1           0        3.602843    1.713520   -0.515611
     23          1           0        1.186999   -2.106023    0.147328
     24          1           0        1.883316   -3.615805    1.965303
     25          1           0        4.320318    0.639179    1.207797
     26          1           0        5.779567    0.175956    3.070917
     27          1           0        5.220921   -3.395143    5.400839
     28          1           0        3.376587   -4.092839    3.918824
     29          1           0        9.596087   -2.303887    5.951724
     30          1           0        8.138651   -2.321448    6.942567
     31          1           0        9.636376   -1.647952    7.597602
     32          1           0       10.549096   -0.153860    5.051196
     33          1           0       10.580944    0.537954    6.680700
     34          1           0        9.750782    1.389550    5.368971
     35          1           0        6.928855    0.011323    7.439004
     36          1           0        7.643456    1.476316    6.767789
     37          1           0        8.457722    0.620337    8.087885
 ---------------------------------------------------------------------
                    Distance matrix (angstroms):
                    1          2          3          4          5
     1  C    0.000000
     2  O    1.424820   0.000000
     3  C    2.354492   1.368865   0.000000
     4  C    3.563675   2.340329   1.393465   0.000000
     5  C    4.729557   3.634986   2.421594   1.397448   0.000000
     6  C    5.007473   4.180998   2.815077   2.432075   1.403621
     7  C    4.218260   3.712572   2.432061   2.801378   2.429579
     8  C    2.841316   2.446324   1.394940   2.410051   2.789583
     9  C    5.124041   4.880984   3.714132   4.204066   3.712951
    10  C    6.460119   6.110249   4.849173   5.044021   4.203647
    11  C    7.005168   6.412048   5.059615   4.862505   3.724401
    12  C    6.381243   5.584883   4.219015   3.725805   2.452504
    13  O    7.547873   7.340050   6.140948   6.433367   5.610246
    14  C    7.700465   7.750403   6.680719   7.196496   6.550531
    15  O    6.981520   7.224595   6.278453   6.963478   6.511356
    16  C    9.175285   9.234886   8.167984   8.653681   7.938830
    17  C   10.103579  10.048910   8.876825   9.161055   8.262504
    18  C    9.679364   9.948903   9.002349   9.640538   9.057506
    19  C    9.541723   9.516104   8.478152   8.968960   8.274921
    20  H    1.093708   2.044929   3.263220   4.321591   5.595773
    21  H    1.095601   2.083180   2.616324   3.718974   4.745653
    22  H    1.094500   2.093217   2.732533   4.091152   5.114867
    23  H    3.869038   2.545933   2.151192   1.087000   2.155558
    24  H    5.658891   4.485352   3.397499   2.145414   1.087307
    25  H    2.615213   2.731487   2.160620   3.398916   3.874488
    26  H    4.987892   5.018073   4.056827   4.833520   4.584737
    27  H    8.089812   7.478224   6.119648   5.830209   4.603119
    28  H    7.125369   6.202603   4.871024   4.096115   2.705147
    29  H   10.064445  10.068962   8.905226   9.176676   8.286119
    30  H   10.002900   9.795061   8.554399   8.692229   7.686088
    31  H   11.141567  11.098129   9.933204  10.217491   9.301706
    32  H    9.651555   9.985419   9.048725   9.676657   9.102469
    33  H   10.747943  11.003595  10.046281  10.657749  10.029095
    34  H    9.234122   9.605939   8.770290   9.543701   9.104965
    35  H    9.398355   9.212235   8.112185   8.474016   7.696122
    36  H    9.085937   9.148782   8.221696   8.853414   8.313924
    37  H   10.621556  10.605182   9.568794  10.040304   9.311868
                    6          7          8          9         10
     6  C    0.000000
     7  C    1.414746   0.000000
     8  C    2.434449   1.402202   0.000000
     9  C    2.438688   1.402880   2.435695   0.000000
    10  C    2.800349   2.417289   3.702060   1.390004   0.000000
    11  C    2.431325   2.802660   4.204625   2.420269   1.393510
    12  C    1.404257   2.431085   3.711145   2.798183   2.412761
    13  O    4.207154   3.731160   4.897162   2.462927   1.409963
    14  C    5.169701   4.408470   5.337101   3.026326   2.479084
    15  O    5.212746   4.238299   4.919271   2.938376   2.906015
    16  C    6.539627   5.868159   6.821244   4.482204   3.752345
    17  C    6.873818   6.482885   7.608572   5.195974   4.154564
    18  C    7.684676   6.852942   7.623739   5.466507   4.987076
    19  C    6.899631   6.230470   7.147349   4.878554   4.190783
    20  H    6.013582   5.291339   3.910140   6.210764   7.550211
    21  H    4.947349   4.172080   2.938281   5.016774   6.305013
    22  H    5.143236   4.123643   2.754343   4.797507   6.180631
    23  H    3.414567   3.888312   3.395038   5.290899   6.104961
    24  H    2.169371   3.422622   3.876670   4.602864   4.859838
    25  H    3.409707   2.143939   1.085252   2.645062   4.029604
    26  H    3.421735   2.157893   2.666069   1.086024   2.154191
    27  H    3.413776   3.888600   5.290343   3.403512   2.156426
    28  H    2.168271   3.422874   4.597977   3.885606   3.392715
    29  H    6.931305   6.563785   7.667832   5.338568   4.353522
    30  H    6.321004   6.124526   7.360453   4.938554   3.715642
    31  H    7.913485   7.535425   8.654953   6.235395   5.187781
    32  H    7.759433   6.949742   7.700252   5.621393   5.176213
    33  H    8.641507   7.861415   8.666544   6.465466   5.888591
    34  H    7.770420   6.780434   7.377771   5.413290   5.192999
    35  H    6.346542   5.837277   6.850992   4.579942   3.754296
    36  H    6.981586   6.138829   6.874866   4.806539   4.418675
    37  H    7.935315   7.312982   8.241384   5.965855   5.216315
                   11         12         13         14         15
    11  C    0.000000
    12  C    1.396174   0.000000
    13  O    2.375884   3.667460   0.000000
    14  C    3.644227   4.846903   1.403329   0.000000
    15  O    4.185571   5.175484   2.338571   1.219744   0.000000
    16  C    4.710182   6.037313   2.391209   1.534526   2.448742
    17  C    4.722628   6.098834   2.838936   2.499375   3.474246
    18  C    6.058041   7.326677   3.744836   2.520373   2.804952
    19  C    5.103322   6.405898   2.884589   2.498921   3.452976
    20  H    8.077393   7.403147   8.630816   8.754047   8.001414
    21  H    6.849938   6.262750   7.375443   7.449304   6.648299
    22  H    6.901765   6.461371   7.139269   7.190989   6.457419
    23  H    5.830355   4.604222   7.501095   8.281378   8.036889
    24  H    4.097627   2.707925   6.233912   7.280894   7.343669
    25  H    4.819984   4.572322   5.009410   5.188722   4.607916
    26  H    3.404648   3.884123   2.723168   2.798222   2.417577
    27  H    1.086225   2.154718   2.578804   3.890785   4.650352
    28  H    2.146539   1.087568   4.521762   5.760660   6.164502
    29  H    4.877483   6.180337   3.217105   2.749230   3.448869
    30  H    4.012668   5.393933   2.517039   2.756119   3.869067
    31  H    5.703308   7.090773   3.840675   3.468508   4.410631
    32  H    6.204424   7.419894   4.059731   2.784290   2.784972
    33  H    6.872921   8.192937   4.563779   3.482269   3.892955
    34  H    6.409113   7.595082   4.080433   2.779286   2.755966
    35  H    4.474031   5.753581   2.567596   2.752233   3.845139
    36  H    5.499382   6.696089   3.291311   2.753160   3.416616
    37  H    6.028604   7.361683   3.873956   3.467992   4.394261
                   16         17         18         19         20
    16  C    0.000000
    17  C    1.535448   0.000000
    18  C    1.536671   2.492841   0.000000
    19  C    1.534658   2.536373   2.494696   0.000000
    20  H   10.215456  11.173771  10.667082  10.559273   0.000000
    21  H    8.948317   9.799456   9.386950   9.486295   1.771417
    22  H    8.606193   9.654870   9.047657   8.879150   1.761727
    23  H    9.737029  10.218817  10.725065  10.038824   4.393898
    24  H    8.602876   8.770214   9.794522   8.934074   6.448734
    25  H    6.640359   7.604714   7.268044   6.943602   3.663475
    26  H    4.238646   5.223321   4.989348   4.613870   6.042405
    27  H    4.654261   4.349576   6.081190   5.022681   9.161285
    28  H    6.845943   6.722370   8.184293   7.194943   8.098525
    29  H    2.178719   1.096991   2.731807   3.491233  11.128783
    30  H    2.196099   1.095435   3.469708   2.824918  11.089546
    31  H    2.187129   1.095065   2.750119   2.794605  12.205753
    32  H    2.188270   2.737956   1.095744   3.465550  10.632001
    33  H    2.183991   2.749622   1.096673   2.745336  11.731345
    34  H    2.189353   3.464928   1.095658   2.749326  10.174298
    35  H    2.194467   2.825889   3.470414   1.095361  10.430532
    36  H    2.179193   3.492059   2.733526   1.096931  10.058002
    37  H    2.186042   2.791552   2.753428   1.095408  11.631382
                   21         22         23         24         25
    21  H    0.000000
    22  H    1.805169   0.000000
    23  H    4.088837   4.567790   0.000000
    24  H    5.659767   6.124821   2.463602   0.000000
    25  H    2.757306   2.153860   4.298652   4.961621   0.000000
    26  H    4.897325   4.468268   5.903091   5.548028   2.411473
    27  H    7.916560   7.982543   6.747869   4.794914   5.887991
    28  H    7.008084   7.309529   4.792277   2.504728   5.534644
    29  H    9.646306   9.689425  10.219732   8.780633   7.681160
    30  H    9.742135   9.616597   9.723536   8.098008   7.498838
    31  H   10.854574  10.654916  11.274235   9.782902   8.620966
    32  H    9.240208   9.095432  10.747452   9.828710   7.361950
    33  H   10.474894  10.092707  11.744010  10.730211   8.316150
    34  H    8.998507   8.516479  10.621815   9.926508   6.882468
    35  H    9.404763   8.788386   9.519486   8.280998   6.784292
    36  H    9.102012   8.332511   9.917132   9.064921   6.531276
    37  H   10.565869   9.939066  11.106255   9.932458   8.028330
                   26         27         28         29         30
    26  H    0.000000
    27  H    4.300392   0.000000
    28  H    4.971506   2.466721   0.000000
    29  H    5.386510   4.542730   6.783451   0.000000
    30  H    5.176097   3.470288   5.912537   1.762441   0.000000
    31  H    6.220329   5.232083   7.661321   1.772227   1.768007
    32  H    5.174813   6.246409   8.260914   2.518291   3.753128
    33  H    6.017873   6.770314   8.998609   3.094740   3.769556
    34  H    4.745989   6.588926   8.531698   3.742326   4.341276
    35  H    4.519751   4.321478   6.469499   3.832275   2.674300
    36  H    4.339572   5.609666   7.572203   4.332282   3.833899
    37  H    5.704380   5.815598   8.087832   3.796070   3.172957
                   31         32         33         34         35
    31  H    0.000000
    32  H    3.090235   0.000000
    33  H    2.551687   1.770567   0.000000
    34  H    3.769125   1.766466   1.770598   0.000000
    35  H    3.179468   4.339938   3.766977   3.761358   0.000000
    36  H    3.797548   3.747921   3.084954   2.530818   1.762779
    37  H    2.602832   3.767586   2.548534   3.107440   1.769005
                   36         37
    36  H    0.000000
    37  H    1.771548   0.000000
 Stoichiometry    C16H18O3
 Framework group  C1[X(C16H18O3)]
 Deg. of freedom   105
 Full point group                 C1      NOp   1
 Largest Abelian subgroup         C1      NOp   1
 Largest concise Abelian subgroup C1      NOp   1
                         Standard orientation:                         
 ---------------------------------------------------------------------
 Center     Atomic      Atomic             Coordinates (Angstroms)
 Number     Number       Type             X           Y           Z
 ---------------------------------------------------------------------
      1          6           0        4.698590   -2.673068   -0.201774
      2          8           0        4.987445   -1.366193    0.286848
      3          6           0        3.968127   -0.462705    0.150863
      4          6           0        4.352782    0.868061   -0.000290
      5          6           0        3.389295    1.871169   -0.135679
      6          6           0        2.022060    1.557495   -0.086369
      7          6           0        1.631473    0.208615    0.085305
      8          6           0        2.612280   -0.786769    0.201051
      9          6           0        0.269745   -0.121067    0.156579
     10          6           0       -0.690850    0.879089    0.061409
     11          6           0       -0.318961    2.213967   -0.085795
     12          6           0        1.033049    2.550288   -0.176675
     13          8           0       -2.073498    0.636474    0.193384
     14          6           0       -2.700385   -0.539894   -0.245370
     15          8           0       -2.154194   -1.479591   -0.798924
     16          6           0       -4.199452   -0.451218    0.070390
     17          6           0       -4.786113    0.782108   -0.631277
     18          6           0       -4.928554   -1.700013   -0.449494
     19          6           0       -4.386223   -0.372087    1.591584
     20          1           0        5.619494   -3.260949   -0.151499
     21          1           0        4.377464   -2.635074   -1.248568
     22          1           0        3.954551   -3.182021    0.418953
     23          1           0        5.408583    1.125901   -0.019563
     24          1           0        3.716829    2.899628   -0.266940
     25          1           0        2.293561   -1.812138    0.358561
     26          1           0       -0.026195   -1.155858    0.301755
     27          1           0       -1.075011    2.993003   -0.122876
     28          1           0        1.310663    3.594560   -0.300083
     29          1           0       -4.660167    0.704364   -1.718237
     30          1           0       -4.292928    1.708406   -0.317083
     31          1           0       -5.855929    0.888895   -0.423288
     32          1           0       -4.820662   -1.802128   -1.535121
     33          1           0       -6.000611   -1.650858   -0.223730
     34          1           0       -4.532982   -2.614090    0.007072
     35          1           0       -3.866970    0.489560    2.024893
     36          1           0       -3.983567   -1.268528    2.078942
     37          1           0       -5.445317   -0.292025    1.859596
 ---------------------------------------------------------------------
 Rotational constants (GHZ):      0.8425852      0.1658992      0.1443679
 Leave Link  202 at Wed Sep 29 02:52:12 2021, MaxMem= 1610612736 cpu:       0.1
 (Enter /sw/target/amd/app/gaussian/Gaussian09RevA.02_gcc-4.9.2/g09/l301.exe)
 Standard basis: 6-31G(d) (6D, 7F)
 Ernie: Thresh=  0.10000D-02 Tol=  0.10000D-05 Strict=F.
 There are   321 symmetry adapted basis functions of A   symmetry.
 Integral buffers will be    131072 words long.
 Raffenetti 2 integral format.
 Two-electron integral symmetry is turned on.
   321 basis functions,   604 primitive gaussians,   321 cartesian basis functions
    69 alpha electrons       69 beta electrons
       nuclear repulsion energy      1365.6275025925 Hartrees.
 IExCor=  402 DFT=T Ex+Corr=B3LYP ExCW=0 ScaHFX=  0.200000
 ScaDFX=  0.800000  0.720000  1.000000  0.810000 ScalE2=  1.000000  1.000000
 IRadAn=      0 IRanWt=     -1 IRanGd=            0 ICorTp=0
 NAtoms=   37 NActive=   37 NUniq=   37 SFac= 7.50D-01 NAtFMM=   80 NAOKFM=F Big=F
 Leave Link  301 at Wed Sep 29 02:52:12 2021, MaxMem= 1610612736 cpu:       0.1
 (Enter /sw/target/amd/app/gaussian/Gaussian09RevA.02_gcc-4.9.2/g09/l302.exe)
 NPDir=0 NMtPBC=     1 NCelOv=     1 NCel=       1 NClECP=     1 NCelD=      1
         NCelK=      1 NCelE2=     1 NClLst=     1 CellRange=     0.0.
 One-electron integrals computed using PRISM.
 NBasis=   321 RedAO= T  NBF=   321
 NBsUse=   321 1.00D-06 NBFU=   321
 Precomputing XC quadrature grid using
 IXCGrd= 2 IRadAn=           0 IRanWt=          -1 IRanGd=           0 AccXCQ= 1.00D-10.
 NRdTot=    2362 NPtTot=      301358 NUsed=      318386 NTot=      318418
 NSgBfM=   320   320   320   320   320 NAtAll=    37    37.
 Leave Link  302 at Wed Sep 29 02:52:18 2021, MaxMem= 1610612736 cpu:       3.7
 (Enter /sw/target/amd/app/gaussian/Gaussian09RevA.02_gcc-4.9.2/g09/l303.exe)
 DipDrv:  MaxL=1.
 Leave Link  303 at Wed Sep 29 02:52:18 2021, MaxMem= 1610612736 cpu:       0.3
 (Enter /sw/target/amd/app/gaussian/Gaussian09RevA.02_gcc-4.9.2/g09/l401.exe)
 Harris functional with IExCor=  402 diagonalized for initial guess.
 ExpMin= 1.61D-01 ExpMax= 5.48D+03 ExpMxC= 8.25D+02 IAcc=1 IRadAn=         1 AccDes= 0.00D+00
 HarFok:  IExCor=  402 AccDes= 0.00D+00 IRadAn=         1 IDoV= 1
 ScaDFX=  1.000000  1.000000  1.000000  1.000000
 FoFCou: FMM=F IPFlag=           0 FMFlag=      100000 FMFlg1=           0
         NFxFlg=           0 DoJE=T BraDBF=F KetDBF=T FulRan=T
         Omega=  0.000000  0.000000  1.000000  0.000000  0.000000 ICntrl=     500 IOpCl=  0
         NMat0=    1 NMatS0=    1 NMatT0=    0 NMatD0=    1 NMtDS0=    0 NMtDT0=    0
         I1Cent=           4 NGrid=           0.
 Petite list used in FoFCou.
 Harris En= -846.345840246497    
 Initial guess orbital symmetries:
       Occupied  (A) (A) (A) (A) (A) (A) (A) (A) (A) (A) (A) (A)
                 (A) (A) (A) (A) (A) (A) (A) (A) (A) (A) (A) (A)
                 (A) (A) (A) (A) (A) (A) (A) (A) (A) (A) (A) (A)
                 (A) (A) (A) (A) (A) (A) (A) (A) (A) (A) (A) (A)
                 (A) (A) (A) (A) (A) (A) (A) (A) (A) (A) (A) (A)
                 (A) (A) (A) (A) (A) (A) (A) (A) (A)
       Virtual   (A) (A) (A) (A) (A) (A) (A) (A) (A) (A) (A) (A)
                 (A) (A) (A) (A) (A) (A) (A) (A) (A) (A) (A) (A)
                 (A) (A) (A) (A) (A) (A) (A) (A) (A) (A) (A) (A)
                 (A) (A) (A) (A) (A) (A) (A) (A) (A) (A) (A) (A)
                 (A) (A) (A) (A) (A) (A) (A) (A) (A) (A) (A) (A)
                 (A) (A) (A) (A) (A) (A) (A) (A) (A) (A) (A) (A)
                 (A) (A) (A) (A) (A) (A) (A) (A) (A) (A) (A) (A)
                 (A) (A) (A) (A) (A) (A) (A) (A) (A) (A) (A) (A)
                 (A) (A) (A) (A) (A) (A) (A) (A) (A) (A) (A) (A)
                 (A) (A) (A) (A) (A) (A) (A) (A) (A) (A) (A) (A)
                 (A) (A) (A) (A) (A) (A) (A) (A) (A) (A) (A) (A)
                 (A) (A) (A) (A) (A) (A) (A) (A) (A) (A) (A) (A)
                 (A) (A) (A) (A) (A) (A) (A) (A) (A) (A) (A) (A)
                 (A) (A) (A) (A) (A) (A) (A) (A) (A) (A) (A) (A)
                 (A) (A) (A) (A) (A) (A) (A) (A) (A) (A) (A) (A)
                 (A) (A) (A) (A) (A) (A) (A) (A) (A) (A) (A) (A)
                 (A) (A) (A) (A) (A) (A) (A) (A) (A) (A) (A) (A)
                 (A) (A) (A) (A) (A) (A) (A) (A) (A) (A) (A) (A)
                 (A) (A) (A) (A) (A) (A) (A) (A) (A) (A) (A) (A)
                 (A) (A) (A) (A) (A) (A) (A) (A) (A) (A) (A) (A)
                 (A) (A) (A) (A) (A) (A) (A) (A) (A) (A) (A) (A)
 The electronic state of the initial guess is 1-A.
 Leave Link  401 at Wed Sep 29 02:52:32 2021, MaxMem= 1610612736 cpu:      16.0
 (Enter /sw/target/amd/app/gaussian/Gaussian09RevA.02_gcc-4.9.2/g09/l502.exe)
 Closed shell SCF:
 Requested convergence on RMS density matrix=1.00D-08 within  64 cycles.
 Requested convergence on MAX density matrix=1.00D-06.
 Requested convergence on             energy=1.00D-06.
 No special actions if energy rises.
 Using DIIS extrapolation, IDIIS=  1040.
 Integral symmetry usage will be decided dynamically.
       318040 words used for storage of precomputed grid.
 Keep R1 ints in memory in canonical form, NReq=1352818758.
 IEnd=      637060 IEndB=      637060 NGot=  1610612736 MDV=   274594514
 LenX=   274594514 LenY=   274491032
 Symmetry not used in FoFDir.
 MinBra= 0 MaxBra= 2 Meth= 1.
 IRaf=       0 NMat=   1 IRICut=       1 DoRegI=T DoRafI=F ISym2E= 0 JSym2E=0.
 Integral accuracy reduced to 1.0D-05 until final iterations.

 Cycle   1  Pass 0  IDiag  1:
 E= -845.706990717378    
 DIIS: error= 3.64D-02 at cycle   1 NSaved=   1.
 NSaved= 1 IEnMin= 1 EnMin= -845.706990717378     IErMin= 1 ErrMin= 3.64D-02
 ErrMax= 3.64D-02 EMaxC= 1.00D-01 BMatC= 5.17D-01 BMatP= 5.17D-01
 IDIUse=3 WtCom= 6.36D-01 WtEn= 3.64D-01
 Coeff-Com:  0.100D+01
 Coeff-En:   0.100D+01
 Coeff:      0.100D+01
 Gap=     0.167 Goal=   None    Shift=    0.000
 GapD=    0.167 DampG=1.000 DampE=0.500 DampFc=0.5000 IDamp=-1.
 Damping current iteration by 5.00D-01
 RMSDP=5.07D-03 MaxDP=1.99D-01              OVMax= 2.13D-01

 Cycle   2  Pass 0  IDiag  1:
 E= -845.894760863132     Delta-E=       -0.187770145754 Rises=F Damp=T
 DIIS: error= 1.21D-02 at cycle   2 NSaved=   2.
 NSaved= 2 IEnMin= 2 EnMin= -845.894760863132     IErMin= 2 ErrMin= 1.21D-02
 ErrMax= 1.21D-02 EMaxC= 1.00D-01 BMatC= 6.38D-02 BMatP= 5.17D-01
 IDIUse=3 WtCom= 8.79D-01 WtEn= 1.21D-01
 Coeff-Com:  0.163D+00 0.837D+00
 Coeff-En:   0.243D+00 0.757D+00
 Coeff:      0.173D+00 0.827D+00
 Gap=     0.161 Goal=   None    Shift=    0.000
 RMSDP=1.79D-03 MaxDP=7.62D-02 DE=-1.88D-01 OVMax= 1.71D-01

 Cycle   3  Pass 0  IDiag  1:
 E= -846.145319025242     Delta-E=       -0.250558162109 Rises=F Damp=F
 DIIS: error= 1.90D-02 at cycle   3 NSaved=   3.
 NSaved= 3 IEnMin= 3 EnMin= -846.145319025242     IErMin= 2 ErrMin= 1.21D-02
 ErrMax= 1.90D-02 EMaxC= 1.00D-01 BMatC= 9.49D-02 BMatP= 6.38D-02
 IDIUse=2 WtCom= 0.00D+00 WtEn= 1.00D+00
 Coeff-En:   0.000D+00 0.000D+00 0.100D+01
 Coeff:      0.000D+00 0.000D+00 0.100D+01
 Gap=     0.162 Goal=   None    Shift=    0.000
 RMSDP=2.86D-03 MaxDP=1.79D-01 DE=-2.51D-01 OVMax= 2.74D-01

 Cycle   4  Pass 0  IDiag  1:
 E= -845.706466353652     Delta-E=        0.438852671589 Rises=F Damp=F
 DIIS: error= 4.83D-02 at cycle   4 NSaved=   4.
 NSaved= 4 IEnMin= 3 EnMin= -846.145319025242     IErMin= 2 ErrMin= 1.21D-02
 ErrMax= 4.83D-02 EMaxC= 1.00D-01 BMatC= 6.46D-01 BMatP= 6.38D-02
 IDIUse=2 WtCom= 0.00D+00 WtEn= 1.00D+00
 Coeff-En:   0.000D+00 0.000D+00 0.809D+00 0.191D+00
 Coeff:      0.000D+00 0.000D+00 0.809D+00 0.191D+00
 Gap=     0.202 Goal=   None    Shift=    0.000
 RMSDP=1.52D-03 MaxDP=9.09D-02 DE= 4.39D-01 OVMax= 1.23D-01

 Cycle   5  Pass 0  IDiag  1:
 E= -846.184477534823     Delta-E=       -0.478011181171 Rises=F Damp=F
 DIIS: error= 1.33D-02 at cycle   5 NSaved=   5.
 NSaved= 5 IEnMin= 5 EnMin= -846.184477534823     IErMin= 2 ErrMin= 1.21D-02
 ErrMax= 1.33D-02 EMaxC= 1.00D-01 BMatC= 5.05D-02 BMatP= 6.38D-02
 IDIUse=3 WtCom= 8.67D-01 WtEn= 1.33D-01
 Coeff-Com: -0.195D-02 0.478D-01 0.339D+00-0.780D-01 0.693D+00
 Coeff-En:   0.000D+00 0.000D+00 0.379D+00 0.000D+00 0.621D+00
 Coeff:     -0.169D-02 0.415D-01 0.344D+00-0.677D-01 0.684D+00
 Gap=     0.163 Goal=   None    Shift=    0.000
 RMSDP=6.20D-04 MaxDP=3.40D-02 DE=-4.78D-01 OVMax= 3.83D-02

 Cycle   6  Pass 0  IDiag  1:
 E= -846.225345009068     Delta-E=       -0.040867474245 Rises=F Damp=F
 DIIS: error= 1.03D-03 at cycle   6 NSaved=   6.
 NSaved= 6 IEnMin= 6 EnMin= -846.225345009068     IErMin= 6 ErrMin= 1.03D-03
 ErrMax= 1.03D-03 EMaxC= 1.00D-01 BMatC= 5.60D-04 BMatP= 5.05D-02
 IDIUse=3 WtCom= 9.90D-01 WtEn= 1.03D-02
 Coeff-Com: -0.427D-02 0.202D-01 0.177D+00-0.633D-01 0.450D+00 0.421D+00
 Coeff-En:   0.000D+00 0.000D+00 0.000D+00 0.000D+00 0.000D+00 0.100D+01
 Coeff:     -0.422D-02 0.200D-01 0.175D+00-0.627D-01 0.445D+00 0.427D+00
 Gap=     0.164 Goal=   None    Shift=    0.000
 RMSDP=7.98D-05 MaxDP=3.65D-03 DE=-4.09D-02 OVMax= 6.53D-03

 Cycle   7  Pass 0  IDiag  1:
 E= -846.225835453542     Delta-E=       -0.000490444474 Rises=F Damp=F
 DIIS: error= 2.32D-04 at cycle   7 NSaved=   7.
 NSaved= 7 IEnMin= 7 EnMin= -846.225835453542     IErMin= 7 ErrMin= 2.32D-04
 ErrMax= 2.32D-04 EMaxC= 1.00D-01 BMatC= 2.64D-05 BMatP= 5.60D-04
 IDIUse=3 WtCom= 9.98D-01 WtEn= 2.32D-03
 Coeff-Com: -0.464D-03 0.157D-02 0.381D-01-0.154D-01 0.944D-01 0.164D+00
 Coeff-Com:  0.718D+00
 Coeff-En:   0.000D+00 0.000D+00 0.000D+00 0.000D+00 0.000D+00 0.000D+00
 Coeff-En:   0.100D+01
 Coeff:     -0.463D-03 0.156D-02 0.380D-01-0.153D-01 0.941D-01 0.163D+00
 Coeff:      0.719D+00
 Gap=     0.164 Goal=   None    Shift=    0.000
 RMSDP=1.87D-05 MaxDP=7.20D-04 DE=-4.90D-04 OVMax= 1.45D-03

 Cycle   8  Pass 0  IDiag  1:
 E= -846.225858956716     Delta-E=       -0.000023503174 Rises=F Damp=F
 DIIS: error= 4.78D-05 at cycle   8 NSaved=   8.
 NSaved= 8 IEnMin= 8 EnMin= -846.225858956716     IErMin= 8 ErrMin= 4.78D-05
 ErrMax= 4.78D-05 EMaxC= 1.00D-01 BMatC= 2.55D-06 BMatP= 2.64D-05
 IDIUse=1 WtCom= 1.00D+00 WtEn= 0.00D+00
 Coeff-Com:  0.228D-03-0.946D-03 0.969D-02-0.375D-02 0.197D-01 0.622D-01
 Coeff-Com:  0.411D+00 0.502D+00
 Coeff:      0.228D-03-0.946D-03 0.969D-02-0.375D-02 0.197D-01 0.622D-01
 Coeff:      0.411D+00 0.502D+00
 Gap=     0.164 Goal=   None    Shift=    0.000
 RMSDP=5.12D-06 MaxDP=2.73D-04 DE=-2.35D-05 OVMax= 3.87D-04

 Initial convergence to 1.0D-05 achieved.  Increase integral accuracy.
 Cycle   9  Pass 1  IDiag  1:
 E= -846.225820986557     Delta-E=        0.000037970158 Rises=F Damp=F
 DIIS: error= 2.21D-05 at cycle   1 NSaved=   1.
 NSaved= 1 IEnMin= 1 EnMin= -846.225820986557     IErMin= 1 ErrMin= 2.21D-05
 ErrMax= 2.21D-05 EMaxC= 1.00D-01 BMatC= 2.29D-07 BMatP= 2.29D-07
 IDIUse=1 WtCom= 1.00D+00 WtEn= 0.00D+00
 Coeff-Com:  0.100D+01
 Coeff:      0.100D+01
 Gap=     0.164 Goal=   None    Shift=    0.000
 RMSDP=5.12D-06 MaxDP=2.73D-04 DE= 3.80D-05 OVMax= 2.73D-04

 Cycle  10  Pass 1  IDiag  1:
 E= -846.225820841400     Delta-E=        0.000000145158 Rises=F Damp=F
 DIIS: error= 2.55D-05 at cycle   2 NSaved=   2.
 NSaved= 2 IEnMin= 1 EnMin= -846.225820986557     IErMin= 1 ErrMin= 2.21D-05
 ErrMax= 2.55D-05 EMaxC= 1.00D-01 BMatC= 4.22D-07 BMatP= 2.29D-07
 IDIUse=1 WtCom= 1.00D+00 WtEn= 0.00D+00
 Coeff-Com:  0.588D+00 0.412D+00
 Coeff:      0.588D+00 0.412D+00
 Gap=     0.164 Goal=   None    Shift=    0.000
 RMSDP=2.45D-06 MaxDP=1.17D-04 DE= 1.45D-07 OVMax= 2.26D-04

 Cycle  11  Pass 1  IDiag  1:
 E= -846.225821219416     Delta-E=       -0.000000378016 Rises=F Damp=F
 DIIS: error= 6.53D-06 at cycle   3 NSaved=   3.
 NSaved= 3 IEnMin= 3 EnMin= -846.225821219416     IErMin= 3 ErrMin= 6.53D-06
 ErrMax= 6.53D-06 EMaxC= 1.00D-01 BMatC= 2.80D-08 BMatP= 2.29D-07
 IDIUse=1 WtCom= 1.00D+00 WtEn= 0.00D+00
 Coeff-Com:  0.884D-01 0.208D+00 0.703D+00
 Coeff:      0.884D-01 0.208D+00 0.703D+00
 Gap=     0.164 Goal=   None    Shift=    0.000
 RMSDP=8.11D-07 MaxDP=3.06D-05 DE=-3.78D-07 OVMax= 6.56D-05

 Cycle  12  Pass 1  IDiag  1:
 E= -846.225821237226     Delta-E=       -0.000000017811 Rises=F Damp=F
 DIIS: error= 5.74D-06 at cycle   4 NSaved=   4.
 NSaved= 4 IEnMin= 4 EnMin= -846.225821237226     IErMin= 4 ErrMin= 5.74D-06
 ErrMax= 5.74D-06 EMaxC= 1.00D-01 BMatC= 1.34D-08 BMatP= 2.80D-08
 IDIUse=1 WtCom= 1.00D+00 WtEn= 0.00D+00
 Coeff-Com: -0.214D-02 0.102D+00 0.501D+00 0.399D+00
 Coeff:     -0.214D-02 0.102D+00 0.501D+00 0.399D+00
 Gap=     0.164 Goal=   None    Shift=    0.000
 RMSDP=3.33D-07 MaxDP=2.27D-05 DE=-1.78D-08 OVMax= 2.06D-05

 Cycle  13  Pass 1  IDiag  1:
 E= -846.225821247782     Delta-E=       -0.000000010556 Rises=F Damp=F
 DIIS: error= 7.72D-07 at cycle   5 NSaved=   5.
 NSaved= 5 IEnMin= 5 EnMin= -846.225821247782     IErMin= 5 ErrMin= 7.72D-07
 ErrMax= 7.72D-07 EMaxC= 1.00D-01 BMatC= 4.14D-10 BMatP= 1.34D-08
 IDIUse=1 WtCom= 1.00D+00 WtEn= 0.00D+00
 Coeff-Com: -0.870D-02 0.375D-01 0.218D+00 0.214D+00 0.539D+00
 Coeff:     -0.870D-02 0.375D-01 0.218D+00 0.214D+00 0.539D+00
 Gap=     0.164 Goal=   None    Shift=    0.000
 RMSDP=7.80D-08 MaxDP=3.82D-06 DE=-1.06D-08 OVMax= 4.50D-06

 Cycle  14  Pass 1  IDiag  1:
 E= -846.225821248047     Delta-E=       -0.000000000265 Rises=F Damp=F
 DIIS: error= 3.02D-07 at cycle   6 NSaved=   6.
 NSaved= 6 IEnMin= 6 EnMin= -846.225821248047     IErMin= 6 ErrMin= 3.02D-07
 ErrMax= 3.02D-07 EMaxC= 1.00D-01 BMatC= 5.06D-11 BMatP= 4.14D-10
 IDIUse=1 WtCom= 1.00D+00 WtEn= 0.00D+00
 Coeff-Com: -0.523D-02 0.161D-01 0.100D+00 0.105D+00 0.333D+00 0.450D+00
 Coeff:     -0.523D-02 0.161D-01 0.100D+00 0.105D+00 0.333D+00 0.450D+00
 Gap=     0.164 Goal=   None    Shift=    0.000
 RMSDP=2.21D-08 MaxDP=1.26D-06 DE=-2.65D-10 OVMax= 1.29D-06

 Cycle  15  Pass 1  IDiag  1:
 E= -846.225821248058     Delta-E=       -0.000000000011 Rises=F Damp=F
 DIIS: error= 4.94D-08 at cycle   7 NSaved=   7.
 NSaved= 7 IEnMin= 7 EnMin= -846.225821248058     IErMin= 7 ErrMin= 4.94D-08
 ErrMax= 4.94D-08 EMaxC= 1.00D-01 BMatC= 2.17D-12 BMatP= 5.06D-11
 IDIUse=1 WtCom= 1.00D+00 WtEn= 0.00D+00
 Coeff-Com: -0.151D-02 0.375D-02 0.247D-01 0.279D-01 0.101D+00 0.214D+00
 Coeff-Com:  0.630D+00
 Coeff:     -0.151D-02 0.375D-02 0.247D-01 0.279D-01 0.101D+00 0.214D+00
 Coeff:      0.630D+00
 Gap=     0.164 Goal=   None    Shift=    0.000
 RMSDP=6.00D-09 MaxDP=2.28D-07 DE=-1.09D-11 OVMax= 4.27D-07

 SCF Done:  E(RB3LYP) =  -846.225821248     A.U. after   15 cycles
             Convg  =    0.5998D-08             -V/T =  2.0094
 KE= 8.383138108416D+02 PE=-4.699154746538D+03 EE= 1.648987611856D+03
 Leave Link  502 at Wed Sep 29 03:03:23 2021, MaxMem= 1610612736 cpu:     480.3
 (Enter /sw/target/amd/app/gaussian/Gaussian09RevA.02_gcc-4.9.2/g09/l508.exe)
 QCSCF skips out because SCF is already converged.
 Leave Link  508 at Wed Sep 29 03:03:26 2021, MaxMem= 1610612736 cpu:       0.0
 (Enter /sw/target/amd/app/gaussian/Gaussian09RevA.02_gcc-4.9.2/g09/l601.exe)
 Copying SCF densities to generalized density rwf, IOpCl= 0 IROHF=0.

 **********************************************************************

            Population analysis using the SCF density.

 **********************************************************************

 Orbital symmetries:
       Occupied  (A) (A) (A) (A) (A) (A) (A) (A) (A) (A) (A) (A)
                 (A) (A) (A) (A) (A) (A) (A) (A) (A) (A) (A) (A)
                 (A) (A) (A) (A) (A) (A) (A) (A) (A) (A) (A) (A)
                 (A) (A) (A) (A) (A) (A) (A) (A) (A) (A) (A) (A)
                 (A) (A) (A) (A) (A) (A) (A) (A) (A) (A) (A) (A)
                 (A) (A) (A) (A) (A) (A) (A) (A) (A)
       Virtual   (A) (A) (A) (A) (A) (A) (A) (A) (A) (A) (A) (A)
                 (A) (A) (A) (A) (A) (A) (A) (A) (A) (A) (A) (A)
                 (A) (A) (A) (A) (A) (A) (A) (A) (A) (A) (A) (A)
                 (A) (A) (A) (A) (A) (A) (A) (A) (A) (A) (A) (A)
                 (A) (A) (A) (A) (A) (A) (A) (A) (A) (A) (A) (A)
                 (A) (A) (A) (A) (A) (A) (A) (A) (A) (A) (A) (A)
                 (A) (A) (A) (A) (A) (A) (A) (A) (A) (A) (A) (A)
                 (A) (A) (A) (A) (A) (A) (A) (A) (A) (A) (A) (A)
                 (A) (A) (A) (A) (A) (A) (A) (A) (A) (A) (A) (A)
                 (A) (A) (A) (A) (A) (A) (A) (A) (A) (A) (A) (A)
                 (A) (A) (A) (A) (A) (A) (A) (A) (A) (A) (A) (A)
                 (A) (A) (A) (A) (A) (A) (A) (A) (A) (A) (A) (A)
                 (A) (A) (A) (A) (A) (A) (A) (A) (A) (A) (A) (A)
                 (A) (A) (A) (A) (A) (A) (A) (A) (A) (A) (A) (A)
                 (A) (A) (A) (A) (A) (A) (A) (A) (A) (A) (A) (A)
                 (A) (A) (A) (A) (A) (A) (A) (A) (A) (A) (A) (A)
                 (A) (A) (A) (A) (A) (A) (A) (A) (A) (A) (A) (A)
                 (A) (A) (A) (A) (A) (A) (A) (A) (A) (A) (A) (A)
                 (A) (A) (A) (A) (A) (A) (A) (A) (A) (A) (A) (A)
                 (A) (A) (A) (A) (A) (A) (A) (A) (A) (A) (A) (A)
                 (A) (A) (A) (A) (A) (A) (A) (A) (A) (A) (A) (A)
 The electronic state is 1-A.
 Alpha  occ. eigenvalues --  -19.20168 -19.17509 -19.14807 -10.32383 -10.25267
 Alpha  occ. eigenvalues --  -10.24547 -10.23828 -10.21516 -10.19694 -10.19478
 Alpha  occ. eigenvalues --  -10.19337 -10.19206 -10.19107 -10.18728 -10.18688
 Alpha  occ. eigenvalues --  -10.18444 -10.18223 -10.18135 -10.17554  -1.09363
 Alpha  occ. eigenvalues --   -1.06053  -1.02268  -0.87694  -0.83117  -0.81592
 Alpha  occ. eigenvalues --   -0.77478  -0.75476  -0.71893  -0.70060  -0.69426
 Alpha  occ. eigenvalues --   -0.68624  -0.66203  -0.61655  -0.60494  -0.59648
 Alpha  occ. eigenvalues --   -0.55705  -0.52906  -0.51590  -0.49036  -0.48415
 Alpha  occ. eigenvalues --   -0.47754  -0.46894  -0.46414  -0.45572  -0.45045
 Alpha  occ. eigenvalues --   -0.43569  -0.43330  -0.42809  -0.42381  -0.41336
 Alpha  occ. eigenvalues --   -0.40035  -0.39516  -0.39055  -0.38666  -0.38141
 Alpha  occ. eigenvalues --   -0.36613  -0.36601  -0.35701  -0.35536  -0.34712
 Alpha  occ. eigenvalues --   -0.33799  -0.33415  -0.32753  -0.31948  -0.28601
 Alpha  occ. eigenvalues --   -0.28216  -0.27107  -0.22609  -0.20418
 Alpha virt. eigenvalues --   -0.04058  -0.00945   0.01042   0.03516   0.08330
 Alpha virt. eigenvalues --    0.08967   0.10108   0.10730   0.11598   0.12387
 Alpha virt. eigenvalues --    0.12615   0.14251   0.14787   0.15009   0.15274
 Alpha virt. eigenvalues --    0.15625   0.15897   0.16509   0.17426   0.18450
 Alpha virt. eigenvalues --    0.19242   0.19486   0.19761   0.20701   0.20922
 Alpha virt. eigenvalues --    0.21762   0.22320   0.22765   0.23764   0.25294
 Alpha virt. eigenvalues --    0.26380   0.27783   0.28887   0.29985   0.31788
 Alpha virt. eigenvalues --    0.32632   0.35681   0.36269   0.39754   0.41078
 Alpha virt. eigenvalues --    0.46691   0.48740   0.49140   0.49671   0.50346
 Alpha virt. eigenvalues --    0.50669   0.51045   0.51263   0.52592   0.53658
 Alpha virt. eigenvalues --    0.53973   0.54595   0.56074   0.56312   0.56882
 Alpha virt. eigenvalues --    0.57409   0.57921   0.59186   0.60006   0.60819
 Alpha virt. eigenvalues --    0.60995   0.61123   0.61544   0.61961   0.63209
 Alpha virt. eigenvalues --    0.64009   0.65620   0.66578   0.66792   0.68223
 Alpha virt. eigenvalues --    0.69192   0.69835   0.70365   0.70821   0.73462
 Alpha virt. eigenvalues --    0.75577   0.76394   0.78622   0.79437   0.81925
 Alpha virt. eigenvalues --    0.82328   0.83149   0.83379   0.84740   0.85019
 Alpha virt. eigenvalues --    0.85730   0.86278   0.86932   0.87663   0.88242
 Alpha virt. eigenvalues --    0.88572   0.89364   0.89486   0.90075   0.90343
 Alpha virt. eigenvalues --    0.91352   0.91955   0.92764   0.93446   0.94493
 Alpha virt. eigenvalues --    0.95082   0.95859   0.96690   0.97319   0.97585
 Alpha virt. eigenvalues --    0.98639   1.00304   1.02586   1.03872   1.05050
 Alpha virt. eigenvalues --    1.05979   1.07168   1.08568   1.11083   1.11804
 Alpha virt. eigenvalues --    1.13945   1.17906   1.18002   1.19725   1.20788
 Alpha virt. eigenvalues --    1.21352   1.22253   1.24621   1.25290   1.29107
 Alpha virt. eigenvalues --    1.32184   1.33326   1.34457   1.37670   1.38927
 Alpha virt. eigenvalues --    1.40326   1.41352   1.42306   1.44788   1.46196
 Alpha virt. eigenvalues --    1.47521   1.48533   1.49279   1.49699   1.50842
 Alpha virt. eigenvalues --    1.51588   1.53338   1.53746   1.54244   1.62489
 Alpha virt. eigenvalues --    1.64790   1.67390   1.70148   1.71009   1.72384
 Alpha virt. eigenvalues --    1.73808   1.77502   1.77928   1.79525   1.81740
 Alpha virt. eigenvalues --    1.82499   1.83640   1.84567   1.85775   1.86823
 Alpha virt. eigenvalues --    1.87036   1.87696   1.89733   1.90910   1.93809
 Alpha virt. eigenvalues --    1.94235   1.94868   1.95746   1.96989   1.97806
 Alpha virt. eigenvalues --    1.98222   1.98702   1.99207   2.01512   2.04010
 Alpha virt. eigenvalues --    2.05304   2.06410   2.07926   2.09070   2.09953
 Alpha virt. eigenvalues --    2.10148   2.13634   2.14300   2.15025   2.17599
 Alpha virt. eigenvalues --    2.18942   2.20741   2.24239   2.24641   2.26147
 Alpha virt. eigenvalues --    2.26373   2.26745   2.27500   2.29305   2.30701
 Alpha virt. eigenvalues --    2.31769   2.32018   2.33650   2.34336   2.36077
 Alpha virt. eigenvalues --    2.38957   2.41061   2.42121   2.44170   2.50590
 Alpha virt. eigenvalues --    2.51215   2.52821   2.56554   2.58685   2.61691
 Alpha virt. eigenvalues --    2.62083   2.65100   2.66728   2.67410   2.69966
 Alpha virt. eigenvalues --    2.70960   2.72648   2.75115   2.78083   2.79918
 Alpha virt. eigenvalues --    2.82267   2.84539   2.87676   2.90480   2.91181
 Alpha virt. eigenvalues --    2.96374   3.00852   3.05744   3.08822   3.14206
 Alpha virt. eigenvalues --    3.25984   3.41296   3.50664   4.04139   4.06611
 Alpha virt. eigenvalues --    4.09524   4.11499   4.12258   4.13818   4.17365
 Alpha virt. eigenvalues --    4.20870   4.27041   4.30034   4.31095   4.32152
 Alpha virt. eigenvalues --    4.34482   4.39101   4.49693   4.54115   4.63908
 Alpha virt. eigenvalues --    4.73644   4.87180
          Condensed to atoms (all electrons):
              1          2          3          4          5          6
     1  C    4.900187   0.248949  -0.043962   0.003153  -0.000166   0.000021
     2  O    0.248949   8.210541   0.264383  -0.053639   0.003378   0.000399
     3  C   -0.043962   0.264383   4.559287   0.507953  -0.002427  -0.035276
     4  C    0.003153  -0.053639   0.507953   5.022199   0.483855  -0.009196
     5  C   -0.000166   0.003378  -0.002427   0.483855   5.153110   0.441519
     6  C    0.000021   0.000399  -0.035276  -0.009196   0.441519   4.694165
     7  C    0.000486   0.003193   0.019819  -0.035729  -0.023738   0.486980
     8  C   -0.006954  -0.053589   0.432356  -0.060475  -0.077289  -0.040021
     9  C   -0.000027  -0.000072   0.006854  -0.000317   0.017140  -0.037115
    10  C   -0.000000   0.000000  -0.000240   0.000055  -0.000857  -0.034975
    11  C    0.000000  -0.000000   0.000052  -0.000344   0.009029  -0.009788
    12  C   -0.000000   0.000001  -0.000765   0.008616  -0.103840   0.441866
    13  O   -0.000000  -0.000000   0.000000  -0.000000   0.000001   0.000382
    14  C   -0.000000  -0.000000  -0.000000  -0.000000   0.000000   0.000029
    15  O   -0.000000   0.000000  -0.000000  -0.000000   0.000000   0.000010
    16  C   -0.000000   0.000000   0.000000  -0.000000   0.000000   0.000001
    17  C    0.000000   0.000000  -0.000000  -0.000000   0.000000   0.000000
    18  C    0.000000   0.000000  -0.000000   0.000000  -0.000000  -0.000000
    19  C   -0.000000  -0.000000   0.000000  -0.000000   0.000000   0.000000
    20  H    0.380692  -0.030662   0.003639  -0.000121   0.000003  -0.000000
    21  H    0.364945  -0.037213  -0.001226   0.000941  -0.000039  -0.000007
    22  H    0.366389  -0.035537  -0.007579  -0.000213   0.000016   0.000003
    23  H   -0.000159   0.000090  -0.035091   0.344279  -0.037437   0.003276
    24  H    0.000003  -0.000064   0.003732  -0.040929   0.354956  -0.040178
    25  H    0.004162  -0.006366  -0.047019   0.004842   0.000432   0.004970
    26  H   -0.000003  -0.000000   0.000227   0.000007  -0.000144   0.004710
    27  H   -0.000000   0.000000  -0.000000   0.000003  -0.000170   0.002988
    28  H    0.000000  -0.000000   0.000012   0.000164  -0.008273  -0.038232
    29  H    0.000000  -0.000000   0.000000  -0.000000  -0.000000  -0.000000
    30  H    0.000000   0.000000  -0.000000   0.000000  -0.000000   0.000000
    31  H    0.000000   0.000000  -0.000000  -0.000000   0.000000   0.000000
    32  H    0.000000  -0.000000   0.000000   0.000000  -0.000000  -0.000000
    33  H   -0.000000  -0.000000   0.000000   0.000000  -0.000000   0.000000
    34  H   -0.000000   0.000000  -0.000000  -0.000000  -0.000000   0.000000
    35  H   -0.000000   0.000000  -0.000000  -0.000000  -0.000000   0.000000
    36  H    0.000000   0.000000  -0.000000   0.000000  -0.000000   0.000000
    37  H   -0.000000   0.000000  -0.000000  -0.000000  -0.000000   0.000000
              7          8          9         10         11         12
     1  C    0.000486  -0.006954  -0.000027  -0.000000   0.000000  -0.000000
     2  O    0.003193  -0.053589  -0.000072   0.000000  -0.000000   0.000001
     3  C    0.019819   0.432356   0.006854  -0.000240   0.000052  -0.000765
     4  C   -0.035729  -0.060475  -0.000317   0.000055  -0.000344   0.008616
     5  C   -0.023738  -0.077289   0.017140  -0.000857   0.009029  -0.103840
     6  C    0.486980  -0.040021  -0.037115  -0.034975  -0.009788   0.441866
     7  C    4.720755   0.392303   0.390421   0.014851  -0.038585  -0.019962
     8  C    0.392303   5.388283  -0.076997   0.007075  -0.000235   0.017950
     9  C    0.390421  -0.076997   5.304295   0.471116  -0.061593  -0.076023
    10  C    0.014851   0.007075   0.471116   4.575430   0.497689  -0.001824
    11  C   -0.038585  -0.000235  -0.061593   0.497689   5.037712   0.481974
    12  C   -0.019962   0.017950  -0.076023  -0.001824   0.481974   5.148564
    13  O    0.002594  -0.000069  -0.041269   0.197133  -0.047185   0.002959
    14  C    0.000393  -0.000024  -0.002097  -0.007816   0.001221  -0.000054
    15  O    0.000175  -0.000033  -0.001680  -0.001930   0.000179  -0.000001
    16  C    0.000002  -0.000000   0.000421   0.003554  -0.000395   0.000002
    17  C    0.000000  -0.000000  -0.000009  -0.000213  -0.000001   0.000000
    18  C   -0.000000   0.000000  -0.000000  -0.000052   0.000003  -0.000000
    19  C   -0.000001   0.000000  -0.000076   0.000146  -0.000006  -0.000000
    20  H    0.000009   0.000235  -0.000000  -0.000000   0.000000  -0.000000
    21  H   -0.000258   0.005237  -0.000011  -0.000000   0.000000   0.000000
    22  H   -0.000188   0.002166   0.000009   0.000000  -0.000000   0.000000
    23  H    0.000437   0.007214   0.000010  -0.000000   0.000003  -0.000164
    24  H    0.004505   0.000411  -0.000202   0.000014   0.000167  -0.008231
    25  H   -0.036462   0.345932  -0.008560   0.000282   0.000013  -0.000197
    26  H   -0.039028  -0.009295   0.346640  -0.035924   0.005204   0.000159
    27  H    0.000541   0.000010   0.006408  -0.036138   0.345876  -0.035695
    28  H    0.004597  -0.000204   0.000406   0.003595  -0.041885   0.354805
    29  H   -0.000000   0.000000  -0.000001   0.000001  -0.000002  -0.000000
    30  H   -0.000000   0.000000   0.000022   0.000005   0.000029   0.000001
    31  H   -0.000000  -0.000000   0.000000   0.000007  -0.000002   0.000000
    32  H   -0.000000   0.000000  -0.000000  -0.000004  -0.000000   0.000000
    33  H    0.000000  -0.000000   0.000000   0.000001  -0.000000   0.000000
    34  H    0.000000  -0.000000  -0.000001  -0.000004  -0.000000  -0.000000
    35  H   -0.000001   0.000000   0.000018   0.000090  -0.000005  -0.000000
    36  H    0.000000  -0.000000   0.000001  -0.000022   0.000001  -0.000000
    37  H    0.000000  -0.000000   0.000000  -0.000003  -0.000000   0.000000
             13         14         15         16         17         18
     1  C   -0.000000  -0.000000  -0.000000  -0.000000   0.000000   0.000000
     2  O   -0.000000  -0.000000   0.000000   0.000000   0.000000   0.000000
     3  C    0.000000  -0.000000  -0.000000   0.000000  -0.000000  -0.000000
     4  C   -0.000000  -0.000000  -0.000000  -0.000000  -0.000000   0.000000
     5  C    0.000001   0.000000   0.000000   0.000000   0.000000  -0.000000
     6  C    0.000382   0.000029   0.000010   0.000001   0.000000  -0.000000
     7  C    0.002594   0.000393   0.000175   0.000002   0.000000  -0.000000
     8  C   -0.000069  -0.000024  -0.000033  -0.000000  -0.000000   0.000000
     9  C   -0.041269  -0.002097  -0.001680   0.000421  -0.000009  -0.000000
    10  C    0.197133  -0.007816  -0.001930   0.003554  -0.000213  -0.000052
    11  C   -0.047185   0.001221   0.000179  -0.000395  -0.000001   0.000003
    12  C    0.002959  -0.000054  -0.000001   0.000002   0.000000  -0.000000
    13  O    8.374995   0.213219  -0.065293  -0.094605  -0.000891   0.003241
    14  C    0.213219   4.403320   0.542399   0.353238  -0.042301  -0.045062
    15  O   -0.065293   0.542399   8.038436  -0.073649   0.000287   0.003024
    16  C   -0.094605   0.353238  -0.073649   4.973343   0.363083   0.370437
    17  C   -0.000891  -0.042301   0.000287   0.363083   5.149826  -0.062448
    18  C    0.003241  -0.045062   0.003024   0.370437  -0.062448   5.132452
    19  C   -0.000578  -0.043198  -0.000077   0.363871  -0.051528  -0.061159
    20  H   -0.000000  -0.000000   0.000000  -0.000000   0.000000   0.000000
    21  H   -0.000000  -0.000000   0.000000   0.000000  -0.000000  -0.000000
    22  H    0.000000   0.000000   0.000000   0.000000  -0.000000  -0.000000
    23  H    0.000000  -0.000000  -0.000000   0.000000   0.000000  -0.000000
    24  H   -0.000000   0.000000  -0.000000  -0.000000   0.000000   0.000000
    25  H    0.000000  -0.000001  -0.000018  -0.000000   0.000000   0.000000
    26  H   -0.007060   0.001948   0.012156   0.000052   0.000003   0.000004
    27  H   -0.000957  -0.000070   0.000009  -0.000023  -0.000003   0.000001
    28  H   -0.000055   0.000000  -0.000000  -0.000000  -0.000000   0.000000
    29  H   -0.000048  -0.002553   0.000538  -0.032310   0.369441  -0.004873
    30  H    0.007683  -0.007157   0.000035  -0.027726   0.366398   0.005567
    31  H    0.000161   0.004021  -0.000066  -0.029046   0.368614  -0.004127
    32  H    0.000030  -0.004739   0.002937  -0.027105  -0.004266   0.369011
    33  H   -0.000033   0.004993   0.000428  -0.028155  -0.004789   0.363638
    34  H    0.000038  -0.004855   0.003433  -0.026908   0.005625   0.368227
    35  H    0.007075  -0.006742   0.000025  -0.028485  -0.003697   0.005585
    36  H   -0.000047  -0.002092   0.000654  -0.033028   0.005538  -0.004958
    37  H    0.000092   0.004141  -0.000064  -0.028561  -0.006043  -0.004229
             19         20         21         22         23         24
     1  C   -0.000000   0.380692   0.364945   0.366389  -0.000159   0.000003
     2  O   -0.000000  -0.030662  -0.037213  -0.035537   0.000090  -0.000064
     3  C    0.000000   0.003639  -0.001226  -0.007579  -0.035091   0.003732
     4  C   -0.000000  -0.000121   0.000941  -0.000213   0.344279  -0.040929
     5  C    0.000000   0.000003  -0.000039   0.000016  -0.037437   0.354956
     6  C    0.000000  -0.000000  -0.000007   0.000003   0.003276  -0.040178
     7  C   -0.000001   0.000009  -0.000258  -0.000188   0.000437   0.004505
     8  C    0.000000   0.000235   0.005237   0.002166   0.007214   0.000411
     9  C   -0.000076  -0.000000  -0.000011   0.000009   0.000010  -0.000202
    10  C    0.000146  -0.000000  -0.000000   0.000000  -0.000000   0.000014
    11  C   -0.000006   0.000000   0.000000  -0.000000   0.000003   0.000167
    12  C   -0.000000  -0.000000   0.000000   0.000000  -0.000164  -0.008231
    13  O   -0.000578  -0.000000  -0.000000   0.000000   0.000000  -0.000000
    14  C   -0.043198  -0.000000  -0.000000   0.000000  -0.000000   0.000000
    15  O   -0.000077   0.000000   0.000000   0.000000  -0.000000  -0.000000
    16  C    0.363871  -0.000000   0.000000   0.000000   0.000000  -0.000000
    17  C   -0.051528   0.000000  -0.000000  -0.000000   0.000000   0.000000
    18  C   -0.061159   0.000000  -0.000000  -0.000000  -0.000000   0.000000
    19  C    5.148550  -0.000000   0.000000  -0.000000  -0.000000   0.000000
    20  H   -0.000000   0.548431  -0.030806  -0.036984  -0.000033  -0.000000
    21  H    0.000000  -0.030806   0.585381  -0.045209   0.000035   0.000000
    22  H   -0.000000  -0.036984  -0.045209   0.600544   0.000030  -0.000000
    23  H   -0.000000  -0.000033   0.000035   0.000030   0.584638  -0.005721
    24  H    0.000000  -0.000000   0.000000  -0.000000  -0.005721   0.591909
    25  H    0.000000  -0.000158   0.000855   0.003387  -0.000168   0.000019
    26  H   -0.000034   0.000000  -0.000000  -0.000012  -0.000000   0.000002
    27  H   -0.000006   0.000000   0.000000  -0.000000  -0.000000  -0.000010
    28  H    0.000000   0.000000   0.000000  -0.000000  -0.000010   0.006010
    29  H    0.005477   0.000000   0.000000  -0.000000  -0.000000   0.000000
    30  H   -0.003612   0.000000   0.000000  -0.000000  -0.000000   0.000000
    31  H   -0.006100   0.000000   0.000000  -0.000000  -0.000000  -0.000000
    32  H    0.005592   0.000000  -0.000000  -0.000000  -0.000000   0.000000
    33  H   -0.004961  -0.000000  -0.000000   0.000000   0.000000  -0.000000
    34  H   -0.004112  -0.000000  -0.000000   0.000000  -0.000000  -0.000000
    35  H    0.367588  -0.000000  -0.000000   0.000000  -0.000000   0.000000
    36  H    0.369087   0.000000   0.000000  -0.000000  -0.000000   0.000000
    37  H    0.368941  -0.000000   0.000000   0.000000   0.000000  -0.000000
             25         26         27         28         29         30
     1  C    0.004162  -0.000003  -0.000000   0.000000   0.000000   0.000000
     2  O   -0.006366  -0.000000   0.000000  -0.000000  -0.000000   0.000000
     3  C   -0.047019   0.000227  -0.000000   0.000012   0.000000  -0.000000
     4  C    0.004842   0.000007   0.000003   0.000164  -0.000000   0.000000
     5  C    0.000432  -0.000144  -0.000170  -0.008273  -0.000000  -0.000000
     6  C    0.004970   0.004710   0.002988  -0.038232  -0.000000   0.000000
     7  C   -0.036462  -0.039028   0.000541   0.004597  -0.000000  -0.000000
     8  C    0.345932  -0.009295   0.000010  -0.000204   0.000000   0.000000
     9  C   -0.008560   0.346640   0.006408   0.000406  -0.000001   0.000022
    10  C    0.000282  -0.035924  -0.036138   0.003595   0.000001   0.000005
    11  C    0.000013   0.005204   0.345876  -0.041885  -0.000002   0.000029
    12  C   -0.000197   0.000159  -0.035695   0.354805  -0.000000   0.000001
    13  O    0.000000  -0.007060  -0.000957  -0.000055  -0.000048   0.007683
    14  C   -0.000001   0.001948  -0.000070   0.000000  -0.002553  -0.007157
    15  O   -0.000018   0.012156   0.000009  -0.000000   0.000538   0.000035
    16  C   -0.000000   0.000052  -0.000023  -0.000000  -0.032310  -0.027726
    17  C    0.000000   0.000003  -0.000003  -0.000000   0.369441   0.366398
    18  C    0.000000   0.000004   0.000001   0.000000  -0.004873   0.005567
    19  C    0.000000  -0.000034  -0.000006   0.000000   0.005477  -0.003612
    20  H   -0.000158   0.000000   0.000000   0.000000   0.000000   0.000000
    21  H    0.000855  -0.000000   0.000000   0.000000   0.000000   0.000000
    22  H    0.003387  -0.000012  -0.000000  -0.000000  -0.000000  -0.000000
    23  H   -0.000168  -0.000000  -0.000000  -0.000010  -0.000000  -0.000000
    24  H    0.000019   0.000002  -0.000010   0.006010   0.000000   0.000000
    25  H    0.594484   0.006360  -0.000000   0.000003   0.000000  -0.000000
    26  H    0.006360   0.554963  -0.000153   0.000015  -0.000001  -0.000000
    27  H   -0.000000  -0.000153   0.583883  -0.005578  -0.000001   0.000529
    28  H    0.000003   0.000015  -0.005578   0.589784   0.000000  -0.000000
    29  H    0.000000  -0.000001  -0.000001   0.000000   0.567981  -0.029355
    30  H   -0.000000  -0.000000   0.000529  -0.000000  -0.029355   0.550173
    31  H   -0.000000   0.000000   0.000000  -0.000000  -0.029643  -0.028027
    32  H    0.000000  -0.000001  -0.000000   0.000000   0.004506  -0.000039
    33  H    0.000000  -0.000000  -0.000000  -0.000000  -0.000115  -0.000042
    34  H    0.000000   0.000001  -0.000000   0.000000  -0.000026  -0.000193
    35  H    0.000000   0.000005   0.000029   0.000000  -0.000064   0.003145
    36  H    0.000000   0.000013   0.000000   0.000000  -0.000189  -0.000070
    37  H   -0.000000   0.000000  -0.000000  -0.000000  -0.000011  -0.000100
[...]
    69    C    5  pz     Val( 2p)     0.99005
    70    C    5  pz     Ryd( 3p)     0.00209
    71    C    5  dxy    Ryd( 3d)     0.00065
    72    C    5  dxz    Ryd( 3d)     0.00071
    73    C    5  dyz    Ryd( 3d)     0.00039
    74    C    5  dx2y2  Ryd( 3d)     0.00082
    75    C    5  dz2    Ryd( 3d)     0.00043

    76    C    6  S      Cor( 1S)     1.99902
    77    C    6  S      Val( 2S)     0.87023
    78    C    6  S      Ryd( 3S)     0.00044
    79    C    6  S      Ryd( 4S)     0.00006
    80    C    6  px     Val( 2p)     1.09381
    81    C    6  px     Ryd( 3p)     0.00460
    82    C    6  py     Val( 2p)     1.07882
    83    C    6  py     Ryd( 3p)     0.00530
    84    C    6  pz     Val( 2p)     0.99909
    85    C    6  pz     Ryd( 3p)     0.00124
    86    C    6  dxy    Ryd( 3d)     0.00068
    87    C    6  dxz    Ryd( 3d)     0.00088
    88    C    6  dyz    Ryd( 3d)     0.00048
    89    C    6  dx2y2  Ryd( 3d)     0.00075
    90    C    6  dz2    Ryd( 3d)     0.00034

    91    C    7  S      Cor( 1S)     1.99905
    92    C    7  S      Val( 2S)     0.86846
    93    C    7  S      Ryd( 3S)     0.00062
    94    C    7  S      Ryd( 4S)     0.00007
    95    C    7  px     Val( 2p)     1.08609
    96    C    7  px     Ryd( 3p)     0.00526
    97    C    7  py     Val( 2p)     1.07641
    98    C    7  py     Ryd( 3p)     0.00556
    99    C    7  pz     Val( 2p)     0.99665
   100    C    7  pz     Ryd( 3p)     0.00111
   101    C    7  dxy    Ryd( 3d)     0.00073
   102    C    7  dxz    Ryd( 3d)     0.00099
   103    C    7  dyz    Ryd( 3d)     0.00049
   104    C    7  dx2y2  Ryd( 3d)     0.00069
   105    C    7  dz2    Ryd( 3d)     0.00035

   106    C    8  S      Cor( 1S)     1.99899
   107    C    8  S      Val( 2S)     0.95539
   108    C    8  S      Ryd( 3S)     0.00065
   109    C    8  S      Ryd( 4S)     0.00006
   110    C    8  px     Val( 2p)     1.07087
   111    C    8  px     Ryd( 3p)     0.00345
   112    C    8  py     Val( 2p)     1.19214
   113    C    8  py     Ryd( 3p)     0.00355
   114    C    8  pz     Val( 2p)     1.02365
   115    C    8  pz     Ryd( 3p)     0.00221
   116    C    8  dxy    Ryd( 3d)     0.00055
   117    C    8  dxz    Ryd( 3d)     0.00067
   118    C    8  dyz    Ryd( 3d)     0.00031
   119    C    8  dx2y2  Ryd( 3d)     0.00086
   120    C    8  dz2    Ryd( 3d)     0.00045

   121    C    9  S      Cor( 1S)     1.99899
   122    C    9  S      Val( 2S)     0.95251
   123    C    9  S      Ryd( 3S)     0.00074
   124    C    9  S      Ryd( 4S)     0.00005
   125    C    9  px     Val( 2p)     1.04944
   126    C    9  px     Ryd( 3p)     0.00460
   127    C    9  py     Val( 2p)     1.21924
   128    C    9  py     Ryd( 3p)     0.00395
   129    C    9  pz     Val( 2p)     1.04643
   130    C    9  pz     Ryd( 3p)     0.00282
   131    C    9  dxy    Ryd( 3d)     0.00072
   132    C    9  dxz    Ryd( 3d)     0.00057
   133    C    9  dyz    Ryd( 3d)     0.00046
   134    C    9  dx2y2  Ryd( 3d)     0.00064
   135    C    9  dz2    Ryd( 3d)     0.00044

   136    C   10  S      Cor( 1S)     1.99875
   137    C   10  S      Val( 2S)     0.83190
   138    C   10  S      Ryd( 3S)     0.00102
   139    C   10  S      Ryd( 4S)     0.00011
   140    C   10  px     Val( 2p)     0.75210
   141    C   10  px     Ryd( 3p)     0.00752
   142    C   10  py     Val( 2p)     1.06300
   143    C   10  py     Ryd( 3p)     0.00600
   144    C   10  pz     Val( 2p)     1.07556
   145    C   10  pz     Ryd( 3p)     0.00209
   146    C   10  dxy    Ryd( 3d)     0.00118
   147    C   10  dxz    Ryd( 3d)     0.00162
   148    C   10  dyz    Ryd( 3d)     0.00068
   149    C   10  dx2y2  Ryd( 3d)     0.00169
   150    C   10  dz2    Ryd( 3d)     0.00047

   151    C   11  S      Cor( 1S)     1.99905
   152    C   11  S      Val( 2S)     0.97047
   153    C   11  S      Ryd( 3S)     0.00074
   154    C   11  S      Ryd( 4S)     0.00005
   155    C   11  px     Val( 2p)     1.14345
   156    C   11  px     Ryd( 3p)     0.00501
   157    C   11  py     Val( 2p)     1.11542
   158    C   11  py     Ryd( 3p)     0.00454
   159    C   11  pz     Val( 2p)     0.94611
   160    C   11  pz     Ryd( 3p)     0.00145
   161    C   11  dxy    Ryd( 3d)     0.00078
   162    C   11  dxz    Ryd( 3d)     0.00068
   163    C   11  dyz    Ryd( 3d)     0.00058
   164    C   11  dx2y2  Ryd( 3d)     0.00067
   165    C   11  dz2    Ryd( 3d)     0.00045

   166    C   12  S      Cor( 1S)     1.99908
   167    C   12  S      Val( 2S)     0.94769
   168    C   12  S      Ryd( 3S)     0.00066
   169    C   12  S      Ryd( 4S)     0.00005
   170    C   12  px     Val( 2p)     1.06123
   171    C   12  px     Ryd( 3p)     0.00421
   172    C   12  py     Val( 2p)     1.18119
   173    C   12  py     Ryd( 3p)     0.00482
   174    C   12  pz     Val( 2p)     1.03699
   175    C   12  pz     Ryd( 3p)     0.00263
   176    C   12  dxy    Ryd( 3d)     0.00069
   177    C   12  dxz    Ryd( 3d)     0.00061
   178    C   12  dyz    Ryd( 3d)     0.00030
   179    C   12  dx2y2  Ryd( 3d)     0.00078
   180    C   12  dz2    Ryd( 3d)     0.00043

   181    O   13  S      Cor( 1S)     1.99969
   182    O   13  S      Val( 2S)     1.58426
   183    O   13  S      Ryd( 3S)     0.00129
   184    O   13  S      Ryd( 4S)     0.00008
   185    O   13  px     Val( 2p)     1.51245
   186    O   13  px     Ryd( 3p)     0.00128
   187    O   13  py     Val( 2p)     1.67778
   188    O   13  py     Ryd( 3p)     0.00206
   189    O   13  pz     Val( 2p)     1.75116
   190    O   13  pz     Ryd( 3p)     0.00133
   191    O   13  dxy    Ryd( 3d)     0.00119
   192    O   13  dxz    Ryd( 3d)     0.00076
   193    O   13  dyz    Ryd( 3d)     0.00133
   194    O   13  dx2y2  Ryd( 3d)     0.00118
   195    O   13  dz2    Ryd( 3d)     0.00058

   196    C   14  S      Cor( 1S)     1.99929
   197    C   14  S      Val( 2S)     0.76619
   198    C   14  S      Ryd( 3S)     0.00661
   199    C   14  S      Ryd( 4S)     0.00047
   200    C   14  px     Val( 2p)     0.88951
   201    C   14  px     Ryd( 3p)     0.00828
   202    C   14  py     Val( 2p)     0.67040
   203    C   14  py     Ryd( 3p)     0.02017
   204    C   14  pz     Val( 2p)     0.82251
   205    C   14  pz     Ryd( 3p)     0.00365
   206    C   14  dxy    Ryd( 3d)     0.00288
   207    C   14  dxz    Ryd( 3d)     0.00086
   208    C   14  dyz    Ryd( 3d)     0.00241
   209    C   14  dx2y2  Ryd( 3d)     0.00290
   210    C   14  dz2    Ryd( 3d)     0.00047

   211    O   15  S      Cor( 1S)     1.99977
   212    O   15  S      Val( 2S)     1.69435
   213    O   15  S      Ryd( 3S)     0.00066
   214    O   15  S      Ryd( 4S)     0.00014
   215    O   15  px     Val( 2p)     1.79173
   216    O   15  px     Ryd( 3p)     0.00149
   217    O   15  py     Val( 2p)     1.64773
   218    O   15  py     Ryd( 3p)     0.00079
   219    O   15  pz     Val( 2p)     1.46573
   220    O   15  pz     Ryd( 3p)     0.00135
   221    O   15  dxy    Ryd( 3d)     0.00471
   222    O   15  dxz    Ryd( 3d)     0.00102
   223    O   15  dyz    Ryd( 3d)     0.00374
   224    O   15  dx2y2  Ryd( 3d)     0.00460
   225    O   15  dz2    Ryd( 3d)     0.00141

   226    C   16  S      Cor( 1S)     1.99906
   227    C   16  S      Val( 2S)     0.94043
   228    C   16  S      Ryd( 3S)     0.00048
   229    C   16  S      Ryd( 4S)     0.00003
   230    C   16  px     Val( 2p)     1.06705
   231    C   16  px     Ryd( 3p)     0.00179
   232    C   16  py     Val( 2p)     1.06843
   233    C   16  py     Ryd( 3p)     0.00454
   234    C   16  pz     Val( 2p)     1.05913
   235    C   16  pz     Ryd( 3p)     0.00186
   236    C   16  dxy    Ryd( 3d)     0.00052
   237    C   16  dxz    Ryd( 3d)     0.00050
   238    C   16  dyz    Ryd( 3d)     0.00089
   239    C   16  dx2y2  Ryd( 3d)     0.00111
   240    C   16  dz2    Ryd( 3d)     0.00089

   241    C   17  S      Cor( 1S)     1.99938
   242    C   17  S      Val( 2S)     1.09504
   243    C   17  S      Ryd( 3S)     0.00057
   244    C   17  S      Ryd( 4S)     0.00002
   245    C   17  px     Val( 2p)     1.22957
   246    C   17  px     Ryd( 3p)     0.00182
   247    C   17  py     Val( 2p)     1.19963
   248    C   17  py     Ryd( 3p)     0.00210
   249    C   17  pz     Val( 2p)     1.13465
   250    C   17  pz     Ryd( 3p)     0.00180
   251    C   17  dxy    Ryd( 3d)     0.00051
   252    C   17  dxz    Ryd( 3d)     0.00026
   253    C   17  dyz    Ryd( 3d)     0.00067
   254    C   17  dx2y2  Ryd( 3d)     0.00096
   255    C   17  dz2    Ryd( 3d)     0.00098

   256    C   18  S      Cor( 1S)     1.99939
   257    C   18  S      Val( 2S)     1.09008
   258    C   18  S      Ryd( 3S)     0.00058
   259    C   18  S      Ryd( 4S)     0.00002
   260    C   18  px     Val( 2p)     1.20342
   261    C   18  px     Ryd( 3p)     0.00282
   262    C   18  py     Val( 2p)     1.10774
   263    C   18  py     Ryd( 3p)     0.00169
   264    C   18  pz     Val( 2p)     1.25659
   265    C   18  pz     Ryd( 3p)     0.00256
   266    C   18  dxy    Ryd( 3d)     0.00039
   267    C   18  dxz    Ryd( 3d)     0.00021
   268    C   18  dyz    Ryd( 3d)     0.00106
   269    C   18  dx2y2  Ryd( 3d)     0.00093
   270    C   18  dz2    Ryd( 3d)     0.00075

   271    C   19  S      Cor( 1S)     1.99938
   272    C   19  S      Val( 2S)     1.09508
   273    C   19  S      Ryd( 3S)     0.00057
   274    C   19  S      Ryd( 4S)     0.00002
   275    C   19  px     Val( 2p)     1.23133
   276    C   19  px     Ryd( 3p)     0.00183
   277    C   19  py     Val( 2p)     1.21150
   278    C   19  py     Ryd( 3p)     0.00216
   279    C   19  pz     Val( 2p)     1.12103
   280    C   19  pz     Ryd( 3p)     0.00173
   281    C   19  dxy    Ryd( 3d)     0.00050
   282    C   19  dxz    Ryd( 3d)     0.00028
   283    C   19  dyz    Ryd( 3d)     0.00074
   284    C   19  dx2y2  Ryd( 3d)     0.00094
   285    C   19  dz2    Ryd( 3d)     0.00090

   286    H   20  S      Val( 1S)     0.76377
   287    H   20  S      Ryd( 2S)     0.00048

   288    H   21  S      Val( 1S)     0.78175
   289    H   21  S      Ryd( 2S)     0.00160

   290    H   22  S      Val( 1S)     0.78186
   291    H   22  S      Ryd( 2S)     0.00160

   292    H   23  S      Val( 1S)     0.75352
   293    H   23  S      Ryd( 2S)     0.00103

   294    H   24  S      Val( 1S)     0.76269
   295    H   24  S      Ryd( 2S)     0.00104

   296    H   25  S      Val( 1S)     0.75831
   297    H   25  S      Ryd( 2S)     0.00113

   298    H   26  S      Val( 1S)     0.73037
   299    H   26  S      Ryd( 2S)     0.00176

   300    H   27  S      Val( 1S)     0.75274
   301    H   27  S      Ryd( 2S)     0.00121

   302    H   28  S      Val( 1S)     0.76412
   303    H   28  S      Ryd( 2S)     0.00103

   304    H   29  S      Val( 1S)     0.76480
   305    H   29  S      Ryd( 2S)     0.00095

   306    H   30  S      Val( 1S)     0.75926
   307    H   30  S      Ryd( 2S)     0.00117

   308    H   31  S      Val( 1S)     0.76963
   309    H   31  S      Ryd( 2S)     0.00125

   310    H   32  S      Val( 1S)     0.75785
   311    H   32  S      Ryd( 2S)     0.00109

   312    H   33  S      Val( 1S)     0.77315
   313    H   33  S      Ryd( 2S)     0.00096

   314    H   34  S      Val( 1S)     0.75800
   315    H   34  S      Ryd( 2S)     0.00109

   316    H   35  S      Val( 1S)     0.75899
   317    H   35  S      Ryd( 2S)     0.00116

   318    H   36  S      Val( 1S)     0.76492
   319    H   36  S      Ryd( 2S)     0.00095

   320    H   37  S      Val( 1S)     0.76968
   321    H   37  S      Ryd( 2S)     0.00126

 WARNING:  1 low occupancy (<1.9990e) core orbital  found on  C    3
           1 low occupancy (<1.9990e) core orbital  found on  C    8
           1 low occupancy (<1.9990e) core orbital  found on  C    9
           1 low occupancy (<1.9990e) core orbital  found on  C   10


 Summary of Natural Population Analysis:                  
                                                          
                                       Natural Population 
                Natural  -----------------------------------------------
    Atom  No    Charge         Core      Valence    Rydberg      Total
 -----------------------------------------------------------------------
      C    1   -0.32725      1.99942     4.31362    0.01421     6.32725
      O    2   -0.45017      1.99975     6.43867    0.01175     8.45017
      C    3    0.36775      1.99880     3.61098    0.02247     5.63225
      C    4   -0.33532      1.99905     4.31915    0.01711     6.33532
      C    5   -0.19755      1.99907     4.18371    0.01476     6.19755
      C    6   -0.05574      1.99902     4.04196    0.01476     6.05574
      C    7   -0.04253      1.99905     4.02762    0.01586     6.04253
      C    8   -0.25381      1.99899     4.24206    0.01276     6.25381
      C    9   -0.28160      1.99899     4.26762    0.01500     6.28160
      C   10    0.25631      1.99875     3.72256    0.02239     5.74369
      C   11   -0.18944      1.99905     4.17545    0.01494     6.18944
      C   12   -0.24134      1.99908     4.22710    0.01517     6.24134
      O   13   -0.53641      1.99969     6.52565    0.01107     8.53641
      C   14    0.80340      1.99929     3.14861    0.04870     5.19660
      O   15   -0.61923      1.99977     6.59955    0.01991     8.61923
      C   16   -0.14672      1.99906     4.13504    0.01262     6.14672
      C   17   -0.66795      1.99938     4.65889    0.00968     6.66795
      C   18   -0.66824      1.99939     4.65784    0.01101     6.66824
      C   19   -0.66800      1.99938     4.65894    0.00968     6.66800
      H   20    0.23576      0.00000     0.76377    0.00048     0.76424
      H   21    0.21666      0.00000     0.78175    0.00160     0.78334
      H   22    0.21654      0.00000     0.78186    0.00160     0.78346
      H   23    0.24545      0.00000     0.75352    0.00103     0.75455
      H   24    0.23627      0.00000     0.76269    0.00104     0.76373
      H   25    0.24056      0.00000     0.75831    0.00113     0.75944
      H   26    0.26787      0.00000     0.73037    0.00176     0.73213
      H   27    0.24606      0.00000     0.75274    0.00121     0.75394
      H   28    0.23485      0.00000     0.76412    0.00103     0.76515
      H   29    0.23425      0.00000     0.76480    0.00095     0.76575
      H   30    0.23957      0.00000     0.75926    0.00117     0.76043
      H   31    0.22912      0.00000     0.76963    0.00125     0.77088
      H   32    0.24107      0.00000     0.75785    0.00109     0.75893
      H   33    0.22589      0.00000     0.77315    0.00096     0.77411
      H   34    0.24091      0.00000     0.75800    0.00109     0.75909
      H   35    0.23985      0.00000     0.75899    0.00116     0.76015
      H   36    0.23413      0.00000     0.76492    0.00095     0.76587
      H   37    0.22906      0.00000     0.76968    0.00126     0.77094
 =======================================================================
   * Total *    0.00000     37.98498    99.68043    0.33459   138.00000

                                 Natural Population      
 --------------------------------------------------------
   Core                      37.98498 ( 99.9605% of  38)
   Valence                   99.68043 ( 99.6804% of 100)
   Natural Minimal Basis    137.66541 ( 99.7575% of 138)
   Natural Rydberg Basis      0.33459 (  0.2425% of 138)
 --------------------------------------------------------

    Atom  No          Natural Electron Configuration
 ----------------------------------------------------------------------------
      C    1      [core]2S( 1.11)2p( 3.21)3p( 0.01)3d( 0.01)
      O    2      [core]2S( 1.60)2p( 4.84)3p( 0.01)3d( 0.01)
      C    3      [core]2S( 0.84)2p( 2.77)3p( 0.01)3d( 0.01)
      C    4      [core]2S( 0.96)2p( 3.36)3p( 0.01)
      C    5      [core]2S( 0.95)2p( 3.23)3p( 0.01)
      C    6      [core]2S( 0.87)2p( 3.17)3p( 0.01)
      C    7      [core]2S( 0.87)2p( 3.16)3p( 0.01)
      C    8      [core]2S( 0.96)2p( 3.29)3p( 0.01)
      C    9      [core]2S( 0.95)2p( 3.32)3p( 0.01)
      C   10      [core]2S( 0.83)2p( 2.89)3p( 0.02)3d( 0.01)
      C   11      [core]2S( 0.97)2p( 3.20)3p( 0.01)
      C   12      [core]2S( 0.95)2p( 3.28)3p( 0.01)
      O   13      [core]2S( 1.58)2p( 4.94)3d( 0.01)
      C   14      [core]2S( 0.77)2p( 2.38)3S( 0.01)3p( 0.03)3d( 0.01)
      O   15      [core]2S( 1.69)2p( 4.91)3d( 0.02)
      C   16      [core]2S( 0.94)2p( 3.19)3p( 0.01)
      C   17      [core]2S( 1.10)2p( 3.56)3p( 0.01)
      C   18      [core]2S( 1.09)2p( 3.57)3p( 0.01)
      C   19      [core]2S( 1.10)2p( 3.56)3p( 0.01)
      H   20            1S( 0.76)
      H   21            1S( 0.78)
      H   22            1S( 0.78)
      H   23            1S( 0.75)
      H   24            1S( 0.76)
      H   25            1S( 0.76)
      H   26            1S( 0.73)
      H   27            1S( 0.75)
      H   28            1S( 0.76)
      H   29            1S( 0.76)
      H   30            1S( 0.76)
      H   31            1S( 0.77)
      H   32            1S( 0.76)
      H   33            1S( 0.77)
      H   34            1S( 0.76)
      H   35            1S( 0.76)
      H   36            1S( 0.76)
      H   37            1S( 0.77)


 NBO analysis skipped by request.
 Leave Link  607 at Thu Sep 30 00:23:55 2021, MaxMem= 1610612736 cpu:      27.7
 (Enter /sw/target/amd/app/gaussian/Gaussian09RevA.02_gcc-4.9.2/g09/l9999.exe)
 1\1\GINC-HERMITE\SP\RTD-B3LYP-FC\6-31G(d)\C16H18O3\JSCHLEINITZ\30-Sep-
 2021\0\\#p TD(NStates=10, Root=1) b3lyp/6-31G* volume pop=NPA density=
 current Geom=AllCheck Guess=Read\\COc1ccc2c(c1)cc(cc2)OC(=O)C(C)(C)C_c
 onf_0\\0,1\C,0,3.310937006,0.7753946377,-1.3426198325\O,0,2.4986523687
 ,-0.2677252947,-0.8271646475\C,0,2.8618957785,-0.8365762249,0.35795062
 71\C,0,1.9959523684,-1.8730730396,0.8045305681\C,0,2.2516190066,-2.525
 2926129,1.9831825342\C,0,3.377852326,-2.1862433927,2.7824063113\C,0,4.
 2478394689,-1.1442021069,2.3324434432\C,0,3.9659448709,-0.4790677063,1
 .1067641964\C,0,5.3815651055,-0.7853563213,3.1130444583\C,0,5.62651431
 61,-1.4503497389,4.2957659407\C,0,4.7709995603,-2.4838842276,4.7514338
 233\C,0,3.6727171163,-2.8393277436,4.0066072853\O,0,6.6858865733,-1.21
 40733756,5.1725321553\C,0,7.6989742276,-0.3198020106,4.9806585073\O,0,
 7.8089080081,0.398912024,4.0140418156\C,0,8.6723829275,-0.3617193364,6
 .1664102491\C,0,9.2628620802,-1.7846126938,6.2874101207\C,0,9.79539166
 3,0.6563633911,5.9124612518\C,0,7.9098545568,0.0005263361,7.460717817\
 H,0,2.8465177159,1.0813277203,-2.2818078074\H,0,4.3342057464,0.4284152
 528,-1.5377560404\H,0,3.3466788248,1.6324636788,-0.6572468476\H,0,1.13
 92171878,-2.1242335348,0.1872219459\H,0,1.5871798142,-3.3171735771,2.3
 209210507\H,0,4.6373492978,0.3080767816,0.7824797962\H,0,6.040735898,-
 0.0000431346,2.7742779422\H,0,5.0060868413,-2.9763019174,5.6893899122\
 H,0,3.0143566345,-3.6321531028,4.3534335598\H,0,9.7982837175,-2.071310
 3532,5.3748648032\H,0,8.4819656683,-2.5268471741,6.4744680692\H,0,9.97
 61696403,-1.8171345242,7.1190025658\H,0,10.3413333187,0.4247154244,4.9
 929752582\H,0,10.503111435,0.6416976322,6.7489335234\H,0,9.3973981642,
 1.670765876,5.813694193\H,0,7.1069992178,-0.7132112112,7.6648409173\H,
 0,7.4708069456,1.0027864921,7.3952237319\H,0,8.6026227093,-0.007339179
 5,8.3101017249\\Version=AM64L-G09RevA.02\State=1-A\HF=-846.2350045\RMS
 D=9.875e-09\Dipole=-0.6700446,0.0716755,-0.7734519\Quadrupole=-5.91049
 89,-2.6377388,8.5482377,-1.9155646,4.3938473,-7.9867352\PG=C01 [X(C16H
 18O3)]\\@


 THE PROGRESS OF RIVERS TO THE SEA IS NOT AS RAPID
 AS THAT OF MAN TO ERROR.
                                              -- VOLTAIRE
 Job cpu time:  0 days  6 hours 21 minutes 32.0 seconds.
 File lengths (MBytes):  RWF=    341 Int=      0 D2E=      0 Chk=     47 Scr=      1
 Normal termination of Gaussian 09 at Thu Sep 30 00:24:03 2021.
