 Entering Gaussian System, Link 0=g09
 Input=C16H22OSi_6b20_conf_0.com
 Output=C16H22OSi_6b20_conf_0.log
 Initial command:
 /sw/target/amd/app/gaussian/Gaussian09RevA.02_gcc-4.9.2/g09/l1.exe /home/jschleinitz/gaussian/Gau-3165500.inp -scrdir=/home/jschleinitz/gaussian/
 Entering Link 1 = /sw/target/amd/app/gaussian/Gaussian09RevA.02_gcc-4.9.2/g09/l1.exe PID=   3165502.
  
 Copyright (c) 1988,1990,1992,1993,1995,1998,2003,2009, Gaussian, Inc.
                  All Rights Reserved.
  
 This is part of the Gaussian(R) 09 program.  It is based on
 the Gaussian(R) 03 system (copyright 2003, Gaussian, Inc.),
 the Gaussian(R) 98 system (copyright 1998, Gaussian, Inc.),
 the Gaussian(R) 94 system (copyright 1995, Gaussian, Inc.),
 the Gaussian 92(TM) system (copyright 1992, Gaussian, Inc.),
 the Gaussian 90(TM) system (copyright 1990, Gaussian, Inc.),
 the Gaussian 88(TM) system (copyright 1988, Gaussian, Inc.),
 the Gaussian 86(TM) system (copyright 1986, Carnegie Mellon
 University), and the Gaussian 82(TM) system (copyright 1983,
 Carnegie Mellon University). Gaussian is a federally registered
 trademark of Gaussian, Inc.
  
 This software contains proprietary and confidential information,
 including trade secrets, belonging to Gaussian, Inc.
  
 This software is provided under written license and may be
 used, copied, transmitted, or stored only in accord with that
 written license.
  
 The following legend is applicable only to US Government
 contracts under FAR:
  
                    RESTRICTED RIGHTS LEGEND
  
 Use, reproduction and disclosure by the US Government is
 subject to restrictions as set forth in subparagraphs (a)
 and (c) of the Commercial Computer Software - Restricted
 Rights clause in FAR 52.227-19.
  
 Gaussian, Inc.
 340 Quinnipiac St., Bldg. 40, Wallingford CT 06492
  
  
 ---------------------------------------------------------------
 Warning -- This program may not be used in any manner that
 competes with the business of Gaussian, Inc. or will provide
 assistance to any competitor of Gaussian, Inc.  The licensee
 of this program is prohibited from giving any competitor of
 Gaussian, Inc. access to this program.  By using this program,
 the user acknowledges that Gaussian, Inc. is engaged in the
 business of creating and licensing software in the field of
 computational chemistry and represents and warrants to the
 licensee that it is not a competitor of Gaussian, Inc. and that
 it will not use this program in any manner prohibited above.
 ---------------------------------------------------------------
  

 Cite this work as:
 Gaussian 09, Revision A.02,
 M. J. Frisch, G. W. Trucks, H. B. Schlegel, G. E. Scuseria, 
 M. A. Robb, J. R. Cheeseman, G. Scalmani, V. Barone, B. Mennucci, 
 G. A. Petersson, H. Nakatsuji, M. Caricato, X. Li, H. P. Hratchian, 
 A. F. Izmaylov, J. Bloino, G. Zheng, J. L. Sonnenberg, M. Hada, 
 M. Ehara, K. Toyota, R. Fukuda, J. Hasegawa, M. Ishida, T. Nakajima, 
 Y. Honda, O. Kitao, H. Nakai, T. Vreven, J. A. Montgomery, Jr., 
 J. E. Peralta, F. Ogliaro, M. Bearpark, J. J. Heyd, E. Brothers, 
 K. N. Kudin, V. N. Staroverov, R. Kobayashi, J. Normand, 
 K. Raghavachari, A. Rendell, J. C. Burant, S. S. Iyengar, J. Tomasi, 
 M. Cossi, N. Rega, J. M. Millam, M. Klene, J. E. Knox, J. B. Cross, 
 V. Bakken, C. Adamo, J. Jaramillo, R. Gomperts, R. E. Stratmann, 
 O. Yazyev, A. J. Austin, R. Cammi, C. Pomelli, J. W. Ochterski, 
 R. L. Martin, K. Morokuma, V. G. Zakrzewski, G. A. Voth, 
 P. Salvador, J. J. Dannenberg, S. Dapprich, A. D. Daniels, 
 O. Farkas, J. B. Foresman, J. V. Ortiz, J. Cioslowski, 
 and D. J. Fox, Gaussian, Inc., Wallingford CT, 2009.
 
 ******************************************
 Gaussian 09:  AM64L-G09RevA.02 11-Jun-2009
                28-Sep-2021 
 ******************************************
 %nproc=6
 Will use up to    6 processors via shared memory.
 %mem=12gb
 %chk=C16H22OSi_6b20_conf_0.chk
 -----------------------------------
 #p opt b3lyp/6-31G* scf=(xqc,tight)
 -----------------------------------
 1/14=-1,18=20,19=15,26=3,38=1/1,3;
 2/9=110,12=2,17=6,18=5,40=1/2;
 3/5=1,6=6,7=1,11=2,16=1,25=1,30=1,71=1,74=-5/1,2,3;
 4//1;
 5/5=2,8=3,13=1,32=2,38=5/2,8;
 6/7=2,8=2,9=2,10=2,28=1/1;
 7//1,2,3,16;
 1/14=-1,18=20,19=15/3(2);
 2/9=110/2;
 99//99;
 2/9=110/2;
 3/5=1,6=6,7=1,11=2,16=1,25=1,30=1,71=1,74=-5/1,2,3;
 4/5=5,16=3/1;
 5/5=2,8=3,13=1,32=2,38=5/2,8;
 7//1,2,3,16;
 1/14=-1,18=20,19=15/3(-5);
 2/9=110/2;
 6/7=2,8=2,9=2,10=2,19=2,28=1/1;
 99/9=1/99;
 Leave Link    1 at Tue Sep 28 14:42:18 2021, MaxMem= 1610612736 cpu:       0.1
 (Enter /sw/target/amd/app/gaussian/Gaussian09RevA.02_gcc-4.9.2/g09/l101.exe)
 ------------------------------------------
 C[Si](C(C)(C)C)(Oc1ccc2c(c1)cccc2)C_conf_0
 ------------------------------------------
 Symbolic Z-matrix:
 Charge =  0 Multiplicity = 1
 C                     1.05694  -0.13285  -0.64674 
 Si                    2.89423   0.17721  -0.35994 
 C                     3.60684   1.13175  -2.05889 
 C                     2.83557   2.45045  -2.25934 
 C                     5.11086   1.42041  -1.88258 
 C                     3.39017   0.2047   -3.27463 
 O                     3.16231   1.11195   1.00801 
 C                     2.80376   0.93254   2.32198 
 C                     3.13085   1.94947   3.21863 
 C                     2.78957   1.83262   4.57038 
 C                     2.10835   0.69808   5.04831 
 C                     1.77814  -0.32934   4.13916 
 C                     2.13604  -0.20014   2.79122 
 C                     1.09211  -1.46753   4.59108 
 C                     0.73515  -1.59489   5.93244 
 C                     1.06231  -0.58922   6.8354 
 C                     1.74462   0.55103   6.3979 
 C                     3.79285  -1.47713  -0.2845 
 H                     0.51464   0.81146  -0.74466 
 H                     0.62003  -0.68964   0.18674 
 H                     0.90337  -0.72053  -1.55552 
 H                     2.96751   3.12691  -1.40756 
 H                     1.76134   2.27494  -2.38394 
 H                     3.18853   2.97205  -3.1565 
 H                     5.2964    2.08055  -1.02798 
 H                     5.51788   1.90933  -2.77526 
 H                     5.6836    0.50001  -1.72392 
 H                     2.33119  -0.0392   -3.41373 
 H                     3.93672  -0.73867  -3.16544 
 H                     3.74193   0.68123  -4.19626 
 H                     3.65048   2.83758   2.8691 
 H                     3.055     2.63725   5.25439 
 H                     1.87801  -1.00886   2.11635 
 H                     0.82725  -2.26242   3.89698 
 H                     0.20253  -2.48069   6.26808 
 H                     0.78674  -0.6885    7.88087 
 H                     1.99019   1.32528   7.12112 
 H                     3.56112  -2.0741   -1.1712 
 H                     3.48753  -2.05008   0.59501 
 H                     4.87541  -1.33043  -0.23975 
 
 NAtoms=     40 NQM=     40 NQMF=      0 NMic=      0 NMicF=      0 NTot=     40.
                    Isotopes and Nuclear Properties:
 (Nuclear quadrupole moments (NQMom) in fm**2, nuclear magnetic moments (NMagM)
  in nuclear magnetons)

  Atom         1           2           3           4           5           6           7           8           9          10
 IAtWgt=          12          28          12          12          12          12          16          12          12          12
 AtmWgt=  12.0000000  27.9769284  12.0000000  12.0000000  12.0000000  12.0000000  15.9949146  12.0000000  12.0000000  12.0000000
 NucSpn=           0           0           0           0           0           0           0           0           0           0
 AtZEff=   0.0000000   0.0000000   0.0000000   0.0000000   0.0000000   0.0000000   0.0000000   0.0000000   0.0000000   0.0000000
 NQMom=    0.0000000   0.0000000   0.0000000   0.0000000   0.0000000   0.0000000   0.0000000   0.0000000   0.0000000   0.0000000
 NMagM=    0.0000000   0.0000000   0.0000000   0.0000000   0.0000000   0.0000000   0.0000000   0.0000000   0.0000000   0.0000000

  Atom        11          12          13          14          15          16          17          18          19          20
 IAtWgt=          12          12          12          12          12          12          12          12           1           1
 AtmWgt=  12.0000000  12.0000000  12.0000000  12.0000000  12.0000000  12.0000000  12.0000000  12.0000000   1.0078250   1.0078250
 NucSpn=           0           0           0           0           0           0           0           0           1           1
 AtZEff=   0.0000000   0.0000000   0.0000000   0.0000000   0.0000000   0.0000000   0.0000000   0.0000000   0.0000000   0.0000000
 NQMom=    0.0000000   0.0000000   0.0000000   0.0000000   0.0000000   0.0000000   0.0000000   0.0000000   0.0000000   0.0000000
 NMagM=    0.0000000   0.0000000   0.0000000   0.0000000   0.0000000   0.0000000   0.0000000   0.0000000   2.7928460   2.7928460

  Atom        21          22          23          24          25          26          27          28          29          30
 IAtWgt=           1           1           1           1           1           1           1           1           1           1
 AtmWgt=   1.0078250   1.0078250   1.0078250   1.0078250   1.0078250   1.0078250   1.0078250   1.0078250   1.0078250   1.0078250
 NucSpn=           1           1           1           1           1           1           1           1           1           1
 AtZEff=   0.0000000   0.0000000   0.0000000   0.0000000   0.0000000   0.0000000   0.0000000   0.0000000   0.0000000   0.0000000
 NQMom=    0.0000000   0.0000000   0.0000000   0.0000000   0.0000000   0.0000000   0.0000000   0.0000000   0.0000000   0.0000000
 NMagM=    2.7928460   2.7928460   2.7928460   2.7928460   2.7928460   2.7928460   2.7928460   2.7928460   2.7928460   2.7928460

  Atom        31          32          33          34          35          36          37          38          39          40
 IAtWgt=           1           1           1           1           1           1           1           1           1           1
 AtmWgt=   1.0078250   1.0078250   1.0078250   1.0078250   1.0078250   1.0078250   1.0078250   1.0078250   1.0078250   1.0078250
 NucSpn=           1           1           1           1           1           1           1           1           1           1
 AtZEff=   0.0000000   0.0000000   0.0000000   0.0000000   0.0000000   0.0000000   0.0000000   0.0000000   0.0000000   0.0000000
 NQMom=    0.0000000   0.0000000   0.0000000   0.0000000   0.0000000   0.0000000   0.0000000   0.0000000   0.0000000   0.0000000
 NMagM=    2.7928460   2.7928460   2.7928460   2.7928460   2.7928460   2.7928460   2.7928460   2.7928460   2.7928460   2.7928460
 Leave Link  101 at Tue Sep 28 14:42:18 2021, MaxMem= 1610612736 cpu:       0.1
 (Enter /sw/target/amd/app/gaussian/Gaussian09RevA.02_gcc-4.9.2/g09/l103.exe)

 GradGradGradGradGradGradGradGradGradGradGradGradGradGradGradGradGradGrad
 Berny optimization.
 Initialization pass.
                           ----------------------------
                           !    Initial Parameters    !
                           ! (Angstroms and Degrees)  !
 --------------------------                            --------------------------
 ! Name  Definition              Value          Derivative Info.                !
 --------------------------------------------------------------------------------
 ! R1    R(1,2)                  1.8852         estimate D2E/DX2                !
 ! R2    R(1,19)                 1.0933         estimate D2E/DX2                !
 ! R3    R(1,20)                 1.0934         estimate D2E/DX2                !
 ! R4    R(1,21)                 1.0931         estimate D2E/DX2                !
 ! R5    R(2,3)                  2.0749         estimate D2E/DX2                !
 ! R6    R(2,7)                  1.6784         estimate D2E/DX2                !
 ! R7    R(2,18)                 1.8842         estimate D2E/DX2                !
 ! R8    R(3,4)                  1.5408         estimate D2E/DX2                !
 ! R9    R(3,5)                  1.5416         estimate D2E/DX2                !
 ! R10   R(3,6)                  1.5442         estimate D2E/DX2                !
 ! R11   R(4,22)                 1.0957         estimate D2E/DX2                !
 ! R12   R(4,23)                 1.0956         estimate D2E/DX2                !
 ! R13   R(4,24)                 1.0962         estimate D2E/DX2                !
 ! R14   R(5,25)                 1.0957         estimate D2E/DX2                !
 ! R15   R(5,26)                 1.0962         estimate D2E/DX2                !
 ! R16   R(5,27)                 1.0956         estimate D2E/DX2                !
 ! R17   R(6,28)                 1.0956         estimate D2E/DX2                !
 ! R18   R(6,29)                 1.0957         estimate D2E/DX2                !
 ! R19   R(6,30)                 1.0955         estimate D2E/DX2                !
 ! R20   R(7,8)                  1.3738         estimate D2E/DX2                !
 ! R21   R(8,9)                  1.3947         estimate D2E/DX2                !
 ! R22   R(8,13)                 1.3961         estimate D2E/DX2                !
 ! R23   R(9,10)                 1.3991         estimate D2E/DX2                !
 ! R24   R(9,31)                 1.0867         estimate D2E/DX2                !
 ! R25   R(10,11)                1.407          estimate D2E/DX2                !
 ! R26   R(10,32)                1.0889         estimate D2E/DX2                !
 ! R27   R(11,12)                1.4111         estimate D2E/DX2                !
 ! R28   R(11,17)                1.4055         estimate D2E/DX2                !
 ! R29   R(12,13)                1.4006         estimate D2E/DX2                !
 ! R30   R(12,14)                1.4037         estimate D2E/DX2                !
 ! R31   R(13,33)                1.0845         estimate D2E/DX2                !
 ! R32   R(14,15)                1.3939         estimate D2E/DX2                !
 ! R33   R(14,34)                1.088          estimate D2E/DX2                !
 ! R34   R(15,16)                1.3906         estimate D2E/DX2                !
 ! R35   R(15,35)                1.0867         estimate D2E/DX2                !
 ! R36   R(16,17)                1.399          estimate D2E/DX2                !
 ! R37   R(16,36)                1.0857         estimate D2E/DX2                !
 ! R38   R(17,37)                1.0876         estimate D2E/DX2                !
 ! R39   R(18,38)                1.0938         estimate D2E/DX2                !
 ! R40   R(18,39)                1.0932         estimate D2E/DX2                !
 ! R41   R(18,40)                1.0934         estimate D2E/DX2                !
 ! A1    A(2,1,19)             110.7916         estimate D2E/DX2                !
 ! A2    A(2,1,20)             110.9287         estimate D2E/DX2                !
 ! A3    A(2,1,21)             110.5997         estimate D2E/DX2                !
 ! A4    A(19,1,20)            108.0515         estimate D2E/DX2                !
 ! A5    A(19,1,21)            108.6754         estimate D2E/DX2                !
 ! A6    A(20,1,21)            107.6873         estimate D2E/DX2                !
 ! A7    A(1,2,3)              106.6066         estimate D2E/DX2                !
 ! A8    A(1,2,7)              111.7938         estimate D2E/DX2                !
 ! A9    A(1,2,18)             109.0559         estimate D2E/DX2                !
 ! A10   A(3,2,7)              110.8729         estimate D2E/DX2                !
 ! A11   A(3,2,18)             105.8373         estimate D2E/DX2                !
 ! A12   A(7,2,18)             112.3456         estimate D2E/DX2                !
 ! A13   A(2,3,4)              109.1676         estimate D2E/DX2                !
 ! A14   A(2,3,5)              109.121          estimate D2E/DX2                !
 ! A15   A(2,3,6)              108.6798         estimate D2E/DX2                !
 ! A16   A(4,3,5)              110.0594         estimate D2E/DX2                !
 ! A17   A(4,3,6)              109.9478         estimate D2E/DX2                !
 ! A18   A(5,3,6)              109.8377         estimate D2E/DX2                !
 ! A19   A(3,4,22)             111.5297         estimate D2E/DX2                !
 ! A20   A(3,4,23)             111.6238         estimate D2E/DX2                !
 ! A21   A(3,4,24)             110.6437         estimate D2E/DX2                !
 ! A22   A(22,4,23)            107.7815         estimate D2E/DX2                !
 ! A23   A(22,4,24)            107.6803         estimate D2E/DX2                !
 ! A24   A(23,4,24)            107.3897         estimate D2E/DX2                !
 ! A25   A(3,5,25)             111.5443         estimate D2E/DX2                !
 ! A26   A(3,5,26)             110.6494         estimate D2E/DX2                !
 ! A27   A(3,5,27)             111.6716         estimate D2E/DX2                !
 ! A28   A(25,5,26)            107.6727         estimate D2E/DX2                !
 ! A29   A(25,5,27)            107.7379         estimate D2E/DX2                !
 ! A30   A(26,5,27)            107.3687         estimate D2E/DX2                !
 ! A31   A(3,6,28)             111.6692         estimate D2E/DX2                !
 ! A32   A(3,6,29)             111.6195         estimate D2E/DX2                !
 ! A33   A(3,6,30)             110.8632         estimate D2E/DX2                !
 ! A34   A(28,6,29)            107.646          estimate D2E/DX2                !
 ! A35   A(28,6,30)            107.4808         estimate D2E/DX2                !
 ! A36   A(29,6,30)            107.3475         estimate D2E/DX2                !
 ! A37   A(2,7,8)              131.6939         estimate D2E/DX2                !
 ! A38   A(7,8,9)              117.2898         estimate D2E/DX2                !
 ! A39   A(7,8,13)             123.5226         estimate D2E/DX2                !
 ! A40   A(9,8,13)             119.1874         estimate D2E/DX2                !
 ! A41   A(8,9,10)             120.2029         estimate D2E/DX2                !
 ! A42   A(8,9,31)             120.0835         estimate D2E/DX2                !
 ! A43   A(10,9,31)            119.7134         estimate D2E/DX2                !
 ! A44   A(9,10,11)            120.9068         estimate D2E/DX2                !
 ! A45   A(9,10,32)            119.0606         estimate D2E/DX2                !
 ! A46   A(11,10,32)           120.0321         estimate D2E/DX2                !
 ! A47   A(10,11,12)           118.7873         estimate D2E/DX2                !
 ! A48   A(10,11,17)           122.4008         estimate D2E/DX2                !
 ! A49   A(12,11,17)           118.8119         estimate D2E/DX2                !
 ! A50   A(11,12,13)           119.5441         estimate D2E/DX2                !
 ! A51   A(11,12,14)           119.8235         estimate D2E/DX2                !
 ! A52   A(13,12,14)           120.6322         estimate D2E/DX2                !
 ! A53   A(8,13,12)            121.368          estimate D2E/DX2                !
 ! A54   A(8,13,33)            120.6425         estimate D2E/DX2                !
 ! A55   A(12,13,33)           117.9895         estimate D2E/DX2                !
 ! A56   A(12,14,15)           120.602          estimate D2E/DX2                !
 ! A57   A(12,14,34)           120.3974         estimate D2E/DX2                !
 ! A58   A(15,14,34)           119.0002         estimate D2E/DX2                !
 ! A59   A(14,15,16)           119.9035         estimate D2E/DX2                !
 ! A60   A(14,15,35)           119.8158         estimate D2E/DX2                !
 ! A61   A(16,15,35)           120.2807         estimate D2E/DX2                !
 ! A62   A(15,16,17)           120.0745         estimate D2E/DX2                !
 ! A63   A(15,16,36)           119.9615         estimate D2E/DX2                !
 ! A64   A(17,16,36)           119.964          estimate D2E/DX2                !
 ! A65   A(11,17,16)           120.7836         estimate D2E/DX2                !
 ! A66   A(11,17,37)           120.3735         estimate D2E/DX2                !
 ! A67   A(16,17,37)           118.8429         estimate D2E/DX2                !
 ! A68   A(2,18,38)            110.2258         estimate D2E/DX2                !
 ! A69   A(2,18,39)            111.0503         estimate D2E/DX2                !
 ! A70   A(2,18,40)            110.8576         estimate D2E/DX2                !
 ! A71   A(38,18,39)           107.8793         estimate D2E/DX2                !
 ! A72   A(38,18,40)           108.4323         estimate D2E/DX2                !
 ! A73   A(39,18,40)           108.2961         estimate D2E/DX2                !
 ! D1    D(19,1,2,3)           -63.3559         estimate D2E/DX2                !
 ! D2    D(19,1,2,7)            57.9544         estimate D2E/DX2                !
 ! D3    D(19,1,2,18)         -177.204          estimate D2E/DX2                !
 ! D4    D(20,1,2,3)           176.6388         estimate D2E/DX2                !
 ! D5    D(20,1,2,7)           -62.0509         estimate D2E/DX2                !
 ! D6    D(20,1,2,18)           62.7908         estimate D2E/DX2                !
 ! D7    D(21,1,2,3)            57.2162         estimate D2E/DX2                !
 ! D8    D(21,1,2,7)           178.5265         estimate D2E/DX2                !
 ! D9    D(21,1,2,18)          -56.6319         estimate D2E/DX2                !
 ! D10   D(1,2,3,4)             59.4041         estimate D2E/DX2                !
 ! D11   D(1,2,3,5)            179.7248         estimate D2E/DX2                !
 ! D12   D(1,2,3,6)            -60.516          estimate D2E/DX2                !
 ! D13   D(7,2,3,4)            -62.4908         estimate D2E/DX2                !
 ! D14   D(7,2,3,5)             57.8299         estimate D2E/DX2                !
 ! D15   D(7,2,3,6)            177.5892         estimate D2E/DX2                !
 ! D16   D(18,2,3,4)           175.428          estimate D2E/DX2                !
 ! D17   D(18,2,3,5)           -64.2513         estimate D2E/DX2                !
 ! D18   D(18,2,3,6)            55.5079         estimate D2E/DX2                !
 ! D19   D(1,2,7,8)             57.0343         estimate D2E/DX2                !
 ! D20   D(3,2,7,8)            175.8429         estimate D2E/DX2                !
 ! D21   D(18,2,7,8)           -65.9583         estimate D2E/DX2                !
 ! D22   D(1,2,18,38)           53.1056         estimate D2E/DX2                !
 ! D23   D(1,2,18,39)          -66.3919         estimate D2E/DX2                !
 ! D24   D(1,2,18,40)          173.17           estimate D2E/DX2                !
 ! D25   D(3,2,18,38)          -61.2429         estimate D2E/DX2                !
 ! D26   D(3,2,18,39)          179.2596         estimate D2E/DX2                !
 ! D27   D(3,2,18,40)           58.8216         estimate D2E/DX2                !
 ! D28   D(7,2,18,38)          177.6239         estimate D2E/DX2                !
 ! D29   D(7,2,18,39)           58.1264         estimate D2E/DX2                !
 ! D30   D(7,2,18,40)          -62.3117         estimate D2E/DX2                !
 ! D31   D(2,3,4,22)            60.5772         estimate D2E/DX2                !
 ! D32   D(2,3,4,23)           -60.0556         estimate D2E/DX2                !
 ! D33   D(2,3,4,24)          -179.5869         estimate D2E/DX2                !
 ! D34   D(5,3,4,22)           -59.1658         estimate D2E/DX2                !
 ! D35   D(5,3,4,23)          -179.7986         estimate D2E/DX2                !
 ! D36   D(5,3,4,24)            60.6701         estimate D2E/DX2                !
 ! D37   D(6,3,4,22)           179.7126         estimate D2E/DX2                !
 ! D38   D(6,3,4,23)            59.0799         estimate D2E/DX2                !
 ! D39   D(6,3,4,24)           -60.4515         estimate D2E/DX2                !
 ! D40   D(2,3,5,25)           -61.1827         estimate D2E/DX2                !
 ! D41   D(2,3,5,26)           178.9776         estimate D2E/DX2                !
 ! D42   D(2,3,5,27)            59.4375         estimate D2E/DX2                !
 ! D43   D(4,3,5,25)            58.5886         estimate D2E/DX2                !
 ! D44   D(4,3,5,26)           -61.2511         estimate D2E/DX2                !
 ! D45   D(4,3,5,27)           179.2088         estimate D2E/DX2                !
 ! D46   D(6,3,5,25)           179.776          estimate D2E/DX2                !
 ! D47   D(6,3,5,26)            59.9363         estimate D2E/DX2                !
 ! D48   D(6,3,5,27)           -59.6038         estimate D2E/DX2                !
 ! D49   D(2,3,6,28)            59.3598         estimate D2E/DX2                !
 ! D50   D(2,3,6,29)           -61.1934         estimate D2E/DX2                !
 ! D51   D(2,3,6,30)           179.184          estimate D2E/DX2                !
 ! D52   D(4,3,6,28)           -60.0739         estimate D2E/DX2                !
 ! D53   D(4,3,6,29)           179.3729         estimate D2E/DX2                !
 ! D54   D(4,3,6,30)            59.7503         estimate D2E/DX2                !
 ! D55   D(5,3,6,28)           178.6716         estimate D2E/DX2                !
 ! D56   D(5,3,6,29)            58.1184         estimate D2E/DX2                !
 ! D57   D(5,3,6,30)           -61.5041         estimate D2E/DX2                !
 ! D58   D(2,7,8,9)           -176.8409         estimate D2E/DX2                !
 ! D59   D(2,7,8,13)             3.011          estimate D2E/DX2                !
 ! D60   D(7,8,9,10)           179.7331         estimate D2E/DX2                !
 ! D61   D(7,8,9,31)            -0.1353         estimate D2E/DX2                !
 ! D62   D(13,8,9,10)           -0.1255         estimate D2E/DX2                !
 ! D63   D(13,8,9,31)         -179.9939         estimate D2E/DX2                !
 ! D64   D(7,8,13,12)         -179.2515         estimate D2E/DX2                !
 ! D65   D(7,8,13,33)            0.6891         estimate D2E/DX2                !
 ! D66   D(9,8,13,12)            0.5978         estimate D2E/DX2                !
 ! D67   D(9,8,13,33)         -179.4616         estimate D2E/DX2                !
 ! D68   D(8,9,10,11)           -0.3205         estimate D2E/DX2                !
 ! D69   D(8,9,10,32)          179.9306         estimate D2E/DX2                !
 ! D70   D(31,9,10,11)         179.5484         estimate D2E/DX2                !
 ! D71   D(31,9,10,32)          -0.2005         estimate D2E/DX2                !
 ! D72   D(9,10,11,12)           0.298          estimate D2E/DX2                !
 ! D73   D(9,10,11,17)        -179.6865         estimate D2E/DX2                !
 ! D74   D(32,10,11,12)       -179.9556         estimate D2E/DX2                !
 ! D75   D(32,10,11,17)          0.0599         estimate D2E/DX2                !
 ! D76   D(10,11,12,13)          0.1646         estimate D2E/DX2                !
 ! D77   D(10,11,12,14)       -179.6499         estimate D2E/DX2                !
 ! D78   D(17,11,12,13)       -179.8503         estimate D2E/DX2                !
 ! D79   D(17,11,12,14)          0.3351         estimate D2E/DX2                !
 ! D80   D(10,11,17,16)        179.7149         estimate D2E/DX2                !
 ! D81   D(10,11,17,37)         -0.2756         estimate D2E/DX2                !
 ! D82   D(12,11,17,16)         -0.2696         estimate D2E/DX2                !
 ! D83   D(12,11,17,37)        179.7398         estimate D2E/DX2                !
 ! D84   D(11,12,13,8)          -0.6181         estimate D2E/DX2                !
 ! D85   D(11,12,13,33)        179.4398         estimate D2E/DX2                !
 ! D86   D(14,12,13,8)         179.195          estimate D2E/DX2                !
 ! D87   D(14,12,13,33)         -0.7472         estimate D2E/DX2                !
 ! D88   D(11,12,14,15)         -0.1283         estimate D2E/DX2                !
 ! D89   D(11,12,14,34)        179.609          estimate D2E/DX2                !
 ! D90   D(13,12,14,15)       -179.9408         estimate D2E/DX2                !
 ! D91   D(13,12,14,34)         -0.2035         estimate D2E/DX2                !
 ! D92   D(12,14,15,16)         -0.1525         estimate D2E/DX2                !
 ! D93   D(12,14,15,35)        179.8827         estimate D2E/DX2                !
 ! D94   D(34,14,15,16)       -179.8934         estimate D2E/DX2                !
 ! D95   D(34,14,15,35)          0.1417         estimate D2E/DX2                !
 ! D96   D(14,15,16,17)          0.2204         estimate D2E/DX2                !
 ! D97   D(14,15,16,36)       -179.8589         estimate D2E/DX2                !
 ! D98   D(35,15,16,17)       -179.8149         estimate D2E/DX2                !
 ! D99   D(35,15,16,36)          0.1057         estimate D2E/DX2                !
 ! D100  D(15,16,17,11)         -0.0074         estimate D2E/DX2                !
 ! D101  D(15,16,17,37)        179.9832         estimate D2E/DX2                !
 ! D102  D(36,16,17,11)       -179.9281         estimate D2E/DX2                !
 ! D103  D(36,16,17,37)          0.0626         estimate D2E/DX2                !
 --------------------------------------------------------------------------------
 Trust Radius=3.00D-01 FncErr=1.00D-07 GrdErr=1.00D-06
 Number of steps in this run= 227 maximum allowed number of steps= 240.
 GradGradGradGradGradGradGradGradGradGradGradGradGradGradGradGradGradGrad

 Leave Link  103 at Tue Sep 28 14:42:18 2021, MaxMem= 1610612736 cpu:       0.0
 (Enter /sw/target/amd/app/gaussian/Gaussian09RevA.02_gcc-4.9.2/g09/l202.exe)
                          Input orientation:                          
 ---------------------------------------------------------------------
 Center     Atomic      Atomic             Coordinates (Angstroms)
 Number     Number       Type             X           Y           Z
 ---------------------------------------------------------------------
      1          6           0        1.056943   -0.132849   -0.646745
      2         14           0        2.894228    0.177214   -0.359937
      3          6           0        3.606836    1.131753   -2.058887
      4          6           0        2.835569    2.450445   -2.259338
      5          6           0        5.110860    1.420412   -1.882583
      6          6           0        3.390165    0.204697   -3.274635
      7          8           0        3.162310    1.111949    1.008010
      8          6           0        2.803765    0.932544    2.321979
      9          6           0        3.130852    1.949467    3.218626
     10          6           0        2.789570    1.832615    4.570385
     11          6           0        2.108355    0.698076    5.048309
     12          6           0        1.778137   -0.329336    4.139163
     13          6           0        2.136044   -0.200135    2.791217
     14          6           0        1.092112   -1.467527    4.591077
     15          6           0        0.735154   -1.594894    5.932438
     16          6           0        1.062306   -0.589221    6.835400
     17          6           0        1.744624    0.551031    6.397896
     18          6           0        3.792850   -1.477135   -0.284501
     19          1           0        0.514637    0.811461   -0.744661
     20          1           0        0.620028   -0.689638    0.186735
     21          1           0        0.903366   -0.720532   -1.555525
     22          1           0        2.967511    3.126908   -1.407562
     23          1           0        1.761338    2.274942   -2.383941
     24          1           0        3.188534    2.972048   -3.156498
     25          1           0        5.296397    2.080545   -1.027978
     26          1           0        5.517883    1.909331   -2.775263
     27          1           0        5.683604    0.500013   -1.723925
     28          1           0        2.331194   -0.039199   -3.413734
     29          1           0        3.936718   -0.738670   -3.165445
     30          1           0        3.741930    0.681230   -4.196261
     31          1           0        3.650481    2.837580    2.869103
     32          1           0        3.055003    2.637250    5.254394
     33          1           0        1.878012   -1.008857    2.116350
     34          1           0        0.827248   -2.262415    3.896983
     35          1           0        0.202532   -2.480686    6.268077
     36          1           0        0.786741   -0.688504    7.880873
     37          1           0        1.990194    1.325278    7.121118
     38          1           0        3.561124   -2.074100   -1.171199
     39          1           0        3.487528   -2.050078    0.595009
     40          1           0        4.875410   -1.330431   -0.239745
 ---------------------------------------------------------------------
                    Distance matrix (angstroms):
                    1          2          3          4          5
     1  C    0.000000
     2  Si   1.885210   0.000000
     3  C    3.177313   2.074943   0.000000
     4  C    3.526666   2.962894   1.540774   0.000000
     5  C    4.513775   2.962676   1.541589   2.525839   0.000000
     6  C    3.530392   2.956717   1.544157   2.526221   2.525186
     7  O    2.953016   1.678355   3.099009   3.545968   3.499647
     8  C    3.605520   2.787719   4.458318   4.826334   4.820689
     9  C    4.855742   4.000373   5.361657   5.508743   5.497514
    10  C    5.838106   5.201862   6.716128   6.857765   6.870159
    11  C    5.850601   5.489810   7.276384   7.549923   7.587758
    12  C    4.843928   4.663062   6.625311   7.055930   7.101414
    13  C    3.603966   3.262975   5.240293   5.746565   5.772357
    14  C    5.405310   5.519541   7.569816   8.081975   8.148546
    15  C    6.747353   6.884472   8.918657   9.374524   9.450578
    16  C    7.496052   7.464331   9.409821   9.751835   9.820012
    17  C    7.111087   6.865102   8.678840   8.930041   8.980740
    18  C    3.069774   1.884166   3.160592   4.499139   3.561853
    19  H    1.093345   2.492536   3.375126   3.219820   4.773988
    20  H    1.093434   2.494448   4.157080   4.555438   5.376055
    21  H    1.093087   2.489762   3.315582   3.779399   4.732190
    22  H    3.854235   3.131067   2.193993   1.095688   2.780597
    23  H    3.051472   3.127378   2.195086   1.095582   3.492976
    24  H    4.525807   3.964652   2.183211   1.096153   2.779527
    25  H    4.797648   3.136776   2.194903   2.776463   1.095696
    26  H    5.347997   3.964542   2.184015   2.784564   1.096169
    27  H    4.792372   3.121743   2.196420   3.493159   1.095601
    28  H    3.047740   3.112800   2.198636   2.790225   3.493055
    29  H    3.873496   3.129937   2.198129   3.493424   2.772360
    30  H    4.524483   3.961063   2.188513   2.775480   2.788094
    31  H    5.283093   4.251607   5.215059   5.207193   5.169099
    32  H    6.818294   6.131748   7.486998   7.519256   7.526200
    33  H    3.012680   2.927705   5.000365   5.659535   5.687189
    34  H    5.023273   5.324055   7.397221   8.009038   8.081827
    35  H    7.352355   7.631529   9.694191  10.196359  10.283166
    36  H    8.549972   8.549966  10.491192  10.810854  10.884420
    37  H    7.958441   7.622435   9.323277   9.485442   9.529650
    38  H    3.211609   2.484212   3.326795   4.709775   3.888362
    39  H    3.335486   2.494946   4.145051   5.369083   4.562672
    40  H    4.022505   2.492493   3.313745   4.747076   3.212708
                    6          7          8          9         10
     6  C    0.000000
     7  O    4.383614   0.000000
     8  C    5.674127   1.373774   0.000000
     9  C    6.728588   2.364159   1.394666   0.000000
    10  C    8.034623   3.653602   2.421912   1.399064   0.000000
    11  C    8.435511   4.195966   2.823375   2.441152   1.406999
    12  C    7.605802   3.714479   2.438526   2.805382   2.425486
    13  C    6.207356   2.440208   1.396065   2.406889   2.779318
    14  C    8.363420   4.876247   3.720068   4.209030   3.711163
    15  C    9.749759   6.121118   4.868523   5.066226   4.221805
    16  C   10.404904   6.423587   5.071431   4.879024   3.738853
    17  C    9.817617   5.601369   4.228526   3.739654   2.464583
    18  C    3.454216   2.961676   3.684913   4.944870   5.960783
    19  H    3.877833   3.189407   3.828714   4.883368   5.870927
    20  H    4.522674   3.222330   3.458244   4.739354   5.503186
    21  H    3.161575   3.877180   4.623767   5.906192   6.899500
    22  H    3.493410   3.151665   4.330303   4.776469   6.119044
    23  H    2.780707   3.849754   5.003436   5.776699   7.043831
    24  H    2.777201   4.561116   5.858441   6.456873   7.820626
    25  H    3.492849   3.104473   4.330512   4.768691   6.138999
    26  H    2.771702   4.527438   5.856827   6.451839   7.836333
    27  H    2.784201   3.767607   4.984967   5.748588   7.054757
    28  H    1.095561   4.644106   5.836610   6.970111   8.213401
    29  H    1.095711   4.630575   5.847081   6.973655   8.232285
    30  H    1.095544   5.254134   6.590203   7.547344   8.893074
    31  H    6.689197   2.584527   2.155326   1.086703   2.155338
    32  H    8.875471   4.513295   3.401205   2.150151   1.088926
    33  H    5.729052   2.715817   2.160635   3.396514   3.863572
    34  H    8.005454   5.018467   4.073699   4.848372   4.590583
    35  H   10.413243   7.023932   5.829944   6.123763   5.308436
    36  H   11.490038   7.491409   6.131679   5.847247   4.618084
    37  H   10.549280   6.228118   4.883428   4.113412   2.720778
    38  H    3.105894   3.880582   4.670738   5.970326   6.987382
    39  H    4.479691   3.205426   3.513686   4.796555   5.600541
    40  H    3.711216   3.233702   3.996899   5.075583   6.123148
                   11         12         13         14         15
    11  C    0.000000
    12  C    1.411086   0.000000
    13  C    2.429406   1.400624   0.000000
    14  C    2.435497   1.403687   2.436303   0.000000
    15  C    2.815151   2.430080   3.711485   1.393877   0.000000
    16  C    2.438246   2.801723   4.202347   2.410248   1.390593
    17  C    1.405456   2.424468   3.704807   2.786565   2.416749
    18  C    6.000660   4.994528   3.719647   5.573629   6.929192
    19  H    6.009267   5.172000   4.019294   5.830726   7.100904
    20  H    5.270272   4.134334   3.053071   4.497355   5.817718
    21  H    6.861127   5.774749   4.548019   6.194703   7.540716
    22  H    6.950945   6.642769   5.421282   7.785218   9.008576
    23  H    7.605607   7.023776   5.748797   7.943853   9.229889
    24  H    8.582342   8.131115   6.822448   9.172226  10.463499
    25  H    6.999721   6.699628   5.456701   7.863753   9.097317
    26  H    8.619762   8.173531   6.846340   9.233286  10.534617
    27  H    7.660599   7.093398   5.784626   8.051848   9.353913
    28  H    8.497023   7.578674   6.210105   8.225111   9.608250
    29  H    8.536562   7.627865   6.246140   8.293771   9.682696
    30  H    9.387807   8.623052   7.223609   9.426346  10.807960
    31  H    3.421194   3.892053   3.395187   5.295696   6.126172
    32  H    2.167720   3.416834   3.868137   4.598056   4.873652
    33  H    3.400450   2.136234   1.084462   2.636719   4.026424
    34  H    3.425097   2.167864   2.681169   1.088010   2.144095
    35  H    3.901861   3.412201   4.585623   2.151784   1.086723
    36  H    3.419457   3.887449   5.288074   3.394538   2.149559
    37  H    2.168844   3.416837   4.593060   3.873942   3.393449
    38  H    6.962598   5.867128   4.609049   6.298236   7.660118
    39  H    5.411686   4.294647   3.173661   4.695310   6.022533
    40  H    6.303566   5.456201   4.238918   6.137506   7.436902
                   16         17         18         19         20
    16  C    0.000000
    17  C    1.398979   0.000000
    18  C    7.677060   7.277576   0.000000
    19  H    7.727818   7.252366   4.024437   0.000000
    20  H    6.664115   6.432922   3.302880   1.769719   0.000000
    21  H    8.393457   8.098240   3.246085   1.776404   1.765420
    22  H    9.240446   8.309980   4.810370   3.437634   4.755890
    23  H    9.679272   8.949458   4.755288   2.526515   4.086527
    24  H   10.818572   9.961558   5.329990   4.199383   5.584119
    25  H    9.321367   8.372461   3.933255   4.955409   5.569370
    26  H   10.883922  10.011459   4.543983   5.510094   6.286260
    27  H    9.787996   9.026746   3.091279   5.270121   5.541273
    28  H   10.342019   9.846854   3.741149   3.338780   4.039127
    29  H   10.406799   9.895761   2.977560   4.469199   4.715925
    30  H   11.423309  10.781575   4.467997   4.727148   5.553036
    31  H    5.845778   4.616598   5.346237   5.195957   5.368427
    32  H    4.108592   2.716063   6.939160   6.765769   6.532875
    33  H    4.807380   4.558802   3.106441   3.654824   2.325476
    34  H    3.389561   3.874483   5.186161   5.575957   4.035159
    35  H    2.153766   3.403852   7.538818   7.753331   6.353335
    36  H    1.085729   2.157129   8.736816   8.759211   7.695943
    37  H    2.146606   1.087573   8.120732   8.019462   7.350028
    38  H    8.517898   8.214754   1.093754   4.217757   3.522892
    39  H    6.852611   6.593707   1.093172   4.338341   3.200006
    40  H    8.071359   7.576279   1.093371   4.884566   4.324440
                   21         22         23         24         25
    21  H    0.000000
    22  H    4.368682   0.000000
    23  H    3.224167   1.770315   0.000000
    24  H    4.628202   1.769636   1.766265   0.000000
    25  H    5.236703   2.581215   3.791183   3.125454   0.000000
    26  H    5.449560   3.139665   3.794527   2.588547   1.769569
    27  H    4.936473   3.791810   4.355475   3.793230   1.769845
    28  H    2.440461   3.801823   2.596239   3.141466   4.356326
    29  H    3.434151   4.355710   3.798010   3.785404   3.790181
    30  H    4.122605   3.789184   3.122046   2.575889   3.796376
    31  H    6.307467   4.340509   5.610695   6.044779   4.297601
    32  H    7.891720   6.680500   7.755579   8.418612   6.693427
    33  H    3.809952   5.541617   5.572214   6.735578   5.578222
    34  H    5.666837   7.858990   7.804495   9.095431   7.942911
    35  H    8.049724   9.899780   9.995163  11.290312   9.999235
    36  H    9.437173  10.275609  10.728385  11.873997  10.362058
    37  H    8.980572   8.771511   9.555123  10.477465   8.826617
    38  H    3.007247   5.240107   4.860466   5.435424   4.504748
    39  H    3.615298   5.575114   5.528080   6.275743   4.792509
    40  H    4.228521   4.987158   5.224340   5.464826   3.526088
                   26         27         28         29         30
    26  H    0.000000
    27  H    1.766055   0.000000
    28  H    3.789380   3.792738   0.000000
    29  H    3.108735   2.581459   1.768789   0.000000
    30  H    2.584856   3.148871   1.766788   1.765401   0.000000
    31  H    6.017284   5.540190   7.034943   7.020489   7.387664
    32  H    8.430364   7.757207   9.100754   9.114162   9.675370
    33  H    6.759612   5.613104   5.632712   5.675265   6.795561
    34  H    9.161025   7.925264   7.787884   7.865653   9.091811
    35  H   11.371332  10.138975  10.209287  10.294178  11.490319
    36  H   11.945111  10.846381  11.418191  11.486775  12.508656
    37  H   10.522550   9.620661  10.628321  10.670624  11.470242
    38  H    4.719072   3.381787   3.268411   2.429292   4.095794
    39  H    5.581934   4.086951   4.631497   4.007815   5.520963
    40  H    4.163854   2.491283   4.267847   3.129064   4.581001
                   31         32         33         34         35
    31  H    0.000000
    32  H    2.466646   0.000000
    33  H    4.301553   4.952446   0.000000
    34  H    5.919217   5.550871   2.417885   0.000000
    35  H    7.192032   5.946209   4.712786   2.461707   0.000000
    36  H    6.764031   4.806666   5.875646   4.283715   2.480792
    37  H    4.808663   2.517885   5.523448   4.961757   4.290545
    38  H    6.360552   7.983810   3.843903   5.761598   8.172410
    39  H    5.393260   6.623291   2.447276   4.245610   6.569651
    40  H    5.342069   7.017260   3.826093   5.862485   8.093864
                   36         37         38         39         40
    36  H    0.000000
    37  H    2.465937   0.000000
    38  H    9.568547   9.098688   0.000000
    39  H    7.888722   7.498342   1.767905   0.000000
    40  H    9.114479   8.340238   1.774259   1.772265   0.000000
 Stoichiometry    C16H22OSi
 Framework group  C1[X(C16H22OSi)]
 Deg. of freedom   114
 Full point group                 C1      NOp   1
 Largest Abelian subgroup         C1      NOp   1
 Largest concise Abelian subgroup C1      NOp   1
                         Standard orientation:                         
 ---------------------------------------------------------------------
 Center     Atomic      Atomic             Coordinates (Angstroms)
 Number     Number       Type             X           Y           Z
 ---------------------------------------------------------------------
      1          6           0       -1.728462   -1.557273    1.496102
      2         14           0       -1.942516   -0.472308   -0.030675
      3          6           0       -3.871526    0.288046    0.047863
      4          6           0       -4.043008    1.099388    1.346440
      5          6           0       -4.107393    1.194172   -1.176799
      6          6           0       -4.868915   -0.890606    0.027504
      7          8           0       -0.812421    0.767686   -0.077347
      8          6           0        0.561157    0.753335   -0.059053
      9          6           0        1.213356    1.986005   -0.043091
     10          6           0        2.611062    2.042479   -0.018426
     11          6           0        3.381739    0.865428   -0.002532
     12          6           0        2.719628   -0.380576   -0.018334
     13          6           0        1.319941   -0.418503   -0.052772
     14          6           0        3.466949   -1.568568    0.004476
     15          6           0        4.859842   -1.530085    0.039983
     16          6           0        5.519527   -0.305966    0.049839
     17          6           0        4.786702    0.885531    0.028824
     18          6           0       -1.879676   -1.557102   -1.569946
     19          1           0       -1.809859   -0.962128    2.409656
     20          1           0       -0.749455   -2.044245    1.495068
     21          1           0       -2.489475   -2.341563    1.520335
     22          1           0       -3.342781    1.940995    1.390173
     23          1           0       -3.877178    0.479680    2.234562
     24          1           0       -5.058169    1.506973    1.416259
     25          1           0       -3.415502    2.043708   -1.187972
     26          1           0       -5.127334    1.595740   -1.169841
     27          1           0       -3.978119    0.646021   -2.116566
     28          1           0       -4.712053   -1.567951    0.874175
     29          1           0       -4.777845   -1.480697   -0.891235
     30          1           0       -5.901560   -0.528874    0.082385
     31          1           0        0.637050    2.907295   -0.047613
     32          1           0        3.101021    3.014888   -0.007416
     33          1           0        0.837477   -1.389508   -0.073628
     34          1           0        2.965919   -2.534335   -0.001032
     35          1           0        5.425693   -2.457667    0.059272
     36          1           0        6.604516   -0.274905    0.075174
     37          1           0        5.323083    1.831595    0.037311
     38          1           0       -2.599133   -2.376501   -1.484708
     39          1           0       -0.886621   -1.994741   -1.701614
     40          1           0       -2.120625   -0.977189   -2.464991
 ---------------------------------------------------------------------
 Rotational constants (GHZ):      0.9884491      0.1719674      0.1588939
 Leave Link  202 at Tue Sep 28 14:42:18 2021, MaxMem= 1610612736 cpu:       0.0
 (Enter /sw/target/amd/app/gaussian/Gaussian09RevA.02_gcc-4.9.2/g09/l301.exe)
 Standard basis: 6-31G(d) (6D, 7F)
 Ernie: Thresh=  0.10000D-02 Tol=  0.10000D-05 Strict=F.
 There are   318 symmetry adapted basis functions of A   symmetry.
 Integral buffers will be    131072 words long.
 Raffenetti 2 integral format.
 Two-electron integral symmetry is turned on.
   318 basis functions,   616 primitive gaussians,   318 cartesian basis functions
    70 alpha electrons       70 beta electrons
       nuclear repulsion energy      1403.3434244772 Hartrees.
 IExCor=  402 DFT=T Ex+Corr=B3LYP ExCW=0 ScaHFX=  0.200000
 ScaDFX=  0.800000  0.720000  1.000000  0.810000 ScalE2=  1.000000  1.000000
 IRadAn=      0 IRanWt=     -1 IRanGd=            0 ICorTp=0
 NAtoms=   40 NActive=   40 NUniq=   40 SFac= 7.50D-01 NAtFMM=   80 NAOKFM=F Big=F
 Leave Link  301 at Tue Sep 28 14:42:19 2021, MaxMem= 1610612736 cpu:       0.1
 (Enter /sw/target/amd/app/gaussian/Gaussian09RevA.02_gcc-4.9.2/g09/l302.exe)
 NPDir=0 NMtPBC=     1 NCelOv=     1 NCel=       1 NClECP=     1 NCelD=      1
         NCelK=      1 NCelE2=     1 NClLst=     1 CellRange=     0.0.
 One-electron integrals computed using PRISM.
 NBasis=   318 RedAO= T  NBF=   318
 NBsUse=   318 1.00D-06 NBFU=   318
 Precomputing XC quadrature grid using
 IXCGrd= 2 IRadAn=           0 IRanWt=          -1 IRanGd=           0 AccXCQ= 1.00D-10.
 NRdTot=    2552 NPtTot=      324864 NUsed=      343261 NTot=      343293
 NSgBfM=   314   314   314   314   314 NAtAll=    40    40.
 Leave Link  302 at Tue Sep 28 14:42:19 2021, MaxMem= 1610612736 cpu:       3.5
 (Enter /sw/target/amd/app/gaussian/Gaussian09RevA.02_gcc-4.9.2/g09/l303.exe)
 DipDrv:  MaxL=1.
 Leave Link  303 at Tue Sep 28 14:42:20 2021, MaxMem= 1610612736 cpu:       0.2
 (Enter /sw/target/amd/app/gaussian/Gaussian09RevA.02_gcc-4.9.2/g09/l401.exe)
 Harris functional with IExCor=  402 diagonalized for initial guess.
 ExpMin= 7.78D-02 ExpMax= 1.61D+04 ExpMxC= 2.43D+03 IAcc=2 IRadAn=         0 AccDes= 0.00D+00
 HarFok:  IExCor=  402 AccDes= 0.00D+00 IRadAn=         0 IDoV= 1
 ScaDFX=  1.000000  1.000000  1.000000  1.000000
 FoFCou: FMM=F IPFlag=           0 FMFlag=      100000 FMFlg1=           0
         NFxFlg=           0 DoJE=T BraDBF=F KetDBF=T FulRan=T
         Omega=  0.000000  0.000000  1.000000  0.000000  0.000000 ICntrl=     500 IOpCl=  0
         NMat0=    1 NMatS0=    1 NMatT0=    0 NMatD0=    1 NMtDS0=    0 NMtDT0=    0
         I1Cent=           4 NGrid=           0.
 Petite list used in FoFCou.
 Harris En= -987.971049596784    
 Initial guess orbital symmetries:
       Occupied  (A) (A) (A) (A) (A) (A) (A) (A) (A) (A) (A) (A)
                 (A) (A) (A) (A) (A) (A) (A) (A) (A) (A) (A) (A)
                 (A) (A) (A) (A) (A) (A) (A) (A) (A) (A) (A) (A)
                 (A) (A) (A) (A) (A) (A) (A) (A) (A) (A) (A) (A)
                 (A) (A) (A) (A) (A) (A) (A) (A) (A) (A) (A) (A)
                 (A) (A) (A) (A) (A) (A) (A) (A) (A) (A)
       Virtual   (A) (A) (A) (A) (A) (A) (A) (A) (A) (A) (A) (A)
                 (A) (A) (A) (A) (A) (A) (A) (A) (A) (A) (A) (A)
                 (A) (A) (A) (A) (A) (A) (A) (A) (A) (A) (A) (A)
                 (A) (A) (A) (A) (A) (A) (A) (A) (A) (A) (A) (A)
                 (A) (A) (A) (A) (A) (A) (A) (A) (A) (A) (A) (A)
                 (A) (A) (A) (A) (A) (A) (A) (A) (A) (A) (A) (A)
                 (A) (A) (A) (A) (A) (A) (A) (A) (A) (A) (A) (A)
                 (A) (A) (A) (A) (A) (A) (A) (A) (A) (A) (A) (A)
                 (A) (A) (A) (A) (A) (A) (A) (A) (A) (A) (A) (A)
                 (A) (A) (A) (A) (A) (A) (A) (A) (A) (A) (A) (A)
                 (A) (A) (A) (A) (A) (A) (A) (A) (A) (A) (A) (A)
                 (A) (A) (A) (A) (A) (A) (A) (A) (A) (A) (A) (A)
                 (A) (A) (A) (A) (A) (A) (A) (A) (A) (A) (A) (A)
                 (A) (A) (A) (A) (A) (A) (A) (A) (A) (A) (A) (A)
                 (A) (A) (A) (A) (A) (A) (A) (A) (A) (A) (A) (A)
                 (A) (A) (A) (A) (A) (A) (A) (A) (A) (A) (A) (A)
                 (A) (A) (A) (A) (A) (A) (A) (A) (A) (A) (A) (A)
                 (A) (A) (A) (A) (A) (A) (A) (A) (A) (A) (A) (A)
                 (A) (A) (A) (A) (A) (A) (A) (A) (A) (A) (A) (A)
                 (A) (A) (A) (A) (A) (A) (A) (A) (A) (A) (A) (A)
                 (A) (A) (A) (A) (A) (A) (A) (A)
 The electronic state of the initial guess is 1-A.
 Leave Link  401 at Tue Sep 28 14:42:26 2021, MaxMem= 1610612736 cpu:      33.2
 (Enter /sw/target/amd/app/gaussian/Gaussian09RevA.02_gcc-4.9.2/g09/l502.exe)
 Closed shell SCF:
 Requested convergence on RMS density matrix=1.00D-08 within  64 cycles.
 Requested convergence on MAX density matrix=1.00D-06.
 Requested convergence on             energy=1.00D-06.
 No special actions if energy rises.
 Using DIIS extrapolation, IDIIS=  1040.
 Integral symmetry usage will be decided dynamically.
       342888 words used for storage of precomputed grid.
 Keep R1 ints in memory in canonical form, NReq=1303222144.
 IEnd=      656129 IEndB=      656129 NGot=  1610612736 MDV=   323726965
 LenX=   323726965 LenY=   323625400
 Symmetry not used in FoFDir.
 MinBra= 0 MaxBra= 2 Meth= 1.
 IRaf=       0 NMat=   1 IRICut=       1 DoRegI=T DoRafI=F ISym2E= 0 JSym2E=0.
 Integral accuracy reduced to 1.0D-05 until final iterations.

 Cycle   1  Pass 0  IDiag  1:
 E= -987.032628142277    
 DIIS: error= 5.05D-02 at cycle   1 NSaved=   1.
 NSaved= 1 IEnMin= 1 EnMin= -987.032628142277     IErMin= 1 ErrMin= 5.05D-02
 ErrMax= 5.05D-02 EMaxC= 1.00D-01 BMatC= 6.79D-01 BMatP= 6.79D-01
 IDIUse=3 WtCom= 4.95D-01 WtEn= 5.05D-01
 Coeff-Com:  0.100D+01
 Coeff-En:   0.100D+01
 Coeff:      0.100D+01
 Gap=     0.168 Goal=   None    Shift=    0.000
 GapD=    0.168 DampG=1.000 DampE=0.500 DampFc=0.5000 IDamp=-1.
 Damping current iteration by 5.00D-01
 RMSDP=5.89D-03 MaxDP=2.46D-01              OVMax= 2.40D-01

 Cycle   2  Pass 0  IDiag  1:
 E= -987.356620153839     Delta-E=       -0.323992011562 Rises=F Damp=T
 DIIS: error= 8.58D-03 at cycle   2 NSaved=   2.
 NSaved= 2 IEnMin= 2 EnMin= -987.356620153839     IErMin= 2 ErrMin= 8.58D-03
 ErrMax= 8.58D-03 EMaxC= 1.00D-01 BMatC= 2.59D-02 BMatP= 6.79D-01
 IDIUse=3 WtCom= 9.14D-01 WtEn= 8.58D-02
 Coeff-Com:  0.617D-01 0.938D+00
 Coeff-En:   0.107D+00 0.893D+00
 Coeff:      0.655D-01 0.934D+00
 Gap=     0.169 Goal=   None    Shift=    0.000
 RMSDP=1.45D-03 MaxDP=7.26D-02 DE=-3.24D-01 OVMax= 1.55D-01

 Cycle   3  Pass 0  IDiag  1:
 E= -987.734316606545     Delta-E=       -0.377696452706 Rises=F Damp=F
 DIIS: error= 5.60D-03 at cycle   3 NSaved=   3.
 NSaved= 3 IEnMin= 3 EnMin= -987.734316606545     IErMin= 3 ErrMin= 5.60D-03
 ErrMax= 5.60D-03 EMaxC= 1.00D-01 BMatC= 1.14D-02 BMatP= 2.59D-02
 IDIUse=3 WtCom= 9.44D-01 WtEn= 5.60D-02
 Coeff-Com:  0.582D-02 0.372D+00 0.622D+00
 Coeff-En:   0.000D+00 0.000D+00 0.100D+01
 Coeff:      0.550D-02 0.351D+00 0.643D+00
 Gap=     0.166 Goal=   None    Shift=    0.000
 RMSDP=6.27D-04 MaxDP=2.55D-02 DE=-3.78D-01 OVMax= 5.38D-02

 Cycle   4  Pass 0  IDiag  1:
 E= -987.740684719881     Delta-E=       -0.006368113337 Rises=F Damp=F
 DIIS: error= 4.97D-03 at cycle   4 NSaved=   4.
 NSaved= 4 IEnMin= 4 EnMin= -987.740684719881     IErMin= 4 ErrMin= 4.97D-03
 ErrMax= 4.97D-03 EMaxC= 1.00D-01 BMatC= 5.21D-03 BMatP= 1.14D-02
 IDIUse=3 WtCom= 9.50D-01 WtEn= 4.97D-02
 Coeff-Com: -0.393D-02 0.719D-01 0.403D+00 0.529D+00
 Coeff-En:   0.000D+00 0.000D+00 0.347D+00 0.653D+00
 Coeff:     -0.373D-02 0.683D-01 0.401D+00 0.535D+00
 Gap=     0.164 Goal=   None    Shift=    0.000
 RMSDP=2.99D-04 MaxDP=1.30D-02 DE=-6.37D-03 OVMax= 3.63D-02

 Cycle   5  Pass 0  IDiag  1:
 E= -987.746088756337     Delta-E=       -0.005404036456 Rises=F Damp=F
 DIIS: error= 1.34D-03 at cycle   5 NSaved=   5.
 NSaved= 5 IEnMin= 5 EnMin= -987.746088756337     IErMin= 5 ErrMin= 1.34D-03
 ErrMax= 1.34D-03 EMaxC= 1.00D-01 BMatC= 3.78D-04 BMatP= 5.21D-03
 IDIUse=3 WtCom= 9.87D-01 WtEn= 1.34D-02
 Coeff-Com: -0.188D-02 0.157D-01 0.187D+00 0.310D+00 0.489D+00
 Coeff-En:   0.000D+00 0.000D+00 0.000D+00 0.000D+00 0.100D+01
 Coeff:     -0.185D-02 0.155D-01 0.185D+00 0.305D+00 0.496D+00
 Gap=     0.163 Goal=   None    Shift=    0.000
 RMSDP=8.72D-05 MaxDP=3.59D-03 DE=-5.40D-03 OVMax= 1.10D-02

 Cycle   6  Pass 0  IDiag  1:
 E= -987.746481329965     Delta-E=       -0.000392573628 Rises=F Damp=F
 DIIS: error= 3.64D-04 at cycle   6 NSaved=   6.
 NSaved= 6 IEnMin= 6 EnMin= -987.746481329965     IErMin= 6 ErrMin= 3.64D-04
 ErrMax= 3.64D-04 EMaxC= 1.00D-01 BMatC= 4.21D-05 BMatP= 3.78D-04
 IDIUse=3 WtCom= 9.96D-01 WtEn= 3.64D-03
 Coeff-Com: -0.445D-03-0.973D-04 0.565D-01 0.111D+00 0.296D+00 0.537D+00
 Coeff-En:   0.000D+00 0.000D+00 0.000D+00 0.000D+00 0.681D-01 0.932D+00
 Coeff:     -0.444D-03-0.969D-04 0.563D-01 0.111D+00 0.295D+00 0.538D+00
 Gap=     0.163 Goal=   None    Shift=    0.000
 RMSDP=2.46D-05 MaxDP=9.01D-04 DE=-3.93D-04 OVMax= 2.36D-03

 Cycle   7  Pass 0  IDiag  1:
 E= -987.746523241706     Delta-E=       -0.000041911741 Rises=F Damp=F
 DIIS: error= 8.01D-05 at cycle   7 NSaved=   7.
 NSaved= 7 IEnMin= 7 EnMin= -987.746523241706     IErMin= 7 ErrMin= 8.01D-05
 ErrMax= 8.01D-05 EMaxC= 1.00D-01 BMatC= 1.83D-06 BMatP= 4.21D-05
 IDIUse=1 WtCom= 1.00D+00 WtEn= 0.00D+00
 Coeff-Com: -0.108D-03-0.761D-03 0.215D-01 0.446D-01 0.135D+00 0.285D+00
 Coeff-Com:  0.514D+00
 Coeff:     -0.108D-03-0.761D-03 0.215D-01 0.446D-01 0.135D+00 0.285D+00
 Coeff:      0.514D+00
 Gap=     0.163 Goal=   None    Shift=    0.000
 RMSDP=5.49D-06 MaxDP=2.28D-04 DE=-4.19D-05 OVMax= 4.40D-04

 Initial convergence to 1.0D-05 achieved.  Increase integral accuracy.
 Cycle   8  Pass 1  IDiag  1:
 E= -987.746642624817     Delta-E=       -0.000119383111 Rises=F Damp=F
 DIIS: error= 3.45D-05 at cycle   1 NSaved=   1.
 NSaved= 1 IEnMin= 1 EnMin= -987.746642624817     IErMin= 1 ErrMin= 3.45D-05
 ErrMax= 3.45D-05 EMaxC= 1.00D-01 BMatC= 4.56D-07 BMatP= 4.56D-07
 IDIUse=1 WtCom= 1.00D+00 WtEn= 0.00D+00
 Coeff-Com:  0.100D+01
 Coeff:      0.100D+01
 Gap=     0.163 Goal=   None    Shift=    0.000
 RMSDP=5.49D-06 MaxDP=2.28D-04 DE=-1.19D-04 OVMax= 4.26D-04

 Cycle   9  Pass 1  IDiag  1:
 E= -987.746642577488     Delta-E=        0.000000047330 Rises=F Damp=F
 DIIS: error= 4.78D-05 at cycle   2 NSaved=   2.
 NSaved= 2 IEnMin= 1 EnMin= -987.746642624817     IErMin= 1 ErrMin= 3.45D-05
 ErrMax= 4.78D-05 EMaxC= 1.00D-01 BMatC= 6.63D-07 BMatP= 4.56D-07
 IDIUse=1 WtCom= 1.00D+00 WtEn= 0.00D+00
 Coeff-Com:  0.558D+00 0.442D+00
 Coeff:      0.558D+00 0.442D+00
 Gap=     0.163 Goal=   None    Shift=    0.000
 RMSDP=3.58D-06 MaxDP=1.42D-04 DE= 4.73D-08 OVMax= 4.00D-04

 Cycle  10  Pass 1  IDiag  1:
 E= -987.746643170351     Delta-E=       -0.000000592863 Rises=F Damp=F
 DIIS: error= 1.74D-05 at cycle   3 NSaved=   3.
 NSaved= 3 IEnMin= 3 EnMin= -987.746643170351     IErMin= 3 ErrMin= 1.74D-05
 ErrMax= 1.74D-05 EMaxC= 1.00D-01 BMatC= 6.68D-08 BMatP= 4.56D-07
 IDIUse=1 WtCom= 1.00D+00 WtEn= 0.00D+00
 Coeff-Com:  0.110D-01 0.236D+00 0.753D+00
 Coeff:      0.110D-01 0.236D+00 0.753D+00
 Gap=     0.163 Goal=   None    Shift=    0.000
 RMSDP=1.23D-06 MaxDP=5.36D-05 DE=-5.93D-07 OVMax= 1.61D-04

 Cycle  11  Pass 1  IDiag  1:
 E= -987.746643228973     Delta-E=       -0.000000058622 Rises=F Damp=F
 DIIS: error= 8.80D-06 at cycle   4 NSaved=   4.
 NSaved= 4 IEnMin= 4 EnMin= -987.746643228973     IErMin= 4 ErrMin= 8.80D-06
 ErrMax= 8.80D-06 EMaxC= 1.00D-01 BMatC= 1.33D-08 BMatP= 6.68D-08
 IDIUse=1 WtCom= 1.00D+00 WtEn= 0.00D+00
 Coeff-Com: -0.177D-01 0.133D+00 0.492D+00 0.393D+00
 Coeff:     -0.177D-01 0.133D+00 0.492D+00 0.393D+00
 Gap=     0.163 Goal=   None    Shift=    0.000
 RMSDP=4.23D-07 MaxDP=2.25D-05 DE=-5.86D-08 OVMax= 5.57D-05

 Cycle  12  Pass 1  IDiag  1:
 E= -987.746643243013     Delta-E=       -0.000000014040 Rises=F Damp=F
 DIIS: error= 9.49D-07 at cycle   5 NSaved=   5.
 NSaved= 5 IEnMin= 5 EnMin= -987.746643243013     IErMin= 5 ErrMin= 9.49D-07
 ErrMax= 9.49D-07 EMaxC= 1.00D-01 BMatC= 2.56D-10 BMatP= 1.33D-08
 IDIUse=1 WtCom= 1.00D+00 WtEn= 0.00D+00
 Coeff-Com: -0.903D-02 0.486D-01 0.188D+00 0.187D+00 0.585D+00
 Coeff:     -0.903D-02 0.486D-01 0.188D+00 0.187D+00 0.585D+00
 Gap=     0.163 Goal=   None    Shift=    0.000
 RMSDP=7.83D-08 MaxDP=3.29D-06 DE=-1.40D-08 OVMax= 8.38D-06

 Cycle  13  Pass 1  IDiag  1:
 E= -987.746643243254     Delta-E=       -0.000000000241 Rises=F Damp=F
 DIIS: error= 3.17D-07 at cycle   6 NSaved=   6.
 NSaved= 6 IEnMin= 6 EnMin= -987.746643243254     IErMin= 6 ErrMin= 3.17D-07
 ErrMax= 3.17D-07 EMaxC= 1.00D-01 BMatC= 4.58D-11 BMatP= 2.56D-10
 IDIUse=1 WtCom= 1.00D+00 WtEn= 0.00D+00
 Coeff-Com: -0.338D-02 0.152D-01 0.613D-01 0.694D-01 0.340D+00 0.517D+00
 Coeff:     -0.338D-02 0.152D-01 0.613D-01 0.694D-01 0.340D+00 0.517D+00
 Gap=     0.163 Goal=   None    Shift=    0.000
 RMSDP=2.88D-08 MaxDP=1.21D-06 DE=-2.41D-10 OVMax= 3.00D-06

 Cycle  14  Pass 1  IDiag  1:
 E= -987.746643243303     Delta-E=       -0.000000000049 Rises=F Damp=F
 DIIS: error= 1.23D-07 at cycle   7 NSaved=   7.
 NSaved= 7 IEnMin= 7 EnMin= -987.746643243303     IErMin= 7 ErrMin= 1.23D-07
 ErrMax= 1.23D-07 EMaxC= 1.00D-01 BMatC= 3.77D-12 BMatP= 4.58D-11
 IDIUse=1 WtCom= 1.00D+00 WtEn= 0.00D+00
 Coeff-Com: -0.691D-03 0.178D-02 0.836D-02 0.127D-01 0.105D+00 0.269D+00
 Coeff-Com:  0.604D+00
 Coeff:     -0.691D-03 0.178D-02 0.836D-02 0.127D-01 0.105D+00 0.269D+00
 Coeff:      0.604D+00
 Gap=     0.163 Goal=   None    Shift=    0.000
 RMSDP=8.75D-09 MaxDP=2.94D-07 DE=-4.87D-11 OVMax= 8.23D-07

 SCF Done:  E(RB3LYP) =  -987.746643243     A.U. after   14 cycles
             Convg  =    0.8745D-08             -V/T =  2.0081
 KE= 9.797751743826D+02 PE=-5.113744112239D+03 EE= 1.742878870136D+03
 Leave Link  502 at Tue Sep 28 14:46:11 2021, MaxMem= 1610612736 cpu:     552.4
 (Enter /sw/target/amd/app/gaussian/Gaussian09RevA.02_gcc-4.9.2/g09/l508.exe)
 QCSCF skips out because SCF is already converged.
 Leave Link  508 at Tue Sep 28 14:46:13 2021, MaxMem= 1610612736 cpu:       0.0
 (Enter /sw/target/amd/app/gaussian/Gaussian09RevA.02_gcc-4.9.2/g09/l601.exe)
 Copying SCF densities to generalized density rwf, IOpCl= 0 IROHF=0.

 **********************************************************************

            Population analysis using the SCF density.

 **********************************************************************

 Orbital symmetries:
       Occupied  (A) (A) (A) (A) (A) (A) (A) (A) (A) (A) (A) (A)
                 (A) (A) (A) (A) (A) (A) (A) (A) (A) (A) (A) (A)
                 (A) (A) (A) (A) (A) (A) (A) (A) (A) (A) (A) (A)
                 (A) (A) (A) (A) (A) (A) (A) (A) (A) (A) (A) (A)
                 (A) (A) (A) (A) (A) (A) (A) (A) (A) (A) (A) (A)
                 (A) (A) (A) (A) (A) (A) (A) (A) (A) (A)
       Virtual   (A) (A) (A) (A) (A) (A) (A) (A) (A) (A) (A) (A)
                 (A) (A) (A) (A) (A) (A) (A) (A) (A) (A) (A) (A)
                 (A) (A) (A) (A) (A) (A) (A) (A) (A) (A) (A) (A)
                 (A) (A) (A) (A) (A) (A) (A) (A) (A) (A) (A) (A)
                 (A) (A) (A) (A) (A) (A) (A) (A) (A) (A) (A) (A)
                 (A) (A) (A) (A) (A) (A) (A) (A) (A) (A) (A) (A)
                 (A) (A) (A) (A) (A) (A) (A) (A) (A) (A) (A) (A)
                 (A) (A) (A) (A) (A) (A) (A) (A) (A) (A) (A) (A)
                 (A) (A) (A) (A) (A) (A) (A) (A) (A) (A) (A) (A)
                 (A) (A) (A) (A) (A) (A) (A) (A) (A) (A) (A) (A)
                 (A) (A) (A) (A) (A) (A) (A) (A) (A) (A) (A) (A)
                 (A) (A) (A) (A) (A) (A) (A) (A) (A) (A) (A) (A)
                 (A) (A) (A) (A) (A) (A) (A) (A) (A) (A) (A) (A)
                 (A) (A) (A) (A) (A) (A) (A) (A) (A) (A) (A) (A)
                 (A) (A) (A) (A) (A) (A) (A) (A) (A) (A) (A) (A)
                 (A) (A) (A) (A) (A) (A) (A) (A) (A) (A) (A) (A)
                 (A) (A) (A) (A) (A) (A) (A) (A) (A) (A) (A) (A)
                 (A) (A) (A) (A) (A) (A) (A) (A) (A) (A) (A) (A)
                 (A) (A) (A) (A) (A) (A) (A) (A) (A) (A) (A) (A)
                 (A) (A) (A) (A) (A) (A) (A) (A) (A) (A) (A) (A)
                 (A) (A) (A) (A) (A) (A) (A) (A)
 The electronic state is 1-A.
 Alpha  occ. eigenvalues --  -66.15168 -19.16350 -10.25298 -10.19338 -10.19310
 Alpha  occ. eigenvalues --  -10.19003 -10.18840 -10.18833 -10.18753 -10.18648
 Alpha  occ. eigenvalues --  -10.18635 -10.18561 -10.18475 -10.17276 -10.16826
 Alpha  occ. eigenvalues --  -10.16818 -10.16356 -10.16354  -5.29135  -3.65223
 Alpha  occ. eigenvalues --   -3.64954  -3.64911  -1.03232  -0.87317  -0.81449
 Alpha  occ. eigenvalues --   -0.78931  -0.77105  -0.74055  -0.70965  -0.70481
 Alpha  occ. eigenvalues --   -0.68370  -0.67830  -0.67354  -0.63488  -0.60827
 Alpha  occ. eigenvalues --   -0.59926  -0.55220  -0.52877  -0.51445  -0.50550
 Alpha  occ. eigenvalues --   -0.46225  -0.45450  -0.44919  -0.43786  -0.42917
 Alpha  occ. eigenvalues --   -0.42591  -0.42102  -0.42090  -0.41488  -0.40685
 Alpha  occ. eigenvalues --   -0.40077  -0.39691  -0.39286  -0.39066  -0.38148
 Alpha  occ. eigenvalues --   -0.37762  -0.37604  -0.37329  -0.35855  -0.34582
 Alpha  occ. eigenvalues --   -0.33866  -0.32416  -0.32272  -0.31732  -0.31254
 Alpha  occ. eigenvalues --   -0.29198  -0.27837  -0.24714  -0.23276  -0.20258
 Alpha virt. eigenvalues --   -0.03921   0.00331   0.03331   0.05774   0.06690
 Alpha virt. eigenvalues --    0.09046   0.09553   0.10098   0.11181   0.11248
 Alpha virt. eigenvalues --    0.11855   0.11992   0.12727   0.14047   0.15332
 Alpha virt. eigenvalues --    0.15475   0.16172   0.16761   0.16810   0.17254
 Alpha virt. eigenvalues --    0.17751   0.19258   0.19327   0.19764   0.20107
 Alpha virt. eigenvalues --    0.20838   0.21635   0.21928   0.22692   0.23186
 Alpha virt. eigenvalues --    0.23749   0.24286   0.25001   0.25696   0.26218
 Alpha virt. eigenvalues --    0.27783   0.29195   0.31233   0.32215   0.34311
 Alpha virt. eigenvalues --    0.35460   0.36162   0.36780   0.39159   0.41082
 Alpha virt. eigenvalues --    0.43432   0.45745   0.47186   0.48786   0.51439
 Alpha virt. eigenvalues --    0.51907   0.52421   0.52883   0.53229   0.54298
 Alpha virt. eigenvalues --    0.54530   0.54830   0.56417   0.57432   0.57828
 Alpha virt. eigenvalues --    0.58125   0.58640   0.60083   0.61203   0.62019
 Alpha virt. eigenvalues --    0.62069   0.62298   0.63163   0.64280   0.64450
 Alpha virt. eigenvalues --    0.65005   0.66787   0.66941   0.67925   0.69420
 Alpha virt. eigenvalues --    0.70527   0.71606   0.72024   0.72999   0.74124
 Alpha virt. eigenvalues --    0.76843   0.77739   0.78378   0.80295   0.81287
 Alpha virt. eigenvalues --    0.82264   0.82520   0.83058   0.83543   0.84002
 Alpha virt. eigenvalues --    0.84253   0.84790   0.86000   0.87204   0.87605
 Alpha virt. eigenvalues --    0.87789   0.89015   0.89552   0.89890   0.90336
 Alpha virt. eigenvalues --    0.90743   0.91694   0.92161   0.92709   0.93120
 Alpha virt. eigenvalues --    0.93259   0.94288   0.95315   0.96185   0.96366
 Alpha virt. eigenvalues --    0.96985   0.97725   0.98919   0.99358   0.99645
 Alpha virt. eigenvalues --    1.01924   1.02873   1.02931   1.03488   1.04691
 Alpha virt. eigenvalues --    1.05262   1.05601   1.08945   1.13201   1.14301
 Alpha virt. eigenvalues --    1.14609   1.15813   1.19798   1.21775   1.23745
 Alpha virt. eigenvalues --    1.25607   1.26502   1.28547   1.30510   1.33546
 Alpha virt. eigenvalues --    1.39614   1.40921   1.41480   1.42265   1.43786
 Alpha virt. eigenvalues --    1.45176   1.46416   1.47111   1.47367   1.48585
 Alpha virt. eigenvalues --    1.49316   1.49614   1.50729   1.51764   1.52884
 Alpha virt. eigenvalues --    1.54355   1.61552   1.66333   1.69151   1.72260
 Alpha virt. eigenvalues --    1.72905   1.76662   1.77063   1.79210   1.80263
 Alpha virt. eigenvalues --    1.83648   1.84501   1.86333   1.86632   1.87715
 Alpha virt. eigenvalues --    1.88434   1.89753   1.90344   1.90469   1.92109
 Alpha virt. eigenvalues --    1.94603   1.94982   1.95071   1.95814   1.96484
 Alpha virt. eigenvalues --    1.97252   1.97695   1.99652   2.04423   2.05500
 Alpha virt. eigenvalues --    2.08403   2.10169   2.10395   2.13000   2.14132
 Alpha virt. eigenvalues --    2.14416   2.15479   2.18817   2.20749   2.21366
 Alpha virt. eigenvalues --    2.23485   2.25767   2.26317   2.26532   2.26791
 Alpha virt. eigenvalues --    2.27035   2.28937   2.29113   2.29287   2.30505
 Alpha virt. eigenvalues --    2.31103   2.32101   2.33586   2.33918   2.36835
 Alpha virt. eigenvalues --    2.42770   2.45632   2.49436   2.51947   2.52191
 Alpha virt. eigenvalues --    2.52438   2.61083   2.61553   2.63212   2.64453
 Alpha virt. eigenvalues --    2.67223   2.69150   2.71965   2.72349   2.76256
 Alpha virt. eigenvalues --    2.78497   2.81566   2.84411   2.87714   2.90626
 Alpha virt. eigenvalues --    2.99932   3.06473   3.11994   3.13175   3.39605
 Alpha virt. eigenvalues --    3.50080   4.08975   4.09445   4.11256   4.12339
 Alpha virt. eigenvalues --    4.13991   4.19267   4.23526   4.23959   4.25172
 Alpha virt. eigenvalues --    4.29059   4.30469   4.31086   4.38966   4.42231
 Alpha virt. eigenvalues --    4.59918   4.60499   4.85090
          Condensed to atoms (all electrons):
              1          2          3          4          5          6
     1  C    5.310614   0.375482  -0.021845  -0.002153   0.000664  -0.002535
     2  Si   0.375482  11.842679   0.330796  -0.023823  -0.022595  -0.017528
     3  C   -0.021845   0.330796   4.998033   0.376758   0.376674   0.372722
     4  C   -0.002153  -0.023823   0.376758   5.125763  -0.056877  -0.058693
     5  C    0.000664  -0.022595   0.376674  -0.056877   5.125402  -0.058720
     6  C   -0.002535  -0.017528   0.372722  -0.058693  -0.058720   5.132403
     7  O   -0.017064   0.346687  -0.011567  -0.000907  -0.000856   0.000178
     8  C   -0.002565  -0.015587   0.000176  -0.000064  -0.000053   0.000006
     9  C   -0.000099  -0.003821   0.000006   0.000001   0.000001   0.000000
    10  C    0.000001   0.000405   0.000000  -0.000000  -0.000000  -0.000000
    11  C    0.000001   0.000169  -0.000000   0.000000   0.000000   0.000000
    12  C    0.000050   0.000692   0.000001   0.000000   0.000000  -0.000000
    13  C   -0.000859   0.003505  -0.000043  -0.000000   0.000000   0.000000
    14  C   -0.000006  -0.000134  -0.000000  -0.000000  -0.000000   0.000000
    15  C   -0.000000   0.000001   0.000000   0.000000   0.000000   0.000000
    16  C   -0.000000  -0.000000   0.000000  -0.000000  -0.000000  -0.000000
    17  C    0.000000  -0.000006  -0.000000   0.000000   0.000000   0.000000
    18  C   -0.034090   0.375803  -0.023246   0.000671  -0.002523  -0.002075
    19  H    0.367533  -0.022995  -0.001585   0.000393   0.000035   0.000054
    20  H    0.360463  -0.023547   0.001026   0.000034  -0.000008   0.000031
    21  H    0.360187  -0.012843  -0.000989  -0.000088   0.000029  -0.000108
    22  H   -0.000151  -0.001319  -0.033353   0.371235  -0.003539   0.005514
    23  H    0.001483  -0.006589  -0.032916   0.369604   0.005673  -0.003645
    24  H   -0.000003   0.004584  -0.034877   0.360259  -0.007048  -0.006528
    25  H    0.000028  -0.001604  -0.033176  -0.003588   0.371355   0.005507
    26  H   -0.000026   0.004459  -0.035049  -0.007006   0.360274  -0.006498
    27  H    0.000006  -0.005844  -0.033035   0.005676   0.368844  -0.003670
    28  H    0.000902  -0.003434  -0.033283  -0.003352   0.005638   0.367536
    29  H   -0.000055  -0.004792  -0.032741   0.005618  -0.003607   0.368534
    30  H   -0.000022   0.003821  -0.033310  -0.006630  -0.006422   0.365206
    31  H    0.000002   0.000643  -0.000012  -0.000003  -0.000003   0.000000
    32  H    0.000000  -0.000012  -0.000000   0.000000   0.000000   0.000000
    33  H    0.000167   0.009602  -0.000021   0.000001   0.000001   0.000001
    34  H   -0.000008  -0.000008   0.000000  -0.000000  -0.000000  -0.000000
    35  H    0.000000  -0.000000  -0.000000  -0.000000  -0.000000   0.000000
    36  H    0.000000  -0.000000   0.000000   0.000000   0.000000  -0.000000
    37  H   -0.000000   0.000000   0.000000   0.000000   0.000000   0.000000
    38  H   -0.000493  -0.012224  -0.001057   0.000024   0.000029  -0.000121
    39  H   -0.001487  -0.022554   0.001045  -0.000008   0.000025   0.000053
    40  H    0.001247  -0.024052  -0.001671   0.000042   0.000434  -0.000092
              7          8          9         10         11         12
     1  C   -0.017064  -0.002565  -0.000099   0.000001   0.000001   0.000050
     2  Si   0.346687  -0.015587  -0.003821   0.000405   0.000169   0.000692
     3  C   -0.011567   0.000176   0.000006   0.000000  -0.000000   0.000001
     4  C   -0.000907  -0.000064   0.000001  -0.000000   0.000000   0.000000
     5  C   -0.000856  -0.000053   0.000001  -0.000000   0.000000   0.000000
     6  C    0.000178   0.000006   0.000000  -0.000000   0.000000  -0.000000
     7  O    8.183553   0.249348  -0.056792   0.003621   0.000358   0.003275
     8  C    0.249348   4.503892   0.502238   0.001734  -0.035345   0.015794
     9  C   -0.056792   0.502238   5.061384   0.465614  -0.007627  -0.033172
    10  C    0.003621   0.001734   0.465614   5.174550   0.438413  -0.025046
    11  C    0.000358  -0.035345  -0.007627   0.438413   4.686552   0.492138
    12  C    0.003275   0.015794  -0.033172  -0.025046   0.492138   4.679665
    13  C   -0.044350   0.450412  -0.071107  -0.077861  -0.038921   0.392362
    14  C   -0.000061   0.008110  -0.000487   0.017086  -0.029446   0.444011
    15  C    0.000000  -0.000314   0.000061  -0.000769  -0.039700  -0.001063
    16  C   -0.000000   0.000058  -0.000336   0.008498  -0.002944  -0.040617
    17  C    0.000001  -0.000837   0.008882  -0.104865   0.439384  -0.024429
    18  C   -0.016831  -0.002067  -0.000062   0.000001   0.000001   0.000017
    19  H   -0.000513  -0.000013   0.000005   0.000000  -0.000000  -0.000006
    20  H   -0.000714   0.000227  -0.000008  -0.000001   0.000001   0.000084
    21  H    0.000461   0.000066   0.000001  -0.000000  -0.000000  -0.000001
    22  H    0.001480   0.000011  -0.000007  -0.000000   0.000000  -0.000000
    23  H   -0.000112  -0.000006   0.000000  -0.000000  -0.000000   0.000000
    24  H   -0.000016   0.000001   0.000000   0.000000  -0.000000   0.000000
    25  H    0.001690   0.000019  -0.000007   0.000000   0.000000  -0.000000
    26  H   -0.000014   0.000000   0.000000   0.000000  -0.000000  -0.000000
    27  H   -0.000151  -0.000007   0.000000  -0.000000  -0.000000   0.000000
    28  H    0.000001  -0.000000  -0.000000  -0.000000   0.000000   0.000000
    29  H   -0.000000  -0.000000  -0.000000  -0.000000   0.000000   0.000000
    30  H   -0.000003  -0.000000  -0.000000   0.000000  -0.000000   0.000000
    31  H   -0.001666  -0.033429   0.346373  -0.037607   0.003080   0.000474
    32  H   -0.000056   0.003306  -0.040281   0.353524  -0.038758   0.004680
    33  H   -0.006784  -0.045329   0.005014   0.000490   0.004754  -0.035077
    34  H   -0.000000   0.000258   0.000013  -0.000191   0.004762  -0.041884
    35  H   -0.000000   0.000003  -0.000001   0.000011   0.001072   0.002846
    36  H    0.000000  -0.000001   0.000003  -0.000188   0.002764   0.001017
    37  H   -0.000000   0.000013   0.000160  -0.008169  -0.041026   0.004600
    38  H    0.000464   0.000044   0.000001  -0.000000  -0.000000  -0.000001
    39  H   -0.000858   0.000271  -0.000006  -0.000001   0.000001   0.000037
    40  H   -0.000493  -0.000037   0.000003   0.000000  -0.000000  -0.000001
             13         14         15         16         17         18
     1  C   -0.000859  -0.000006  -0.000000  -0.000000   0.000000  -0.034090
     2  Si   0.003505  -0.000134   0.000001  -0.000000  -0.000006   0.375803
     3  C   -0.000043  -0.000000   0.000000   0.000000  -0.000000  -0.023246
     4  C   -0.000000  -0.000000   0.000000  -0.000000   0.000000   0.000671
     5  C    0.000000  -0.000000   0.000000  -0.000000   0.000000  -0.002523
     6  C    0.000000   0.000000   0.000000  -0.000000   0.000000  -0.002075
     7  O   -0.044350  -0.000061   0.000000  -0.000000   0.000001  -0.016831
     8  C    0.450412   0.008110  -0.000314   0.000058  -0.000837  -0.002067
     9  C   -0.071107  -0.000487   0.000061  -0.000336   0.008882  -0.000062
    10  C   -0.077861   0.017086  -0.000769   0.008498  -0.104865   0.000001
    11  C   -0.038921  -0.029446  -0.039700  -0.002944   0.439384   0.000001
    12  C    0.392362   0.444011  -0.001063  -0.040617  -0.024429   0.000017
    13  C    5.408638  -0.091045   0.008190  -0.000630   0.019009  -0.000909
    14  C   -0.091045   5.133403   0.512645  -0.021303  -0.077837  -0.000003
    15  C    0.008190   0.512645   4.888951   0.508270  -0.017500  -0.000000
    16  C   -0.000630  -0.021303   0.508270   4.900514   0.507985  -0.000000
    17  C    0.019009  -0.077837  -0.017500   0.507985   5.145276   0.000000
    18  C   -0.000909  -0.000003  -0.000000  -0.000000   0.000000   5.307358
    19  H    0.000107   0.000000   0.000000   0.000000  -0.000000   0.001228
    20  H    0.000812  -0.000021  -0.000001   0.000000  -0.000000  -0.001595
    21  H    0.000025   0.000000  -0.000000   0.000000  -0.000000  -0.000452
    22  H    0.000003   0.000000  -0.000000  -0.000000  -0.000000   0.000031
    23  H    0.000001  -0.000000   0.000000   0.000000  -0.000000   0.000009
    24  H   -0.000000   0.000000   0.000000  -0.000000  -0.000000  -0.000028
    25  H    0.000003   0.000000  -0.000000  -0.000000  -0.000000  -0.000060
    26  H   -0.000000   0.000000  -0.000000   0.000000  -0.000000  -0.000009
    27  H    0.000001  -0.000000   0.000000   0.000000   0.000000   0.001192
    28  H    0.000000  -0.000000  -0.000000   0.000000  -0.000000  -0.000223
    29  H    0.000000  -0.000000  -0.000000   0.000000  -0.000000   0.000984
    30  H   -0.000000  -0.000000   0.000000   0.000000  -0.000000  -0.000011
    31  H    0.006621   0.000007  -0.000000   0.000003  -0.000159   0.000002
    32  H    0.000416  -0.000203   0.000013   0.000155  -0.008324  -0.000000
    33  H    0.336147  -0.009285   0.000228   0.000016  -0.000214   0.000327
    34  H   -0.009561   0.353571  -0.045332   0.004698   0.000540  -0.000005
    35  H   -0.000212  -0.036736   0.356116  -0.042201   0.004366   0.000000
    36  H    0.000009   0.004480  -0.042457   0.357375  -0.036982   0.000000
    37  H   -0.000209   0.000634   0.004598  -0.045128   0.353666  -0.000000
    38  H    0.000006   0.000000   0.000000   0.000000  -0.000000   0.360423
    39  H    0.000689  -0.000018  -0.000000   0.000000  -0.000000   0.360657
    40  H    0.000070   0.000000   0.000000   0.000000  -0.000000   0.368076
             19         20         21         22         23         24
     1  C    0.367533   0.360463   0.360187  -0.000151   0.001483  -0.000003
     2  Si  -0.022995  -0.023547  -0.012843  -0.001319  -0.006589   0.004584
     3  C   -0.001585   0.001026  -0.000989  -0.033353  -0.032916  -0.034877
     4  C    0.000393   0.000034  -0.000088   0.371235   0.369604   0.360259
     5  C    0.000035  -0.000008   0.000029  -0.003539   0.005673  -0.007048
     6  C    0.000054   0.000031  -0.000108   0.005514  -0.003645  -0.006528
     7  O   -0.000513  -0.000714   0.000461   0.001480  -0.000112  -0.000016
     8  C   -0.000013   0.000227   0.000066   0.000011  -0.000006   0.000001
     9  C    0.000005  -0.000008   0.000001  -0.000007   0.000000   0.000000
    10  C    0.000000  -0.000001  -0.000000  -0.000000  -0.000000   0.000000
    11  C   -0.000000   0.000001  -0.000000   0.000000  -0.000000  -0.000000
    12  C   -0.000006   0.000084  -0.000001  -0.000000   0.000000   0.000000
    13  C    0.000107   0.000812   0.000025   0.000003   0.000001  -0.000000
    14  C    0.000000  -0.000021   0.000000   0.000000  -0.000000   0.000000
[...]
    73    C    5  pz     Val( 2p)     1.13543
    74    C    5  pz     Ryd( 3p)     0.00208
    75    C    5  dxy    Ryd( 3d)     0.00124
    76    C    5  dxz    Ryd( 3d)     0.00012
    77    C    5  dyz    Ryd( 3d)     0.00085
    78    C    5  dx2y2  Ryd( 3d)     0.00025
    79    C    5  dz2    Ryd( 3d)     0.00096

    80    C    6  S      Cor( 1S)     1.99941
    81    C    6  S      Val( 2S)     1.08808
    82    C    6  S      Ryd( 3S)     0.00078
    83    C    6  S      Ryd( 4S)     0.00002
    84    C    6  px     Val( 2p)     1.15194
    85    C    6  px     Ryd( 3p)     0.00208
    86    C    6  py     Val( 2p)     1.18352
    87    C    6  py     Ryd( 3p)     0.00272
    88    C    6  pz     Val( 2p)     1.24262
    89    C    6  pz     Ryd( 3p)     0.00259
    90    C    6  dxy    Ryd( 3d)     0.00076
    91    C    6  dxz    Ryd( 3d)     0.00011
    92    C    6  dyz    Ryd( 3d)     0.00129
    93    C    6  dx2y2  Ryd( 3d)     0.00059
    94    C    6  dz2    Ryd( 3d)     0.00069

    95    O    7  S      Cor( 1S)     1.99975
    96    O    7  S      Val( 2S)     1.63919
    97    O    7  S      Ryd( 3S)     0.00178
    98    O    7  S      Ryd( 4S)     0.00009
    99    O    7  px     Val( 2p)     1.54312
   100    O    7  px     Ryd( 3p)     0.00111
   101    O    7  py     Val( 2p)     1.87079
   102    O    7  py     Ryd( 3p)     0.00295
   103    O    7  pz     Val( 2p)     1.74701
   104    O    7  pz     Ryd( 3p)     0.00147
   105    O    7  dxy    Ryd( 3d)     0.00139
   106    O    7  dxz    Ryd( 3d)     0.00046
   107    O    7  dyz    Ryd( 3d)     0.00100
   108    O    7  dx2y2  Ryd( 3d)     0.00128
   109    O    7  dz2    Ryd( 3d)     0.00087

   110    C    8  S      Cor( 1S)     1.99878
   111    C    8  S      Val( 2S)     0.83472
   112    C    8  S      Ryd( 3S)     0.00134
   113    C    8  S      Ryd( 4S)     0.00013
   114    C    8  px     Val( 2p)     0.74483
   115    C    8  px     Ryd( 3p)     0.00755
   116    C    8  py     Val( 2p)     1.08805
   117    C    8  py     Ryd( 3p)     0.00522
   118    C    8  pz     Val( 2p)     0.91672
   119    C    8  pz     Ryd( 3p)     0.00148
   120    C    8  dxy    Ryd( 3d)     0.00156
   121    C    8  dxz    Ryd( 3d)     0.00166
   122    C    8  dyz    Ryd( 3d)     0.00122
   123    C    8  dx2y2  Ryd( 3d)     0.00174
   124    C    8  dz2    Ryd( 3d)     0.00045

   125    C    9  S      Cor( 1S)     1.99905
   126    C    9  S      Val( 2S)     0.95696
   127    C    9  S      Ryd( 3S)     0.00082
   128    C    9  S      Ryd( 4S)     0.00005
   129    C    9  px     Val( 2p)     1.11602
   130    C    9  px     Ryd( 3p)     0.00518
   131    C    9  py     Val( 2p)     1.12643
   132    C    9  py     Ryd( 3p)     0.00454
   133    C    9  pz     Val( 2p)     1.12649
   134    C    9  pz     Ryd( 3p)     0.00367
   135    C    9  dxy    Ryd( 3d)     0.00079
   136    C    9  dxz    Ryd( 3d)     0.00059
   137    C    9  dyz    Ryd( 3d)     0.00031
   138    C    9  dx2y2  Ryd( 3d)     0.00059
   139    C    9  dz2    Ryd( 3d)     0.00045

   140    C   10  S      Cor( 1S)     1.99907
   141    C   10  S      Val( 2S)     0.94664
   142    C   10  S      Ryd( 3S)     0.00061
   143    C   10  S      Ryd( 4S)     0.00006
   144    C   10  px     Val( 2p)     1.08374
   145    C   10  px     Ryd( 3p)     0.00422
   146    C   10  py     Val( 2p)     1.15749
   147    C   10  py     Ryd( 3p)     0.00465
   148    C   10  pz     Val( 2p)     1.01561
   149    C   10  pz     Ryd( 3p)     0.00284
   150    C   10  dxy    Ryd( 3d)     0.00078
   151    C   10  dxz    Ryd( 3d)     0.00074
   152    C   10  dyz    Ryd( 3d)     0.00032
   153    C   10  dx2y2  Ryd( 3d)     0.00069
   154    C   10  dz2    Ryd( 3d)     0.00043

   155    C   11  S      Cor( 1S)     1.99902
   156    C   11  S      Val( 2S)     0.87215
   157    C   11  S      Ryd( 3S)     0.00046
   158    C   11  S      Ryd( 4S)     0.00006
   159    C   11  px     Val( 2p)     1.09488
   160    C   11  px     Ryd( 3p)     0.00485
   161    C   11  py     Val( 2p)     1.07830
   162    C   11  py     Ryd( 3p)     0.00538
   163    C   11  pz     Val( 2p)     0.98601
   164    C   11  pz     Ryd( 3p)     0.00105
   165    C   11  dxy    Ryd( 3d)     0.00073
   166    C   11  dxz    Ryd( 3d)     0.00084
   167    C   11  dyz    Ryd( 3d)     0.00063
   168    C   11  dx2y2  Ryd( 3d)     0.00070
   169    C   11  dz2    Ryd( 3d)     0.00034

   170    C   12  S      Cor( 1S)     1.99904
   171    C   12  S      Val( 2S)     0.87061
   172    C   12  S      Ryd( 3S)     0.00056
   173    C   12  S      Ryd( 4S)     0.00007
   174    C   12  px     Val( 2p)     1.07928
   175    C   12  px     Ryd( 3p)     0.00502
   176    C   12  py     Val( 2p)     1.09113
   177    C   12  py     Ryd( 3p)     0.00580
   178    C   12  pz     Val( 2p)     0.99678
   179    C   12  pz     Ryd( 3p)     0.00104
   180    C   12  dxy    Ryd( 3d)     0.00067
   181    C   12  dxz    Ryd( 3d)     0.00076
   182    C   12  dyz    Ryd( 3d)     0.00072
   183    C   12  dx2y2  Ryd( 3d)     0.00074
   184    C   12  dz2    Ryd( 3d)     0.00034

   185    C   13  S      Cor( 1S)     1.99899
   186    C   13  S      Val( 2S)     0.95217
   187    C   13  S      Ryd( 3S)     0.00059
   188    C   13  S      Ryd( 4S)     0.00007
   189    C   13  px     Val( 2p)     1.08384
   190    C   13  px     Ryd( 3p)     0.00330
   191    C   13  py     Val( 2p)     1.16643
   192    C   13  py     Ryd( 3p)     0.00350
   193    C   13  pz     Val( 2p)     1.04517
   194    C   13  pz     Ryd( 3p)     0.00309
   195    C   13  dxy    Ryd( 3d)     0.00084
   196    C   13  dxz    Ryd( 3d)     0.00049
   197    C   13  dyz    Ryd( 3d)     0.00046
   198    C   13  dx2y2  Ryd( 3d)     0.00059
   199    C   13  dz2    Ryd( 3d)     0.00044

   200    C   14  S      Cor( 1S)     1.99906
   201    C   14  S      Val( 2S)     0.94591
   202    C   14  S      Ryd( 3S)     0.00062
   203    C   14  S      Ryd( 4S)     0.00004
   204    C   14  px     Val( 2p)     1.08824
   205    C   14  px     Ryd( 3p)     0.00426
   206    C   14  py     Val( 2p)     1.14812
   207    C   14  py     Ryd( 3p)     0.00453
   208    C   14  pz     Val( 2p)     1.03193
   209    C   14  pz     Ryd( 3p)     0.00296
   210    C   14  dxy    Ryd( 3d)     0.00081
   211    C   14  dxz    Ryd( 3d)     0.00068
   212    C   14  dyz    Ryd( 3d)     0.00030
   213    C   14  dx2y2  Ryd( 3d)     0.00067
   214    C   14  dz2    Ryd( 3d)     0.00043

   215    C   15  S      Cor( 1S)     1.99912
   216    C   15  S      Val( 2S)     0.95618
   217    C   15  S      Ryd( 3S)     0.00062
   218    C   15  S      Ryd( 4S)     0.00003
   219    C   15  px     Val( 2p)     1.10606
   220    C   15  px     Ryd( 3p)     0.00499
   221    C   15  py     Val( 2p)     1.14165
   222    C   15  py     Ryd( 3p)     0.00491
   223    C   15  pz     Val( 2p)     1.07921
   224    C   15  pz     Ryd( 3p)     0.00305
   225    C   15  dxy    Ryd( 3d)     0.00079
   226    C   15  dxz    Ryd( 3d)     0.00060
   227    C   15  dyz    Ryd( 3d)     0.00033
   228    C   15  dx2y2  Ryd( 3d)     0.00066
   229    C   15  dz2    Ryd( 3d)     0.00043

   230    C   16  S      Cor( 1S)     1.99911
   231    C   16  S      Val( 2S)     0.96838
   232    C   16  S      Ryd( 3S)     0.00055
   233    C   16  S      Ryd( 4S)     0.00004
   234    C   16  px     Val( 2p)     1.19111
   235    C   16  px     Ryd( 3p)     0.00497
   236    C   16  py     Val( 2p)     1.06285
   237    C   16  py     Ryd( 3p)     0.00452
   238    C   16  pz     Val( 2p)     0.93002
   239    C   16  pz     Ryd( 3p)     0.00134
   240    C   16  dxy    Ryd( 3d)     0.00065
   241    C   16  dxz    Ryd( 3d)     0.00032
   242    C   16  dyz    Ryd( 3d)     0.00091
   243    C   16  dx2y2  Ryd( 3d)     0.00090
   244    C   16  dz2    Ryd( 3d)     0.00043

   245    C   17  S      Cor( 1S)     1.99907
   246    C   17  S      Val( 2S)     0.94913
   247    C   17  S      Ryd( 3S)     0.00067
   248    C   17  S      Ryd( 4S)     0.00005
   249    C   17  px     Val( 2p)     1.06811
   250    C   17  px     Ryd( 3p)     0.00435
   251    C   17  py     Val( 2p)     1.17336
   252    C   17  py     Ryd( 3p)     0.00460
   253    C   17  pz     Val( 2p)     1.04657
   254    C   17  pz     Ryd( 3p)     0.00299
   255    C   17  dxy    Ryd( 3d)     0.00074
   256    C   17  dxz    Ryd( 3d)     0.00042
   257    C   17  dyz    Ryd( 3d)     0.00042
   258    C   17  dx2y2  Ryd( 3d)     0.00075
   259    C   17  dz2    Ryd( 3d)     0.00042

   260    C   18  S      Cor( 1S)     1.99944
   261    C   18  S      Val( 2S)     1.23087
   262    C   18  S      Ryd( 3S)     0.00208
   263    C   18  S      Ryd( 4S)     0.00001
   264    C   18  px     Val( 2p)     1.27505
   265    C   18  px     Ryd( 3p)     0.00127
   266    C   18  py     Val( 2p)     1.32748
   267    C   18  py     Ryd( 3p)     0.00157
   268    C   18  pz     Val( 2p)     1.39348
   269    C   18  pz     Ryd( 3p)     0.00296
   270    C   18  dxy    Ryd( 3d)     0.00096
   271    C   18  dxz    Ryd( 3d)     0.00005
   272    C   18  dyz    Ryd( 3d)     0.00079
   273    C   18  dx2y2  Ryd( 3d)     0.00026
   274    C   18  dz2    Ryd( 3d)     0.00070

   275    H   19  S      Val( 1S)     0.73823
   276    H   19  S      Ryd( 2S)     0.00068

   277    H   20  S      Val( 1S)     0.74223
   278    H   20  S      Ryd( 2S)     0.00093

   279    H   21  S      Val( 1S)     0.74193
   280    H   21  S      Ryd( 2S)     0.00056

   281    H   22  S      Val( 1S)     0.75810
   282    H   22  S      Ryd( 2S)     0.00140

   283    H   23  S      Val( 1S)     0.77103
   284    H   23  S      Ryd( 2S)     0.00109

   285    H   24  S      Val( 1S)     0.76881
   286    H   24  S      Ryd( 2S)     0.00159

   287    H   25  S      Val( 1S)     0.75793
   288    H   25  S      Ryd( 2S)     0.00140

   289    H   26  S      Val( 1S)     0.76887
   290    H   26  S      Ryd( 2S)     0.00159

   291    H   27  S      Val( 1S)     0.77111
   292    H   27  S      Ryd( 2S)     0.00109

   293    H   28  S      Val( 1S)     0.76967
   294    H   28  S      Ryd( 2S)     0.00113

   295    H   29  S      Val( 1S)     0.76948
   296    H   29  S      Ryd( 2S)     0.00113

   297    H   30  S      Val( 1S)     0.76449
   298    H   30  S      Ryd( 2S)     0.00160

   299    H   31  S      Val( 1S)     0.75923
   300    H   31  S      Ryd( 2S)     0.00109

   301    H   32  S      Val( 1S)     0.76711
   302    H   32  S      Ryd( 2S)     0.00110

   303    H   33  S      Val( 1S)     0.77191
   304    H   33  S      Ryd( 2S)     0.00139

   305    H   34  S      Val( 1S)     0.77485
   306    H   34  S      Ryd( 2S)     0.00117

   307    H   35  S      Val( 1S)     0.76873
   308    H   35  S      Ryd( 2S)     0.00081

   309    H   36  S      Val( 1S)     0.76708
   310    H   36  S      Ryd( 2S)     0.00087

   311    H   37  S      Val( 1S)     0.76973
   312    H   37  S      Ryd( 2S)     0.00112

   313    H   38  S      Val( 1S)     0.74187
   314    H   38  S      Ryd( 2S)     0.00056

   315    H   39  S      Val( 1S)     0.74199
   316    H   39  S      Ryd( 2S)     0.00094

   317    H   40  S      Val( 1S)     0.73839
   318    H   40  S      Ryd( 2S)     0.00068

 WARNING:  1 low occupancy (<1.9990e) core orbital  found on Si    2
           1 low occupancy (<1.9990e) core orbital  found on  C    8
           1 low occupancy (<1.9990e) core orbital  found on  C   13


 Summary of Natural Population Analysis:                  
                                                          
                                       Natural Population 
                Natural  -----------------------------------------------
    Atom  No    Charge         Core      Valence    Rydberg      Total
 -----------------------------------------------------------------------
      C    1   -1.23694      1.99944     5.22686    0.01064     7.23694
     Si    2    2.07846      9.99756     1.87705    0.04693    11.92154
      C    3   -0.54716      1.99916     4.53033    0.01767     6.54716
      C    4   -0.67657      1.99941     4.66532    0.01184     6.67657
      C    5   -0.67652      1.99941     4.66524    0.01186     6.67652
      C    6   -0.67719      1.99941     4.66617    0.01162     6.67719
      O    7   -0.81228      1.99975     6.80011    0.01241     8.81228
      C    8    0.39456      1.99878     3.58432    0.02234     5.60544
      C    9   -0.34194      1.99905     4.32589    0.01700     6.34194
      C   10   -0.21789      1.99907     4.20348    0.01535     6.21789
      C   11   -0.04540      1.99902     4.03134    0.01503     6.04540
      C   12   -0.05256      1.99904     4.03779    0.01573     6.05256
      C   13   -0.25995      1.99899     4.24760    0.01336     6.25995
      C   14   -0.22856      1.99906     4.21419    0.01532     6.22856
      C   15   -0.29863      1.99912     4.28311    0.01640     6.29863
      C   16   -0.16609      1.99911     4.15236    0.01463     6.16609
      C   17   -0.25166      1.99907     4.23717    0.01541     6.25166
      C   18   -1.23698      1.99944     5.22689    0.01065     7.23698
      H   19    0.26109      0.00000     0.73823    0.00068     0.73891
      H   20    0.25685      0.00000     0.74223    0.00093     0.74315
      H   21    0.25751      0.00000     0.74193    0.00056     0.74249
      H   22    0.24049      0.00000     0.75810    0.00140     0.75951
      H   23    0.22788      0.00000     0.77103    0.00109     0.77212
      H   24    0.22960      0.00000     0.76881    0.00159     0.77040
      H   25    0.24067      0.00000     0.75793    0.00140     0.75933
      H   26    0.22953      0.00000     0.76887    0.00159     0.77047
      H   27    0.22780      0.00000     0.77111    0.00109     0.77220
      H   28    0.22920      0.00000     0.76967    0.00113     0.77080
      H   29    0.22939      0.00000     0.76948    0.00113     0.77061
      H   30    0.23391      0.00000     0.76449    0.00160     0.76609
      H   31    0.23968      0.00000     0.75923    0.00109     0.76032
      H   32    0.23178      0.00000     0.76711    0.00110     0.76822
      H   33    0.22670      0.00000     0.77191    0.00139     0.77330
      H   34    0.22398      0.00000     0.77485    0.00117     0.77602
      H   35    0.23047      0.00000     0.76873    0.00081     0.76953
      H   36    0.23205      0.00000     0.76708    0.00087     0.76795
      H   37    0.22914      0.00000     0.76973    0.00112     0.77086
      H   38    0.25757      0.00000     0.74187    0.00056     0.74243
      H   39    0.25706      0.00000     0.74199    0.00094     0.74294
      H   40    0.26093      0.00000     0.73839    0.00068     0.73907
 =======================================================================
   * Total *   -0.00000     43.98389    95.69798    0.31813   140.00000

                                 Natural Population      
 --------------------------------------------------------
   Core                      43.98389 ( 99.9634% of  44)
   Valence                   95.69798 ( 99.6854% of  96)
   Natural Minimal Basis    139.68187 ( 99.7728% of 140)
   Natural Rydberg Basis      0.31813 (  0.2272% of 140)
 --------------------------------------------------------

    Atom  No          Natural Electron Configuration
 ----------------------------------------------------------------------------
      C    1      [core]2S( 1.23)2p( 4.00)3p( 0.01)
     Si    2      [core]3S( 0.74)3p( 1.14)3d( 0.03)4p( 0.01)
      C    3      [core]2S( 1.03)2p( 3.50)3p( 0.01)
      C    4      [core]2S( 1.09)2p( 3.58)3p( 0.01)
      C    5      [core]2S( 1.09)2p( 3.58)3p( 0.01)
      C    6      [core]2S( 1.09)2p( 3.58)3p( 0.01)
      O    7      [core]2S( 1.64)2p( 5.16)3p( 0.01)3d( 0.01)
      C    8      [core]2S( 0.83)2p( 2.75)3p( 0.01)3d( 0.01)
      C    9      [core]2S( 0.96)2p( 3.37)3p( 0.01)
      C   10      [core]2S( 0.95)2p( 3.26)3p( 0.01)
      C   11      [core]2S( 0.87)2p( 3.16)3p( 0.01)
      C   12      [core]2S( 0.87)2p( 3.17)3p( 0.01)
      C   13      [core]2S( 0.95)2p( 3.30)3p( 0.01)
      C   14      [core]2S( 0.95)2p( 3.27)3p( 0.01)
      C   15      [core]2S( 0.96)2p( 3.33)3p( 0.01)
      C   16      [core]2S( 0.97)2p( 3.18)3p( 0.01)
      C   17      [core]2S( 0.95)2p( 3.29)3p( 0.01)
      C   18      [core]2S( 1.23)2p( 4.00)3p( 0.01)
      H   19            1S( 0.74)
      H   20            1S( 0.74)
      H   21            1S( 0.74)
      H   22            1S( 0.76)
      H   23            1S( 0.77)
      H   24            1S( 0.77)
      H   25            1S( 0.76)
      H   26            1S( 0.77)
      H   27            1S( 0.77)
      H   28            1S( 0.77)
      H   29            1S( 0.77)
      H   30            1S( 0.76)
      H   31            1S( 0.76)
      H   32            1S( 0.77)
      H   33            1S( 0.77)
      H   34            1S( 0.77)
      H   35            1S( 0.77)
      H   36            1S( 0.77)
      H   37            1S( 0.77)
      H   38            1S( 0.74)
      H   39            1S( 0.74)
      H   40            1S( 0.74)


 NBO analysis skipped by request.
 Leave Link  607 at Wed Sep 29 00:26:42 2021, MaxMem= 1610612736 cpu:      27.5
 (Enter /sw/target/amd/app/gaussian/Gaussian09RevA.02_gcc-4.9.2/g09/l9999.exe)
 1\1\GINC-HERMITE\SP\RTD-B3LYP-FC\6-31G(d)\C16H22O1Si1\JSCHLEINITZ\29-S
 ep-2021\0\\#p TD(NStates=10, Root=1) b3lyp/6-31G* volume pop=NPA densi
 ty=current Geom=AllCheck Guess=Read\\C[Si](C(C)(C)C)(Oc1ccc2c(c1)cccc2
 )C_conf_0\\0,1\C,0,0.9684079615,-0.2596697563,-0.8218636428\Si,0,2.809
 4870397,0.045018258,-0.5283672014\C,0,3.5798888343,1.110242268,-1.9151
 486257\C,0,2.8301274747,2.4558014073,-2.0205484169\C,0,5.0657728822,1.
 3873961121,-1.6002785494\C,0,3.4786122864,0.3664819844,-3.2653275635\O
 ,0,3.0233906302,1.0072007973,0.8521220461\C,0,2.7071377611,0.849282026
 4,2.1677860133\C,0,3.0780971518,1.9216244968,3.0256975501\C,0,2.806218
 4932,1.8650188573,4.3697502697\C,0,2.1501519007,0.7410829277,4.9423107
 604\C,0,1.7761136115,-0.3393924812,4.0790450702\C,0,2.0681432472,-0.25
 80141034,2.6909498452\C,0,1.119865852,-1.4652332871,4.646702252\C,0,0.
 8477850942,-1.5203172051,5.9957746458\C,0,1.2182809421,-0.4514584571,6
 .8474055149\C,0,1.8555693726,0.6536044149,6.3278119282\C,0,3.721194234
 2,-1.5957686391,-0.3166816638\H,0,0.4113056305,0.6822275793,-0.8739182
 153\H,0,0.5212703881,-0.8609390671,-0.0228046408\H,0,0.8070105164,-0.7
 959777362,-1.7649511672\H,0,2.8750856386,3.0169838989,-1.0807781837\H,
 0,1.7733637756,2.3180147236,-2.2801560741\H,0,3.2794150995,3.081351081
 5,-2.8053899758\H,0,5.1843533703,1.9147949547,-0.6475040478\H,0,5.5110
 376045,2.0135511058,-2.3869562029\H,0,5.6542332436,0.4631182242,-1.548
 9917257\H,0,2.4385329311,0.1625430342,-3.5485897201\H,0,4.0169609393,-
 0.5893207334,-3.2523712644\H,0,3.9190540566,0.9751645079,-4.0679007294
 \H,0,3.5787737179,2.777473275,2.5837175554\H,0,3.0941746168,2.69040636
 86,5.0167910057\H,0,1.7779946522,-1.0848419282,2.0499391193\H,0,0.8339
 264799,-2.2879999196,3.995188306\H,0,0.345149108,-2.3892833422,6.41246
 1246\H,0,0.9980377822,-0.5069654519,7.9099540598\H,0,2.1434657519,1.47
 89478881,6.9753454009\H,0,3.6610198642,-2.1966833571,-1.2322856006\H,0
 ,3.2983325009,-2.1951476134,0.496891252\H,0,4.7813485189,-1.4377342801
 ,-0.0900474526\\Version=AM64L-G09RevA.02\State=1-A\HF=-987.7600817\RMS
 D=4.494e-09\Dipole=0.0579063,-0.2979104,-1.1075386\Quadrupole=-3.06126
 4,0.4592424,2.6020217,1.6815931,0.0325312,2.477189\PG=C01 [X(C16H22O1S
 i1)]\\@


 DEPRESSION IS WAITING FOR YOUR SHIP TO COME IN,
 AND FINDING OUT IT'S THE TITANIC.
 Job cpu time:  0 days  7 hours  8 minutes 56.1 seconds.
 File lengths (MBytes):  RWF=    323 Int=      0 D2E=      0 Chk=     45 Scr=      1
 Normal termination of Gaussian 09 at Wed Sep 29 00:26:46 2021.
