 Entering Gaussian System, Link 0=g09
 Input=C16H24N2O3_5eba_conf_0.com
 Output=C16H24N2O3_5eba_conf_0.log
 Initial command:
 /sw/target/amd/app/gaussian/Gaussian09RevA.02_gcc-4.9.2/g09/l1.exe /home/jschleinitz/gaussian/Gau-891779.inp -scrdir=/home/jschleinitz/gaussian/
 Entering Link 1 = /sw/target/amd/app/gaussian/Gaussian09RevA.02_gcc-4.9.2/g09/l1.exe PID=    891781.
  
 Copyright (c) 1988,1990,1992,1993,1995,1998,2003,2009, Gaussian, Inc.
                  All Rights Reserved.
  
 This is part of the Gaussian(R) 09 program.  It is based on
 the Gaussian(R) 03 system (copyright 2003, Gaussian, Inc.),
 the Gaussian(R) 98 system (copyright 1998, Gaussian, Inc.),
 the Gaussian(R) 94 system (copyright 1995, Gaussian, Inc.),
 the Gaussian 92(TM) system (copyright 1992, Gaussian, Inc.),
 the Gaussian 90(TM) system (copyright 1990, Gaussian, Inc.),
 the Gaussian 88(TM) system (copyright 1988, Gaussian, Inc.),
 the Gaussian 86(TM) system (copyright 1986, Carnegie Mellon
 University), and the Gaussian 82(TM) system (copyright 1983,
 Carnegie Mellon University). Gaussian is a federally registered
 trademark of Gaussian, Inc.
  
 This software contains proprietary and confidential information,
 including trade secrets, belonging to Gaussian, Inc.
  
 This software is provided under written license and may be
 used, copied, transmitted, or stored only in accord with that
 written license.
  
 The following legend is applicable only to US Government
 contracts under FAR:
  
                    RESTRICTED RIGHTS LEGEND
  
 Use, reproduction and disclosure by the US Government is
 subject to restrictions as set forth in subparagraphs (a)
 and (c) of the Commercial Computer Software - Restricted
 Rights clause in FAR 52.227-19.
  
 Gaussian, Inc.
 340 Quinnipiac St., Bldg. 40, Wallingford CT 06492
  
  
 ---------------------------------------------------------------
 Warning -- This program may not be used in any manner that
 competes with the business of Gaussian, Inc. or will provide
 assistance to any competitor of Gaussian, Inc.  The licensee
 of this program is prohibited from giving any competitor of
 Gaussian, Inc. access to this program.  By using this program,
 the user acknowledges that Gaussian, Inc. is engaged in the
 business of creating and licensing software in the field of
 computational chemistry and represents and warrants to the
 licensee that it is not a competitor of Gaussian, Inc. and that
 it will not use this program in any manner prohibited above.
 ---------------------------------------------------------------
  

 Cite this work as:
 Gaussian 09, Revision A.02,
 M. J. Frisch, G. W. Trucks, H. B. Schlegel, G. E. Scuseria, 
 M. A. Robb, J. R. Cheeseman, G. Scalmani, V. Barone, B. Mennucci, 
 G. A. Petersson, H. Nakatsuji, M. Caricato, X. Li, H. P. Hratchian, 
 A. F. Izmaylov, J. Bloino, G. Zheng, J. L. Sonnenberg, M. Hada, 
 M. Ehara, K. Toyota, R. Fukuda, J. Hasegawa, M. Ishida, T. Nakajima, 
 Y. Honda, O. Kitao, H. Nakai, T. Vreven, J. A. Montgomery, Jr., 
 J. E. Peralta, F. Ogliaro, M. Bearpark, J. J. Heyd, E. Brothers, 
 K. N. Kudin, V. N. Staroverov, R. Kobayashi, J. Normand, 
 K. Raghavachari, A. Rendell, J. C. Burant, S. S. Iyengar, J. Tomasi, 
 M. Cossi, N. Rega, J. M. Millam, M. Klene, J. E. Knox, J. B. Cross, 
 V. Bakken, C. Adamo, J. Jaramillo, R. Gomperts, R. E. Stratmann, 
 O. Yazyev, A. J. Austin, R. Cammi, C. Pomelli, J. W. Ochterski, 
 R. L. Martin, K. Morokuma, V. G. Zakrzewski, G. A. Voth, 
 P. Salvador, J. J. Dannenberg, S. Dapprich, A. D. Daniels, 
 O. Farkas, J. B. Foresman, J. V. Ortiz, J. Cioslowski, 
 and D. J. Fox, Gaussian, Inc., Wallingford CT, 2009.
 
 ******************************************
 Gaussian 09:  AM64L-G09RevA.02 11-Jun-2009
                30-Sep-2021 
 ******************************************
 %nproc=7
 Will use up to    7 processors via shared memory.
 %mem=14gb
 %chk=C16H24N2O3_5eba_conf_0.chk
 -----------------------------------
 #p opt b3lyp/6-31G* scf=(xqc,tight)
 -----------------------------------
 1/14=-1,18=20,19=15,26=3,38=1/1,3;
 2/9=110,12=2,17=6,18=5,40=1/2;
 3/5=1,6=6,7=1,11=2,16=1,25=1,30=1,71=1,74=-5/1,2,3;
 4//1;
 5/5=2,8=3,13=1,32=2,38=5/2,8;
 6/7=2,8=2,9=2,10=2,28=1/1;
 7//1,2,3,16;
 1/14=-1,18=20,19=15/3(2);
 2/9=110/2;
 99//99;
 2/9=110/2;
 3/5=1,6=6,7=1,11=2,16=1,25=1,30=1,71=1,74=-5/1,2,3;
 4/5=5,16=3/1;
 5/5=2,8=3,13=1,32=2,38=5/2,8;
 7//1,2,3,16;
 1/14=-1,18=20,19=15/3(-5);
 2/9=110/2;
 6/7=2,8=2,9=2,10=2,19=2,28=1/1;
 99/9=1/99;
 Leave Link    1 at Thu Sep 30 23:43:30 2021, MaxMem= 1879048192 cpu:       0.1
 (Enter /sw/target/amd/app/gaussian/Gaussian09RevA.02_gcc-4.9.2/g09/l101.exe)
 ------------------------------------------
 CCN(C(=O)Oc1ccc(cc1)C(=O)N(CC)CC)CC_conf_0
 ------------------------------------------
 Symbolic Z-matrix:
 Charge =  0 Multiplicity = 1
 C                     3.53358   0.93769  -1.8638 
 C                     3.87248   0.19374  -0.5803 
 N                     4.08998  -1.23783  -0.79174 
 C                     3.25342  -2.22676  -0.27587 
 O                     3.53813  -3.41974  -0.31464 
 O                     2.07986  -1.71544   0.2868 
 C                     1.09007  -2.45732   0.98105 
 C                     1.16843  -3.81592   1.27278 
 C                     0.14529  -4.43388   2.01403 
 C                    -0.98484  -3.71421   2.39809 
 C                    -1.02804  -2.33335   2.13499 
 C                     0.0006   -1.70751   1.42583 
 C                    -2.09767  -4.30168   3.19388 
 O                    -2.56994  -3.57389   4.07755 
 N                    -2.60017  -5.60104   2.96328 
 C                    -3.73922  -6.00054   3.80397 
 C                    -5.08755  -5.63984   3.19299 
 C                    -2.3704   -6.384     1.73804 
 C                    -2.30127  -7.89116   1.96961 
 C                     5.36777  -1.67018  -1.35126 
 C                     6.4082   -1.92285  -0.26915 
 H                     3.43699   2.0097   -1.66136 
 H                     2.58744   0.58409  -2.28558 
 H                     4.30897   0.81051  -2.62537 
 H                     3.06741   0.35905   0.14167 
 H                     4.78266   0.60984  -0.13501 
 H                     2.01327  -4.42513   0.9679 
 H                     0.26861  -5.47634   2.29118 
 H                    -1.85955  -1.73583   2.50379 
 H                    -0.04239  -0.63806   1.23869 
 H                    -3.65847  -5.52048   4.7857 
 H                    -3.69005  -7.07564   3.99206 
 H                    -5.89642  -5.98373   3.8448 
 H                    -5.2238   -6.11029   2.21475 
 H                    -5.18928  -4.55779   3.06447 
 H                    -1.46208  -6.07403   1.22788 
 H                    -3.18169  -6.15014   1.03991 
 H                    -1.95974  -8.14608   2.97735 
 H                    -1.61419  -8.35733   1.25662 
 H                    -3.28685  -8.34592   1.81565 
 H                     5.73035  -0.92189  -2.06288 
 H                     5.20765  -2.5972   -1.91457 
 H                     6.70083  -0.98707   0.21721 
 H                     7.30369  -2.37875  -0.70214 
 H                     6.02714  -2.5943    0.50739 
 
 NAtoms=     45 NQM=     45 NQMF=      0 NMic=      0 NMicF=      0 NTot=     45.
                    Isotopes and Nuclear Properties:
 (Nuclear quadrupole moments (NQMom) in fm**2, nuclear magnetic moments (NMagM)
  in nuclear magnetons)

  Atom         1           2           3           4           5           6           7           8           9          10
 IAtWgt=          12          12          14          12          16          16          12          12          12          12
 AtmWgt=  12.0000000  12.0000000  14.0030740  12.0000000  15.9949146  15.9949146  12.0000000  12.0000000  12.0000000  12.0000000
 NucSpn=           0           0           2           0           0           0           0           0           0           0
 AtZEff=   0.0000000   0.0000000   0.0000000   0.0000000   0.0000000   0.0000000   0.0000000   0.0000000   0.0000000   0.0000000
 NQMom=    0.0000000   0.0000000   2.0440000   0.0000000   0.0000000   0.0000000   0.0000000   0.0000000   0.0000000   0.0000000
 NMagM=    0.0000000   0.0000000   0.4037610   0.0000000   0.0000000   0.0000000   0.0000000   0.0000000   0.0000000   0.0000000

  Atom        11          12          13          14          15          16          17          18          19          20
 IAtWgt=          12          12          12          16          14          12          12          12          12          12
 AtmWgt=  12.0000000  12.0000000  12.0000000  15.9949146  14.0030740  12.0000000  12.0000000  12.0000000  12.0000000  12.0000000
 NucSpn=           0           0           0           0           2           0           0           0           0           0
 AtZEff=   0.0000000   0.0000000   0.0000000   0.0000000   0.0000000   0.0000000   0.0000000   0.0000000   0.0000000   0.0000000
 NQMom=    0.0000000   0.0000000   0.0000000   0.0000000   2.0440000   0.0000000   0.0000000   0.0000000   0.0000000   0.0000000
 NMagM=    0.0000000   0.0000000   0.0000000   0.0000000   0.4037610   0.0000000   0.0000000   0.0000000   0.0000000   0.0000000

  Atom        21          22          23          24          25          26          27          28          29          30
 IAtWgt=          12           1           1           1           1           1           1           1           1           1
 AtmWgt=  12.0000000   1.0078250   1.0078250   1.0078250   1.0078250   1.0078250   1.0078250   1.0078250   1.0078250   1.0078250
 NucSpn=           0           1           1           1           1           1           1           1           1           1
 AtZEff=   0.0000000   0.0000000   0.0000000   0.0000000   0.0000000   0.0000000   0.0000000   0.0000000   0.0000000   0.0000000
 NQMom=    0.0000000   0.0000000   0.0000000   0.0000000   0.0000000   0.0000000   0.0000000   0.0000000   0.0000000   0.0000000
 NMagM=    0.0000000   2.7928460   2.7928460   2.7928460   2.7928460   2.7928460   2.7928460   2.7928460   2.7928460   2.7928460

  Atom        31          32          33          34          35          36          37          38          39          40
 IAtWgt=           1           1           1           1           1           1           1           1           1           1
 AtmWgt=   1.0078250   1.0078250   1.0078250   1.0078250   1.0078250   1.0078250   1.0078250   1.0078250   1.0078250   1.0078250
 NucSpn=           1           1           1           1           1           1           1           1           1           1
 AtZEff=   0.0000000   0.0000000   0.0000000   0.0000000   0.0000000   0.0000000   0.0000000   0.0000000   0.0000000   0.0000000
 NQMom=    0.0000000   0.0000000   0.0000000   0.0000000   0.0000000   0.0000000   0.0000000   0.0000000   0.0000000   0.0000000
 NMagM=    2.7928460   2.7928460   2.7928460   2.7928460   2.7928460   2.7928460   2.7928460   2.7928460   2.7928460   2.7928460

  Atom        41          42          43          44          45
 IAtWgt=           1           1           1           1           1
 AtmWgt=   1.0078250   1.0078250   1.0078250   1.0078250   1.0078250
 NucSpn=           1           1           1           1           1
 AtZEff=   0.0000000   0.0000000   0.0000000   0.0000000   0.0000000
 NQMom=    0.0000000   0.0000000   0.0000000   0.0000000   0.0000000
 NMagM=    2.7928460   2.7928460   2.7928460   2.7928460   2.7928460
 Leave Link  101 at Thu Sep 30 23:43:31 2021, MaxMem= 1879048192 cpu:       0.2
 (Enter /sw/target/amd/app/gaussian/Gaussian09RevA.02_gcc-4.9.2/g09/l103.exe)

 GradGradGradGradGradGradGradGradGradGradGradGradGradGradGradGradGradGrad
 Berny optimization.
 Initialization pass.
                           ----------------------------
                           !    Initial Parameters    !
                           ! (Angstroms and Degrees)  !
 --------------------------                            --------------------------
 ! Name  Definition              Value          Derivative Info.                !
 --------------------------------------------------------------------------------
 ! R1    R(1,2)                  1.5217         estimate D2E/DX2                !
 ! R2    R(1,22)                 1.0952         estimate D2E/DX2                !
 ! R3    R(1,23)                 1.0946         estimate D2E/DX2                !
 ! R4    R(1,24)                 1.0943         estimate D2E/DX2                !
 ! R5    R(2,3)                  1.4633         estimate D2E/DX2                !
 ! R6    R(2,25)                 1.0939         estimate D2E/DX2                !
 ! R7    R(2,26)                 1.0954         estimate D2E/DX2                !
 ! R8    R(3,4)                  1.3943         estimate D2E/DX2                !
 ! R9    R(3,20)                 1.4604         estimate D2E/DX2                !
 ! R10   R(4,5)                  1.2271         estimate D2E/DX2                !
 ! R11   R(4,6)                  1.3983         estimate D2E/DX2                !
 ! R12   R(6,7)                  1.4185         estimate D2E/DX2                !
 ! R13   R(7,8)                  1.3918         estimate D2E/DX2                !
 ! R14   R(7,12)                 1.3953         estimate D2E/DX2                !
 ! R15   R(8,9)                  1.4065         estimate D2E/DX2                !
 ! R16   R(8,27)                 1.0853         estimate D2E/DX2                !
 ! R17   R(9,10)                 1.3938         estimate D2E/DX2                !
 ! R18   R(9,28)                 1.0857         estimate D2E/DX2                !
 ! R19   R(10,11)                1.4064         estimate D2E/DX2                !
 ! R20   R(10,13)                1.4889         estimate D2E/DX2                !
 ! R21   R(11,12)                1.3974         estimate D2E/DX2                !
 ! R22   R(11,29)                1.0883         estimate D2E/DX2                !
 ! R23   R(12,30)                1.0865         estimate D2E/DX2                !
 ! R24   R(13,14)                1.2384         estimate D2E/DX2                !
 ! R25   R(13,15)                1.4121         estimate D2E/DX2                !
 ! R26   R(15,16)                1.471          estimate D2E/DX2                !
 ! R27   R(15,18)                1.4721         estimate D2E/DX2                !
 ! R28   R(16,17)                1.5236         estimate D2E/DX2                !
 ! R29   R(16,31)                1.0958         estimate D2E/DX2                !
 ! R30   R(16,32)                1.0925         estimate D2E/DX2                !
 ! R31   R(17,33)                1.0943         estimate D2E/DX2                !
 ! R32   R(17,34)                1.094          estimate D2E/DX2                !
 ! R33   R(17,35)                1.0944         estimate D2E/DX2                !
 ! R34   R(18,19)                1.5264         estimate D2E/DX2                !
 ! R35   R(18,36)                1.0869         estimate D2E/DX2                !
 ! R36   R(18,37)                1.0956         estimate D2E/DX2                !
 ! R37   R(19,38)                1.0942         estimate D2E/DX2                !
 ! R38   R(19,39)                1.0944         estimate D2E/DX2                !
 ! R39   R(19,40)                1.0963         estimate D2E/DX2                !
 ! R40   R(20,21)                1.5223         estimate D2E/DX2                !
 ! R41   R(20,41)                1.0944         estimate D2E/DX2                !
 ! R42   R(20,42)                1.0965         estimate D2E/DX2                !
 ! R43   R(21,43)                1.0945         estimate D2E/DX2                !
 ! R44   R(21,44)                1.0942         estimate D2E/DX2                !
 ! R45   R(21,45)                1.095          estimate D2E/DX2                !
 ! A1    A(2,1,22)             110.0142         estimate D2E/DX2                !
 ! A2    A(2,1,23)             111.0748         estimate D2E/DX2                !
 ! A3    A(2,1,24)             111.8623         estimate D2E/DX2                !
 ! A4    A(22,1,23)            108.1312         estimate D2E/DX2                !
 ! A5    A(22,1,24)            107.7516         estimate D2E/DX2                !
 ! A6    A(23,1,24)            107.8655         estimate D2E/DX2                !
 ! A7    A(1,2,3)              112.9229         estimate D2E/DX2                !
 ! A8    A(1,2,25)             108.5944         estimate D2E/DX2                !
 ! A9    A(1,2,26)             110.0121         estimate D2E/DX2                !
 ! A10   A(3,2,25)             110.6454         estimate D2E/DX2                !
 ! A11   A(3,2,26)             107.8695         estimate D2E/DX2                !
 ! A12   A(25,2,26)            106.6079         estimate D2E/DX2                !
 ! A13   A(2,3,4)              123.4527         estimate D2E/DX2                !
 ! A14   A(2,3,20)             118.3611         estimate D2E/DX2                !
 ! A15   A(4,3,20)             117.1777         estimate D2E/DX2                !
 ! A16   A(3,4,5)              122.5935         estimate D2E/DX2                !
 ! A17   A(3,4,6)              113.1463         estimate D2E/DX2                !
 ! A18   A(5,4,6)              124.2592         estimate D2E/DX2                !
 ! A19   A(4,6,7)              126.2512         estimate D2E/DX2                !
 ! A20   A(6,7,8)              125.019          estimate D2E/DX2                !
 ! A21   A(6,7,12)             114.8209         estimate D2E/DX2                !
 ! A22   A(8,7,12)             120.113          estimate D2E/DX2                !
 ! A23   A(7,8,9)              119.8946         estimate D2E/DX2                !
 ! A24   A(7,8,27)             122.2022         estimate D2E/DX2                !
 ! A25   A(9,8,27)             117.8853         estimate D2E/DX2                !
 ! A26   A(8,9,10)             120.5449         estimate D2E/DX2                !
 ! A27   A(8,9,28)             118.2795         estimate D2E/DX2                !
 ! A28   A(10,9,28)            121.1674         estimate D2E/DX2                !
 ! A29   A(9,10,11)            118.7069         estimate D2E/DX2                !
 ! A30   A(9,10,13)            123.3389         estimate D2E/DX2                !
 ! A31   A(11,10,13)           117.6744         estimate D2E/DX2                !
 ! A32   A(10,11,12)           120.8024         estimate D2E/DX2                !
 ! A33   A(10,11,29)           119.943          estimate D2E/DX2                !
 ! A34   A(12,11,29)           119.2417         estimate D2E/DX2                !
 ! A35   A(7,12,11)            119.7256         estimate D2E/DX2                !
 ! A36   A(7,12,30)            120.3254         estimate D2E/DX2                !
 ! A37   A(11,12,30)           119.9401         estimate D2E/DX2                !
 ! A38   A(10,13,14)           115.7565         estimate D2E/DX2                !
 ! A39   A(10,13,15)           122.8033         estimate D2E/DX2                !
 ! A40   A(14,13,15)           121.4391         estimate D2E/DX2                !
 ! A41   A(13,15,16)           115.6027         estimate D2E/DX2                !
 ! A42   A(13,15,18)           124.735          estimate D2E/DX2                !
 ! A43   A(16,15,18)           116.8784         estimate D2E/DX2                !
 ! A44   A(15,16,17)           113.0655         estimate D2E/DX2                !
 ! A45   A(15,16,31)           109.6324         estimate D2E/DX2                !
 ! A46   A(15,16,32)           109.3172         estimate D2E/DX2                !
 ! A47   A(17,16,31)           108.709          estimate D2E/DX2                !
 ! A48   A(17,16,32)           109.988          estimate D2E/DX2                !
 ! A49   A(31,16,32)           105.8754         estimate D2E/DX2                !
 ! A50   A(16,17,33)           109.9314         estimate D2E/DX2                !
 ! A51   A(16,17,34)           111.5302         estimate D2E/DX2                !
 ! A52   A(16,17,35)           111.3109         estimate D2E/DX2                !
 ! A53   A(33,17,34)           107.7835         estimate D2E/DX2                !
 ! A54   A(33,17,35)           108.1775         estimate D2E/DX2                !
 ! A55   A(34,17,35)           107.9742         estimate D2E/DX2                !
 ! A56   A(15,18,19)           113.9516         estimate D2E/DX2                !
 ! A57   A(15,18,36)           111.6797         estimate D2E/DX2                !
 ! A58   A(15,18,37)           107.5331         estimate D2E/DX2                !
 ! A59   A(19,18,36)           108.3577         estimate D2E/DX2                !
 ! A60   A(19,18,37)           109.9363         estimate D2E/DX2                !
 ! A61   A(36,18,37)           105.0031         estimate D2E/DX2                !
 ! A62   A(18,19,38)           112.5757         estimate D2E/DX2                !
 ! A63   A(18,19,39)           110.4985         estimate D2E/DX2                !
 ! A64   A(18,19,40)           110.3383         estimate D2E/DX2                !
 ! A65   A(38,19,39)           107.7475         estimate D2E/DX2                !
 ! A66   A(38,19,40)           108.259          estimate D2E/DX2                !
 ! A67   A(39,19,40)           107.2307         estimate D2E/DX2                !
 ! A68   A(3,20,21)            112.0123         estimate D2E/DX2                !
 ! A69   A(3,20,41)            109.668          estimate D2E/DX2                !
 ! A70   A(3,20,42)            108.6236         estimate D2E/DX2                !
 ! A71   A(21,20,41)           110.4427         estimate D2E/DX2                !
 ! A72   A(21,20,42)           108.945          estimate D2E/DX2                !
 ! A73   A(41,20,42)           107.0003         estimate D2E/DX2                !
 ! A74   A(20,21,43)           110.8982         estimate D2E/DX2                !
 ! A75   A(20,21,44)           110.3181         estimate D2E/DX2                !
 ! A76   A(20,21,45)           111.5949         estimate D2E/DX2                !
 ! A77   A(43,21,44)           108.2565         estimate D2E/DX2                !
 ! A78   A(43,21,45)           107.5886         estimate D2E/DX2                !
 ! A79   A(44,21,45)           108.056          estimate D2E/DX2                !
 ! D1    D(22,1,2,3)          -176.7958         estimate D2E/DX2                !
 ! D2    D(22,1,2,25)           60.0995         estimate D2E/DX2                !
 ! D3    D(22,1,2,26)          -56.2259         estimate D2E/DX2                !
 ! D4    D(23,1,2,3)            63.5143         estimate D2E/DX2                !
 ! D5    D(23,1,2,25)          -59.5904         estimate D2E/DX2                !
 ! D6    D(23,1,2,26)         -175.9159         estimate D2E/DX2                !
 ! D7    D(24,1,2,3)           -57.0745         estimate D2E/DX2                !
 ! D8    D(24,1,2,25)          179.8209         estimate D2E/DX2                !
 ! D9    D(24,1,2,26)           63.4954         estimate D2E/DX2                !
 ! D10   D(1,2,3,4)           -113.8318         estimate D2E/DX2                !
 ! D11   D(1,2,3,20)            77.995          estimate D2E/DX2                !
 ! D12   D(25,2,3,4)             8.1265         estimate D2E/DX2                !
 ! D13   D(25,2,3,20)         -160.0467         estimate D2E/DX2                !
 ! D14   D(26,2,3,4)           124.3831         estimate D2E/DX2                !
 ! D15   D(26,2,3,20)          -43.7901         estimate D2E/DX2                !
 ! D16   D(2,3,4,5)           -170.4435         estimate D2E/DX2                !
 ! D17   D(2,3,4,6)              9.2083         estimate D2E/DX2                !
 ! D18   D(20,3,4,5)            -2.1405         estimate D2E/DX2                !
 ! D19   D(20,3,4,6)           177.5112         estimate D2E/DX2                !
 ! D20   D(2,3,20,21)           88.8211         estimate D2E/DX2                !
 ! D21   D(2,3,20,41)          -34.1742         estimate D2E/DX2                !
 ! D22   D(2,3,20,42)         -150.7959         estimate D2E/DX2                !
 ! D23   D(4,3,20,21)          -80.0963         estimate D2E/DX2                !
 ! D24   D(4,3,20,41)          156.9084         estimate D2E/DX2                !
 ! D25   D(4,3,20,42)           40.2867         estimate D2E/DX2                !
 ! D26   D(3,4,6,7)           -174.6575         estimate D2E/DX2                !
 ! D27   D(5,4,6,7)              4.9875         estimate D2E/DX2                !
 ! D28   D(4,6,7,8)              3.5185         estimate D2E/DX2                !
 ! D29   D(4,6,7,12)          -178.9856         estimate D2E/DX2                !
 ! D30   D(6,7,8,9)            177.5517         estimate D2E/DX2                !
 ! D31   D(6,7,8,27)            -0.8777         estimate D2E/DX2                !
 ! D32   D(12,7,8,9)             0.1792         estimate D2E/DX2                !
 ! D33   D(12,7,8,27)         -178.2502         estimate D2E/DX2                !
 ! D34   D(6,7,12,11)         -179.2968         estimate D2E/DX2                !
 ! D35   D(6,7,12,30)           -0.3864         estimate D2E/DX2                !
 ! D36   D(8,7,12,11)           -1.6675         estimate D2E/DX2                !
 ! D37   D(8,7,12,30)          177.2429         estimate D2E/DX2                !
 ! D38   D(7,8,9,10)             3.5266         estimate D2E/DX2                !
 ! D39   D(7,8,9,28)          -175.4425         estimate D2E/DX2                !
 ! D40   D(27,8,9,10)         -177.977          estimate D2E/DX2                !
 ! D41   D(27,8,9,28)            3.0539         estimate D2E/DX2                !
 ! D42   D(8,9,10,11)           -5.6047         estimate D2E/DX2                !
 ! D43   D(8,9,10,13)         -179.3812         estimate D2E/DX2                !
 ! D44   D(28,9,10,11)         173.3343         estimate D2E/DX2                !
 ! D45   D(28,9,10,13)          -0.4422         estimate D2E/DX2                !
 ! D46   D(9,10,11,12)           4.1094         estimate D2E/DX2                !
 ! D47   D(9,10,11,29)        -174.5772         estimate D2E/DX2                !
 ! D48   D(13,10,11,12)        178.2398         estimate D2E/DX2                !
 ! D49   D(13,10,11,29)         -0.4469         estimate D2E/DX2                !
 ! D50   D(9,10,13,14)         139.3036         estimate D2E/DX2                !
 ! D51   D(9,10,13,15)         -41.0799         estimate D2E/DX2                !
 ! D52   D(11,10,13,14)        -34.533          estimate D2E/DX2                !
 ! D53   D(11,10,13,15)        145.0835         estimate D2E/DX2                !
 ! D54   D(10,11,12,7)          -0.4982         estimate D2E/DX2                !
 ! D55   D(10,11,12,30)       -179.4128         estimate D2E/DX2                !
 ! D56   D(29,11,12,7)         178.1976         estimate D2E/DX2                !
 ! D57   D(29,11,12,30)         -0.7171         estimate D2E/DX2                !
 ! D58   D(10,13,15,16)       -177.4968         estimate D2E/DX2                !
 ! D59   D(10,13,15,18)        -17.0614         estimate D2E/DX2                !
 ! D60   D(14,13,15,16)          2.0984         estimate D2E/DX2                !
 ! D61   D(14,13,15,18)        162.5338         estimate D2E/DX2                !
 ! D62   D(13,15,16,17)         89.5344         estimate D2E/DX2                !
 ! D63   D(13,15,16,31)        -31.9355         estimate D2E/DX2                !
 ! D64   D(13,15,16,32)       -147.5807         estimate D2E/DX2                !
 ! D65   D(18,15,16,17)        -72.4953         estimate D2E/DX2                !
 ! D66   D(18,15,16,31)        166.0348         estimate D2E/DX2                !
 ! D67   D(18,15,16,32)         50.3896         estimate D2E/DX2                !
 ! D68   D(13,15,18,19)        147.9207         estimate D2E/DX2                !
 ! D69   D(13,15,18,36)         24.7283         estimate D2E/DX2                !
 ! D70   D(13,15,18,37)        -89.964          estimate D2E/DX2                !
 ! D71   D(16,15,18,19)        -51.8687         estimate D2E/DX2                !
 ! D72   D(16,15,18,36)       -175.0611         estimate D2E/DX2                !
 ! D73   D(16,15,18,37)         70.2466         estimate D2E/DX2                !
 ! D74   D(15,16,17,33)        178.431          estimate D2E/DX2                !
 ! D75   D(15,16,17,34)         58.9386         estimate D2E/DX2                !
 ! D76   D(15,16,17,35)        -61.7243         estimate D2E/DX2                !
 ! D77   D(31,16,17,33)        -59.5799         estimate D2E/DX2                !
 ! D78   D(31,16,17,34)       -179.0723         estimate D2E/DX2                !
 ! D79   D(31,16,17,35)         60.2648         estimate D2E/DX2                !
 ! D80   D(32,16,17,33)         55.9193         estimate D2E/DX2                !
 ! D81   D(32,16,17,34)        -63.5731         estimate D2E/DX2                !
 ! D82   D(32,16,17,35)        175.764          estimate D2E/DX2                !
 ! D83   D(15,18,19,38)        -27.3104         estimate D2E/DX2                !
 ! D84   D(15,18,19,39)       -147.8324         estimate D2E/DX2                !
 ! D85   D(15,18,19,40)         93.753          estimate D2E/DX2                !
 ! D86   D(36,18,19,38)         97.6709         estimate D2E/DX2                !
 ! D87   D(36,18,19,39)        -22.8512         estimate D2E/DX2                !
 ! D88   D(36,18,19,40)       -141.2658         estimate D2E/DX2                !
 ! D89   D(37,18,19,38)       -148.0928         estimate D2E/DX2                !
 ! D90   D(37,18,19,39)         91.3852         estimate D2E/DX2                !
 ! D91   D(37,18,19,40)        -27.0294         estimate D2E/DX2                !
 ! D92   D(3,20,21,43)         -68.0936         estimate D2E/DX2                !
 ! D93   D(3,20,21,44)         171.9752         estimate D2E/DX2                !
 ! D94   D(3,20,21,45)          51.8412         estimate D2E/DX2                !
 ! D95   D(41,20,21,43)         54.4625         estimate D2E/DX2                !
 ! D96   D(41,20,21,44)        -65.4687         estimate D2E/DX2                !
 ! D97   D(41,20,21,45)        174.3973         estimate D2E/DX2                !
 ! D98   D(42,20,21,43)        171.7106         estimate D2E/DX2                !
 ! D99   D(42,20,21,44)         51.7794         estimate D2E/DX2                !
 ! D100  D(42,20,21,45)        -68.3546         estimate D2E/DX2                !
 --------------------------------------------------------------------------------
 Trust Radius=3.00D-01 FncErr=1.00D-07 GrdErr=1.00D-06
 Number of steps in this run= 234 maximum allowed number of steps= 270.
 GradGradGradGradGradGradGradGradGradGradGradGradGradGradGradGradGradGrad

 Leave Link  103 at Thu Sep 30 23:43:31 2021, MaxMem= 1879048192 cpu:       0.0
 (Enter /sw/target/amd/app/gaussian/Gaussian09RevA.02_gcc-4.9.2/g09/l202.exe)
                          Input orientation:                          
 ---------------------------------------------------------------------
 Center     Atomic      Atomic             Coordinates (Angstroms)
 Number     Number       Type             X           Y           Z
 ---------------------------------------------------------------------
      1          6           0        3.533576    0.937685   -1.863802
      2          6           0        3.872478    0.193736   -0.580295
      3          7           0        4.089981   -1.237827   -0.791735
      4          6           0        3.253422   -2.226764   -0.275873
      5          8           0        3.538128   -3.419744   -0.314641
      6          8           0        2.079857   -1.715443    0.286801
      7          6           0        1.090068   -2.457321    0.981052
      8          6           0        1.168431   -3.815918    1.272780
      9          6           0        0.145285   -4.433876    2.014029
     10          6           0       -0.984844   -3.714212    2.398092
     11          6           0       -1.028036   -2.333349    2.134991
     12          6           0        0.000604   -1.707506    1.425831
     13          6           0       -2.097674   -4.301677    3.193878
     14          8           0       -2.569941   -3.573892    4.077551
     15          7           0       -2.600172   -5.601041    2.963282
     16          6           0       -3.739217   -6.000541    3.803969
     17          6           0       -5.087545   -5.639840    3.192989
     18          6           0       -2.370395   -6.384004    1.738040
     19          6           0       -2.301268   -7.891158    1.969606
     20          6           0        5.367774   -1.670176   -1.351258
     21          6           0        6.408200   -1.922854   -0.269154
     22          1           0        3.436994    2.009704   -1.661358
     23          1           0        2.587440    0.584092   -2.285584
     24          1           0        4.308974    0.810508   -2.625366
     25          1           0        3.067409    0.359054    0.141666
     26          1           0        4.782662    0.609835   -0.135006
     27          1           0        2.013265   -4.425133    0.967903
     28          1           0        0.268611   -5.476338    2.291178
     29          1           0       -1.859547   -1.735829    2.503792
     30          1           0       -0.042395   -0.638062    1.238692
     31          1           0       -3.658471   -5.520482    4.785698
     32          1           0       -3.690051   -7.075635    3.992057
     33          1           0       -5.896424   -5.983733    3.844799
     34          1           0       -5.223804   -6.110293    2.214745
     35          1           0       -5.189279   -4.557790    3.064467
     36          1           0       -1.462081   -6.074031    1.227882
     37          1           0       -3.181692   -6.150143    1.039907
     38          1           0       -1.959741   -8.146075    2.977350
     39          1           0       -1.614185   -8.357331    1.256621
     40          1           0       -3.286850   -8.345918    1.815648
     41          1           0        5.730349   -0.921887   -2.062882
     42          1           0        5.207655   -2.597203   -1.914571
     43          1           0        6.700828   -0.987072    0.217210
     44          1           0        7.303695   -2.378749   -0.702136
     45          1           0        6.027138   -2.594299    0.507387
 ---------------------------------------------------------------------
                    Distance matrix (angstroms):
                    1          2          3          4          5
     1  C    0.000000
     2  C    1.521744   0.000000
     3  N    2.488326   1.463348   0.000000
     4  C    3.551584   2.516888   1.394253   0.000000
     5  O    4.624620   3.638626   2.300635   1.227095   0.000000
     6  O    3.711803   2.758679   2.330655   1.398323   2.322268
     7  C    5.058656   4.148219   3.691804   2.512592   2.932248
     8  C    6.166750   5.179101   4.409561   3.044819   2.879640
     9  C    7.441221   6.483617   5.800661   4.446967   4.238225
    10  C    7.760156   6.909156   6.485471   5.227379   5.282321
    11  C    6.891903   6.146054   5.996665   4.914724   5.294413
    12  C    5.504599   4.757170   4.675596   3.707593   4.298264
    13  C    9.205543   8.372326   7.972412   6.706613   6.696998
    14  O    9.638824   8.797461   8.574480   7.394499   7.524867
    15  N   10.182267   9.382515   8.825868   7.492826   7.292569
    16  C   11.539330  10.748430  10.251842   8.932161   8.751183
    17  C   11.964895  11.338003  10.930815   9.656802   9.572593
    18  C   10.071607   9.360278   8.638250   7.277761   6.921776
    19  C   11.255616  10.487261   9.630154   8.245126   7.701290
    20  C    3.229230   2.510869   1.460393   2.436540   2.735538
    21  C    4.357643   3.317627   2.473154   3.169389   3.237292
    22  H    1.095233   2.157796   3.424776   4.461046   5.594889
    23  H    1.094578   2.170647   2.794387   3.519003   4.562798
    24  H    1.094256   2.180195   2.757868   3.982377   4.881463
    25  H    2.138697   1.093935   2.113508   2.625908   3.835246
    26  H    2.157878   1.095379   2.079653   3.225634   4.221214
    27  H    6.252177   5.214168   4.191419   2.813858   2.231800
    28  H    8.310448   7.306364   6.486308   5.104760   4.659358
    29  H    7.437025   6.789030   6.819486   5.840377   6.317755
    30  H    4.989591   4.396230   4.643154   3.959834   4.792780
    31  H   11.732404  10.870205  10.463622   9.178362   9.067392
    32  H   12.275389  11.442990  10.839445   9.483596   9.173863
    33  H   13.016107  12.376349  11.989551  10.715149  10.624770
    34  H   11.958271  11.414700  10.932814   9.651338   9.508327
    35  H   11.426998  10.861710  10.582869   9.373940   9.427680
    36  H    9.147637   8.426857   7.634992   6.268868   5.867427
    37  H   10.186445   9.624509   8.964540   7.650808   7.378744
    38  H   11.667390  10.780727   9.926179   8.532220   7.962536
    39  H   11.074015  10.324654   9.349899   7.976590   7.307186
    40  H   12.093050  11.398343  10.570763   9.197481   8.682491
    41  H    2.885040   2.625712   2.099152   3.321336   3.755192
    42  H    3.911592   3.369322   2.087549   2.577127   2.454316
    43  H    4.250504   3.166999   2.810226   3.696562   4.025348
    44  H    5.153834   4.290195   3.411406   4.075477   3.925980
    45  H    4.931054   3.687648   2.698205   2.905525   2.748138
                    6          7          8          9         10
     6  O    0.000000
     7  C    1.418468   0.000000
     8  C    2.492959   1.391773   0.000000
     9  C    3.757095   2.422071   1.406467   0.000000
    10  C    4.224337   2.809455   2.431720   1.393777   0.000000
    11  C    3.668326   2.415224   2.786734   2.409051   1.406368
    12  C    2.370811   1.395343   2.415087   2.792849   2.437883
    13  C    5.708894   4.296504   3.820212   2.537791   1.488885
    14  O    6.280465   4.922469   4.679823   3.517122   2.313613
    15  N    6.645607   5.237374   4.499648   3.130637   2.547322
    16  C    8.037049   6.621575   5.938392   4.554962   3.845823
    17  C    8.672858   7.292736   6.793462   5.497891   4.601311
    18  C    6.611074   5.288352   4.397138   3.194967   3.079481
    19  C    7.756645   6.481125   5.397402   4.235610   4.400391
    20  C    3.673648   4.935387   5.396691   6.799823   7.654507
    21  C    4.368828   5.489189   5.780695   7.123360   8.061034
    22  H    4.417450   5.696026   6.906042   8.115636   8.294275
    23  H    3.487502   4.707784   5.834006   7.044913   7.292013
    24  H    4.453101   5.834922   6.816331   8.146402   8.586777
    25  H    2.302143   3.542092   4.723974   5.917494   6.172821
    26  H    3.590264   4.928315   5.884881   7.180713   7.640556
    27  H    2.794773   2.173649   1.085283   2.140983   3.396986
    28  H    4.630601   3.392003   2.145648   1.085701   2.165102
    29  H    4.520439   3.396986   3.874378   3.396863   2.165704
    30  H    2.563357   2.158368   3.400886   3.878734   3.419812
    31  H    8.224767   6.812261   6.208471   4.830261   4.013920
    32  H    8.703587   7.296884   6.451750   5.059772   4.599786
    33  H    9.721044   8.333528   7.824760   6.500463   5.600651
    34  H    8.739287   7.398052   6.856538   5.628301   4.872740
    35  H    8.284607   6.941382   6.646878   5.438414   4.339695
    36  H    5.694580   4.433393   3.467085   2.427295   2.676918
    37  H    6.922256   5.646975   4.942307   3.868238   3.550291
    38  H    8.056701   6.756364   5.607252   4.374876   4.574645
    39  H    7.661669   6.496079   5.326129   4.366108   4.822612
    40  H    8.666148   7.384412   6.376922   5.207973   5.204918
    41  H    4.413256   5.758064   6.349264   7.755528   8.531775
    42  H    3.925132   5.035745   5.287703   6.665948   7.628487
    43  H    4.678540   5.850275   6.302699   7.621296   8.441747
    44  H    5.357840   6.438048   6.603576   7.927417   8.949568
    45  H    4.049947   4.961631   5.068058   6.344305   7.348256
                   11         12         13         14         15
    11  C    0.000000
    12  C    1.397387   0.000000
    13  C    2.477838   3.776041   0.000000
    14  O    2.773077   4.137961   1.238380   0.000000
    15  N    3.719609   4.928226   1.412100   2.313405   0.000000
    16  C    4.856365   6.170248   2.439880   2.707522   1.470978
    17  C    5.341522   6.668986   3.275670   3.374748   2.498258
    18  C    4.285709   5.252499   2.555372   3.661947   1.472088
    19  C    5.704183   6.620563   3.797982   4.811902   2.514233
    20  C    7.314378   6.043189   9.127759   9.803236   9.877000
    21  C    7.825984   6.631488   9.486900  10.110726  10.253217
    22  H    7.294578   5.929347   9.697391  10.009740  10.759094
    23  H    6.412848   5.071266   8.708934   9.185690   9.629008
    24  H    7.812075   6.427646  10.052023  10.558008  10.957976
    25  H    5.291035   3.914721   7.597137   7.920794   8.695156
    26  H    6.897785   5.538443   9.085342   9.450396  10.133144
    27  H    3.871326   3.412624   4.676540   5.603597   5.162180
    28  H    3.403537   3.876177   2.791774   3.855880   2.949100
    29  H    1.088326   2.150108   2.667676   2.521875   3.962262
    30  H    2.156117   1.086544   4.633465   4.802781   5.843594
    31  H    4.909506   6.262294   2.540760   2.339996   2.108954
    32  H    5.746677   7.001662   3.296604   3.677521   2.102532
    33  H    6.320597   7.675446   4.205177   4.114243   3.433482
    34  H    5.645895   6.877598   3.741989   4.116596   2.775443
    35  H    4.809159   6.143626   3.104894   2.975790   2.793222
    36  H    3.873492   4.609249   2.722197   3.949514   2.128517
    37  H    4.517229   5.478410   3.038341   4.029713   2.083038
    38  H    5.946884   6.906906   3.852961   4.742114   2.624414
    39  H    6.115837   6.845171   4.520516   5.634928   3.388509
    40  H    6.430801   7.418075   4.435036   5.329390   3.053349
    41  H    8.080231   6.754131  10.016708  10.659872  10.796036
    42  H    7.439920   6.250058   9.075754   9.866633   9.683938
    43  H    8.076242   6.846370   9.862088  10.370199  10.739563
    44  H    8.801653   7.636357  10.356752  11.034603  11.041062
    45  H    7.245182   6.160280   8.726107   9.360312   9.460571
                   16         17         18         19         20
    16  C    0.000000
    17  C    1.523611   0.000000
    18  C    2.507743   3.170735   0.000000
    19  C    3.001169   3.785292   1.526406   0.000000
    20  C   11.325445  12.071542   9.573046  10.418395   0.000000
    21  C   11.669958  12.567998  10.049598  10.792939   1.522261
    22  H   12.063657  12.439774  10.758067  12.005774   4.167204
    23  H   10.975729  11.298562   9.451140  10.669394   3.699317
    24  H   12.349093  12.796672  10.743104  11.854452   2.982986
    25  H   10.009349  10.573580   8.808346  10.011496   3.411492
    26  H   11.481943  12.147221  10.177834  11.264028   2.649543
    27  H    6.604258   7.539763   4.862794   5.624227   4.921486
    28  H    4.315786   5.434005   2.845026   3.541051   7.331826
    29  H    4.838531   5.112364   4.738445   6.194234   8.191453
    30  H    7.000237   7.368216   6.219709   7.631784   6.086299
    31  H    1.095796   2.143181   3.419506   3.923325  11.574117
    32  H    1.092530   2.157083   2.701932   2.585364  11.824306
    33  H    2.157659   1.094259   4.126927   4.481044  13.133466
    34  H    2.177539   1.094007   2.905874   3.431149  12.025495
    35  H    2.175104   1.094395   3.611173   4.544301  11.802047
    36  H    3.439037   4.146584   1.086913   2.134558   8.526008
    37  H    2.823695   2.920350   1.095575   2.161161   9.943900
    38  H    2.907430   4.013835   2.193039   1.094154  10.694232
    39  H    4.069300   4.816483   2.167404   1.094417  10.013333
    40  H    3.107869   3.530216   2.166800   1.096304  11.379690
    41  H   12.242767  12.919369  10.483500  11.372711   1.094443
    42  H   11.150378  11.888480   9.225414   9.974804   1.096512
    43  H   12.124118  13.018035  10.664280  11.479330   2.168814
    44  H   12.464681  13.392145  10.751025  11.392110   2.161301
    45  H   10.855949  11.833172   9.294887   9.977833   2.177917
                   21         22         23         24         25
    21  C    0.000000
    22  H    5.121651   0.000000
    23  H    4.994894   1.773067   0.000000
    24  H    4.174896   1.768539   1.769292   0.000000
    25  H    4.066541   2.472273   2.484462   3.066229   0.000000
    26  H    3.012455   2.469859   3.073214   2.542940   1.755429
    27  H    5.206454   7.095572   6.000599   6.752318   4.968132
    28  H    7.541691   9.038917   7.940562   8.945466   6.819492
    29  H    8.722376   7.709140   6.935117   8.416813   5.851758
    30  H    6.747923   5.246628   4.564013   5.996975   3.445082
    31  H   11.825071  12.190728  11.237449  12.589101  10.068438
    32  H   12.111307  12.856876  11.725489  13.037099  10.759340
    33  H   13.594819  13.465715  12.356936  13.862715  11.588548
    34  H   12.609833  12.488712  11.228681  12.735698  10.718877
    35  H   12.351414  11.827002  10.748924  12.304862  10.044453
    36  H    9.023009   9.884099   8.548313   9.774940   7.942338
    37  H   10.561706  10.848361   9.470570  10.862548   9.067952
    38  H   10.922028  12.400895  11.162041  12.284445  10.278646
    39  H   10.396593  11.895563  10.495233  11.584598   9.956697
    40  H   11.815081  12.827258  11.448689  12.698790  10.906666
    41  H    2.163071   3.743651   3.492198   2.310387   3.686745
    42  H    2.145566   4.941958   4.138093   3.595184   4.189059
    43  H    1.094472   4.812722   5.064828   4.127045   3.875499
    44  H    1.094178   5.927057   5.790405   4.778967   5.114067
    45  H    1.095017   5.710441   5.452923   4.935477   4.197146
                   26         27         28         29         30
    26  H    0.000000
    27  H    5.851228   0.000000
    28  H    7.956414   2.428972   0.000000
    29  H    7.522256   4.958829   4.308789   0.000000
    30  H    5.169668   4.317519   4.961186   2.471358   0.000000
    31  H   11.534593   6.924156   4.652585   4.771459   7.035288
    32  H   12.160838   6.978430   4.595840   5.837740   7.894857
    33  H   13.166505   8.559728   6.377996   6.011602   8.344917
    34  H   12.280505   7.534557   5.529409   5.526093   7.599012
    35  H   11.678210   7.502655   5.588405   4.400561   6.722212
    36  H    9.248153   3.855448   2.117340   4.539374   5.618307
    37  H   10.512310   5.474342   3.731526   4.834996   6.346474
    38  H   11.480972   5.802419   3.544557   6.428495   7.941625
    39  H   11.102538   5.357605   3.593794   6.742398   7.877687
    40  H   12.211781   6.646988   4.593683   6.797353   8.382745
    41  H    2.638369   5.939285   8.338551   8.895141   6.656239
    42  H    3.692230   4.674838   7.097316   8.379095   6.429955
    43  H    2.520621   5.861488   8.113462   8.892081   6.829076
    44  H    3.950808   5.913152   8.249084   9.729148   7.794988
    45  H    3.496836   4.435674   6.681968   8.180611   6.418792
                   31         32         33         34         35
    31  H    0.000000
    32  H    1.746242   0.000000
    33  H    2.471503   2.466174   0.000000
    34  H    3.067237   2.538330   1.767911   0.000000
    35  H    2.496556   3.073703   1.772649   1.770165   0.000000
    36  H    4.217653   3.688866   5.149738   3.889187   4.423126
    37  H    3.828151   3.135308   3.907029   2.356279   3.265706
    38  H    3.612415   2.273642   4.574457   3.921745   4.828385
    39  H    4.968018   3.665321   5.538068   4.358501   5.521424
    40  H    4.116113   2.552048   4.062911   2.984809   4.419129
    41  H   12.498002  12.777904  13.989454  12.853447  12.599515
    42  H   11.491186  11.580751  12.959147  11.756206  11.693201
    43  H   12.195817  12.621031  14.029139  13.131427  12.737014
    44  H   12.655271  12.843623  14.419211  13.392940  13.229132
    45  H   10.985331  11.253847  12.837363  11.910540  11.670560
                   36         37         38         39         40
    36  H    0.000000
    37  H    1.731528   0.000000
    38  H    2.757113   3.038190   0.000000
    39  H    2.288542   2.715828   1.767752   0.000000
    40  H    2.972663   2.331150   1.775024   1.763647   0.000000
    41  H    9.439531  10.788254  11.693174  10.965724  12.307279
    42  H    8.151608   9.577759  10.300118   9.474863  10.914159
    43  H    9.671178  11.180265  11.570443  11.159773  12.508450
    44  H    9.706642  11.278363  11.515725  10.913696  12.413943
    45  H    8.289514   9.885856  10.035595   9.600193  11.024656
                   41         42         43         44         45
    41  H    0.000000
    42  H    1.761218   0.000000
    43  H    2.478890   3.060486   0.000000
    44  H    2.539585   2.431277   1.773531   0.000000
    45  H    3.080799   2.556842   1.766703   1.771724   0.000000
 Stoichiometry    C16H24N2O3
 Framework group  C1[X(C16H24N2O3)]
 Deg. of freedom   129
 Full point group                 C1      NOp   1
 Largest Abelian subgroup         C1      NOp   1
 Largest concise Abelian subgroup C1      NOp   1
                         Standard orientation:                         
 ---------------------------------------------------------------------
 Center     Atomic      Atomic             Coordinates (Angstroms)
 Number     Number       Type             X           Y           Z
 ---------------------------------------------------------------------
      1          6           0        5.553835   -1.847635    1.324729
      2          6           0        4.954588   -1.271213    0.050230
      3          7           0        4.519957    0.117803    0.202268
      4          6           0        3.185817    0.517313    0.135924
      5          8           0        2.850340    1.696920    0.094135
      6          8           0        2.290793   -0.556835    0.114820
      7          6           0        0.885060   -0.474086   -0.055816
      8          6           0        0.177907    0.699469   -0.300224
      9          6           0       -1.212908    0.650379   -0.503628
     10          6           0       -1.903215   -0.555143   -0.390466
     11          6           0       -1.169125   -1.737490   -0.187883
     12          6           0        0.217113   -1.698525   -0.016081
     13          6           0       -3.371110   -0.680846   -0.605552
     14          8           0       -3.739787   -1.686764   -1.226672
     15          7           0       -4.298256    0.272682   -0.130987
     16          6           0       -5.714017   -0.037383   -0.382497
     17          6           0       -6.354846   -0.850160    0.735592
     18          6           0       -4.011071    1.278614    0.904710
     19          6           0       -4.773134    2.588807    0.724246
     20          6           0        5.533306    1.168988    0.172561
     21          6           0        5.799008    1.665542   -1.241694
     22          1           0        5.913786   -2.865857    1.142537
     23          1           0        4.809673   -1.887763    2.126422
     24          1           0        6.400412   -1.253420    1.681956
     25          1           0        4.118762   -1.905138   -0.259975
     26          1           0        5.691381   -1.306133   -0.759568
     27          1           0        0.666716    1.666201   -0.366056
     28          1           0       -1.727085    1.569775   -0.766459
     29          1           0       -1.678369   -2.699320   -0.184972
     30          1           0        0.771606   -2.621451    0.129941
     31          1           0       -5.807613   -0.595521   -1.320841
     32          1           0       -6.266776    0.893092   -0.531816
     33          1           0       -7.410817   -1.027329    0.509897
     34          1           0       -6.301465   -0.325963    1.694352
     35          1           0       -5.863416   -1.820866    0.853602
     36          1           0       -2.949501    1.505028    0.961151
     37          1           0       -4.258066    0.833356    1.874774
     38          1           0       -5.026277    2.786880   -0.321631
     39          1           0       -4.177889    3.431733    1.088812
     40          1           0       -5.702579    2.572164    1.305397
     41          1           0        6.457970    0.802254    0.628968
     42          1           0        5.184613    2.008927    0.785141
     43          1           0        6.286029    0.891021   -1.842358
     44          1           0        6.451787    2.543394   -1.219784
     45          1           0        4.871189    1.945172   -1.751617
 ---------------------------------------------------------------------
 Rotational constants (GHZ):      0.7954414      0.1036064      0.0963051
 Leave Link  202 at Thu Sep 30 23:43:31 2021, MaxMem= 1879048192 cpu:       0.1
 (Enter /sw/target/amd/app/gaussian/Gaussian09RevA.02_gcc-4.9.2/g09/l301.exe)
 Standard basis: 6-31G(d) (6D, 7F)
 Ernie: Thresh=  0.10000D-02 Tol=  0.10000D-05 Strict=F.
 There are   363 symmetry adapted basis functions of A   symmetry.
 Integral buffers will be    131072 words long.
 Raffenetti 2 integral format.
 Two-electron integral symmetry is turned on.
   363 basis functions,   684 primitive gaussians,   363 cartesian basis functions
    79 alpha electrons       79 beta electrons
       nuclear repulsion energy      1646.8904921749 Hartrees.
 IExCor=  402 DFT=T Ex+Corr=B3LYP ExCW=0 ScaHFX=  0.200000
 ScaDFX=  0.800000  0.720000  1.000000  0.810000 ScalE2=  1.000000  1.000000
 IRadAn=      0 IRanWt=     -1 IRanGd=            0 ICorTp=0
 NAtoms=   45 NActive=   45 NUniq=   45 SFac= 7.50D-01 NAtFMM=   80 NAOKFM=F Big=F
 Leave Link  301 at Thu Sep 30 23:43:32 2021, MaxMem= 1879048192 cpu:       0.1
 (Enter /sw/target/amd/app/gaussian/Gaussian09RevA.02_gcc-4.9.2/g09/l302.exe)
 NPDir=0 NMtPBC=     1 NCelOv=     1 NCel=       1 NClECP=     1 NCelD=      1
         NCelK=      1 NCelE2=     1 NClLst=     1 CellRange=     0.0.
 One-electron integrals computed using PRISM.
 NBasis=   363 RedAO= T  NBF=   363
 NBsUse=   363 1.00D-06 NBFU=   363
 Precomputing XC quadrature grid using
 IXCGrd= 2 IRadAn=           0 IRanWt=          -1 IRanGd=           0 AccXCQ= 1.00D-10.
 NRdTot=    2894 NPtTot=      369816 NUsed=      390672 NTot=      390704
 NSgBfM=   355   355   355   355   355 NAtAll=    45    45.
 Leave Link  302 at Thu Sep 30 23:43:38 2021, MaxMem= 1879048192 cpu:       4.9
 (Enter /sw/target/amd/app/gaussian/Gaussian09RevA.02_gcc-4.9.2/g09/l303.exe)
 DipDrv:  MaxL=1.
 Leave Link  303 at Thu Sep 30 23:43:39 2021, MaxMem= 1879048192 cpu:       0.3
 (Enter /sw/target/amd/app/gaussian/Gaussian09RevA.02_gcc-4.9.2/g09/l401.exe)
 Harris functional with IExCor=  402 diagonalized for initial guess.
 ExpMin= 1.61D-01 ExpMax= 5.48D+03 ExpMxC= 8.25D+02 IAcc=1 IRadAn=         1 AccDes= 0.00D+00
 HarFok:  IExCor=  402 AccDes= 0.00D+00 IRadAn=         1 IDoV= 1
 ScaDFX=  1.000000  1.000000  1.000000  1.000000
 FoFCou: FMM=F IPFlag=           0 FMFlag=      100000 FMFlg1=           0
         NFxFlg=           0 DoJE=T BraDBF=F KetDBF=T FulRan=T
         Omega=  0.000000  0.000000  1.000000  0.000000  0.000000 ICntrl=     500 IOpCl=  0
         NMat0=    1 NMatS0=    1 NMatT0=    0 NMatD0=    1 NMtDS0=    0 NMtDT0=    0
         I1Cent=           4 NGrid=           0.
 Petite list used in FoFCou.
 Harris En= -959.529870862495    
 Initial guess orbital symmetries:
       Occupied  (A) (A) (A) (A) (A) (A) (A) (A) (A) (A) (A) (A)
                 (A) (A) (A) (A) (A) (A) (A) (A) (A) (A) (A) (A)
                 (A) (A) (A) (A) (A) (A) (A) (A) (A) (A) (A) (A)
                 (A) (A) (A) (A) (A) (A) (A) (A) (A) (A) (A) (A)
                 (A) (A) (A) (A) (A) (A) (A) (A) (A) (A) (A) (A)
                 (A) (A) (A) (A) (A) (A) (A) (A) (A) (A) (A) (A)
                 (A) (A) (A) (A) (A) (A) (A)
       Virtual   (A) (A) (A) (A) (A) (A) (A) (A) (A) (A) (A) (A)
                 (A) (A) (A) (A) (A) (A) (A) (A) (A) (A) (A) (A)
                 (A) (A) (A) (A) (A) (A) (A) (A) (A) (A) (A) (A)
                 (A) (A) (A) (A) (A) (A) (A) (A) (A) (A) (A) (A)
                 (A) (A) (A) (A) (A) (A) (A) (A) (A) (A) (A) (A)
                 (A) (A) (A) (A) (A) (A) (A) (A) (A) (A) (A) (A)
                 (A) (A) (A) (A) (A) (A) (A) (A) (A) (A) (A) (A)
                 (A) (A) (A) (A) (A) (A) (A) (A) (A) (A) (A) (A)
                 (A) (A) (A) (A) (A) (A) (A) (A) (A) (A) (A) (A)
                 (A) (A) (A) (A) (A) (A) (A) (A) (A) (A) (A) (A)
                 (A) (A) (A) (A) (A) (A) (A) (A) (A) (A) (A) (A)
                 (A) (A) (A) (A) (A) (A) (A) (A) (A) (A) (A) (A)
                 (A) (A) (A) (A) (A) (A) (A) (A) (A) (A) (A) (A)
                 (A) (A) (A) (A) (A) (A) (A) (A) (A) (A) (A) (A)
                 (A) (A) (A) (A) (A) (A) (A) (A) (A) (A) (A) (A)
                 (A) (A) (A) (A) (A) (A) (A) (A) (A) (A) (A) (A)
                 (A) (A) (A) (A) (A) (A) (A) (A) (A) (A) (A) (A)
                 (A) (A) (A) (A) (A) (A) (A) (A) (A) (A) (A) (A)
                 (A) (A) (A) (A) (A) (A) (A) (A) (A) (A) (A) (A)
                 (A) (A) (A) (A) (A) (A) (A) (A) (A) (A) (A) (A)
                 (A) (A) (A) (A) (A) (A) (A) (A) (A) (A) (A) (A)
                 (A) (A) (A) (A) (A) (A) (A) (A) (A) (A) (A) (A)
                 (A) (A) (A) (A) (A) (A) (A) (A) (A) (A) (A) (A)
                 (A) (A) (A) (A) (A) (A) (A) (A)
 The electronic state of the initial guess is 1-A.
 Leave Link  401 at Thu Sep 30 23:43:55 2021, MaxMem= 1879048192 cpu:      18.2
 (Enter /sw/target/amd/app/gaussian/Gaussian09RevA.02_gcc-4.9.2/g09/l502.exe)
 Closed shell SCF:
 Requested convergence on RMS density matrix=1.00D-08 within  64 cycles.
 Requested convergence on MAX density matrix=1.00D-06.
 Requested convergence on             energy=1.00D-06.
 No special actions if energy rises.
 Using DIIS extrapolation, IDIIS=  1040.
 Integral symmetry usage will be decided dynamically.
       390254 words used for storage of precomputed grid.
 IEnd=      796403 IEndB=      796403 NGot=  1879048192 MDV=  1878388146
 LenX=  1878388146 LenY=  1878255936
 Fock matrices will be formed incrementally for  20 cycles.
 Integral accuracy reduced to 1.0D-05 until final iterations.

 Cycle   1  Pass 0  IDiag  1:
 FoFCou: FMM=F IPFlag=           0 FMFlag=      100000 FMFlg1=           0
         NFxFlg=           0 DoJE=F BraDBF=F KetDBF=F FulRan=T
         Omega=  0.000000  0.000000  1.000000  0.000000  0.000000 ICntrl=       0 IOpCl=  0
         NMat0=    1 NMatS0=    1 NMatT0=    0 NMatD0=    1 NMtDS0=    0 NMtDT0=    0
         I1Cent=           0 NGrid=           0.
 Symmetry not used in FoFCou.
 E= -958.697445070469    
 DIIS: error= 2.46D-02 at cycle   1 NSaved=   1.
 NSaved= 1 IEnMin= 1 EnMin= -958.697445070469     IErMin= 1 ErrMin= 2.46D-02
 ErrMax= 2.46D-02 EMaxC= 1.00D-01 BMatC= 6.84D-01 BMatP= 6.84D-01
 IDIUse=3 WtCom= 7.54D-01 WtEn= 2.46D-01
 Coeff-Com:  0.100D+01
 Coeff-En:   0.100D+01
 Coeff:      0.100D+01
 Gap=     0.219 Goal=   None    Shift=    0.000
 GapD=    0.219 DampG=1.000 DampE=0.500 DampFc=0.5000 IDamp=-1.
 Damping current iteration by 5.00D-01
 RMSDP=5.13D-03 MaxDP=2.27D-01              OVMax= 2.99D-01

 Cycle   2  Pass 0  IDiag  1:
 RMSU=  1.80D-03    CP:  9.79D-01
 E= -958.908116170445     Delta-E=       -0.210671099976 Rises=F Damp=T
 DIIS: error= 1.21D-02 at cycle   2 NSaved=   2.
 NSaved= 2 IEnMin= 2 EnMin= -958.908116170445     IErMin= 2 ErrMin= 1.21D-02
 ErrMax= 1.21D-02 EMaxC= 1.00D-01 BMatC= 9.73D-02 BMatP= 6.84D-01
 IDIUse=3 WtCom= 8.79D-01 WtEn= 1.21D-01
 Coeff-Com:  0.202D+00 0.798D+00
 Coeff-En:   0.298D+00 0.702D+00
 Coeff:      0.213D+00 0.787D+00
 Gap=     0.235 Goal=   None    Shift=    0.000
 RMSDP=1.60D-03 MaxDP=7.89D-02 DE=-2.11D-01 OVMax= 2.01D-01

 Cycle   3  Pass 0  IDiag  1:
 RMSU=  1.04D-03    CP:  9.71D-01  7.61D-01
 E= -959.261958853867     Delta-E=       -0.353842683422 Rises=F Damp=F
 DIIS: error= 1.69D-02 at cycle   3 NSaved=   3.
 NSaved= 3 IEnMin= 3 EnMin= -959.261958853867     IErMin= 2 ErrMin= 1.21D-02
 ErrMax= 1.69D-02 EMaxC= 1.00D-01 BMatC= 1.12D-01 BMatP= 9.73D-02
 IDIUse=2 WtCom= 0.00D+00 WtEn= 1.00D+00
 Coeff-En:   0.000D+00 0.000D+00 0.100D+01
 Coeff:      0.000D+00 0.000D+00 0.100D+01
 Gap=     0.237 Goal=   None    Shift=    0.000
 RMSDP=2.94D-03 MaxDP=1.69D-01 DE=-3.54D-01 OVMax= 3.32D-01

 Cycle   4  Pass 0  IDiag  1:
 RMSU=  8.87D-04    CP:  9.83D-01  1.19D+00 -6.38D-01
 E= -958.795540757651     Delta-E=        0.466418096216 Rises=F Damp=F
 DIIS: error= 3.67D-02 at cycle   4 NSaved=   4.
 NSaved= 4 IEnMin= 3 EnMin= -959.261958853867     IErMin= 2 ErrMin= 1.21D-02
 ErrMax= 3.67D-02 EMaxC= 1.00D-01 BMatC= 6.94D-01 BMatP= 9.73D-02
 IDIUse=2 WtCom= 0.00D+00 WtEn= 1.00D+00
 Coeff-En:   0.000D+00 0.000D+00 0.802D+00 0.198D+00
 Coeff:      0.000D+00 0.000D+00 0.802D+00 0.198D+00
 Gap=     0.181 Goal=   None    Shift=    0.000
 RMSDP=1.63D-03 MaxDP=1.11D-01 DE= 4.66D-01 OVMax= 1.48D-01

 Cycle   5  Pass 0  IDiag  1:
 RMSU=  2.01D-04    CP:  9.79D-01  8.75D-01  1.93D-01  4.80D-01
 E= -959.316903573831     Delta-E=       -0.521362816180 Rises=F Damp=F
 DIIS: error= 1.06D-02 at cycle   5 NSaved=   5.
 NSaved= 5 IEnMin= 5 EnMin= -959.316903573831     IErMin= 5 ErrMin= 1.06D-02
 ErrMax= 1.06D-02 EMaxC= 1.00D-01 BMatC= 4.89D-02 BMatP= 9.73D-02
 IDIUse=3 WtCom= 8.94D-01 WtEn= 1.06D-01
 Coeff-Com: -0.597D-02 0.498D-01 0.320D+00-0.776D-01 0.713D+00
 Coeff-En:   0.000D+00 0.000D+00 0.341D+00 0.000D+00 0.659D+00
 Coeff:     -0.534D-02 0.445D-01 0.323D+00-0.694D-01 0.708D+00
 Gap=     0.201 Goal=   None    Shift=    0.000
 RMSDP=5.63D-04 MaxDP=3.14D-02 DE=-5.21D-01 OVMax= 4.34D-02

 Cycle   6  Pass 0  IDiag  1:
 RMSU=  7.53D-05    CP:  9.77D-01  8.24D-01  5.12D-01  2.87D-01  7.36D-01
 E= -959.356796055811     Delta-E=       -0.039892481980 Rises=F Damp=F
 DIIS: error= 1.04D-03 at cycle   6 NSaved=   6.
 NSaved= 6 IEnMin= 6 EnMin= -959.356796055811     IErMin= 6 ErrMin= 1.04D-03
 ErrMax= 1.04D-03 EMaxC= 1.00D-01 BMatC= 6.51D-04 BMatP= 4.89D-02
 IDIUse=3 WtCom= 9.90D-01 WtEn= 1.04D-02
 Coeff-Com: -0.745D-02 0.277D-01 0.173D+00-0.663D-01 0.482D+00 0.390D+00
 Coeff-En:   0.000D+00 0.000D+00 0.000D+00 0.000D+00 0.000D+00 0.100D+01
 Coeff:     -0.737D-02 0.274D-01 0.172D+00-0.656D-01 0.477D+00 0.397D+00
 Gap=     0.199 Goal=   None    Shift=    0.000
 RMSDP=7.00D-05 MaxDP=4.18D-03 DE=-3.99D-02 OVMax= 5.49D-03

 Cycle   7  Pass 0  IDiag  1:
 RMSU=  2.23D-05    CP:  9.76D-01  8.27D-01  5.04D-01  2.86D-01  8.04D-01
                    CP:  4.61D-01
 E= -959.357312174080     Delta-E=       -0.000516118269 Rises=F Damp=F
 DIIS: error= 2.78D-04 at cycle   7 NSaved=   7.
 NSaved= 7 IEnMin= 7 EnMin= -959.357312174080     IErMin= 7 ErrMin= 2.78D-04
 ErrMax= 2.78D-04 EMaxC= 1.00D-01 BMatC= 2.46D-05 BMatP= 6.51D-04
 IDIUse=3 WtCom= 9.97D-01 WtEn= 2.78D-03
 Coeff-Com: -0.192D-02 0.517D-02 0.495D-01-0.197D-01 0.138D+00 0.184D+00
 Coeff-Com:  0.646D+00
 Coeff-En:   0.000D+00 0.000D+00 0.000D+00 0.000D+00 0.000D+00 0.000D+00
 Coeff-En:   0.100D+01
 Coeff:     -0.191D-02 0.516D-02 0.493D-01-0.196D-01 0.137D+00 0.183D+00
 Coeff:      0.647D+00
 Gap=     0.199 Goal=   None    Shift=    0.000
 RMSDP=1.72D-05 MaxDP=1.01D-03 DE=-5.16D-04 OVMax= 1.26D-03

 Cycle   8  Pass 0  IDiag  1:
 RMSU=  7.70D-06    CP:  9.76D-01  8.26D-01  5.07D-01  2.86D-01  7.98D-01
                    CP:  5.04D-01  6.53D-01
 E= -959.357328640857     Delta-E=       -0.000016466776 Rises=F Damp=F
 DIIS: error= 1.12D-04 at cycle   8 NSaved=   8.
 NSaved= 8 IEnMin= 8 EnMin= -959.357328640857     IErMin= 8 ErrMin= 1.12D-04
 ErrMax= 1.12D-04 EMaxC= 1.00D-01 BMatC= 6.37D-06 BMatP= 2.46D-05
 IDIUse=3 WtCom= 9.99D-01 WtEn= 1.12D-03
 Coeff-Com: -0.312D-03-0.588D-04 0.134D-01-0.530D-02 0.352D-01 0.752D-01
 Coeff-Com:  0.433D+00 0.449D+00
 Coeff-En:   0.000D+00 0.000D+00 0.000D+00 0.000D+00 0.000D+00 0.000D+00
 Coeff-En:   0.166D+00 0.834D+00
 Coeff:     -0.312D-03-0.587D-04 0.134D-01-0.530D-02 0.352D-01 0.751D-01
 Coeff:      0.432D+00 0.450D+00
 Gap=     0.199 Goal=   None    Shift=    0.000
 RMSDP=7.05D-06 MaxDP=3.78D-04 DE=-1.65D-05 OVMax= 6.46D-04

 Initial convergence to 1.0D-05 achieved.  Increase integral accuracy.
 Cycle   9  Pass 1  IDiag  1:
 E= -959.357406973189     Delta-E=       -0.000078332332 Rises=F Damp=F
 DIIS: error= 5.03D-05 at cycle   1 NSaved=   1.
 NSaved= 1 IEnMin= 1 EnMin= -959.357406973189     IErMin= 1 ErrMin= 5.03D-05
 ErrMax= 5.03D-05 EMaxC= 1.00D-01 BMatC= 4.55D-07 BMatP= 4.55D-07
 IDIUse=1 WtCom= 1.00D+00 WtEn= 0.00D+00
 Coeff-Com:  0.100D+01
 Coeff:      0.100D+01
 Gap=     0.199 Goal=   None    Shift=    0.000
 RMSDP=7.05D-06 MaxDP=3.78D-04 DE=-7.83D-05 OVMax= 3.21D-04

 Cycle  10  Pass 1  IDiag  1:
 RMSU=  1.16D-05    CP:  1.00D+00
 E= -959.357406708654     Delta-E=        0.000000264535 Rises=F Damp=F
 DIIS: error= 5.17D-05 at cycle   2 NSaved=   2.
 NSaved= 2 IEnMin= 1 EnMin= -959.357406973189     IErMin= 1 ErrMin= 5.03D-05
 ErrMax= 5.17D-05 EMaxC= 1.00D-01 BMatC= 8.82D-07 BMatP= 4.55D-07
 IDIUse=1 WtCom= 1.00D+00 WtEn= 0.00D+00
 Coeff-Com:  0.597D+00 0.403D+00
 Coeff:      0.597D+00 0.403D+00
 Gap=     0.199 Goal=   None    Shift=    0.000
 RMSDP=2.85D-06 MaxDP=2.11D-04 DE= 2.65D-07 OVMax= 2.85D-04

 Cycle  11  Pass 1  IDiag  1:
 RMSU=  1.98D-06    CP:  1.00D+00  9.70D-01
 E= -959.357407370891     Delta-E=       -0.000000662237 Rises=F Damp=F
 DIIS: error= 1.58D-05 at cycle   3 NSaved=   3.
 NSaved= 3 IEnMin= 3 EnMin= -959.357407370891     IErMin= 3 ErrMin= 1.58D-05
 ErrMax= 1.58D-05 EMaxC= 1.00D-01 BMatC= 7.26D-08 BMatP= 4.55D-07
 IDIUse=1 WtCom= 1.00D+00 WtEn= 0.00D+00
 Coeff-Com:  0.703D-01 0.223D+00 0.706D+00
 Coeff:      0.703D-01 0.223D+00 0.706D+00
 Gap=     0.199 Goal=   None    Shift=    0.000
 RMSDP=8.87D-07 MaxDP=6.07D-05 DE=-6.62D-07 OVMax= 7.35D-05

 Cycle  12  Pass 1  IDiag  1:
 RMSU=  3.95D-07    CP:  1.00D+00  9.84D-01  7.69D-01
 E= -959.357407417431     Delta-E=       -0.000000046540 Rises=F Damp=F
 DIIS: error= 4.27D-06 at cycle   4 NSaved=   4.
 NSaved= 4 IEnMin= 4 EnMin= -959.357407417431     IErMin= 4 ErrMin= 4.27D-06
 ErrMax= 4.27D-06 EMaxC= 1.00D-01 BMatC= 1.68D-08 BMatP= 7.26D-08
 IDIUse=1 WtCom= 1.00D+00 WtEn= 0.00D+00
 Coeff-Com: -0.288D-02 0.111D+00 0.458D+00 0.433D+00
 Coeff:     -0.288D-02 0.111D+00 0.458D+00 0.433D+00
 Gap=     0.199 Goal=   None    Shift=    0.000
 RMSDP=3.31D-07 MaxDP=2.00D-05 DE=-4.65D-08 OVMax= 2.30D-05

 Cycle  13  Pass 1  IDiag  1:
 RMSU=  1.20D-07    CP:  1.00D+00  9.86D-01  7.94D-01  5.10D-01
 E= -959.357407430176     Delta-E=       -0.000000012746 Rises=F Damp=F
 DIIS: error= 1.09D-06 at cycle   5 NSaved=   5.
 NSaved= 5 IEnMin= 5 EnMin= -959.357407430176     IErMin= 5 ErrMin= 1.09D-06
 ErrMax= 1.09D-06 EMaxC= 1.00D-01 BMatC= 7.78D-10 BMatP= 1.68D-08
 IDIUse=1 WtCom= 1.00D+00 WtEn= 0.00D+00
 Coeff-Com: -0.586D-02 0.519D-01 0.230D+00 0.259D+00 0.466D+00
 Coeff:     -0.586D-02 0.519D-01 0.230D+00 0.259D+00 0.466D+00
 Gap=     0.199 Goal=   None    Shift=    0.000
 RMSDP=9.38D-08 MaxDP=4.23D-06 DE=-1.27D-08 OVMax= 7.18D-06

 Cycle  14  Pass 1  IDiag  1:
 RMSU=  4.28D-08    CP:  1.00D+00  9.86D-01  7.95D-01  5.31D-01  5.86D-01
 E= -959.357407430880     Delta-E=       -0.000000000704 Rises=F Damp=F
 DIIS: error= 4.47D-07 at cycle   6 NSaved=   6.
 NSaved= 6 IEnMin= 6 EnMin= -959.357407430880     IErMin= 6 ErrMin= 4.47D-07
 ErrMax= 4.47D-07 EMaxC= 1.00D-01 BMatC= 7.36D-11 BMatP= 7.78D-10
 IDIUse=1 WtCom= 1.00D+00 WtEn= 0.00D+00
 Coeff-Com: -0.319D-02 0.208D-01 0.960D-01 0.115D+00 0.283D+00 0.488D+00
 Coeff:     -0.319D-02 0.208D-01 0.960D-01 0.115D+00 0.283D+00 0.488D+00
 Gap=     0.199 Goal=   None    Shift=    0.000
 RMSDP=2.70D-08 MaxDP=1.36D-06 DE=-7.04D-10 OVMax= 2.43D-06

 Cycle  15  Pass 1  IDiag  1:
 RMSU=  1.36D-08    CP:  1.00D+00  9.86D-01  7.95D-01  5.27D-01  6.42D-01
                    CP:  7.35D-01
 E= -959.357407430931     Delta-E=       -0.000000000051 Rises=F Damp=F
 DIIS: error= 9.78D-08 at cycle   7 NSaved=   7.
 NSaved= 7 IEnMin= 7 EnMin= -959.357407430931     IErMin= 7 ErrMin= 9.78D-08
 ErrMax= 9.78D-08 EMaxC= 1.00D-01 BMatC= 6.44D-12 BMatP= 7.36D-11
 IDIUse=1 WtCom= 1.00D+00 WtEn= 0.00D+00
 Coeff-Com: -0.116D-02 0.564D-02 0.280D-01 0.358D-01 0.106D+00 0.275D+00
 Coeff-Com:  0.551D+00
 Coeff:     -0.116D-02 0.564D-02 0.280D-01 0.358D-01 0.106D+00 0.275D+00
 Coeff:      0.551D+00
 Gap=     0.199 Goal=   None    Shift=    0.000
 RMSDP=8.16D-09 MaxDP=4.04D-07 DE=-5.09D-11 OVMax= 7.71D-07

 SCF Done:  E(RB3LYP) =  -959.357407431     A.U. after   15 cycles
             Convg  =    0.8158D-08             -V/T =  2.0098
 KE= 9.500125093860D+02 PE=-5.524689224280D+03 EE= 1.968428815288D+03
 Leave Link  502 at Thu Sep 30 23:51:46 2021, MaxMem= 1879048192 cpu:     657.6
 (Enter /sw/target/amd/app/gaussian/Gaussian09RevA.02_gcc-4.9.2/g09/l508.exe)
 QCSCF skips out because SCF is already converged.
 Leave Link  508 at Thu Sep 30 23:51:46 2021, MaxMem= 1879048192 cpu:       0.0
 (Enter /sw/target/amd/app/gaussian/Gaussian09RevA.02_gcc-4.9.2/g09/l601.exe)
 Copying SCF densities to generalized density rwf, IOpCl= 0 IROHF=0.

 **********************************************************************

            Population analysis using the SCF density.

 **********************************************************************

 Orbital symmetries:
       Occupied  (A) (A) (A) (A) (A) (A) (A) (A) (A) (A) (A) (A)
                 (A) (A) (A) (A) (A) (A) (A) (A) (A) (A) (A) (A)
                 (A) (A) (A) (A) (A) (A) (A) (A) (A) (A) (A) (A)
                 (A) (A) (A) (A) (A) (A) (A) (A) (A) (A) (A) (A)
                 (A) (A) (A) (A) (A) (A) (A) (A) (A) (A) (A) (A)
                 (A) (A) (A) (A) (A) (A) (A) (A) (A) (A) (A) (A)
                 (A) (A) (A) (A) (A) (A) (A)
       Virtual   (A) (A) (A) (A) (A) (A) (A) (A) (A) (A) (A) (A)
                 (A) (A) (A) (A) (A) (A) (A) (A) (A) (A) (A) (A)
                 (A) (A) (A) (A) (A) (A) (A) (A) (A) (A) (A) (A)
                 (A) (A) (A) (A) (A) (A) (A) (A) (A) (A) (A) (A)
                 (A) (A) (A) (A) (A) (A) (A) (A) (A) (A) (A) (A)
                 (A) (A) (A) (A) (A) (A) (A) (A) (A) (A) (A) (A)
                 (A) (A) (A) (A) (A) (A) (A) (A) (A) (A) (A) (A)
                 (A) (A) (A) (A) (A) (A) (A) (A) (A) (A) (A) (A)
                 (A) (A) (A) (A) (A) (A) (A) (A) (A) (A) (A) (A)
                 (A) (A) (A) (A) (A) (A) (A) (A) (A) (A) (A) (A)
                 (A) (A) (A) (A) (A) (A) (A) (A) (A) (A) (A) (A)
                 (A) (A) (A) (A) (A) (A) (A) (A) (A) (A) (A) (A)
                 (A) (A) (A) (A) (A) (A) (A) (A) (A) (A) (A) (A)
                 (A) (A) (A) (A) (A) (A) (A) (A) (A) (A) (A) (A)
                 (A) (A) (A) (A) (A) (A) (A) (A) (A) (A) (A) (A)
                 (A) (A) (A) (A) (A) (A) (A) (A) (A) (A) (A) (A)
                 (A) (A) (A) (A) (A) (A) (A) (A) (A) (A) (A) (A)
                 (A) (A) (A) (A) (A) (A) (A) (A) (A) (A) (A) (A)
                 (A) (A) (A) (A) (A) (A) (A) (A) (A) (A) (A) (A)
                 (A) (A) (A) (A) (A) (A) (A) (A) (A) (A) (A) (A)
                 (A) (A) (A) (A) (A) (A) (A) (A) (A) (A) (A) (A)
                 (A) (A) (A) (A) (A) (A) (A) (A) (A) (A) (A) (A)
                 (A) (A) (A) (A) (A) (A) (A) (A) (A) (A) (A) (A)
                 (A) (A) (A) (A) (A) (A) (A) (A)
 The electronic state is 1-A.
 Alpha  occ. eigenvalues --  -19.20207 -19.12359 -19.10163 -14.36969 -14.35672
 Alpha  occ. eigenvalues --  -10.34286 -10.27972 -10.26240 -10.22751 -10.22418
 Alpha  occ. eigenvalues --  -10.22226 -10.20981 -10.19816 -10.19750 -10.19603
 Alpha  occ. eigenvalues --  -10.19542 -10.19001 -10.18574 -10.18511 -10.17822
 Alpha  occ. eigenvalues --  -10.17259  -1.09572  -1.01665  -1.01430  -0.93900
 Alpha  occ. eigenvalues --   -0.91803  -0.85794  -0.77758  -0.77209  -0.76500
 Alpha  occ. eigenvalues --   -0.74973  -0.74480  -0.73304  -0.66948  -0.64523
 Alpha  occ. eigenvalues --   -0.64253  -0.63098  -0.61830  -0.60586  -0.56298
 Alpha  occ. eigenvalues --   -0.54529  -0.53214  -0.51969  -0.49716  -0.48455
 Alpha  occ. eigenvalues --   -0.47379  -0.46369  -0.45945  -0.44822  -0.44508
 Alpha  occ. eigenvalues --   -0.43987  -0.43526  -0.43490  -0.42290  -0.42189
 Alpha  occ. eigenvalues --   -0.41540  -0.41030  -0.40067  -0.39480  -0.38894
 Alpha  occ. eigenvalues --   -0.38182  -0.37844  -0.37598  -0.37404  -0.36883
 Alpha  occ. eigenvalues --   -0.36240  -0.36022  -0.35321  -0.35115  -0.34990
 Alpha  occ. eigenvalues --   -0.34512  -0.33630  -0.32115  -0.27150  -0.25511
 Alpha  occ. eigenvalues --   -0.25132  -0.24279  -0.22911  -0.22481
 Alpha virt. eigenvalues --   -0.02569  -0.00657   0.03679   0.06230   0.07401
 Alpha virt. eigenvalues --    0.07838   0.09003   0.11300   0.11561   0.11679
 Alpha virt. eigenvalues --    0.12592   0.13528   0.13730   0.14426   0.14916
 Alpha virt. eigenvalues --    0.15112   0.15419   0.15834   0.16112   0.16619
 Alpha virt. eigenvalues --    0.16679   0.17542   0.17624   0.18375   0.18734
 Alpha virt. eigenvalues --    0.19020   0.19530   0.19659   0.20575   0.20802
 Alpha virt. eigenvalues --    0.21371   0.22235   0.22595   0.23127   0.24292
 Alpha virt. eigenvalues --    0.24452   0.25091   0.26182   0.26663   0.27890
 Alpha virt. eigenvalues --    0.30737   0.31718   0.32780   0.33344   0.36217
 Alpha virt. eigenvalues --    0.37839   0.38515   0.44145   0.46809   0.47331
 Alpha virt. eigenvalues --    0.48399   0.49424   0.50343   0.50971   0.51488
 Alpha virt. eigenvalues --    0.52505   0.52673   0.53506   0.53798   0.54199
 Alpha virt. eigenvalues --    0.54942   0.56262   0.56857   0.57121   0.57498
 Alpha virt. eigenvalues --    0.57944   0.58533   0.58972   0.60210   0.60526
 Alpha virt. eigenvalues --    0.61113   0.61261   0.62469   0.62688   0.63384
 Alpha virt. eigenvalues --    0.64597   0.64901   0.65996   0.66137   0.67279
 Alpha virt. eigenvalues --    0.69143   0.69686   0.71255   0.72333   0.72715
 Alpha virt. eigenvalues --    0.74214   0.76029   0.78030   0.78325   0.79681
 Alpha virt. eigenvalues --    0.80417   0.81319   0.81787   0.82589   0.83354
 Alpha virt. eigenvalues --    0.84047   0.84675   0.84776   0.84949   0.85481
 Alpha virt. eigenvalues --    0.86554   0.87577   0.88063   0.88548   0.88632
 Alpha virt. eigenvalues --    0.89721   0.90321   0.90994   0.91262   0.91608
 Alpha virt. eigenvalues --    0.91980   0.92654   0.93577   0.94777   0.95459
 Alpha virt. eigenvalues --    0.96158   0.96704   0.97234   0.97593   0.98716
 Alpha virt. eigenvalues --    0.98901   1.00141   1.00609   1.01985   1.02182
 Alpha virt. eigenvalues --    1.03219   1.04125   1.05619   1.06898   1.08246
 Alpha virt. eigenvalues --    1.08638   1.10247   1.11751   1.12609   1.15033
 Alpha virt. eigenvalues --    1.16692   1.18834   1.19824   1.20770   1.21684
 Alpha virt. eigenvalues --    1.23381   1.26138   1.26961   1.29746   1.30766
 Alpha virt. eigenvalues --    1.33693   1.34995   1.35746   1.37346   1.38423
 Alpha virt. eigenvalues --    1.40002   1.40900   1.42123   1.44166   1.44829
 Alpha virt. eigenvalues --    1.46739   1.47075   1.48857   1.52001   1.52418
 Alpha virt. eigenvalues --    1.53325   1.57822   1.59874   1.61125   1.62086
 Alpha virt. eigenvalues --    1.66342   1.67827   1.70157   1.72105   1.74432
 Alpha virt. eigenvalues --    1.75332   1.76298   1.76801   1.77398   1.78947
 Alpha virt. eigenvalues --    1.80165   1.80630   1.82147   1.83245   1.83850
 Alpha virt. eigenvalues --    1.83925   1.85870   1.87142   1.88619   1.89561
 Alpha virt. eigenvalues --    1.90925   1.91660   1.92709   1.93229   1.94510
 Alpha virt. eigenvalues --    1.94757   1.95477   1.96299   1.96859   1.98347
 Alpha virt. eigenvalues --    1.99121   1.99424   2.01096   2.02244   2.02702
 Alpha virt. eigenvalues --    2.05045   2.06132   2.07881   2.09277   2.10396
 Alpha virt. eigenvalues --    2.11593   2.12335   2.13531   2.13694   2.14223
 Alpha virt. eigenvalues --    2.15275   2.17593   2.18811   2.21254   2.22567
 Alpha virt. eigenvalues --    2.25986   2.27362   2.28641   2.29482   2.29829
 Alpha virt. eigenvalues --    2.31439   2.32235   2.33241   2.33515   2.34942
 Alpha virt. eigenvalues --    2.35719   2.37007   2.38618   2.39168   2.40678
 Alpha virt. eigenvalues --    2.42468   2.44095   2.45076   2.49911   2.53527
 Alpha virt. eigenvalues --    2.55673   2.56210   2.57685   2.58814   2.59176
 Alpha virt. eigenvalues --    2.61638   2.61757   2.64426   2.65260   2.66992
 Alpha virt. eigenvalues --    2.68061   2.68868   2.71308   2.73573   2.75670
 Alpha virt. eigenvalues --    2.76998   2.79641   2.80535   2.87411   2.91168
 Alpha virt. eigenvalues --    2.93593   2.97249   2.99831   3.13126   3.14632
 Alpha virt. eigenvalues --    3.18880   3.30810   3.44223   4.00455   4.01832
 Alpha virt. eigenvalues --    4.07075   4.09563   4.11196   4.14554   4.17472
 Alpha virt. eigenvalues --    4.19367   4.21437   4.23378   4.25599   4.33687
 Alpha virt. eigenvalues --    4.36832   4.42065   4.43315   4.45711   4.47204
 Alpha virt. eigenvalues --    4.48865   4.55073   4.57526   4.77282
          Condensed to atoms (all electrons):
              1          2          3          4          5          6
     1  C    5.120305   0.369713  -0.063402   0.000312  -0.000052  -0.000399
     2  C    0.369713   4.897120   0.287685  -0.026934   0.002081  -0.002992
     3  N   -0.063402   0.287685   6.974165   0.332987  -0.087511  -0.084467
     4  C    0.000312  -0.026934   0.332987   4.154124   0.521843   0.261621
     5  O   -0.000052   0.002081  -0.087511   0.521843   8.114859  -0.066914
     6  O   -0.000399  -0.002992  -0.084467   0.261621  -0.066914   8.330876
     7  C    0.000003   0.000199   0.001736  -0.012246  -0.005182   0.220455
     8  C    0.000000  -0.000029   0.000371  -0.000420  -0.004778  -0.050318
     9  C    0.000000  -0.000000   0.000004   0.000435   0.000684   0.003101
    10  C    0.000000   0.000000  -0.000000  -0.000003  -0.000006   0.000072
    11  C   -0.000000  -0.000000   0.000001  -0.000033   0.000001   0.002992
    12  C   -0.000000  -0.000003  -0.000255   0.001662   0.000218  -0.047833
    13  C    0.000000  -0.000000  -0.000000  -0.000000   0.000000   0.000000
    14  O   -0.000000   0.000000   0.000000  -0.000000  -0.000000  -0.000000
    15  N    0.000000  -0.000000  -0.000000  -0.000000  -0.000000  -0.000000
    16  C    0.000000   0.000000   0.000000   0.000000   0.000000   0.000000
    17  C   -0.000000   0.000000   0.000000   0.000000  -0.000000  -0.000000
    18  C   -0.000000   0.000000   0.000000   0.000000   0.000000   0.000000
    19  C   -0.000000   0.000000  -0.000000  -0.000000  -0.000000   0.000000
    20  C   -0.004963  -0.041315   0.295075  -0.027852   0.003068   0.002559
    21  C   -0.000155  -0.002736  -0.061400  -0.003321  -0.004025  -0.000129
    22  H    0.358564  -0.027089   0.004490  -0.000030   0.000000  -0.000004
    23  H    0.374608  -0.031519  -0.000150   0.001010  -0.000018   0.000547
    24  H    0.378202  -0.034392  -0.003485  -0.000029  -0.000001  -0.000011
    25  H   -0.038897   0.377335  -0.028412  -0.006370   0.000151   0.011875
    26  H   -0.053694   0.376224  -0.048919   0.002046  -0.000032   0.000331
    27  H    0.000000  -0.000010   0.000164  -0.000366   0.021242  -0.006612
    28  H   -0.000000   0.000000  -0.000000  -0.000007  -0.000002  -0.000042
    29  H    0.000000   0.000000  -0.000000   0.000000  -0.000000  -0.000048
    30  H   -0.000003  -0.000034  -0.000015   0.000060   0.000010  -0.000883
    31  H    0.000000  -0.000000  -0.000000  -0.000000   0.000000   0.000000
    32  H   -0.000000  -0.000000  -0.000000  -0.000000  -0.000000  -0.000000
    33  H    0.000000   0.000000   0.000000  -0.000000  -0.000000   0.000000
[...]

   136    C   10  S      Cor( 1S)     1.99888
   137    C   10  S      Val( 2S)     0.87949
   138    C   10  S      Ryd( 3S)     0.00086
   139    C   10  S      Ryd( 4S)     0.00005
   140    C   10  px     Val( 2p)     1.01869
   141    C   10  px     Ryd( 3p)     0.00478
   142    C   10  py     Val( 2p)     1.11950
   143    C   10  py     Ryd( 3p)     0.00446
   144    C   10  pz     Val( 2p)     1.18102
   145    C   10  pz     Ryd( 3p)     0.00347
   146    C   10  dxy    Ryd( 3d)     0.00051
   147    C   10  dxz    Ryd( 3d)     0.00075
   148    C   10  dyz    Ryd( 3d)     0.00049
   149    C   10  dx2y2  Ryd( 3d)     0.00079
   150    C   10  dz2    Ryd( 3d)     0.00049

   151    C   11  S      Cor( 1S)     1.99905
   152    C   11  S      Val( 2S)     0.94295
   153    C   11  S      Ryd( 3S)     0.00063
   154    C   11  S      Ryd( 4S)     0.00005
   155    C   11  px     Val( 2p)     1.09511
   156    C   11  px     Ryd( 3p)     0.00385
   157    C   11  py     Val( 2p)     1.14053
   158    C   11  py     Ryd( 3p)     0.00454
   159    C   11  pz     Val( 2p)     1.04035
   160    C   11  pz     Ryd( 3p)     0.00252
   161    C   11  dxy    Ryd( 3d)     0.00081
   162    C   11  dxz    Ryd( 3d)     0.00069
   163    C   11  dyz    Ryd( 3d)     0.00046
   164    C   11  dx2y2  Ryd( 3d)     0.00053
   165    C   11  dz2    Ryd( 3d)     0.00043

   166    C   12  S      Cor( 1S)     1.99902
   167    C   12  S      Val( 2S)     0.95786
   168    C   12  S      Ryd( 3S)     0.00075
   169    C   12  S      Ryd( 4S)     0.00005
   170    C   12  px     Val( 2p)     1.10090
   171    C   12  px     Ryd( 3p)     0.00487
   172    C   12  py     Val( 2p)     1.14306
   173    C   12  py     Ryd( 3p)     0.00410
   174    C   12  pz     Val( 2p)     1.04965
   175    C   12  pz     Ryd( 3p)     0.00180
   176    C   12  dxy    Ryd( 3d)     0.00078
   177    C   12  dxz    Ryd( 3d)     0.00071
   178    C   12  dyz    Ryd( 3d)     0.00052
   179    C   12  dx2y2  Ryd( 3d)     0.00053
   180    C   12  dz2    Ryd( 3d)     0.00043

   181    C   13  S      Cor( 1S)     1.99925
   182    C   13  S      Val( 2S)     0.76971
   183    C   13  S      Ryd( 3S)     0.00440
   184    C   13  S      Ryd( 4S)     0.00033
   185    C   13  px     Val( 2p)     0.94890
   186    C   13  px     Ryd( 3p)     0.00613
   187    C   13  py     Val( 2p)     0.74996
   188    C   13  py     Ryd( 3p)     0.01303
   189    C   13  pz     Val( 2p)     0.92703
   190    C   13  pz     Ryd( 3p)     0.00528
   191    C   13  dxy    Ryd( 3d)     0.00162
   192    C   13  dxz    Ryd( 3d)     0.00163
   193    C   13  dyz    Ryd( 3d)     0.00166
   194    C   13  dx2y2  Ryd( 3d)     0.00166
   195    C   13  dz2    Ryd( 3d)     0.00106

   196    O   14  S      Cor( 1S)     1.99982
   197    O   14  S      Val( 2S)     1.71367
   198    O   14  S      Ryd( 3S)     0.00023
   199    O   14  S      Ryd( 4S)     0.00000
   200    O   14  px     Val( 2p)     1.22074
   201    O   14  px     Ryd( 3p)     0.00105
   202    O   14  py     Val( 2p)     1.58358
   203    O   14  py     Ryd( 3p)     0.00052
   204    O   14  pz     Val( 2p)     1.75400
   205    O   14  pz     Ryd( 3p)     0.00241
   206    O   14  dxy    Ryd( 3d)     0.00291
   207    O   14  dxz    Ryd( 3d)     0.00111
   208    O   14  dyz    Ryd( 3d)     0.00375
   209    O   14  dx2y2  Ryd( 3d)     0.00321
   210    O   14  dz2    Ryd( 3d)     0.00203

   211    N   15  S      Cor( 1S)     1.99932
   212    N   15  S      Val( 2S)     1.20480
   213    N   15  S      Ryd( 3S)     0.00098
   214    N   15  S      Ryd( 4S)     0.00003
   215    N   15  px     Val( 2p)     1.28674
   216    N   15  px     Ryd( 3p)     0.00148
   217    N   15  py     Val( 2p)     1.37170
   218    N   15  py     Ryd( 3p)     0.00307
   219    N   15  pz     Val( 2p)     1.57304
   220    N   15  pz     Ryd( 3p)     0.00329
   221    N   15  dxy    Ryd( 3d)     0.00071
   222    N   15  dxz    Ryd( 3d)     0.00063
   223    N   15  dyz    Ryd( 3d)     0.00087
   224    N   15  dx2y2  Ryd( 3d)     0.00059
   225    N   15  dz2    Ryd( 3d)     0.00058

   226    C   16  S      Cor( 1S)     1.99936
   227    C   16  S      Val( 2S)     1.01813
   228    C   16  S      Ryd( 3S)     0.00123
   229    C   16  S      Ryd( 4S)     0.00003
   230    C   16  px     Val( 2p)     0.85693
   231    C   16  px     Ryd( 3p)     0.00285
   232    C   16  py     Val( 2p)     1.21225
   233    C   16  py     Ryd( 3p)     0.00535
   234    C   16  pz     Val( 2p)     1.15965
   235    C   16  pz     Ryd( 3p)     0.00226
   236    C   16  dxy    Ryd( 3d)     0.00092
   237    C   16  dxz    Ryd( 3d)     0.00088
   238    C   16  dyz    Ryd( 3d)     0.00077
   239    C   16  dx2y2  Ryd( 3d)     0.00130
   240    C   16  dz2    Ryd( 3d)     0.00113

   241    C   17  S      Cor( 1S)     1.99945
   242    C   17  S      Val( 2S)     1.11214
   243    C   17  S      Ryd( 3S)     0.00045
   244    C   17  S      Ryd( 4S)     0.00001
   245    C   17  px     Val( 2p)     1.21390
   246    C   17  px     Ryd( 3p)     0.00127
   247    C   17  py     Val( 2p)     1.20297
   248    C   17  py     Ryd( 3p)     0.00133
   249    C   17  pz     Val( 2p)     1.15698
   250    C   17  pz     Ryd( 3p)     0.00114
   251    C   17  dxy    Ryd( 3d)     0.00043
   252    C   17  dxz    Ryd( 3d)     0.00029
   253    C   17  dyz    Ryd( 3d)     0.00064
   254    C   17  dx2y2  Ryd( 3d)     0.00094
   255    C   17  dz2    Ryd( 3d)     0.00090

   256    C   18  S      Cor( 1S)     1.99932
   257    C   18  S      Val( 2S)     1.01727
   258    C   18  S      Ryd( 3S)     0.00152
   259    C   18  S      Ryd( 4S)     0.00003
   260    C   18  px     Val( 2p)     1.24700
   261    C   18  px     Ryd( 3p)     0.00515
   262    C   18  py     Val( 2p)     0.91883
   263    C   18  py     Ryd( 3p)     0.00189
   264    C   18  pz     Val( 2p)     1.06091
   265    C   18  pz     Ryd( 3p)     0.00168
   266    C   18  dxy    Ryd( 3d)     0.00061
   267    C   18  dxz    Ryd( 3d)     0.00101
   268    C   18  dyz    Ryd( 3d)     0.00115
   269    C   18  dx2y2  Ryd( 3d)     0.00121
   270    C   18  dz2    Ryd( 3d)     0.00097

   271    C   19  S      Cor( 1S)     1.99944
   272    C   19  S      Val( 2S)     1.10829
   273    C   19  S      Ryd( 3S)     0.00038
   274    C   19  S      Ryd( 4S)     0.00001
   275    C   19  px     Val( 2p)     1.24191
   276    C   19  px     Ryd( 3p)     0.00158
   277    C   19  py     Val( 2p)     1.10364
   278    C   19  py     Ryd( 3p)     0.00117
   279    C   19  pz     Val( 2p)     1.22228
   280    C   19  pz     Ryd( 3p)     0.00139
   281    C   19  dxy    Ryd( 3d)     0.00030
   282    C   19  dxz    Ryd( 3d)     0.00086
   283    C   19  dyz    Ryd( 3d)     0.00082
   284    C   19  dx2y2  Ryd( 3d)     0.00084
   285    C   19  dz2    Ryd( 3d)     0.00039

   286    C   20  S      Cor( 1S)     1.99935
   287    C   20  S      Val( 2S)     1.01687
   288    C   20  S      Ryd( 3S)     0.00120
   289    C   20  S      Ryd( 4S)     0.00003
   290    C   20  px     Val( 2p)     1.06819
   291    C   20  px     Ryd( 3p)     0.00439
   292    C   20  py     Val( 2p)     1.01958
   293    C   20  py     Ryd( 3p)     0.00363
   294    C   20  pz     Val( 2p)     1.13452
   295    C   20  pz     Ryd( 3p)     0.00128
   296    C   20  dxy    Ryd( 3d)     0.00151
   297    C   20  dxz    Ryd( 3d)     0.00105
   298    C   20  dyz    Ryd( 3d)     0.00115
   299    C   20  dx2y2  Ryd( 3d)     0.00044
   300    C   20  dz2    Ryd( 3d)     0.00077

   301    C   21  S      Cor( 1S)     1.99945
   302    C   21  S      Val( 2S)     1.11062
   303    C   21  S      Ryd( 3S)     0.00041
   304    C   21  S      Ryd( 4S)     0.00001
   305    C   21  px     Val( 2p)     1.23699
   306    C   21  px     Ryd( 3p)     0.00133
   307    C   21  py     Val( 2p)     1.17731
   308    C   21  py     Ryd( 3p)     0.00130
   309    C   21  pz     Val( 2p)     1.15563
   310    C   21  pz     Ryd( 3p)     0.00109
   311    C   21  dxy    Ryd( 3d)     0.00104
   312    C   21  dxz    Ryd( 3d)     0.00067
   313    C   21  dyz    Ryd( 3d)     0.00086
   314    C   21  dx2y2  Ryd( 3d)     0.00018
   315    C   21  dz2    Ryd( 3d)     0.00047

   316    H   22  S      Val( 1S)     0.76675
   317    H   22  S      Ryd( 2S)     0.00097

   318    H   23  S      Val( 1S)     0.75983
   319    H   23  S      Ryd( 2S)     0.00143

   320    H   24  S      Val( 1S)     0.77334
   321    H   24  S      Ryd( 2S)     0.00094

   322    H   25  S      Val( 1S)     0.74432
   323    H   25  S      Ryd( 2S)     0.00160

   324    H   26  S      Val( 1S)     0.77092
   325    H   26  S      Ryd( 2S)     0.00146

   326    H   27  S      Val( 1S)     0.74368
   327    H   27  S      Ryd( 2S)     0.00115

   328    H   28  S      Val( 1S)     0.77205
   329    H   28  S      Ryd( 2S)     0.00109

   330    H   29  S      Val( 1S)     0.76391
   331    H   29  S      Ryd( 2S)     0.00078

   332    H   30  S      Val( 1S)     0.75928
   333    H   30  S      Ryd( 2S)     0.00122

   334    H   31  S      Val( 1S)     0.75070
   335    H   31  S      Ryd( 2S)     0.00169

   336    H   32  S      Val( 1S)     0.76441
   337    H   32  S      Ryd( 2S)     0.00149

   338    H   33  S      Val( 1S)     0.75947
   339    H   33  S      Ryd( 2S)     0.00104

   340    H   34  S      Val( 1S)     0.77011
   341    H   34  S      Ryd( 2S)     0.00077

   342    H   35  S      Val( 1S)     0.75876
   343    H   35  S      Ryd( 2S)     0.00187

   344    H   36  S      Val( 1S)     0.72971
   345    H   36  S      Ryd( 2S)     0.00128

   346    H   37  S      Val( 1S)     0.77150
   347    H   37  S      Ryd( 2S)     0.00199

   348    H   38  S      Val( 1S)     0.76354
   349    H   38  S      Ryd( 2S)     0.00097

   350    H   39  S      Val( 1S)     0.75446
   351    H   39  S      Ryd( 2S)     0.00086

   352    H   40  S      Val( 1S)     0.77329
   353    H   40  S      Ryd( 2S)     0.00086

   354    H   41  S      Val( 1S)     0.77409
   355    H   41  S      Ryd( 2S)     0.00135

   356    H   42  S      Val( 1S)     0.74123
   357    H   42  S      Ryd( 2S)     0.00203

   358    H   43  S      Val( 1S)     0.77575
   359    H   43  S      Ryd( 2S)     0.00095

   360    H   44  S      Val( 1S)     0.76683
   361    H   44  S      Ryd( 2S)     0.00093

   362    H   45  S      Val( 1S)     0.75688
   363    H   45  S      Ryd( 2S)     0.00134

 WARNING:  1 low occupancy (<1.9990e) core orbital  found on  C    7
           1 low occupancy (<1.9990e) core orbital  found on  C   10


 Summary of Natural Population Analysis:                  
                                                          
                                       Natural Population 
                Natural  -----------------------------------------------
    Atom  No    Charge         Core      Valence    Rydberg      Total
 -----------------------------------------------------------------------
      C    1   -0.68683      1.99945     4.68000    0.00738     6.68683
      C    2   -0.25775      1.99934     4.24327    0.01514     6.25775
      N    3   -0.50392      1.99930     5.49103    0.01359     7.50392
      C    4    0.94092      1.99937     3.01396    0.04576     5.05908
      O    5   -0.65641      1.99978     6.63768    0.01895     8.65641
      O    6   -0.56057      1.99969     6.55047    0.01041     8.56057
      C    7    0.24615      1.99871     3.73275    0.02239     5.75385
      C    8   -0.25593      1.99900     4.24297    0.01396     6.25593
      C    9   -0.25153      1.99903     4.23736    0.01514     6.25153
      C   10   -0.21421      1.99888     4.19869    0.01664     6.21421
      C   11   -0.23248      1.99905     4.21893    0.01450     6.23248
      C   12   -0.26503      1.99902     4.25147    0.01454     6.26503
      C   13    0.56835      1.99925     3.39560    0.03680     5.43165
      O   14   -0.28904      1.99982     6.27199    0.01724     8.28904
      N   15   -0.44782      1.99932     5.43628    0.01221     7.44782
      C   16   -0.26303      1.99936     4.24696    0.01672     6.26303
      C   17   -0.69284      1.99945     4.68599    0.00740     6.69284
      C   18   -0.25855      1.99932     4.24401    0.01522     6.25855
      C   19   -0.68330      1.99944     4.67612    0.00774     6.68330
      C   20   -0.25395      1.99935     4.23916    0.01544     6.25395
      C   21   -0.68736      1.99945     4.68055    0.00737     6.68736
      H   22    0.23228      0.00000     0.76675    0.00097     0.76772
      H   23    0.23874      0.00000     0.75983    0.00143     0.76126
      H   24    0.22572      0.00000     0.77334    0.00094     0.77428
      H   25    0.25409      0.00000     0.74432    0.00160     0.74591
      H   26    0.22762      0.00000     0.77092    0.00146     0.77238
      H   27    0.25517      0.00000     0.74368    0.00115     0.74483
      H   28    0.22686      0.00000     0.77205    0.00109     0.77314
      H   29    0.23531      0.00000     0.76391    0.00078     0.76469
      H   30    0.23950      0.00000     0.75928    0.00122     0.76050
      H   31    0.24761      0.00000     0.75070    0.00169     0.75239
      H   32    0.23410      0.00000     0.76441    0.00149     0.76590
      H   33    0.23949      0.00000     0.75947    0.00104     0.76051
      H   34    0.22912      0.00000     0.77011    0.00077     0.77088
      H   35    0.23937      0.00000     0.75876    0.00187     0.76063
      H   36    0.26901      0.00000     0.72971    0.00128     0.73099
      H   37    0.22651      0.00000     0.77150    0.00199     0.77349
      H   38    0.23549      0.00000     0.76354    0.00097     0.76451
      H   39    0.24469      0.00000     0.75446    0.00086     0.75531
      H   40    0.22586      0.00000     0.77329    0.00086     0.77414
      H   41    0.22456      0.00000     0.77409    0.00135     0.77544
      H   42    0.25673      0.00000     0.74123    0.00203     0.74327
      H   43    0.22330      0.00000     0.77575    0.00095     0.77670
      H   44    0.23224      0.00000     0.76683    0.00093     0.76776
      H   45    0.24178      0.00000     0.75688    0.00134     0.75822
 =======================================================================
   * Total *   -0.00000     41.98538   115.64002    0.37460   158.00000

                                 Natural Population      
 --------------------------------------------------------
   Core                      41.98538 ( 99.9652% of  42)
   Valence                  115.64002 ( 99.6897% of 116)
   Natural Minimal Basis    157.62540 ( 99.7629% of 158)
   Natural Rydberg Basis      0.37460 (  0.2371% of 158)
 --------------------------------------------------------

    Atom  No          Natural Electron Configuration
 ----------------------------------------------------------------------------
      C    1      [core]2S( 1.11)2p( 3.57)
      C    2      [core]2S( 1.02)2p( 3.23)3p( 0.01)
      N    3      [core]2S( 1.20)2p( 4.29)3p( 0.01)
      C    4      [core]2S( 0.69)2p( 2.32)3p( 0.03)3d( 0.01)
      O    5      [core]2S( 1.70)2p( 4.93)3d( 0.02)
      O    6      [core]2S( 1.59)2p( 4.96)3d( 0.01)
      C    7      [core]2S( 0.83)2p( 2.91)3p( 0.02)3d( 0.01)
      C    8      [core]2S( 0.96)2p( 3.28)3p( 0.01)
      C    9      [core]2S( 0.94)2p( 3.30)3p( 0.01)
      C   10      [core]2S( 0.88)2p( 3.32)3p( 0.01)
      C   11      [core]2S( 0.94)2p( 3.28)3p( 0.01)
      C   12      [core]2S( 0.96)2p( 3.29)3p( 0.01)
      C   13      [core]2S( 0.77)2p( 2.63)3p( 0.02)3d( 0.01)
      O   14      [core]2S( 1.71)2p( 4.56)3d( 0.01)
      N   15      [core]2S( 1.20)2p( 4.23)3p( 0.01)
      C   16      [core]2S( 1.02)2p( 3.23)3p( 0.01)3d( 0.01)
      C   17      [core]2S( 1.11)2p( 3.57)
      C   18      [core]2S( 1.02)2p( 3.23)3p( 0.01)
      C   19      [core]2S( 1.11)2p( 3.57)
      C   20      [core]2S( 1.02)2p( 3.22)3p( 0.01)
      C   21      [core]2S( 1.11)2p( 3.57)
      H   22            1S( 0.77)
      H   23            1S( 0.76)
      H   24            1S( 0.77)
      H   25            1S( 0.74)
      H   26            1S( 0.77)
      H   27            1S( 0.74)
      H   28            1S( 0.77)
      H   29            1S( 0.76)
      H   30            1S( 0.76)
      H   31            1S( 0.75)
      H   32            1S( 0.76)
      H   33            1S( 0.76)
      H   34            1S( 0.77)
      H   35            1S( 0.76)
      H   36            1S( 0.73)
      H   37            1S( 0.77)
      H   38            1S( 0.76)
      H   39            1S( 0.75)
      H   40            1S( 0.77)
      H   41            1S( 0.77)
      H   42            1S( 0.74)
      H   43            1S( 0.78)
      H   44            1S( 0.77)
      H   45            1S( 0.76)


 NBO analysis skipped by request.
 Leave Link  607 at Fri Oct  1 07:13:26 2021, MaxMem= 1879048192 cpu:      24.0
 (Enter /sw/target/amd/app/gaussian/Gaussian09RevA.02_gcc-4.9.2/g09/l9999.exe)
 1\1\GINC-HERMITE\SP\RTD-B3LYP-FC\6-31G(d)\C16H24N2O3\JSCHLEINITZ\01-Oc
 t-2021\0\\#p TD(NStates=10, Root=1) b3lyp/6-31G* volume pop=NPA densit
 y=current Geom=AllCheck Guess=Read\\CCN(C(=O)Oc1ccc(cc1)C(=O)N(CC)CC)C
 C_conf_0\\0,1\C,0,3.3222547871,0.9655325263,-1.1412174902\C,0,4.081129
 0742,0.0289367965,-0.1971489964\N,0,4.0491914562,-1.3745479408,-0.6235
 680029\C,0,3.0739360778,-2.2532692917,-0.2650038775\O,0,3.0274500192,-
 3.4263539668,-0.585958608\O,0,2.120012935,-1.622330963,0.5136033399\C,
 0,1.0663479012,-2.3421465406,1.0602774302\C,0,1.2199468856,-3.59494300
 05,1.6551360354\C,0,0.11049468,-4.2045641178,2.2393177397\C,0,-1.14244
 96234,-3.5775273664,2.2530683093\C,0,-1.2597933629,-2.3010916784,1.685
 3493461\C,0,-0.1687349328,-1.6917846276,1.0759770186\C,0,-2.3512311437
 ,-4.1328258756,2.958922463\O,0,-3.0384269129,-3.3817070776,3.652829540
 8\N,0,-2.6546079995,-5.4721777465,2.8405162136\C,0,-3.8162156918,-5.94
 39486339,3.6092418946\C,0,-5.1616113292,-5.6351479167,2.9439483946\C,0
 ,-2.1946301797,-6.3433874228,1.7533379431\C,0,-1.3977528391,-7.5645167
 574,2.2235976296\C,0,5.1135015348,-1.8689701642,-1.5040821807\C,0,6.30
 28421979,-2.4504976226,-0.7362233446\H,0,3.4091277158,2.0034574971,-0.
 7994889771\H,0,2.2609701879,0.7005664016,-1.1704008652\H,0,3.718682339
 9,0.9100240231,-2.1613324266\H,0,3.6739849082,0.0987056492,0.812990572
 2\H,0,5.1358168572,0.321103916,-0.138896684\H,0,2.1831209766,-4.087694
 6138,1.6513283863\H,0,0.2368253173,-5.1712510734,2.7160671645\H,0,-2.2
 16528184,-1.7917109842,1.7348197971\H,0,-0.2541994916,-0.7097852036,0.
 6214372633\H,0,-3.7744896556,-5.4678133587,4.5907761203\H,0,-3.6992927
 494,-7.0231292517,3.7541434018\H,0,-5.9821027082,-6.0387510214,3.54870
 82393\H,0,-5.2335535218,-6.0811362329,1.9449386522\H,0,-5.2954128151,-
 4.5540139335,2.8571273044\H,0,-1.5959819237,-5.7493111622,1.0615835817
 \H,0,-3.0752030363,-6.6826036144,1.189549394\H,0,-0.4853924376,-7.2690
 740377,2.7516236923\H,0,-1.11018525,-8.1754550221,1.3603064033\H,0,-1.
 9835444985,-8.1981257992,2.8980708799\H,0,5.4329180706,-1.0313870699,-
 2.1344832864\H,0,4.6813523398,-2.6300120788,-2.1571190219\H,0,6.744242
 6762,-1.7102596844,-0.058899834\H,0,7.0825041062,-2.7791616016,-1.4331
 376036\H,0,5.9838967796,-3.3144492678,-0.1454008903\\Version=AM64L-G09
 RevA.02\State=1-A\HF=-959.3745248\RMSD=7.231e-09\Dipole=-0.6178849,-0.
 6192946,0.1931822\Quadrupole=6.4710237,3.6380564,-10.1090801,15.450807
 4,-4.6014019,-8.3114941\PG=C01 [X(C16H24N2O3)]\\@


 MORNING PEOPLE ARE USUALLY ADMIRED AS EARLY BIRDS.
 RECALL BEN FRANKLIN'S APHORISM THAT THE EARLY BIRD GETS THE WORM.
 I IDENTIFY WITH THE WORM. --  CRAIG JAGGER, MINNEAPOLIS, KS.
 Job cpu time:  0 days  7 hours 42 minutes  8.8 seconds.
 File lengths (MBytes):  RWF=    440 Int=      0 D2E=      0 Chk=     60 Scr=      1
 Normal termination of Gaussian 09 at Fri Oct  1 07:13:28 2021.
