 Entering Gaussian System, Link 0=g09
 Input=C16H24N2O3_38b4_conf_0.com
 Output=C16H24N2O3_38b4_conf_0.log
 Initial command:
 /sw/target/amd/app/gaussian/Gaussian09RevA.02_gcc-4.9.2/g09/l1.exe /home/jschleinitz/gaussian/Gau-2110367.inp -scrdir=/home/jschleinitz/gaussian/
 Entering Link 1 = /sw/target/amd/app/gaussian/Gaussian09RevA.02_gcc-4.9.2/g09/l1.exe PID=   2110377.
  
 Copyright (c) 1988,1990,1992,1993,1995,1998,2003,2009, Gaussian, Inc.
                  All Rights Reserved.
  
 This is part of the Gaussian(R) 09 program.  It is based on
 the Gaussian(R) 03 system (copyright 2003, Gaussian, Inc.),
 the Gaussian(R) 98 system (copyright 1998, Gaussian, Inc.),
 the Gaussian(R) 94 system (copyright 1995, Gaussian, Inc.),
 the Gaussian 92(TM) system (copyright 1992, Gaussian, Inc.),
 the Gaussian 90(TM) system (copyright 1990, Gaussian, Inc.),
 the Gaussian 88(TM) system (copyright 1988, Gaussian, Inc.),
 the Gaussian 86(TM) system (copyright 1986, Carnegie Mellon
 University), and the Gaussian 82(TM) system (copyright 1983,
 Carnegie Mellon University). Gaussian is a federally registered
 trademark of Gaussian, Inc.
  
 This software contains proprietary and confidential information,
 including trade secrets, belonging to Gaussian, Inc.
  
 This software is provided under written license and may be
 used, copied, transmitted, or stored only in accord with that
 written license.
  
 The following legend is applicable only to US Government
 contracts under FAR:
  
                    RESTRICTED RIGHTS LEGEND
  
 Use, reproduction and disclosure by the US Government is
 subject to restrictions as set forth in subparagraphs (a)
 and (c) of the Commercial Computer Software - Restricted
 Rights clause in FAR 52.227-19.
  
 Gaussian, Inc.
 340 Quinnipiac St., Bldg. 40, Wallingford CT 06492
  
  
 ---------------------------------------------------------------
 Warning -- This program may not be used in any manner that
 competes with the business of Gaussian, Inc. or will provide
 assistance to any competitor of Gaussian, Inc.  The licensee
 of this program is prohibited from giving any competitor of
 Gaussian, Inc. access to this program.  By using this program,
 the user acknowledges that Gaussian, Inc. is engaged in the
 business of creating and licensing software in the field of
 computational chemistry and represents and warrants to the
 licensee that it is not a competitor of Gaussian, Inc. and that
 it will not use this program in any manner prohibited above.
 ---------------------------------------------------------------
  

 Cite this work as:
 Gaussian 09, Revision A.02,
 M. J. Frisch, G. W. Trucks, H. B. Schlegel, G. E. Scuseria, 
 M. A. Robb, J. R. Cheeseman, G. Scalmani, V. Barone, B. Mennucci, 
 G. A. Petersson, H. Nakatsuji, M. Caricato, X. Li, H. P. Hratchian, 
 A. F. Izmaylov, J. Bloino, G. Zheng, J. L. Sonnenberg, M. Hada, 
 M. Ehara, K. Toyota, R. Fukuda, J. Hasegawa, M. Ishida, T. Nakajima, 
 Y. Honda, O. Kitao, H. Nakai, T. Vreven, J. A. Montgomery, Jr., 
 J. E. Peralta, F. Ogliaro, M. Bearpark, J. J. Heyd, E. Brothers, 
 K. N. Kudin, V. N. Staroverov, R. Kobayashi, J. Normand, 
 K. Raghavachari, A. Rendell, J. C. Burant, S. S. Iyengar, J. Tomasi, 
 M. Cossi, N. Rega, J. M. Millam, M. Klene, J. E. Knox, J. B. Cross, 
 V. Bakken, C. Adamo, J. Jaramillo, R. Gomperts, R. E. Stratmann, 
 O. Yazyev, A. J. Austin, R. Cammi, C. Pomelli, J. W. Ochterski, 
 R. L. Martin, K. Morokuma, V. G. Zakrzewski, G. A. Voth, 
 P. Salvador, J. J. Dannenberg, S. Dapprich, A. D. Daniels, 
 O. Farkas, J. B. Foresman, J. V. Ortiz, J. Cioslowski, 
 and D. J. Fox, Gaussian, Inc., Wallingford CT, 2009.
 
 ******************************************
 Gaussian 09:  AM64L-G09RevA.02 11-Jun-2009
                30-Sep-2021 
 ******************************************
 %nproc=7
 Will use up to    7 processors via shared memory.
 %mem=14gb
 %chk=C16H24N2O3_38b4_conf_0.chk
 -----------------------------------
 #p opt b3lyp/6-31G* scf=(xqc,tight)
 -----------------------------------
 1/14=-1,18=20,19=15,26=3,38=1/1,3;
 2/9=110,12=2,17=6,18=5,40=1/2;
 3/5=1,6=6,7=1,11=2,16=1,25=1,30=1,71=1,74=-5/1,2,3;
 4//1;
 5/5=2,8=3,13=1,32=2,38=5/2,8;
 6/7=2,8=2,9=2,10=2,28=1/1;
 7//1,2,3,16;
 1/14=-1,18=20,19=15/3(2);
 2/9=110/2;
 99//99;
 2/9=110/2;
 3/5=1,6=6,7=1,11=2,16=1,25=1,30=1,71=1,74=-5/1,2,3;
 4/5=5,16=3/1;
 5/5=2,8=3,13=1,32=2,38=5/2,8;
 7//1,2,3,16;
 1/14=-1,18=20,19=15/3(-5);
 2/9=110/2;
 6/7=2,8=2,9=2,10=2,19=2,28=1/1;
 99/9=1/99;
 Leave Link    1 at Thu Sep 30 07:02:56 2021, MaxMem= 1879048192 cpu:       0.1
 (Enter /sw/target/amd/app/gaussian/Gaussian09RevA.02_gcc-4.9.2/g09/l101.exe)
 ----------------------------------------
 CCN(C(=O)Oc1ccccc1C(=O)N(CC)CC)CC_conf_0
 ----------------------------------------
 Symbolic Z-matrix:
 Charge =  0 Multiplicity = 1
 C                    -1.60388  -2.54675  -1.00925 
 C                    -0.57353  -1.72911  -0.24018 
 N                     0.71211  -1.64436  -0.9404 
 C                     0.93203  -0.59406  -1.86357 
 O                     1.89283  -0.56814  -2.63495 
 O                    -0.07969   0.36857  -1.82858 
 C                    -0.29112   1.35826  -2.83112 
 C                    -0.09422   1.00544  -4.17664 
 C                    -0.44592   1.88917  -5.1924 
 C                    -0.96042   3.13283  -4.86841 
 C                    -1.11479   3.49273  -3.52791 
 C                    -0.83894   2.61206  -2.47591 
 C                    -1.00436   3.01152  -1.03617 
 O                    -0.19537   2.52485  -0.24106 
 N                    -2.01344   3.88996  -0.56712 
 C                    -3.00801   4.63621  -1.35412 
 C                    -2.55976   6.05538  -1.72163 
 C                    -2.03926   4.14491   0.8832 
 C                    -2.39913   2.91896   1.72145 
 C                     1.57498  -2.82315  -1.00544 
 C                     2.00267  -3.38527   0.34431 
 H                    -2.58852  -2.45234  -0.5408 
 H                    -1.33769  -3.6086   -1.01698 
 H                    -1.68619  -2.21355  -2.04884 
 H                    -0.41136  -2.15437   0.75681 
 H                    -0.97876  -0.72705  -0.07572 
 H                     0.32178   0.04009  -4.44691 
 H                    -0.31198   1.61097  -6.23386 
 H                    -1.23175   3.84064  -5.64824 
 H                    -1.43982   4.49888  -3.35479 
 H                    -3.92367   4.71579  -0.75463 
 H                    -3.28965   4.06322  -2.23961 
 H                    -2.33193   6.64979  -0.83278 
 H                    -3.3511    6.5632   -2.28381 
 H                    -1.65635   6.09059  -2.33482 
 H                    -2.77433   4.93097   1.1005 
 H                    -1.06025   4.53206   1.18462 
 H                    -3.37142   2.50966   1.43163 
 H                    -2.44077   3.18718   2.78269 
 H                    -1.66118   2.1174    1.62324 
 H                     2.4803   -2.59284  -1.57537 
 H                     1.03849  -3.59569  -1.5713 
 H                     2.49341  -2.62148   0.95668 
 H                     2.71188  -4.2064    0.19669 
 H                     1.15621  -3.78693   0.91017 
 
 NAtoms=     45 NQM=     45 NQMF=      0 NMic=      0 NMicF=      0 NTot=     45.
                    Isotopes and Nuclear Properties:
 (Nuclear quadrupole moments (NQMom) in fm**2, nuclear magnetic moments (NMagM)
  in nuclear magnetons)

  Atom         1           2           3           4           5           6           7           8           9          10
 IAtWgt=          12          12          14          12          16          16          12          12          12          12
 AtmWgt=  12.0000000  12.0000000  14.0030740  12.0000000  15.9949146  15.9949146  12.0000000  12.0000000  12.0000000  12.0000000
 NucSpn=           0           0           2           0           0           0           0           0           0           0
 AtZEff=   0.0000000   0.0000000   0.0000000   0.0000000   0.0000000   0.0000000   0.0000000   0.0000000   0.0000000   0.0000000
 NQMom=    0.0000000   0.0000000   2.0440000   0.0000000   0.0000000   0.0000000   0.0000000   0.0000000   0.0000000   0.0000000
 NMagM=    0.0000000   0.0000000   0.4037610   0.0000000   0.0000000   0.0000000   0.0000000   0.0000000   0.0000000   0.0000000

  Atom        11          12          13          14          15          16          17          18          19          20
 IAtWgt=          12          12          12          16          14          12          12          12          12          12
 AtmWgt=  12.0000000  12.0000000  12.0000000  15.9949146  14.0030740  12.0000000  12.0000000  12.0000000  12.0000000  12.0000000
 NucSpn=           0           0           0           0           2           0           0           0           0           0
 AtZEff=   0.0000000   0.0000000   0.0000000   0.0000000   0.0000000   0.0000000   0.0000000   0.0000000   0.0000000   0.0000000
 NQMom=    0.0000000   0.0000000   0.0000000   0.0000000   2.0440000   0.0000000   0.0000000   0.0000000   0.0000000   0.0000000
 NMagM=    0.0000000   0.0000000   0.0000000   0.0000000   0.4037610   0.0000000   0.0000000   0.0000000   0.0000000   0.0000000

  Atom        21          22          23          24          25          26          27          28          29          30
 IAtWgt=          12           1           1           1           1           1           1           1           1           1
 AtmWgt=  12.0000000   1.0078250   1.0078250   1.0078250   1.0078250   1.0078250   1.0078250   1.0078250   1.0078250   1.0078250
 NucSpn=           0           1           1           1           1           1           1           1           1           1
 AtZEff=   0.0000000   0.0000000   0.0000000   0.0000000   0.0000000   0.0000000   0.0000000   0.0000000   0.0000000   0.0000000
 NQMom=    0.0000000   0.0000000   0.0000000   0.0000000   0.0000000   0.0000000   0.0000000   0.0000000   0.0000000   0.0000000
 NMagM=    0.0000000   2.7928460   2.7928460   2.7928460   2.7928460   2.7928460   2.7928460   2.7928460   2.7928460   2.7928460

  Atom        31          32          33          34          35          36          37          38          39          40
 IAtWgt=           1           1           1           1           1           1           1           1           1           1
 AtmWgt=   1.0078250   1.0078250   1.0078250   1.0078250   1.0078250   1.0078250   1.0078250   1.0078250   1.0078250   1.0078250
 NucSpn=           1           1           1           1           1           1           1           1           1           1
 AtZEff=   0.0000000   0.0000000   0.0000000   0.0000000   0.0000000   0.0000000   0.0000000   0.0000000   0.0000000   0.0000000
 NQMom=    0.0000000   0.0000000   0.0000000   0.0000000   0.0000000   0.0000000   0.0000000   0.0000000   0.0000000   0.0000000
 NMagM=    2.7928460   2.7928460   2.7928460   2.7928460   2.7928460   2.7928460   2.7928460   2.7928460   2.7928460   2.7928460

  Atom        41          42          43          44          45
 IAtWgt=           1           1           1           1           1
 AtmWgt=   1.0078250   1.0078250   1.0078250   1.0078250   1.0078250
 NucSpn=           1           1           1           1           1
 AtZEff=   0.0000000   0.0000000   0.0000000   0.0000000   0.0000000
 NQMom=    0.0000000   0.0000000   0.0000000   0.0000000   0.0000000
 NMagM=    2.7928460   2.7928460   2.7928460   2.7928460   2.7928460
 Leave Link  101 at Thu Sep 30 07:02:57 2021, MaxMem= 1879048192 cpu:       0.2
 (Enter /sw/target/amd/app/gaussian/Gaussian09RevA.02_gcc-4.9.2/g09/l103.exe)

 GradGradGradGradGradGradGradGradGradGradGradGradGradGradGradGradGradGrad
 Berny optimization.
 Initialization pass.
                           ----------------------------
                           !    Initial Parameters    !
                           ! (Angstroms and Degrees)  !
 --------------------------                            --------------------------
 ! Name  Definition              Value          Derivative Info.                !
 --------------------------------------------------------------------------------
 ! R1    R(1,2)                  1.5237         estimate D2E/DX2                !
 ! R2    R(1,22)                 1.0945         estimate D2E/DX2                !
 ! R3    R(1,23)                 1.0947         estimate D2E/DX2                !
 ! R4    R(1,24)                 1.0948         estimate D2E/DX2                !
 ! R5    R(2,3)                  1.4664         estimate D2E/DX2                !
 ! R6    R(2,25)                 1.096          estimate D2E/DX2                !
 ! R7    R(2,26)                 1.0933         estimate D2E/DX2                !
 ! R8    R(3,4)                  1.4155         estimate D2E/DX2                !
 ! R9    R(3,20)                 1.4623         estimate D2E/DX2                !
 ! R10   R(4,5)                  1.2324         estimate D2E/DX2                !
 ! R11   R(4,6)                  1.397          estimate D2E/DX2                !
 ! R12   R(6,7)                  1.4245         estimate D2E/DX2                !
 ! R13   R(7,8)                  1.4049         estimate D2E/DX2                !
 ! R14   R(7,12)                 1.4136         estimate D2E/DX2                !
 ! R15   R(8,9)                  1.3916         estimate D2E/DX2                !
 ! R16   R(8,27)                 1.0854         estimate D2E/DX2                !
 ! R17   R(9,10)                 1.3843         estimate D2E/DX2                !
 ! R18   R(9,28)                 1.0863         estimate D2E/DX2                !
 ! R19   R(10,11)                1.3965         estimate D2E/DX2                !
 ! R20   R(10,29)                1.0875         estimate D2E/DX2                !
 ! R21   R(11,12)                1.3994         estimate D2E/DX2                !
 ! R22   R(11,30)                1.0714         estimate D2E/DX2                !
 ! R23   R(12,13)                1.5033         estimate D2E/DX2                !
 ! R24   R(13,14)                1.2343         estimate D2E/DX2                !
 ! R25   R(13,15)                1.4177         estimate D2E/DX2                !
 ! R26   R(15,16)                1.4715         estimate D2E/DX2                !
 ! R27   R(15,18)                1.4728         estimate D2E/DX2                !
 ! R28   R(16,17)                1.533          estimate D2E/DX2                !
 ! R29   R(16,31)                1.0973         estimate D2E/DX2                !
 ! R30   R(16,32)                1.0917         estimate D2E/DX2                !
 ! R31   R(17,33)                1.0933         estimate D2E/DX2                !
 ! R32   R(17,34)                1.0955         estimate D2E/DX2                !
 ! R33   R(17,35)                1.0924         estimate D2E/DX2                !
 ! R34   R(18,19)                1.5281         estimate D2E/DX2                !
 ! R35   R(18,36)                1.0979         estimate D2E/DX2                !
 ! R36   R(18,37)                1.0951         estimate D2E/DX2                !
 ! R37   R(19,38)                1.094          estimate D2E/DX2                !
 ! R38   R(19,39)                1.0954         estimate D2E/DX2                !
 ! R39   R(19,40)                1.0939         estimate D2E/DX2                !
 ! R40   R(20,21)                1.5234         estimate D2E/DX2                !
 ! R41   R(20,41)                1.0943         estimate D2E/DX2                !
 ! R42   R(20,42)                1.0977         estimate D2E/DX2                !
 ! R43   R(21,43)                1.0951         estimate D2E/DX2                !
 ! R44   R(21,44)                1.095          estimate D2E/DX2                !
 ! R45   R(21,45)                1.0945         estimate D2E/DX2                !
 ! A1    A(2,1,22)             110.2457         estimate D2E/DX2                !
 ! A2    A(2,1,23)             111.0781         estimate D2E/DX2                !
 ! A3    A(2,1,24)             111.5196         estimate D2E/DX2                !
 ! A4    A(22,1,23)            107.7845         estimate D2E/DX2                !
 ! A5    A(22,1,24)            108.2125         estimate D2E/DX2                !
 ! A6    A(23,1,24)            107.865          estimate D2E/DX2                !
 ! A7    A(1,2,3)              112.5109         estimate D2E/DX2                !
 ! A8    A(1,2,25)             110.5486         estimate D2E/DX2                !
 ! A9    A(1,2,26)             108.488          estimate D2E/DX2                !
 ! A10   A(3,2,25)             109.0918         estimate D2E/DX2                !
 ! A11   A(3,2,26)             110.1087         estimate D2E/DX2                !
 ! A12   A(25,2,26)            105.8808         estimate D2E/DX2                !
 ! A13   A(2,3,4)              119.3739         estimate D2E/DX2                !
 ! A14   A(2,3,20)             119.4709         estimate D2E/DX2                !
 ! A15   A(4,3,20)             118.5189         estimate D2E/DX2                !
 ! A16   A(3,4,5)              123.0195         estimate D2E/DX2                !
 ! A17   A(3,4,6)              112.4852         estimate D2E/DX2                !
 ! A18   A(5,4,6)              124.4585         estimate D2E/DX2                !
 ! A19   A(4,6,7)              124.6533         estimate D2E/DX2                !
 ! A20   A(6,7,8)              118.6047         estimate D2E/DX2                !
 ! A21   A(6,7,12)             119.7936         estimate D2E/DX2                !
 ! A22   A(8,7,12)             121.1795         estimate D2E/DX2                !
 ! A23   A(7,8,9)              120.2781         estimate D2E/DX2                !
 ! A24   A(7,8,27)             121.0365         estimate D2E/DX2                !
 ! A25   A(9,8,27)             118.6817         estimate D2E/DX2                !
 ! A26   A(8,9,10)             119.5789         estimate D2E/DX2                !
 ! A27   A(8,9,28)             120.3996         estimate D2E/DX2                !
 ! A28   A(10,9,28)            120.0199         estimate D2E/DX2                !
 ! A29   A(9,10,11)            119.8188         estimate D2E/DX2                !
 ! A30   A(9,10,29)            120.637          estimate D2E/DX2                !
 ! A31   A(11,10,29)           119.5371         estimate D2E/DX2                !
 ! A32   A(10,11,12)           122.5209         estimate D2E/DX2                !
 ! A33   A(10,11,30)           115.5079         estimate D2E/DX2                !
 ! A34   A(12,11,30)           121.9588         estimate D2E/DX2                !
 ! A35   A(7,12,11)            116.4657         estimate D2E/DX2                !
 ! A36   A(7,12,13)            121.2649         estimate D2E/DX2                !
 ! A37   A(11,12,13)           122.0767         estimate D2E/DX2                !
 ! A38   A(12,13,14)           116.1074         estimate D2E/DX2                !
 ! A39   A(12,13,15)           124.0452         estimate D2E/DX2                !
 ! A40   A(14,13,15)           119.8473         estimate D2E/DX2                !
 ! A41   A(13,15,16)           128.1951         estimate D2E/DX2                !
 ! A42   A(13,15,18)           116.4581         estimate D2E/DX2                !
 ! A43   A(16,15,18)           115.2787         estimate D2E/DX2                !
 ! A44   A(15,16,17)           113.5815         estimate D2E/DX2                !
 ! A45   A(15,16,31)           107.9735         estimate D2E/DX2                !
 ! A46   A(15,16,32)           109.9988         estimate D2E/DX2                !
 ! A47   A(17,16,31)           107.9282         estimate D2E/DX2                !
 ! A48   A(17,16,32)           111.5238         estimate D2E/DX2                !
 ! A49   A(31,16,32)           105.422          estimate D2E/DX2                !
 ! A50   A(16,17,33)           111.6757         estimate D2E/DX2                !
 ! A51   A(16,17,34)           109.9337         estimate D2E/DX2                !
 ! A52   A(16,17,35)           113.9669         estimate D2E/DX2                !
 ! A53   A(33,17,34)           108.404          estimate D2E/DX2                !
 ! A54   A(33,17,35)           105.4562         estimate D2E/DX2                !
 ! A55   A(34,17,35)           107.1202         estimate D2E/DX2                !
 ! A56   A(15,18,19)           113.919          estimate D2E/DX2                !
 ! A57   A(15,18,36)           109.3036         estimate D2E/DX2                !
 ! A58   A(15,18,37)           108.456          estimate D2E/DX2                !
 ! A59   A(19,18,36)           107.9479         estimate D2E/DX2                !
 ! A60   A(19,18,37)           110.0704         estimate D2E/DX2                !
 ! A61   A(36,18,37)           106.9145         estimate D2E/DX2                !
 ! A62   A(18,19,38)           111.3538         estimate D2E/DX2                !
 ! A63   A(18,19,39)           110.1183         estimate D2E/DX2                !
 ! A64   A(18,19,40)           112.3171         estimate D2E/DX2                !
 ! A65   A(38,19,39)           108.329          estimate D2E/DX2                !
 ! A66   A(38,19,40)           107.5536         estimate D2E/DX2                !
 ! A67   A(39,19,40)           106.9801         estimate D2E/DX2                !
 ! A68   A(3,20,21)            115.0693         estimate D2E/DX2                !
 ! A69   A(3,20,41)            109.9794         estimate D2E/DX2                !
 ! A70   A(3,20,42)            107.571          estimate D2E/DX2                !
 ! A71   A(21,20,41)           107.8694         estimate D2E/DX2                !
 ! A72   A(21,20,42)           109.5282         estimate D2E/DX2                !
 ! A73   A(41,20,42)           106.4983         estimate D2E/DX2                !
 ! A74   A(20,21,43)           111.34           estimate D2E/DX2                !
 ! A75   A(20,21,44)           109.8216         estimate D2E/DX2                !
 ! A76   A(20,21,45)           112.1075         estimate D2E/DX2                !
 ! A77   A(43,21,44)           107.9495         estimate D2E/DX2                !
 ! A78   A(43,21,45)           108.2653         estimate D2E/DX2                !
 ! A79   A(44,21,45)           107.1811         estimate D2E/DX2                !
 ! D1    D(22,1,2,3)          -170.8282         estimate D2E/DX2                !
 ! D2    D(22,1,2,25)           66.9316         estimate D2E/DX2                !
 ! D3    D(22,1,2,26)          -48.7563         estimate D2E/DX2                !
 ! D4    D(23,1,2,3)            69.7619         estimate D2E/DX2                !
 ! D5    D(23,1,2,25)          -52.4783         estimate D2E/DX2                !
 ! D6    D(23,1,2,26)         -168.1662         estimate D2E/DX2                !
 ! D7    D(24,1,2,3)           -50.5951         estimate D2E/DX2                !
 ! D8    D(24,1,2,25)         -172.8353         estimate D2E/DX2                !
 ! D9    D(24,1,2,26)           71.4768         estimate D2E/DX2                !
 ! D10   D(1,2,3,4)             89.0209         estimate D2E/DX2                !
 ! D11   D(1,2,3,20)           -72.3123         estimate D2E/DX2                !
 ! D12   D(25,2,3,4)          -147.9195         estimate D2E/DX2                !
 ! D13   D(25,2,3,20)           50.7473         estimate D2E/DX2                !
 ! D14   D(26,2,3,4)           -32.1289         estimate D2E/DX2                !
 ! D15   D(26,2,3,20)          166.5379         estimate D2E/DX2                !
 ! D16   D(2,3,4,5)           -168.6144         estimate D2E/DX2                !
 ! D17   D(2,3,4,6)              9.2666         estimate D2E/DX2                !
 ! D18   D(20,3,4,5)            -7.1039         estimate D2E/DX2                !
 ! D19   D(20,3,4,6)           170.7771         estimate D2E/DX2                !
 ! D20   D(2,3,20,21)          -58.9518         estimate D2E/DX2                !
 ! D21   D(2,3,20,41)          179.0074         estimate D2E/DX2                !
 ! D22   D(2,3,20,42)           63.4073         estimate D2E/DX2                !
 ! D23   D(4,3,20,21)          139.556          estimate D2E/DX2                !
 ! D24   D(4,3,20,41)           17.5152         estimate D2E/DX2                !
 ! D25   D(4,3,20,42)          -98.0849         estimate D2E/DX2                !
 ! D26   D(3,4,6,7)           -164.9354         estimate D2E/DX2                !
 ! D27   D(5,4,6,7)             12.9098         estimate D2E/DX2                !
 ! D28   D(4,6,7,8)             37.7832         estimate D2E/DX2                !
 ! D29   D(4,6,7,12)          -149.5836         estimate D2E/DX2                !
 ! D30   D(6,7,8,9)            172.1316         estimate D2E/DX2                !
 ! D31   D(6,7,8,27)            -7.1518         estimate D2E/DX2                !
 ! D32   D(12,7,8,9)            -0.3953         estimate D2E/DX2                !
 ! D33   D(12,7,8,27)         -179.6787         estimate D2E/DX2                !
 ! D34   D(6,7,12,11)         -175.1423         estimate D2E/DX2                !
 ! D35   D(6,7,12,13)            9.8006         estimate D2E/DX2                !
 ! D36   D(8,7,12,11)           -2.7031         estimate D2E/DX2                !
 ! D37   D(8,7,12,13)         -177.7601         estimate D2E/DX2                !
 ! D38   D(7,8,9,10)             1.6147         estimate D2E/DX2                !
 ! D39   D(7,8,9,28)          -178.8403         estimate D2E/DX2                !
 ! D40   D(27,8,9,10)         -179.0853         estimate D2E/DX2                !
 ! D41   D(27,8,9,28)            0.4598         estimate D2E/DX2                !
 ! D42   D(8,9,10,11)            0.3681         estimate D2E/DX2                !
 ! D43   D(8,9,10,29)          179.3925         estimate D2E/DX2                !
 ! D44   D(28,9,10,11)        -179.1787         estimate D2E/DX2                !
 ! D45   D(28,9,10,29)          -0.1543         estimate D2E/DX2                !
 ! D46   D(9,10,11,12)          -3.7209         estimate D2E/DX2                !
 ! D47   D(9,10,11,30)         175.0193         estimate D2E/DX2                !
 ! D48   D(29,10,11,12)        177.2439         estimate D2E/DX2                !
 ! D49   D(29,10,11,30)         -4.0159         estimate D2E/DX2                !
 ! D50   D(10,11,12,7)           4.7825         estimate D2E/DX2                !
 ! D51   D(10,11,12,13)        179.796          estimate D2E/DX2                !
 ! D52   D(30,11,12,7)        -173.8774         estimate D2E/DX2                !
 ! D53   D(30,11,12,13)          1.1361         estimate D2E/DX2                !
 ! D54   D(7,12,13,14)          29.1684         estimate D2E/DX2                !
 ! D55   D(7,12,13,15)        -150.7536         estimate D2E/DX2                !
 ! D56   D(11,12,13,14)       -145.6087         estimate D2E/DX2                !
 ! D57   D(11,12,13,15)         34.4693         estimate D2E/DX2                !
 ! D58   D(12,13,15,16)         -4.4262         estimate D2E/DX2                !
 ! D59   D(12,13,15,18)        178.7431         estimate D2E/DX2                !
 ! D60   D(14,13,15,16)        175.6546         estimate D2E/DX2                !
 ! D61   D(14,13,15,18)         -1.1762         estimate D2E/DX2                !
 ! D62   D(13,15,16,17)        -93.0886         estimate D2E/DX2                !
 ! D63   D(13,15,16,31)        147.2608         estimate D2E/DX2                !
 ! D64   D(13,15,16,32)         32.7052         estimate D2E/DX2                !
 ! D65   D(18,15,16,17)         83.7737         estimate D2E/DX2                !
 ! D66   D(18,15,16,31)        -35.8769         estimate D2E/DX2                !
 ! D67   D(18,15,16,32)       -150.4325         estimate D2E/DX2                !
 ! D68   D(13,15,18,19)        -66.3239         estimate D2E/DX2                !
 ! D69   D(13,15,18,36)        172.8431         estimate D2E/DX2                !
 ! D70   D(13,15,18,37)         56.6186         estimate D2E/DX2                !
 ! D71   D(16,15,18,19)        116.4303         estimate D2E/DX2                !
 ! D72   D(16,15,18,36)         -4.4027         estimate D2E/DX2                !
 ! D73   D(16,15,18,37)       -120.6272         estimate D2E/DX2                !
 ! D74   D(15,16,17,33)        -58.2874         estimate D2E/DX2                !
 ! D75   D(15,16,17,34)       -178.654          estimate D2E/DX2                !
 ! D76   D(15,16,17,35)         61.0876         estimate D2E/DX2                !
 ! D77   D(31,16,17,33)         61.3889         estimate D2E/DX2                !
 ! D78   D(31,16,17,34)        -58.9777         estimate D2E/DX2                !
 ! D79   D(31,16,17,35)       -179.236          estimate D2E/DX2                !
 ! D80   D(32,16,17,33)        176.7327         estimate D2E/DX2                !
 ! D81   D(32,16,17,34)         56.3661         estimate D2E/DX2                !
 ! D82   D(32,16,17,35)        -63.8923         estimate D2E/DX2                !
 ! D83   D(15,18,19,38)        -57.4803         estimate D2E/DX2                !
 ! D84   D(15,18,19,39)       -177.6663         estimate D2E/DX2                !
 ! D85   D(15,18,19,40)         63.2189         estimate D2E/DX2                !
 ! D86   D(36,18,19,38)         64.1069         estimate D2E/DX2                !
 ! D87   D(36,18,19,39)        -56.079          estimate D2E/DX2                !
 ! D88   D(36,18,19,40)       -175.1938         estimate D2E/DX2                !
 ! D89   D(37,18,19,38)       -179.5372         estimate D2E/DX2                !
 ! D90   D(37,18,19,39)         60.2768         estimate D2E/DX2                !
 ! D91   D(37,18,19,40)        -58.838          estimate D2E/DX2                !
 ! D92   D(3,20,21,43)         -55.5815         estimate D2E/DX2                !
 ! D93   D(3,20,21,44)        -175.0881         estimate D2E/DX2                !
 ! D94   D(3,20,21,45)          65.8777         estimate D2E/DX2                !
 ! D95   D(41,20,21,43)         67.5903         estimate D2E/DX2                !
 ! D96   D(41,20,21,44)        -51.9163         estimate D2E/DX2                !
 ! D97   D(41,20,21,45)       -170.9505         estimate D2E/DX2                !
 ! D98   D(42,20,21,43)       -176.8826         estimate D2E/DX2                !
 ! D99   D(42,20,21,44)         63.6108         estimate D2E/DX2                !
 ! D100  D(42,20,21,45)        -55.4233         estimate D2E/DX2                !
 --------------------------------------------------------------------------------
 Trust Radius=3.00D-01 FncErr=1.00D-07 GrdErr=1.00D-06
 Number of steps in this run= 234 maximum allowed number of steps= 270.
 GradGradGradGradGradGradGradGradGradGradGradGradGradGradGradGradGradGrad

 Leave Link  103 at Thu Sep 30 07:02:57 2021, MaxMem= 1879048192 cpu:       0.0
 (Enter /sw/target/amd/app/gaussian/Gaussian09RevA.02_gcc-4.9.2/g09/l202.exe)
                          Input orientation:                          
 ---------------------------------------------------------------------
 Center     Atomic      Atomic             Coordinates (Angstroms)
 Number     Number       Type             X           Y           Z
 ---------------------------------------------------------------------
      1          6           0       -1.603879   -2.546745   -1.009246
      2          6           0       -0.573528   -1.729115   -0.240180
      3          7           0        0.712112   -1.644362   -0.940402
      4          6           0        0.932027   -0.594063   -1.863570
      5          8           0        1.892831   -0.568143   -2.634948
      6          8           0       -0.079693    0.368573   -1.828577
      7          6           0       -0.291119    1.358256   -2.831123
      8          6           0       -0.094222    1.005442   -4.176638
      9          6           0       -0.445920    1.889168   -5.192401
     10          6           0       -0.960417    3.132832   -4.868407
     11          6           0       -1.114793    3.492731   -3.527907
     12          6           0       -0.838942    2.612059   -2.475912
     13          6           0       -1.004363    3.011522   -1.036168
     14          8           0       -0.195371    2.524852   -0.241063
     15          7           0       -2.013440    3.889962   -0.567119
     16          6           0       -3.008012    4.636206   -1.354118
     17          6           0       -2.559759    6.055383   -1.721625
     18          6           0       -2.039264    4.144906    0.883196
     19          6           0       -2.399126    2.918961    1.721450
     20          6           0        1.574977   -2.823147   -1.005437
     21          6           0        2.002670   -3.385273    0.344313
     22          1           0       -2.588525   -2.452345   -0.540800
     23          1           0       -1.337692   -3.608600   -1.016985
     24          1           0       -1.686189   -2.213548   -2.048843
     25          1           0       -0.411359   -2.154375    0.756809
     26          1           0       -0.978758   -0.727054   -0.075720
     27          1           0        0.321785    0.040086   -4.446914
     28          1           0       -0.311981    1.610966   -6.233857
     29          1           0       -1.231753    3.840636   -5.648242
     30          1           0       -1.439820    4.498878   -3.354791
     31          1           0       -3.923672    4.715787   -0.754631
     32          1           0       -3.289647    4.063215   -2.239615
     33          1           0       -2.331933    6.649788   -0.832779
     34          1           0       -3.351098    6.563197   -2.283805
     35          1           0       -1.656351    6.090586   -2.334819
     36          1           0       -2.774328    4.930975    1.100497
     37          1           0       -1.060254    4.532058    1.184620
     38          1           0       -3.371416    2.509655    1.431632
     39          1           0       -2.440770    3.187182    2.782693
     40          1           0       -1.661181    2.117399    1.623238
     41          1           0        2.480299   -2.592838   -1.575369
     42          1           0        1.038495   -3.595694   -1.571299
     43          1           0        2.493408   -2.621477    0.956678
     44          1           0        2.711876   -4.206401    0.196689
     45          1           0        1.156207   -3.786935    0.910173
 ---------------------------------------------------------------------
                    Distance matrix (angstroms):
                    1          2          3          4          5
     1  C    0.000000
     2  C    1.523682   0.000000
     3  N    2.486533   1.466411   0.000000
     4  C    3.312651   2.488058   1.415533   0.000000
     5  O    4.334138   3.628456   2.328913   1.232412   0.000000
     6  O    3.390210   2.677157   2.338315   1.396950   2.327772
     7  C    4.504621   4.040371   3.687413   2.498758   2.918756
     8  C    4.992942   4.816973   4.259679   2.993641   2.966708
     9  C    6.206205   6.134553   5.648573   4.375647   4.248376
    10  C    6.896721   6.723740   6.406884   5.147828   5.179438
    11  C    6.561870   6.194335   6.035105   4.864296   5.131654
    12  C    5.417518   4.890269   4.783376   3.713558   4.195422
    13  C    5.590571   4.826267   4.963136   4.175458   4.874817
    14  O    5.319314   4.270742   4.323765   3.692044   4.433722
    15  N    6.464860   5.809841   6.180349   5.519333   6.277704
    16  C    7.327027   6.905424   7.311363   6.568042   7.262510
    17  C    8.684342   8.169345   8.402471   7.511847   8.033107
    18  C    6.967718   6.157473   6.664173   6.231462   7.074711
    19  C    6.161418   5.365204   6.131001   6.024143   7.039815
    20  C    3.190852   2.529545   1.462293   2.473579   2.800247
    21  C    3.942391   3.117898   2.519286   3.716434   4.101741
    22  H    1.094478   2.161862   3.421508   4.194904   5.293224
    23  H    1.094737   2.172518   2.840034   3.867269   4.722125
    24  H    1.094786   2.178062   2.702677   3.084172   3.982495
    25  H    2.166797   1.095962   2.098290   3.332513   4.396525
    26  H    2.138580   1.093336   2.109068   2.620152   3.849796
    27  H    4.713537   4.650620   3.909648   2.729140   2.474136
    28  H    6.800891   6.866491   6.298142   5.050655   4.749932
    29  H    7.903000   7.791182   7.485157   6.218701   6.187107
    30  H    7.427605   7.017062   6.942585   5.812697   6.107327
    31  H    7.628279   7.281819   7.872515   7.280252   8.080050
    32  H    6.931609   6.702696   7.090731   6.297157   6.961598
    33  H    9.226995   8.581910   8.835764   8.011825   8.555406
    34  H    9.363136   8.980742   9.256264   8.351534   8.858786
    35  H    8.738615   8.167480   8.208742   7.183753   7.551519
    36  H    7.857307   7.141269   7.717227   7.283461   8.122575
    37  H    7.430884   6.439662   6.767952   6.287906   7.022953
    38  H    5.886362   5.346990   6.289483   6.245882   7.329544
    39  H    6.925107   6.065833   6.866288   6.874688   7.888815
    40  H    5.356072   4.410327   5.133772   5.121971   6.162409
    41  H    4.123485   3.443051   2.104584   2.544662   2.359494
    42  H    2.897988   2.802608   2.076597   3.017706   3.320739
    43  H    4.545130   3.410994   2.779691   3.808165   4.180509
    44  H    4.778543   4.137836   3.443265   4.523441   4.682513
    45  H    3.583338   2.924024   2.865740   4.235368   4.844700
                    6          7          8          9         10
     6  O    0.000000
     7  C    1.424525   0.000000
     8  C    2.432942   1.404869   0.000000
     9  C    3.709669   2.425173   1.391559   0.000000
    10  C    4.202067   2.783452   2.398880   1.384333   0.000000
    11  C    3.703987   2.391638   2.765687   2.406106   1.396531
    12  C    2.455348   1.413615   2.455259   2.838371   2.451528
    13  C    2.910002   2.542414   3.836048   4.341176   3.834410
    14  O    2.680135   2.842275   4.219904   4.998261   4.729402
    15  N    4.210800   3.808102   5.003247   5.277644   4.492569
    16  C    5.197390   4.506441   5.444194   5.370563   4.336244
    17  C    6.204996   5.332984   6.132525   5.819961   4.582732
    18  C    5.045228   4.961612   6.264292   6.673828   5.938783
    19  C    4.948429   5.254086   6.615254   7.257880   6.748469
    20  C    3.688166   4.929460   5.244124   6.619713   7.538199
    21  C    4.811345   6.151904   6.641862   8.029354   8.856524
    22  H    3.988757   5.004431   5.603316   6.713932   7.250732
    23  H    4.249605   5.390368   5.728787   6.960949   7.773203
    24  H    3.049048   3.913562   4.174179   5.315308   6.087730
    25  H    3.627600   5.022577   5.867190   7.193367   7.739449
    26  H    2.254157   3.523295   4.538885   5.771391   6.153771
    27  H    2.669228   2.173478   1.085368   2.136405   3.374430
    28  H    4.583011   3.412169   2.155511   1.086263   2.144994
    29  H    5.288885   3.870809   3.390858   2.152568   1.087545
    30  H    4.608546   3.384856   3.832775   3.342938   2.094503
    31  H    5.901509   5.364725   6.335730   6.307006   5.311287
    32  H    4.911532   4.081404   4.828331   4.640281   3.633383
    33  H    6.746693   6.013203   6.931623   6.725091   5.525969
    34  H    7.020163   6.062543   6.714067   6.224671   4.915579
    35  H    5.956808   4.950265   5.629497   5.223297   3.956223
    36  H    6.054424   5.864152   7.102178   7.367132   6.492411
    37  H    5.232157   5.175981   6.489478   6.930272   6.213448
    38  H    5.103786   5.383774   6.667484   7.267829   6.774345
    39  H    5.897716   6.283382   7.661499   8.322643   7.793184
    40  H    4.180255   4.721726   6.109859   6.926896   6.607846
    41  H    3.922706   4.986864   5.132482   6.460190   7.447544
    42  H    4.126978   5.281728   5.407522   6.737921   7.754975
    43  H    4.828964   6.159489   6.797155   8.172928   8.886653
    44  H    5.729306   7.010780   7.359585   8.727539   9.643924
    45  H    5.128006   6.524188   7.099725   8.486835   9.260413
                   11         12         13         14         15
    11  C    0.000000
    12  C    1.399418   0.000000
    13  C    2.540180   1.503262   0.000000
    14  O    3.547601   2.327303   1.234305   0.000000
    15  N    3.119555   2.579917   1.417709   2.296783   0.000000
    16  C    3.101157   3.171823   2.599096   3.688856   1.471537
    17  C    3.452211   3.922580   3.486286   4.499671   2.514040
    18  C    4.553878   3.882525   2.457547   2.699717   1.472779
    19  C    5.434563   4.488453   3.091665   2.977132   2.515779
    20  C    7.313551   6.126236   6.379444   5.685024   7.624611
    21  C    8.486436   7.210854   7.201873   6.332743   8.359958
    22  H    6.814589   5.696831   5.710412   5.530779   6.368380
    23  H    7.535470   6.408886   6.628536   6.286985   7.542376
    24  H    5.922478   4.917998   5.365795   5.286118   6.289311
    25  H    7.123441   5.775136   5.500265   4.789317   6.391670
    26  H    5.453686   4.114626   3.860061   3.349019   4.756982
    27  H    3.850856   3.441974   4.713946   4.912301   5.943705
    28  H    3.392302   3.924542   5.427423   6.063198   6.340403
    29  H    2.151869   3.424526   4.691520   5.660650   5.141136
    30  H    1.071421   2.166465   2.788882   3.891110   2.910487
    31  H    4.132399   4.111452   3.392071   4.354788   2.089529
    32  H    2.591359   2.857910   2.788703   3.991907   2.110915
    33  H    4.325755   4.607837   3.878245   4.682961   2.790816
    34  H    3.997074   4.686077   4.436006   5.517213   3.447104
    35  H    2.909569   3.576061   3.404734   4.385514   2.845175
    36  H    5.122960   4.681217   3.373783   3.773623   2.107985
    37  H    4.826083   4.139428   2.692035   2.609497   2.095099
    38  H    5.536769   4.657554   3.456132   3.589624   2.782867
    39  H    6.455636   5.527164   4.083849   3.824081   3.449311
    40  H    5.359512   4.209964   2.881546   2.406291   2.839671
    41  H    7.332887   6.238532   6.621364   5.927084   7.952166
    42  H    7.662293   6.548228   6.936494   6.383811   8.146025
    43  H    8.397271   7.090637   6.923621   5.928644   8.064272
    44  H    9.369773   8.138950   8.211504   7.345304   9.405483
    45  H    8.823125   7.509548   7.394277   6.556734   8.435864
                   16         17         18         19         20
    16  C    0.000000
    17  C    1.532989   0.000000
    18  C    2.487052   3.271992   0.000000
    19  C    3.574744   4.660227   1.528107   0.000000
    20  C    8.761696   9.820247   8.073626   7.496747   0.000000
    21  C    9.609149  10.686900   8.563365   7.811254   1.523395
    22  H    7.147378   8.589331   6.771497   5.831344   4.205725
    23  H    8.419053   9.766398   8.013722   7.157843   3.016738
    24  H    7.010635   8.321383   7.010810   6.408279   3.477860
    25  H    7.570377   8.840723   6.507456   5.533578   2.738301
    26  H    5.875095   7.156118   5.077419   4.305891   3.432134
    27  H    6.463533   7.205157   7.129809   7.330757   4.648909
    28  H    6.342911   6.720535   7.749633   8.327901   7.110439
    29  H    4.714609   4.699683   6.588197   7.518285   8.592984
    30  H    2.545738   2.518770   4.294784   5.402281   8.259572
    31  H    1.097337   2.142394   2.561128   3.418158   9.334536
    32  H    1.091670   2.183984   3.364830   4.218102   8.521135
    33  H    2.187096   1.093284   3.050354   4.521910  10.248427
    34  H    2.166868   1.095508   4.195109   5.498070  10.677260
    35  H    2.214494   1.092424   3.779936   5.202330   9.574099
    36  H    2.483270   3.045440   1.097927   2.138822   9.136620
    37  H    3.201530   3.607671   1.095081   2.163989   8.114175
    38  H    3.523448   4.813938   2.179325   1.094017   7.671042
    39  H    4.419800   5.341312   2.164839   1.095405   8.160895
    40  H    4.125893   5.244356   2.191208   1.093943   6.464646
    41  H    9.079074  10.010758   8.477510   8.065837   1.094291
    42  H    9.175270  10.301132   8.684126   8.068468   1.097653
    43  H    9.395711  10.392098   8.144597   7.430897   2.175795
    44  H   10.644897  11.695054   9.632702   8.900451   2.156627
    45  H    9.665249  10.844629   8.551366   7.633322   2.184906
                   21         22         23         24         25
    21  C    0.000000
    22  H    4.767898   0.000000
    23  H    3.614004   1.768688   0.000000
    24  H    4.550584   1.773535   1.769845   0.000000
    25  H    2.740948   2.551985   2.473703   3.082268   0.000000
    26  H    4.016400   2.405052   3.052559   2.569696   1.747080
    27  H    6.124893   5.471731   5.275527   3.855071   5.694900
    28  H    8.578597   7.355545   7.450617   5.833498   7.940848
    29  H    9.929047   8.217567   8.772165   7.057998   8.811236
    30  H    9.364505   7.586671   8.438422   6.842724   7.888521
    31  H   10.097345   7.294550   8.720753   7.395742   7.862564
    32  H    9.495540   6.769791   8.010099   6.481144   7.478069
    33  H   10.994398   9.110429  10.308102   8.969645   9.150338
    34  H   11.599219   9.214096  10.446247   8.936351   9.689347
    35  H   10.505146   8.778902   9.793489   8.309110   8.893118
    36  H    9.620369   7.565830   8.914706   7.883311   7.476893
    37  H    8.530637   7.354901   8.437674   7.506683   6.731454
    38  H    8.050667   5.396744   6.896723   6.104289   5.565114
    39  H    8.299821   6.547648   7.863649   7.285672   6.062586
    40  H    6.733413   5.140583   6.313674   5.678196   4.534403
    41  H    2.131024   5.175234   3.990065   4.210423   3.740720
    42  H    2.154874   3.940108   2.440020   3.092293   3.098316
    43  H    1.095080   5.300669   4.421209   5.164165   2.948865
    44  H    1.094997   5.631594   4.269587   5.325115   3.778776
    45  H    1.094545   4.231958   3.156782   4.394376   2.268488
                   26         27         28         29         30
    26  H    0.000000
    27  H    4.624636   0.000000
    28  H    6.620693   2.462212   0.000000
    29  H    7.209771   4.277949   2.482006   0.000000
    30  H    6.186700   4.916992   4.230967   2.395097   0.000000
    31  H    6.225589   7.315671   7.259899   5.653295   3.602416
    32  H    5.741893   5.839536   5.552837   3.987883   2.203470
    33  H    7.538039   7.987012   7.657779   5.682466   3.432612
    34  H    7.978182   7.792309   7.025933   4.819066   3.010216
    35  H    7.214075   6.706901   6.089074   4.027571   1.902830
    36  H    6.051516   8.017511   8.418929   7.008128   4.670890
    37  H    5.408638   7.334986   8.007902   6.869896   4.555373
    38  H    4.298047   7.368569   8.302259   7.514937   5.531538
    39  H    5.062534   8.354827   9.397572   8.542212   6.355404
    40  H    3.382761   6.715217   7.988164   7.485211   5.522791
    41  H    4.206562   4.453902   6.868064   8.470962   8.296150
    42  H    3.812501   4.690600   7.118464   8.779208   8.651300
    43  H    4.087863   6.403021   8.802703   9.962967   9.206439
    44  H    5.079453   6.731139   9.183539  10.699076  10.277718
    45  H    3.859136   6.636319   9.073592  10.339004   9.673881
                   31         32         33         34         35
    31  H    0.000000
    32  H    1.741555   0.000000
    33  H    2.506013   3.096250   0.000000
    34  H    2.465590   2.501127   1.775295   0.000000
    35  H    3.086715   2.605178   1.739323   1.760150   0.000000
    36  H    2.192897   3.489256   2.624421   3.801356   3.794201
    37  H    3.463179   4.112832   3.189332   4.626387   3.894969
    38  H    3.154639   3.987265   4.832058   5.498735   5.472720
    39  H    4.128957   5.168326   5.007307   6.155938   5.935823
    40  H    4.186257   4.621660   5.198507   6.155154   5.608249
    41  H    9.751945   8.833829  10.446777  10.878420   9.648341
    42  H    9.714462   8.822605  10.810879  11.089601  10.083114
    43  H    9.896613   9.399209  10.603888  11.358575  10.195808
    44  H   11.159792  10.504305  12.014852  12.605425  11.468125
    45  H   10.043556   9.555712  11.141373  11.732115  10.770602
                   36         37         38         39         40
    36  H    0.000000
    37  H    1.761891   0.000000
    38  H    2.515741   3.081006   0.000000
    39  H    2.445784   2.503668   1.774967   0.000000
    40  H    3.070597   2.526673   1.765073   1.759696   0.000000
    41  H    9.559242   8.421235   8.325866   8.753185   7.040545
    42  H    9.714947   8.835169   8.108033   8.778949   7.080449
    43  H    9.209195   7.990842   7.807065   7.837153   6.337339
    44  H   10.696119   9.568995   9.145324   9.375620   7.819791
    45  H    9.564898   8.613575   7.772923   8.067396   6.580828
                   41         42         43         44         45
    41  H    0.000000
    42  H    1.756285   0.000000
    43  H    2.532243   3.075149   0.000000
    44  H    2.407780   2.509771   1.771242   0.000000
    45  H    3.058922   2.491613   1.774418   1.762135   0.000000
 Stoichiometry    C16H24N2O3
 Framework group  C1[X(C16H24N2O3)]
 Deg. of freedom   129
 Full point group                 C1      NOp   1
 Largest Abelian subgroup         C1      NOp   1
 Largest concise Abelian subgroup C1      NOp   1
                         Standard orientation:                         
 ---------------------------------------------------------------------
 Center     Atomic      Atomic             Coordinates (Angstroms)
 Number     Number       Type             X           Y           Z
 ---------------------------------------------------------------------
      1          6           0       -3.115219   -0.851149    2.325478
      2          6           0       -2.838931   -1.337759    0.908269
      3          7           0       -3.233856   -0.357939   -0.108760
      4          6           0       -2.301881    0.621455   -0.528217
      5          8           0       -2.614192    1.593903   -1.217888
      6          8           0       -1.017112    0.382503   -0.034517
      7          6           0        0.039496    1.337923   -0.029801
      8          6           0       -0.269948    2.681657    0.239051
      9          6           0        0.747678    3.614500    0.414202
     10          6           0        2.067844    3.217278    0.288688
     11          6           0        2.366892    1.888429   -0.019582
     12          6           0        1.380257    0.902955   -0.136902
     13          6           0        1.713071   -0.523808   -0.473620
     14          8           0        0.887642   -1.125005   -1.166972
     15          7           0        2.890320   -1.186801   -0.044175
     16          6           0        4.026991   -0.628643    0.705399
     17          6           0        5.165024   -0.126273   -0.190459
     18          6           0        3.034144   -2.595916   -0.447648
     19          6           0        2.004402   -3.530118    0.186393
     20          6           0       -4.653477   -0.130408   -0.375600
     21          6           0       -5.431382   -1.361158   -0.823763
     22          1           0       -2.662830   -1.530919    3.054271
     23          1           0       -4.190747   -0.813421    2.526138
     24          1           0       -2.707004    0.150811    2.492791
     25          1           0       -3.360497   -2.282574    0.717414
     26          1           0       -1.772397   -1.561717    0.820339
     27          1           0       -1.300136    3.012096    0.325917
     28          1           0        0.510964    4.650173    0.640733
     29          1           0        2.876401    3.934009    0.412324
     30          1           0        3.404117    1.674654   -0.182088
     31          1           0        4.429001   -1.420405    1.350108
     32          1           0        3.678890    0.150925    1.385723
     33          1           0        5.554192   -0.920870   -0.832668
     34          1           0        5.986674    0.253060    0.426903
     35          1           0        4.873586    0.679365   -0.868252
     36          1           0        4.033515   -2.953611   -0.167016
     37          1           0        2.970579   -2.652131   -1.539436
     38          1           0        2.044251   -3.484291    1.278723
     39          1           0        2.193325   -4.564059   -0.122129
     40          1           0        0.981597   -3.288043   -0.116889
     41          1           0       -4.770715    0.639314   -1.144532
     42          1           0       -5.102321    0.273689    0.540962
     43          1           0       -4.975193   -1.821284   -1.706585
     44          1           0       -6.457029   -1.078219   -1.082633
     45          1           0       -5.493944   -2.118380   -0.035899
 ---------------------------------------------------------------------
 Rotational constants (GHZ):      0.4422216      0.1862106      0.1452392
 Leave Link  202 at Thu Sep 30 07:02:57 2021, MaxMem= 1879048192 cpu:       0.1
 (Enter /sw/target/amd/app/gaussian/Gaussian09RevA.02_gcc-4.9.2/g09/l301.exe)
 Standard basis: 6-31G(d) (6D, 7F)
 Ernie: Thresh=  0.10000D-02 Tol=  0.10000D-05 Strict=F.
 There are   363 symmetry adapted basis functions of A   symmetry.
 Integral buffers will be    131072 words long.
 Raffenetti 2 integral format.
 Two-electron integral symmetry is turned on.
   363 basis functions,   684 primitive gaussians,   363 cartesian basis functions
    79 alpha electrons       79 beta electrons
       nuclear repulsion energy      1741.6950214274 Hartrees.
 IExCor=  402 DFT=T Ex+Corr=B3LYP ExCW=0 ScaHFX=  0.200000
 ScaDFX=  0.800000  0.720000  1.000000  0.810000 ScalE2=  1.000000  1.000000
 IRadAn=      0 IRanWt=     -1 IRanGd=            0 ICorTp=0
 NAtoms=   45 NActive=   45 NUniq=   45 SFac= 7.50D-01 NAtFMM=   80 NAOKFM=F Big=F
 Leave Link  301 at Thu Sep 30 07:02:58 2021, MaxMem= 1879048192 cpu:       0.1
 (Enter /sw/target/amd/app/gaussian/Gaussian09RevA.02_gcc-4.9.2/g09/l302.exe)
 NPDir=0 NMtPBC=     1 NCelOv=     1 NCel=       1 NClECP=     1 NCelD=      1
         NCelK=      1 NCelE2=     1 NClLst=     1 CellRange=     0.0.
 One-electron integrals computed using PRISM.
 NBasis=   363 RedAO= T  NBF=   363
 NBsUse=   363 1.00D-06 NBFU=   363
 Precomputing XC quadrature grid using
 IXCGrd= 2 IRadAn=           0 IRanWt=          -1 IRanGd=           0 AccXCQ= 1.00D-10.
 NRdTot=    2875 NPtTot=      366896 NUsed=      387619 NTot=      387651
 NSgBfM=   360   360   360   360   360 NAtAll=    45    45.
 Leave Link  302 at Thu Sep 30 07:03:07 2021, MaxMem= 1879048192 cpu:       5.2
 (Enter /sw/target/amd/app/gaussian/Gaussian09RevA.02_gcc-4.9.2/g09/l303.exe)
 DipDrv:  MaxL=1.
 Leave Link  303 at Thu Sep 30 07:03:08 2021, MaxMem= 1879048192 cpu:       0.3
 (Enter /sw/target/amd/app/gaussian/Gaussian09RevA.02_gcc-4.9.2/g09/l401.exe)
 Harris functional with IExCor=  402 diagonalized for initial guess.
 ExpMin= 1.61D-01 ExpMax= 5.48D+03 ExpMxC= 8.25D+02 IAcc=1 IRadAn=         1 AccDes= 0.00D+00
 HarFok:  IExCor=  402 AccDes= 0.00D+00 IRadAn=         1 IDoV= 1
 ScaDFX=  1.000000  1.000000  1.000000  1.000000
 FoFCou: FMM=F IPFlag=           0 FMFlag=      100000 FMFlg1=           0
         NFxFlg=           0 DoJE=T BraDBF=F KetDBF=T FulRan=T
         Omega=  0.000000  0.000000  1.000000  0.000000  0.000000 ICntrl=     500 IOpCl=  0
         NMat0=    1 NMatS0=    1 NMatT0=    0 NMatD0=    1 NMtDS0=    0 NMtDT0=    0
         I1Cent=           4 NGrid=           0.
 Petite list used in FoFCou.
 Harris En= -959.523461268572    
 Initial guess orbital symmetries:
       Occupied  (A) (A) (A) (A) (A) (A) (A) (A) (A) (A) (A) (A)
                 (A) (A) (A) (A) (A) (A) (A) (A) (A) (A) (A) (A)
                 (A) (A) (A) (A) (A) (A) (A) (A) (A) (A) (A) (A)
                 (A) (A) (A) (A) (A) (A) (A) (A) (A) (A) (A) (A)
                 (A) (A) (A) (A) (A) (A) (A) (A) (A) (A) (A) (A)
                 (A) (A) (A) (A) (A) (A) (A) (A) (A) (A) (A) (A)
                 (A) (A) (A) (A) (A) (A) (A)
       Virtual   (A) (A) (A) (A) (A) (A) (A) (A) (A) (A) (A) (A)
                 (A) (A) (A) (A) (A) (A) (A) (A) (A) (A) (A) (A)
                 (A) (A) (A) (A) (A) (A) (A) (A) (A) (A) (A) (A)
                 (A) (A) (A) (A) (A) (A) (A) (A) (A) (A) (A) (A)
                 (A) (A) (A) (A) (A) (A) (A) (A) (A) (A) (A) (A)
                 (A) (A) (A) (A) (A) (A) (A) (A) (A) (A) (A) (A)
                 (A) (A) (A) (A) (A) (A) (A) (A) (A) (A) (A) (A)
                 (A) (A) (A) (A) (A) (A) (A) (A) (A) (A) (A) (A)
                 (A) (A) (A) (A) (A) (A) (A) (A) (A) (A) (A) (A)
                 (A) (A) (A) (A) (A) (A) (A) (A) (A) (A) (A) (A)
                 (A) (A) (A) (A) (A) (A) (A) (A) (A) (A) (A) (A)
                 (A) (A) (A) (A) (A) (A) (A) (A) (A) (A) (A) (A)
                 (A) (A) (A) (A) (A) (A) (A) (A) (A) (A) (A) (A)
                 (A) (A) (A) (A) (A) (A) (A) (A) (A) (A) (A) (A)
                 (A) (A) (A) (A) (A) (A) (A) (A) (A) (A) (A) (A)
                 (A) (A) (A) (A) (A) (A) (A) (A) (A) (A) (A) (A)
                 (A) (A) (A) (A) (A) (A) (A) (A) (A) (A) (A) (A)
                 (A) (A) (A) (A) (A) (A) (A) (A) (A) (A) (A) (A)
                 (A) (A) (A) (A) (A) (A) (A) (A) (A) (A) (A) (A)
                 (A) (A) (A) (A) (A) (A) (A) (A) (A) (A) (A) (A)
                 (A) (A) (A) (A) (A) (A) (A) (A) (A) (A) (A) (A)
                 (A) (A) (A) (A) (A) (A) (A) (A) (A) (A) (A) (A)
                 (A) (A) (A) (A) (A) (A) (A) (A) (A) (A) (A) (A)
                 (A) (A) (A) (A) (A) (A) (A) (A)
 The electronic state of the initial guess is 1-A.
 Leave Link  401 at Thu Sep 30 07:03:25 2021, MaxMem= 1879048192 cpu:      20.2
 (Enter /sw/target/amd/app/gaussian/Gaussian09RevA.02_gcc-4.9.2/g09/l502.exe)
 Closed shell SCF:
 Requested convergence on RMS density matrix=1.00D-08 within  64 cycles.
 Requested convergence on MAX density matrix=1.00D-06.
 Requested convergence on             energy=1.00D-06.
 No special actions if energy rises.
 Using DIIS extrapolation, IDIIS=  1040.
 Integral symmetry usage will be decided dynamically.
       387201 words used for storage of precomputed grid.
 IEnd=      793350 IEndB=      793350 NGot=  1879048192 MDV=  1878391199
 LenX=  1878391199 LenY=  1878258989
 Fock matrices will be formed incrementally for  20 cycles.
 Integral accuracy reduced to 1.0D-05 until final iterations.

 Cycle   1  Pass 0  IDiag  1:
 FoFCou: FMM=F IPFlag=           0 FMFlag=      100000 FMFlg1=           0
         NFxFlg=           0 DoJE=F BraDBF=F KetDBF=F FulRan=T
         Omega=  0.000000  0.000000  1.000000  0.000000  0.000000 ICntrl=       0 IOpCl=  0
         NMat0=    1 NMatS0=    1 NMatT0=    0 NMatD0=    1 NMtDS0=    0 NMtDT0=    0
         I1Cent=           0 NGrid=           0.
 Symmetry not used in FoFCou.
 E= -958.670427706397    
 DIIS: error= 3.22D-02 at cycle   1 NSaved=   1.
 NSaved= 1 IEnMin= 1 EnMin= -958.670427706397     IErMin= 1 ErrMin= 3.22D-02
 ErrMax= 3.22D-02 EMaxC= 1.00D-01 BMatC= 6.96D-01 BMatP= 6.96D-01
 IDIUse=3 WtCom= 6.78D-01 WtEn= 3.22D-01
 Coeff-Com:  0.100D+01
 Coeff-En:   0.100D+01
 Coeff:      0.100D+01
 Gap=     0.222 Goal=   None    Shift=    0.000
 GapD=    0.222 DampG=1.000 DampE=0.500 DampFc=0.5000 IDamp=-1.
 Damping current iteration by 5.00D-01
 RMSDP=5.31D-03 MaxDP=2.05D-01              OVMax= 2.64D-01

 Cycle   2  Pass 0  IDiag  1:
 RMSU=  1.86D-03    CP:  9.79D-01
 E= -958.876383208442     Delta-E=       -0.205955502045 Rises=F Damp=T
 DIIS: error= 1.05D-02 at cycle   2 NSaved=   2.
 NSaved= 2 IEnMin= 2 EnMin= -958.876383208442     IErMin= 2 ErrMin= 1.05D-02
 ErrMax= 1.05D-02 EMaxC= 1.00D-01 BMatC= 1.04D-01 BMatP= 6.96D-01
 IDIUse=3 WtCom= 8.95D-01 WtEn= 1.05D-01
 Coeff-Com:  0.210D+00 0.790D+00
 Coeff-En:   0.313D+00 0.687D+00
 Coeff:      0.221D+00 0.779D+00
 Gap=     0.225 Goal=   None    Shift=    0.000
 RMSDP=1.69D-03 MaxDP=7.36D-02 DE=-2.06D-01 OVMax= 1.89D-01

 Cycle   3  Pass 0  IDiag  1:
 RMSU=  1.09D-03    CP:  9.71D-01  7.43D-01
 E= -959.242659129745     Delta-E=       -0.366275921303 Rises=F Damp=F
 DIIS: error= 1.21D-02 at cycle   3 NSaved=   3.
 NSaved= 3 IEnMin= 3 EnMin= -959.242659129745     IErMin= 2 ErrMin= 1.05D-02
 ErrMax= 1.21D-02 EMaxC= 1.00D-01 BMatC= 1.16D-01 BMatP= 1.04D-01
 IDIUse=2 WtCom= 0.00D+00 WtEn= 1.00D+00
 Coeff-En:   0.000D+00 0.000D+00 0.100D+01
 Coeff:      0.000D+00 0.000D+00 0.100D+01
 Gap=     0.224 Goal=   None    Shift=    0.000
 RMSDP=2.99D-03 MaxDP=1.44D-01 DE=-3.66D-01 OVMax= 2.77D-01

 Cycle   4  Pass 0  IDiag  1:
 RMSU=  9.00D-04    CP:  9.82D-01  1.18D+00 -5.86D-01
 E= -958.766250349317     Delta-E=        0.476408780428 Rises=F Damp=F
 DIIS: error= 3.45D-02 at cycle   4 NSaved=   4.
 NSaved= 4 IEnMin= 3 EnMin= -959.242659129745     IErMin= 2 ErrMin= 1.05D-02
 ErrMax= 3.45D-02 EMaxC= 1.00D-01 BMatC= 7.08D-01 BMatP= 1.04D-01
 IDIUse=2 WtCom= 0.00D+00 WtEn= 1.00D+00
 Coeff-En:   0.000D+00 0.000D+00 0.798D+00 0.202D+00
 Coeff:      0.000D+00 0.000D+00 0.798D+00 0.202D+00
 Gap=     0.193 Goal=   None    Shift=    0.000
 RMSDP=1.63D-03 MaxDP=9.38D-02 DE= 4.76D-01 OVMax= 1.46D-01

 Cycle   5  Pass 0  IDiag  1:
 RMSU=  1.90D-04    CP:  9.79D-01  8.60D-01  2.06D-01  5.01D-01
 E= -959.302600940803     Delta-E=       -0.536350591486 Rises=F Damp=F
 DIIS: error= 7.77D-03 at cycle   5 NSaved=   5.
 NSaved= 5 IEnMin= 5 EnMin= -959.302600940803     IErMin= 5 ErrMin= 7.77D-03
 ErrMax= 7.77D-03 EMaxC= 1.00D-01 BMatC= 4.79D-02 BMatP= 1.04D-01
 IDIUse=3 WtCom= 9.22D-01 WtEn= 7.77D-02
 Coeff-Com: -0.653D-02 0.481D-01 0.318D+00-0.740D-01 0.714D+00
 Coeff-En:   0.000D+00 0.000D+00 0.332D+00 0.000D+00 0.668D+00
 Coeff:     -0.602D-02 0.444D-01 0.319D+00-0.683D-01 0.711D+00
 Gap=     0.202 Goal=   None    Shift=    0.000
 RMSDP=5.83D-04 MaxDP=2.33D-02 DE=-5.36D-01 OVMax= 4.32D-02

 Cycle   6  Pass 0  IDiag  1:
 RMSU=  8.01D-05    CP:  9.76D-01  8.06D-01  5.22D-01  3.08D-01  6.54D-01
 E= -959.342775575427     Delta-E=       -0.040174634625 Rises=F Damp=F
 DIIS: error= 1.23D-03 at cycle   6 NSaved=   6.
 NSaved= 6 IEnMin= 6 EnMin= -959.342775575427     IErMin= 6 ErrMin= 1.23D-03
 ErrMax= 1.23D-03 EMaxC= 1.00D-01 BMatC= 5.96D-04 BMatP= 4.79D-02
 IDIUse=3 WtCom= 9.88D-01 WtEn= 1.23D-02
 Coeff-Com: -0.840D-02 0.293D-01 0.167D+00-0.672D-01 0.481D+00 0.398D+00
 Coeff-En:   0.000D+00 0.000D+00 0.000D+00 0.000D+00 0.000D+00 0.100D+01
 Coeff:     -0.830D-02 0.290D-01 0.165D+00-0.664D-01 0.476D+00 0.405D+00
 Gap=     0.197 Goal=   None    Shift=    0.000
 RMSDP=7.61D-05 MaxDP=3.87D-03 DE=-4.02D-02 OVMax= 8.62D-03

 Cycle   7  Pass 0  IDiag  1:
 RMSU=  1.79D-05    CP:  9.76D-01  8.11D-01  5.10D-01  3.06D-01  7.78D-01
                    CP:  4.70D-01
 E= -959.343368635851     Delta-E=       -0.000593060423 Rises=F Damp=F
 DIIS: error= 1.99D-04 at cycle   7 NSaved=   7.
 NSaved= 7 IEnMin= 7 EnMin= -959.343368635851     IErMin= 7 ErrMin= 1.99D-04
 ErrMax= 1.99D-04 EMaxC= 1.00D-01 BMatC= 1.56D-05 BMatP= 5.96D-04
 IDIUse=3 WtCom= 9.98D-01 WtEn= 1.99D-03
 Coeff-Com: -0.178D-02 0.406D-02 0.385D-01-0.163D-01 0.112D+00 0.160D+00
 Coeff-Com:  0.704D+00
 Coeff-En:   0.000D+00 0.000D+00 0.000D+00 0.000D+00 0.000D+00 0.000D+00
 Coeff-En:   0.100D+01
 Coeff:     -0.177D-02 0.405D-02 0.384D-01-0.163D-01 0.112D+00 0.159D+00
 Coeff:      0.705D+00
 Gap=     0.197 Goal=   None    Shift=    0.000
 RMSDP=1.28D-05 MaxDP=5.79D-04 DE=-5.93D-04 OVMax= 1.10D-03

 Cycle   8  Pass 0  IDiag  1:
 RMSU=  6.39D-06    CP:  9.76D-01  8.10D-01  5.13D-01  3.06D-01  7.68D-01
                    CP:  4.96D-01  7.41D-01
 E= -959.343378956137     Delta-E=       -0.000010320286 Rises=F Damp=F
 DIIS: error= 8.26D-05 at cycle   8 NSaved=   8.
 NSaved= 8 IEnMin= 8 EnMin= -959.343378956137     IErMin= 8 ErrMin= 8.26D-05
 ErrMax= 8.26D-05 EMaxC= 1.00D-01 BMatC= 4.91D-06 BMatP= 1.56D-05
 IDIUse=1 WtCom= 1.00D+00 WtEn= 0.00D+00
 Coeff-Com: -0.520D-03 0.383D-03 0.146D-01-0.611D-02 0.411D-01 0.812D-01
 Coeff-Com:  0.482D+00 0.387D+00
 Coeff:     -0.520D-03 0.383D-03 0.146D-01-0.611D-02 0.411D-01 0.812D-01
 Coeff:      0.482D+00 0.387D+00
 Gap=     0.197 Goal=   None    Shift=    0.000
 RMSDP=6.43D-06 MaxDP=3.94D-04 DE=-1.03D-05 OVMax= 6.82D-04

 Initial convergence to 1.0D-05 achieved.  Increase integral accuracy.
 Cycle   9  Pass 1  IDiag  1:
 E= -959.343473762958     Delta-E=       -0.000094806820 Rises=F Damp=F
 DIIS: error= 3.43D-05 at cycle   1 NSaved=   1.
 NSaved= 1 IEnMin= 1 EnMin= -959.343473762958     IErMin= 1 ErrMin= 3.43D-05
 ErrMax= 3.43D-05 EMaxC= 1.00D-01 BMatC= 5.57D-07 BMatP= 5.57D-07
 IDIUse=1 WtCom= 1.00D+00 WtEn= 0.00D+00
 Coeff-Com:  0.100D+01
 Coeff:      0.100D+01
 Gap=     0.197 Goal=   None    Shift=    0.000
 RMSDP=6.43D-06 MaxDP=3.94D-04 DE=-9.48D-05 OVMax= 2.73D-04

 Cycle  10  Pass 1  IDiag  1:
 RMSU=  1.24D-05    CP:  1.00D+00
 E= -959.343473398007     Delta-E=        0.000000364951 Rises=F Damp=F
 DIIS: error= 3.91D-05 at cycle   2 NSaved=   2.
 NSaved= 2 IEnMin= 1 EnMin= -959.343473762958     IErMin= 1 ErrMin= 3.43D-05
 ErrMax= 3.91D-05 EMaxC= 1.00D-01 BMatC= 1.17D-06 BMatP= 5.57D-07
 IDIUse=1 WtCom= 1.00D+00 WtEn= 0.00D+00
 Coeff-Com:  0.612D+00 0.388D+00
 Coeff:      0.612D+00 0.388D+00
 Gap=     0.197 Goal=   None    Shift=    0.000
 RMSDP=3.33D-06 MaxDP=2.15D-04 DE= 3.65D-07 OVMax= 2.60D-04

 Cycle  11  Pass 1  IDiag  1:
 RMSU=  2.30D-06    CP:  1.00D+00  9.61D-01
 E= -959.343474236513     Delta-E=       -0.000000838507 Rises=F Damp=F
 DIIS: error= 1.24D-05 at cycle   3 NSaved=   3.
 NSaved= 3 IEnMin= 3 EnMin= -959.343474236513     IErMin= 3 ErrMin= 1.24D-05
 ErrMax= 1.24D-05 EMaxC= 1.00D-01 BMatC= 1.19D-07 BMatP= 5.57D-07
 IDIUse=1 WtCom= 1.00D+00 WtEn= 0.00D+00
 Coeff-Com:  0.581D-01 0.239D+00 0.703D+00
 Coeff:      0.581D-01 0.239D+00 0.703D+00
 Gap=     0.197 Goal=   None    Shift=    0.000
 RMSDP=1.03D-06 MaxDP=4.97D-05 DE=-8.39D-07 OVMax= 9.34D-05

 Cycle  12  Pass 1  IDiag  1:
 RMSU=  4.09D-07    CP:  1.00D+00  9.79D-01  7.56D-01
 E= -959.343474317765     Delta-E=       -0.000000081251 Rises=F Damp=F
 DIIS: error= 3.52D-06 at cycle   4 NSaved=   4.
 NSaved= 4 IEnMin= 4 EnMin= -959.343474317765     IErMin= 4 ErrMin= 3.52D-06
 ErrMax= 3.52D-06 EMaxC= 1.00D-01 BMatC= 1.47D-08 BMatP= 1.19D-07
 IDIUse=1 WtCom= 1.00D+00 WtEn= 0.00D+00
 Coeff-Com: -0.658D-02 0.117D+00 0.418D+00 0.471D+00
 Coeff:     -0.658D-02 0.117D+00 0.418D+00 0.471D+00
 Gap=     0.197 Goal=   None    Shift=    0.000
 RMSDP=3.26D-07 MaxDP=1.70D-05 DE=-8.13D-08 OVMax= 3.08D-05

 Cycle  13  Pass 1  IDiag  1:
 RMSU=  1.24D-07    CP:  1.00D+00  9.80D-01  7.87D-01  5.59D-01
 E= -959.343474329830     Delta-E=       -0.000000012066 Rises=F Damp=F
 DIIS: error= 1.49D-06 at cycle   5 NSaved=   5.
 NSaved= 5 IEnMin= 5 EnMin= -959.343474329830     IErMin= 5 ErrMin= 1.49D-06
 ErrMax= 1.49D-06 EMaxC= 1.00D-01 BMatC= 9.77D-10 BMatP= 1.47D-08
 IDIUse=1 WtCom= 1.00D+00 WtEn= 0.00D+00
 Coeff-Com: -0.651D-02 0.642D-01 0.232D+00 0.302D+00 0.408D+00
 Coeff:     -0.651D-02 0.642D-01 0.232D+00 0.302D+00 0.408D+00
 Gap=     0.197 Goal=   None    Shift=    0.000
 RMSDP=1.01D-07 MaxDP=5.53D-06 DE=-1.21D-08 OVMax= 9.47D-06

 Cycle  14  Pass 1  IDiag  1:
 RMSU=  4.77D-08    CP:  1.00D+00  9.81D-01  7.80D-01  5.74D-01  6.02D-01
 E= -959.343474330622     Delta-E=       -0.000000000791 Rises=F Damp=F
 DIIS: error= 2.86D-07 at cycle   6 NSaved=   6.
 NSaved= 6 IEnMin= 6 EnMin= -959.343474330622     IErMin= 6 ErrMin= 2.86D-07
 ErrMax= 2.86D-07 EMaxC= 1.00D-01 BMatC= 7.45D-11 BMatP= 9.77D-10
 IDIUse=1 WtCom= 1.00D+00 WtEn= 0.00D+00
 Coeff-Com: -0.307D-02 0.234D-01 0.835D-01 0.121D+00 0.245D+00 0.530D+00
 Coeff:     -0.307D-02 0.234D-01 0.835D-01 0.121D+00 0.245D+00 0.530D+00
 Gap=     0.197 Goal=   None    Shift=    0.000
 RMSDP=2.57D-08 MaxDP=1.12D-06 DE=-7.91D-10 OVMax= 1.85D-06

 Cycle  15  Pass 1  IDiag  1:
 RMSU=  1.38D-08    CP:  1.00D+00  9.81D-01  7.79D-01  5.73D-01  6.44D-01
                    CP:  7.87D-01
 E= -959.343474330656     Delta-E=       -0.000000000035 Rises=F Damp=F
 DIIS: error= 7.11D-08 at cycle   7 NSaved=   7.
 NSaved= 7 IEnMin= 7 EnMin= -959.343474330656     IErMin= 7 ErrMin= 7.11D-08
 ErrMax= 7.11D-08 EMaxC= 1.00D-01 BMatC= 5.44D-12 BMatP= 7.45D-11
 IDIUse=1 WtCom= 1.00D+00 WtEn= 0.00D+00
 Coeff-Com: -0.842D-03 0.524D-02 0.181D-01 0.299D-01 0.803D-01 0.267D+00
 Coeff-Com:  0.601D+00
 Coeff:     -0.842D-03 0.524D-02 0.181D-01 0.299D-01 0.803D-01 0.267D+00
 Coeff:      0.601D+00
 Gap=     0.197 Goal=   None    Shift=    0.000
 RMSDP=7.97D-09 MaxDP=5.06D-07 DE=-3.46D-11 OVMax= 6.56D-07

 SCF Done:  E(RB3LYP) =  -959.343474331     A.U. after   15 cycles
             Convg  =    0.7966D-08             -V/T =  2.0100
 KE= 9.498826881959D+02 PE=-5.714592603300D+03 EE= 2.063671419346D+03
 Leave Link  502 at Thu Sep 30 07:14:16 2021, MaxMem= 1879048192 cpu:     872.3
 (Enter /sw/target/amd/app/gaussian/Gaussian09RevA.02_gcc-4.9.2/g09/l508.exe)
 QCSCF skips out because SCF is already converged.
 Leave Link  508 at Thu Sep 30 07:14:16 2021, MaxMem= 1879048192 cpu:       0.0
 (Enter /sw/target/amd/app/gaussian/Gaussian09RevA.02_gcc-4.9.2/g09/l601.exe)
 Copying SCF densities to generalized density rwf, IOpCl= 0 IROHF=0.

 **********************************************************************

            Population analysis using the SCF density.

 **********************************************************************

 Orbital symmetries:
       Occupied  (A) (A) (A) (A) (A) (A) (A) (A) (A) (A) (A) (A)
                 (A) (A) (A) (A) (A) (A) (A) (A) (A) (A) (A) (A)
                 (A) (A) (A) (A) (A) (A) (A) (A) (A) (A) (A) (A)
                 (A) (A) (A) (A) (A) (A) (A) (A) (A) (A) (A) (A)
                 (A) (A) (A) (A) (A) (A) (A) (A) (A) (A) (A) (A)
                 (A) (A) (A) (A) (A) (A) (A) (A) (A) (A) (A) (A)
                 (A) (A) (A) (A) (A) (A) (A)
       Virtual   (A) (A) (A) (A) (A) (A) (A) (A) (A) (A) (A) (A)
                 (A) (A) (A) (A) (A) (A) (A) (A) (A) (A) (A) (A)
                 (A) (A) (A) (A) (A) (A) (A) (A) (A) (A) (A) (A)
                 (A) (A) (A) (A) (A) (A) (A) (A) (A) (A) (A) (A)
                 (A) (A) (A) (A) (A) (A) (A) (A) (A) (A) (A) (A)
                 (A) (A) (A) (A) (A) (A) (A) (A) (A) (A) (A) (A)
                 (A) (A) (A) (A) (A) (A) (A) (A) (A) (A) (A) (A)
                 (A) (A) (A) (A) (A) (A) (A) (A) (A) (A) (A) (A)
                 (A) (A) (A) (A) (A) (A) (A) (A) (A) (A) (A) (A)
                 (A) (A) (A) (A) (A) (A) (A) (A) (A) (A) (A) (A)
                 (A) (A) (A) (A) (A) (A) (A) (A) (A) (A) (A) (A)
                 (A) (A) (A) (A) (A) (A) (A) (A) (A) (A) (A) (A)
                 (A) (A) (A) (A) (A) (A) (A) (A) (A) (A) (A) (A)
                 (A) (A) (A) (A) (A) (A) (A) (A) (A) (A) (A) (A)
                 (A) (A) (A) (A) (A) (A) (A) (A) (A) (A) (A) (A)
                 (A) (A) (A) (A) (A) (A) (A) (A) (A) (A) (A) (A)
                 (A) (A) (A) (A) (A) (A) (A) (A) (A) (A) (A) (A)
                 (A) (A) (A) (A) (A) (A) (A) (A) (A) (A) (A) (A)
                 (A) (A) (A) (A) (A) (A) (A) (A) (A) (A) (A) (A)
                 (A) (A) (A) (A) (A) (A) (A) (A) (A) (A) (A) (A)
                 (A) (A) (A) (A) (A) (A) (A) (A) (A) (A) (A) (A)
                 (A) (A) (A) (A) (A) (A) (A) (A) (A) (A) (A) (A)
                 (A) (A) (A) (A) (A) (A) (A) (A) (A) (A) (A) (A)
                 (A) (A) (A) (A) (A) (A) (A) (A)
 The electronic state is 1-A.
 Alpha  occ. eigenvalues --  -19.18908 -19.11203 -19.10273 -14.36007 -14.35796
 Alpha  occ. eigenvalues --  -10.33237 -10.28714 -10.26581 -10.23118 -10.21680
 Alpha  occ. eigenvalues --  -10.21460 -10.21346 -10.21129 -10.19812 -10.19673
 Alpha  occ. eigenvalues --  -10.19332 -10.19206 -10.18894 -10.17840 -10.17649
 Alpha  occ. eigenvalues --  -10.16785  -1.08236  -1.02082  -0.99771  -0.92358
 Alpha  occ. eigenvalues --   -0.91958  -0.86000  -0.77387  -0.76861  -0.76424
 Alpha  occ. eigenvalues --   -0.75421  -0.73448  -0.73135  -0.65961  -0.64540
 Alpha  occ. eigenvalues --   -0.63931  -0.63731  -0.62067  -0.59915  -0.56316
 Alpha  occ. eigenvalues --   -0.53749  -0.52350  -0.51561  -0.48664  -0.48434
 Alpha  occ. eigenvalues --   -0.47991  -0.47156  -0.45778  -0.45237  -0.44341
 Alpha  occ. eigenvalues --   -0.43389  -0.43081  -0.42931  -0.42398  -0.41637
 Alpha  occ. eigenvalues --   -0.40827  -0.40363  -0.40080  -0.39182  -0.38614
 Alpha  occ. eigenvalues --   -0.38096  -0.37420  -0.37318  -0.37168  -0.36542
 Alpha  occ. eigenvalues --   -0.35963  -0.35946  -0.35701  -0.34691  -0.34127
 Alpha  occ. eigenvalues --   -0.33950  -0.33529  -0.31274  -0.26383  -0.25796
 Alpha  occ. eigenvalues --   -0.23952  -0.23378  -0.23133  -0.22787
 Alpha virt. eigenvalues --   -0.03106  -0.00724   0.04797   0.05419   0.07686
 Alpha virt. eigenvalues --    0.08107   0.09026   0.11646   0.11812   0.12712
 Alpha virt. eigenvalues --    0.12965   0.13513   0.14200   0.14365   0.14874
 Alpha virt. eigenvalues --    0.15157   0.15326   0.15583   0.16023   0.16155
 Alpha virt. eigenvalues --    0.16883   0.17269   0.17481   0.17866   0.18380
 Alpha virt. eigenvalues --    0.18963   0.19170   0.19471   0.19748   0.21238
 Alpha virt. eigenvalues --    0.21645   0.22062   0.23181   0.24131   0.25017
 Alpha virt. eigenvalues --    0.25378   0.26216   0.26237   0.27330   0.27442
 Alpha virt. eigenvalues --    0.30327   0.31861   0.32493   0.34812   0.36362
 Alpha virt. eigenvalues --    0.37363   0.38192   0.43039   0.46625   0.48551
 Alpha virt. eigenvalues --    0.49549   0.50324   0.50406   0.50966   0.52234
 Alpha virt. eigenvalues --    0.52501   0.52813   0.53932   0.54170   0.55234
 Alpha virt. eigenvalues --    0.55967   0.56668   0.57395   0.58079   0.58611
 Alpha virt. eigenvalues --    0.58876   0.59258   0.59715   0.60106   0.60386
 Alpha virt. eigenvalues --    0.60605   0.61243   0.61576   0.63322   0.63637
 Alpha virt. eigenvalues --    0.64418   0.64906   0.65363   0.65902   0.66721
 Alpha virt. eigenvalues --    0.67603   0.70104   0.70274   0.71612   0.73074
 Alpha virt. eigenvalues --    0.74018   0.74623   0.77628   0.78471   0.80453
 Alpha virt. eigenvalues --    0.81027   0.81780   0.82411   0.83362   0.83797
 Alpha virt. eigenvalues --    0.84548   0.85093   0.86829   0.87450   0.87717
 Alpha virt. eigenvalues --    0.88036   0.88286   0.88619   0.88841   0.89333
 Alpha virt. eigenvalues --    0.89919   0.90320   0.90719   0.91220   0.92160
 Alpha virt. eigenvalues --    0.92455   0.93389   0.94174   0.95002   0.95974
 Alpha virt. eigenvalues --    0.96716   0.97078   0.97475   0.98879   0.99344
 Alpha virt. eigenvalues --    0.99910   1.00424   1.00870   1.02296   1.02780
 Alpha virt. eigenvalues --    1.04510   1.05188   1.06463   1.07919   1.08585
 Alpha virt. eigenvalues --    1.10046   1.11007   1.12288   1.13983   1.15161
 Alpha virt. eigenvalues --    1.16592   1.17524   1.17952   1.20679   1.23906
 Alpha virt. eigenvalues --    1.24717   1.24887   1.27795   1.28608   1.30085
 Alpha virt. eigenvalues --    1.31696   1.33706   1.36394   1.39767   1.40462
 Alpha virt. eigenvalues --    1.41547   1.42581   1.43052   1.43320   1.45263
 Alpha virt. eigenvalues --    1.45905   1.47705   1.49559   1.51694   1.52640
 Alpha virt. eigenvalues --    1.56138   1.56835   1.60656   1.62498   1.62611
 Alpha virt. eigenvalues --    1.65595   1.68787   1.70372   1.71860   1.72872
 Alpha virt. eigenvalues --    1.73128   1.75133   1.75904   1.77730   1.78054
 Alpha virt. eigenvalues --    1.79171   1.79777   1.82095   1.82775   1.84459
 Alpha virt. eigenvalues --    1.85761   1.86488   1.87049   1.88282   1.90237
 Alpha virt. eigenvalues --    1.90634   1.91527   1.92290   1.93039   1.94916
 Alpha virt. eigenvalues --    1.95295   1.96249   1.97040   1.97718   1.98271
 Alpha virt. eigenvalues --    1.99532   2.00578   2.01346   2.02884   2.04169
 Alpha virt. eigenvalues --    2.05165   2.05755   2.06818   2.08199   2.10136
 Alpha virt. eigenvalues --    2.11274   2.12613   2.13566   2.16049   2.17029
 Alpha virt. eigenvalues --    2.17458   2.19388   2.20631   2.23053   2.25222
 Alpha virt. eigenvalues --    2.27827   2.29374   2.29897   2.30238   2.30901
 Alpha virt. eigenvalues --    2.31894   2.32302   2.33285   2.34066   2.34346
 Alpha virt. eigenvalues --    2.35526   2.36830   2.38530   2.39618   2.40545
 Alpha virt. eigenvalues --    2.40707   2.44261   2.48020   2.50287   2.51403
 Alpha virt. eigenvalues --    2.54778   2.55996   2.57663   2.58159   2.61127
 Alpha virt. eigenvalues --    2.62227   2.62813   2.64867   2.66346   2.66736
 Alpha virt. eigenvalues --    2.67138   2.68535   2.71267   2.72364   2.75238
 Alpha virt. eigenvalues --    2.76157   2.78537   2.81679   2.85360   2.91086
 Alpha virt. eigenvalues --    2.92893   2.98636   2.99955   3.12375   3.14244
 Alpha virt. eigenvalues --    3.17442   3.28356   3.43238   3.98614   4.00908
 Alpha virt. eigenvalues --    4.03363   4.09262   4.12342   4.13982   4.17685
 Alpha virt. eigenvalues --    4.18464   4.19329   4.24511   4.26372   4.32173
 Alpha virt. eigenvalues --    4.36533   4.38814   4.42938   4.46036   4.47863
 Alpha virt. eigenvalues --    4.48620   4.51787   4.68224   4.77120
          Condensed to atoms (all electrons):
              1          2          3          4          5          6
     1  C    5.139324   0.357812  -0.072442   0.000421   0.000048  -0.000680
     2  C    0.357812   4.913145   0.299132  -0.029619   0.002222  -0.002810
     3  N   -0.072442   0.299132   6.970102   0.323966  -0.085429  -0.081350
     4  C    0.000421  -0.029619   0.323966   4.172006   0.535424   0.242420
     5  O    0.000048   0.002222  -0.085429   0.535424   8.104675  -0.066719
     6  O   -0.000680  -0.002810  -0.081350   0.242420  -0.066719   8.347461
     7  C    0.000086   0.000154   0.001828  -0.005991  -0.000709   0.218612
     8  C   -0.000008  -0.000087   0.000048  -0.000333   0.000078  -0.055426
     9  C    0.000000   0.000000  -0.000004   0.000135   0.000111   0.003884
    10  C    0.000000   0.000000   0.000000   0.000026   0.000004  -0.000008
    11  C   -0.000000  -0.000000   0.000001  -0.000038  -0.000013   0.003321
    12  C    0.000006   0.000079  -0.000147   0.000089  -0.000225  -0.048479
    13  C    0.000001  -0.000084  -0.000037   0.000571   0.000048  -0.004051
    14  O    0.000004  -0.000324  -0.000064   0.001607  -0.000010  -0.008799
    15  N   -0.000000   0.000002  -0.000000   0.000006  -0.000000  -0.000092
    16  C   -0.000000   0.000000   0.000000  -0.000000   0.000000   0.000001
    17  C   -0.000000   0.000000   0.000000  -0.000000   0.000000   0.000000
    18  C   -0.000000   0.000000   0.000000  -0.000000   0.000000   0.000010
    19  C    0.000001  -0.000019   0.000000   0.000000  -0.000000  -0.000011
    20  C   -0.000565  -0.048220   0.299191  -0.029607  -0.005340   0.001901
    21  C   -0.001393  -0.003007  -0.053695   0.001909   0.000308  -0.000034
    22  H    0.360113  -0.025802   0.004664  -0.000050  -0.000001  -0.000054
    23  H    0.376341  -0.033321  -0.002620  -0.000192   0.000001   0.000030
    24  H    0.375425  -0.032213  -0.002372   0.003147  -0.000158   0.001856
    25  H   -0.052001   0.373702  -0.040022   0.002425  -0.000078   0.000444
    26  H   -0.041269   0.377851  -0.025245  -0.008628   0.000120   0.009839
    27  H    0.000026  -0.000019  -0.000422   0.003025   0.011067  -0.007833
    28  H   -0.000000   0.000000  -0.000000  -0.000013  -0.000001  -0.000047
    29  H    0.000000  -0.000000   0.000000   0.000000   0.000000   0.000001
    30  H   -0.000000   0.000000  -0.000000  -0.000000  -0.000000  -0.000038
    31  H    0.000000  -0.000000  -0.000000   0.000000  -0.000000  -0.000000
    32  H    0.000000  -0.000000   0.000000  -0.000000  -0.000000  -0.000001
    33  H    0.000000  -0.000000  -0.000000  -0.000000   0.000000  -0.000000
    34  H    0.000000  -0.000000   0.000000   0.000000  -0.000000  -0.000000
[...]
   135    C    9  dz2    Ryd( 3d)     0.00045

   136    C   10  S      Cor( 1S)     1.99908
   137    C   10  S      Val( 2S)     0.95755
   138    C   10  S      Ryd( 3S)     0.00056
   139    C   10  S      Ryd( 4S)     0.00003
   140    C   10  px     Val( 2p)     1.12714
   141    C   10  px     Ryd( 3p)     0.00432
   142    C   10  py     Val( 2p)     1.10839
   143    C   10  py     Ryd( 3p)     0.00470
   144    C   10  pz     Val( 2p)     1.02445
   145    C   10  pz     Ryd( 3p)     0.00190
   146    C   10  dxy    Ryd( 3d)     0.00090
   147    C   10  dxz    Ryd( 3d)     0.00045
   148    C   10  dyz    Ryd( 3d)     0.00052
   149    C   10  dx2y2  Ryd( 3d)     0.00057
   150    C   10  dz2    Ryd( 3d)     0.00059

   151    C   11  S      Cor( 1S)     1.99902
   152    C   11  S      Val( 2S)     0.94421
   153    C   11  S      Ryd( 3S)     0.00089
   154    C   11  S      Ryd( 4S)     0.00006
   155    C   11  px     Val( 2p)     1.15445
   156    C   11  px     Ryd( 3p)     0.00462
   157    C   11  py     Val( 2p)     1.06811
   158    C   11  py     Ryd( 3p)     0.00436
   159    C   11  pz     Val( 2p)     1.07263
   160    C   11  pz     Ryd( 3p)     0.00265
   161    C   11  dxy    Ryd( 3d)     0.00068
   162    C   11  dxz    Ryd( 3d)     0.00054
   163    C   11  dyz    Ryd( 3d)     0.00076
   164    C   11  dx2y2  Ryd( 3d)     0.00058
   165    C   11  dz2    Ryd( 3d)     0.00035

   166    C   12  S      Cor( 1S)     1.99882
   167    C   12  S      Val( 2S)     0.88633
   168    C   12  S      Ryd( 3S)     0.00119
   169    C   12  S      Ryd( 4S)     0.00006
   170    C   12  px     Val( 2p)     1.11464
   171    C   12  px     Ryd( 3p)     0.00450
   172    C   12  py     Val( 2p)     1.04733
   173    C   12  py     Ryd( 3p)     0.00515
   174    C   12  pz     Val( 2p)     1.15700
   175    C   12  pz     Ryd( 3p)     0.00476
   176    C   12  dxy    Ryd( 3d)     0.00054
   177    C   12  dxz    Ryd( 3d)     0.00055
   178    C   12  dyz    Ryd( 3d)     0.00067
   179    C   12  dx2y2  Ryd( 3d)     0.00079
   180    C   12  dz2    Ryd( 3d)     0.00051

   181    C   13  S      Cor( 1S)     1.99927
   182    C   13  S      Val( 2S)     0.76213
   183    C   13  S      Ryd( 3S)     0.00490
   184    C   13  S      Ryd( 4S)     0.00032
   185    C   13  px     Val( 2p)     0.81365
   186    C   13  px     Ryd( 3p)     0.00951
   187    C   13  py     Val( 2p)     0.93633
   188    C   13  py     Ryd( 3p)     0.00568
   189    C   13  pz     Val( 2p)     0.89076
   190    C   13  pz     Ryd( 3p)     0.01188
   191    C   13  dxy    Ryd( 3d)     0.00127
   192    C   13  dxz    Ryd( 3d)     0.00081
   193    C   13  dyz    Ryd( 3d)     0.00152
   194    C   13  dx2y2  Ryd( 3d)     0.00174
   195    C   13  dz2    Ryd( 3d)     0.00217

   196    O   14  S      Cor( 1S)     1.99981
   197    O   14  S      Val( 2S)     1.71109
   198    O   14  S      Ryd( 3S)     0.00028
   199    O   14  S      Ryd( 4S)     0.00004
   200    O   14  px     Val( 2p)     1.60013
   201    O   14  px     Ryd( 3p)     0.00140
   202    O   14  py     Val( 2p)     1.32178
   203    O   14  py     Ryd( 3p)     0.00171
   204    O   14  pz     Val( 2p)     1.67517
   205    O   14  pz     Ryd( 3p)     0.00153
   206    O   14  dxy    Ryd( 3d)     0.00190
   207    O   14  dxz    Ryd( 3d)     0.00352
   208    O   14  dyz    Ryd( 3d)     0.00206
   209    O   14  dx2y2  Ryd( 3d)     0.00176
   210    O   14  dz2    Ryd( 3d)     0.00367

   211    N   15  S      Cor( 1S)     1.99931
   212    N   15  S      Val( 2S)     1.20131
   213    N   15  S      Ryd( 3S)     0.00101
   214    N   15  S      Ryd( 4S)     0.00004
   215    N   15  px     Val( 2p)     1.45980
   216    N   15  px     Ryd( 3p)     0.00370
   217    N   15  py     Val( 2p)     1.35165
   218    N   15  py     Ryd( 3p)     0.00254
   219    N   15  pz     Val( 2p)     1.42823
   220    N   15  pz     Ryd( 3p)     0.00197
   221    N   15  dxy    Ryd( 3d)     0.00055
   222    N   15  dxz    Ryd( 3d)     0.00063
   223    N   15  dyz    Ryd( 3d)     0.00072
   224    N   15  dx2y2  Ryd( 3d)     0.00073
   225    N   15  dz2    Ryd( 3d)     0.00066

   226    C   16  S      Cor( 1S)     1.99932
   227    C   16  S      Val( 2S)     1.01667
   228    C   16  S      Ryd( 3S)     0.00150
   229    C   16  S      Ryd( 4S)     0.00003
   230    C   16  px     Val( 2p)     1.02768
   231    C   16  px     Ryd( 3p)     0.00198
   232    C   16  py     Val( 2p)     1.23755
   233    C   16  py     Ryd( 3p)     0.00492
   234    C   16  pz     Val( 2p)     0.95901
   235    C   16  pz     Ryd( 3p)     0.00171
   236    C   16  dxy    Ryd( 3d)     0.00083
   237    C   16  dxz    Ryd( 3d)     0.00109
   238    C   16  dyz    Ryd( 3d)     0.00118
   239    C   16  dx2y2  Ryd( 3d)     0.00085
   240    C   16  dz2    Ryd( 3d)     0.00100

   241    C   17  S      Cor( 1S)     1.99944
   242    C   17  S      Val( 2S)     1.10840
   243    C   17  S      Ryd( 3S)     0.00038
   244    C   17  S      Ryd( 4S)     0.00001
   245    C   17  px     Val( 2p)     1.08487
   246    C   17  px     Ryd( 3p)     0.00099
   247    C   17  py     Val( 2p)     1.23712
   248    C   17  py     Ryd( 3p)     0.00149
   249    C   17  pz     Val( 2p)     1.24635
   250    C   17  pz     Ryd( 3p)     0.00157
   251    C   17  dxy    Ryd( 3d)     0.00058
   252    C   17  dxz    Ryd( 3d)     0.00060
   253    C   17  dyz    Ryd( 3d)     0.00086
   254    C   17  dx2y2  Ryd( 3d)     0.00064
   255    C   17  dz2    Ryd( 3d)     0.00054

   256    C   18  S      Cor( 1S)     1.99935
   257    C   18  S      Val( 2S)     1.01660
   258    C   18  S      Ryd( 3S)     0.00123
   259    C   18  S      Ryd( 4S)     0.00003
   260    C   18  px     Val( 2p)     1.19124
   261    C   18  px     Ryd( 3p)     0.00438
   262    C   18  py     Val( 2p)     0.86896
   263    C   18  py     Ryd( 3p)     0.00295
   264    C   18  pz     Val( 2p)     1.16851
   265    C   18  pz     Ryd( 3p)     0.00313
   266    C   18  dxy    Ryd( 3d)     0.00084
   267    C   18  dxz    Ryd( 3d)     0.00037
   268    C   18  dyz    Ryd( 3d)     0.00083
   269    C   18  dx2y2  Ryd( 3d)     0.00156
   270    C   18  dz2    Ryd( 3d)     0.00141

   271    C   19  S      Cor( 1S)     1.99945
   272    C   19  S      Val( 2S)     1.11131
   273    C   19  S      Ryd( 3S)     0.00045
   274    C   19  S      Ryd( 4S)     0.00001
   275    C   19  px     Val( 2p)     1.19409
   276    C   19  px     Ryd( 3p)     0.00120
   277    C   19  py     Val( 2p)     1.16426
   278    C   19  py     Ryd( 3p)     0.00125
   279    C   19  pz     Val( 2p)     1.21361
   280    C   19  pz     Ryd( 3p)     0.00127
   281    C   19  dxy    Ryd( 3d)     0.00043
   282    C   19  dxz    Ryd( 3d)     0.00026
   283    C   19  dyz    Ryd( 3d)     0.00048
   284    C   19  dx2y2  Ryd( 3d)     0.00096
   285    C   19  dz2    Ryd( 3d)     0.00108

   286    C   20  S      Cor( 1S)     1.99935
   287    C   20  S      Val( 2S)     1.01800
   288    C   20  S      Ryd( 3S)     0.00116
   289    C   20  S      Ryd( 4S)     0.00003
   290    C   20  px     Val( 2p)     0.85230
   291    C   20  px     Ryd( 3p)     0.00216
   292    C   20  py     Val( 2p)     1.26191
   293    C   20  py     Ryd( 3p)     0.00590
   294    C   20  pz     Val( 2p)     1.10758
   295    C   20  pz     Ryd( 3p)     0.00130
   296    C   20  dxy    Ryd( 3d)     0.00061
   297    C   20  dxz    Ryd( 3d)     0.00116
   298    C   20  dyz    Ryd( 3d)     0.00109
   299    C   20  dx2y2  Ryd( 3d)     0.00130
   300    C   20  dz2    Ryd( 3d)     0.00076

   301    C   21  S      Cor( 1S)     1.99945
   302    C   21  S      Val( 2S)     1.11104
   303    C   21  S      Ryd( 3S)     0.00042
   304    C   21  S      Ryd( 4S)     0.00001
   305    C   21  px     Val( 2p)     1.22870
   306    C   21  px     Ryd( 3p)     0.00128
   307    C   21  py     Val( 2p)     1.24759
   308    C   21  py     Ryd( 3p)     0.00151
   309    C   21  pz     Val( 2p)     1.09493
   310    C   21  pz     Ryd( 3p)     0.00096
   311    C   21  dxy    Ryd( 3d)     0.00038
   312    C   21  dxz    Ryd( 3d)     0.00030
   313    C   21  dyz    Ryd( 3d)     0.00090
   314    C   21  dx2y2  Ryd( 3d)     0.00097
   315    C   21  dz2    Ryd( 3d)     0.00066

   316    H   22  S      Val( 1S)     0.76818
   317    H   22  S      Ryd( 2S)     0.00100

   318    H   23  S      Val( 1S)     0.77136
   319    H   23  S      Ryd( 2S)     0.00098

   320    H   24  S      Val( 1S)     0.75873
   321    H   24  S      Ryd( 2S)     0.00134

   322    H   25  S      Val( 1S)     0.76958
   323    H   25  S      Ryd( 2S)     0.00139

   324    H   26  S      Val( 1S)     0.74377
   325    H   26  S      Ryd( 2S)     0.00355

   326    H   27  S      Val( 1S)     0.73890
   327    H   27  S      Ryd( 2S)     0.00133

   328    H   28  S      Val( 1S)     0.76814
   329    H   28  S      Ryd( 2S)     0.00082

   330    H   29  S      Val( 1S)     0.76605
   331    H   29  S      Ryd( 2S)     0.00089

   332    H   30  S      Val( 1S)     0.76907
   333    H   30  S      Ryd( 2S)     0.00097

   334    H   31  S      Val( 1S)     0.77341
   335    H   31  S      Ryd( 2S)     0.00210

   336    H   32  S      Val( 1S)     0.73383
   337    H   32  S      Ryd( 2S)     0.00137

   338    H   33  S      Val( 1S)     0.77419
   339    H   33  S      Ryd( 2S)     0.00090

   340    H   34  S      Val( 1S)     0.75820
   341    H   34  S      Ryd( 2S)     0.00096

   342    H   35  S      Val( 1S)     0.76226
   343    H   35  S      Ryd( 2S)     0.00115

   344    H   36  S      Val( 1S)     0.76682
   345    H   36  S      Ryd( 2S)     0.00172

   346    H   37  S      Val( 1S)     0.75070
   347    H   37  S      Ryd( 2S)     0.00182

   348    H   38  S      Val( 1S)     0.77078
   349    H   38  S      Ryd( 2S)     0.00080

   350    H   39  S      Val( 1S)     0.76088
   351    H   39  S      Ryd( 2S)     0.00114

   352    H   40  S      Val( 1S)     0.76454
   353    H   40  S      Ryd( 2S)     0.00222

   354    H   41  S      Val( 1S)     0.74067
   355    H   41  S      Ryd( 2S)     0.00191

   356    H   42  S      Val( 1S)     0.77195
   357    H   42  S      Ryd( 2S)     0.00136

   358    H   43  S      Val( 1S)     0.75211
   359    H   43  S      Ryd( 2S)     0.00132

   360    H   44  S      Val( 1S)     0.76499
   361    H   44  S      Ryd( 2S)     0.00086

   362    H   45  S      Val( 1S)     0.77502
   363    H   45  S      Ryd( 2S)     0.00090

 WARNING:  1 low occupancy (<1.9990e) core orbital  found on  C    7
           1 low occupancy (<1.9990e) core orbital  found on  C   12


 Summary of Natural Population Analysis:                  
                                                          
                                       Natural Population 
                Natural  -----------------------------------------------
    Atom  No    Charge         Core      Valence    Rydberg      Total
 -----------------------------------------------------------------------
      C    1   -0.68676      1.99945     4.67992    0.00739     6.68676
      C    2   -0.26032      1.99933     4.24564    0.01535     6.26032
      N    3   -0.48858      1.99929     5.47571    0.01358     7.48858
      C    4    0.94469      1.99936     3.01065    0.04530     5.05531
      O    5   -0.64411      1.99978     6.62536    0.01897     8.64411
      O    6   -0.55785      1.99969     6.54803    0.01014     8.55785
      C    7    0.31128      1.99865     3.66795    0.02212     5.68872
      C    8   -0.26486      1.99902     4.25186    0.01398     6.26486
      C    9   -0.28364      1.99911     4.26848    0.01605     6.28364
      C   10   -0.23115      1.99908     4.21753    0.01454     6.23115
      C   11   -0.25391      1.99902     4.23940    0.01549     6.25391
      C   12   -0.22285      1.99882     4.20530    0.01873     6.22285
      C   13    0.55806      1.99927     3.40288    0.03979     5.44194
      O   14   -0.32587      1.99981     6.30817    0.01789     8.32587
      N   15   -0.45285      1.99931     5.44099    0.01255     7.45285
      C   16   -0.25530      1.99932     4.24090    0.01509     6.25530
      C   17   -0.68383      1.99944     4.67674    0.00765     6.68383
      C   18   -0.26139      1.99935     4.24531    0.01673     6.26139
      C   19   -0.69009      1.99945     4.68326    0.00738     6.69009
      C   20   -0.25461      1.99935     4.23979    0.01547     6.25461
      C   21   -0.68911      1.99945     4.68227    0.00739     6.68911
      H   22    0.23081      0.00000     0.76818    0.00100     0.76919
      H   23    0.22766      0.00000     0.77136    0.00098     0.77234
      H   24    0.23993      0.00000     0.75873    0.00134     0.76007
      H   25    0.22903      0.00000     0.76958    0.00139     0.77097
      H   26    0.25268      0.00000     0.74377    0.00355     0.74732
      H   27    0.25977      0.00000     0.73890    0.00133     0.74023
      H   28    0.23104      0.00000     0.76814    0.00082     0.76896
      H   29    0.23306      0.00000     0.76605    0.00089     0.76694
      H   30    0.22996      0.00000     0.76907    0.00097     0.77004
      H   31    0.22448      0.00000     0.77341    0.00210     0.77552
      H   32    0.26480      0.00000     0.73383    0.00137     0.73520
      H   33    0.22491      0.00000     0.77419    0.00090     0.77509
      H   34    0.24085      0.00000     0.75820    0.00096     0.75915
      H   35    0.23659      0.00000     0.76226    0.00115     0.76341
      H   36    0.23147      0.00000     0.76682    0.00172     0.76853
      H   37    0.24748      0.00000     0.75070    0.00182     0.75252
      H   38    0.22842      0.00000     0.77078    0.00080     0.77158
      H   39    0.23797      0.00000     0.76088    0.00114     0.76203
      H   40    0.23324      0.00000     0.76454    0.00222     0.76676
      H   41    0.25742      0.00000     0.74067    0.00191     0.74258
      H   42    0.22669      0.00000     0.77195    0.00136     0.77331
      H   43    0.24657      0.00000     0.75211    0.00132     0.75343
      H   44    0.23414      0.00000     0.76499    0.00086     0.76586
      H   45    0.22408      0.00000     0.77502    0.00090     0.77592
 =======================================================================
   * Total *   -0.00000     41.98534   115.63026    0.38440   158.00000

                                 Natural Population      
 --------------------------------------------------------
   Core                      41.98534 ( 99.9651% of  42)
   Valence                  115.63026 ( 99.6813% of 116)
   Natural Minimal Basis    157.61560 ( 99.7567% of 158)
   Natural Rydberg Basis      0.38440 (  0.2433% of 158)
 --------------------------------------------------------

    Atom  No          Natural Electron Configuration
 ----------------------------------------------------------------------------
      C    1      [core]2S( 1.11)2p( 3.57)
      C    2      [core]2S( 1.02)2p( 3.23)3p( 0.01)
      N    3      [core]2S( 1.21)2p( 4.27)3p( 0.01)
      C    4      [core]2S( 0.69)2p( 2.32)3p( 0.03)3d( 0.01)
      O    5      [core]2S( 1.70)2p( 4.92)3d( 0.02)
      O    6      [core]2S( 1.59)2p( 4.96)3d( 0.01)
      C    7      [core]2S( 0.82)2p( 2.84)3p( 0.01)3d( 0.01)
      C    8      [core]2S( 0.96)2p( 3.29)3p( 0.01)
      C    9      [core]2S( 0.95)2p( 3.32)3p( 0.01)
      C   10      [core]2S( 0.96)2p( 3.26)3p( 0.01)
      C   11      [core]2S( 0.94)2p( 3.30)3p( 0.01)
      C   12      [core]2S( 0.89)2p( 3.32)3p( 0.01)
      C   13      [core]2S( 0.76)2p( 2.64)3p( 0.03)3d( 0.01)
      O   14      [core]2S( 1.71)2p( 4.60)3d( 0.01)
      N   15      [core]2S( 1.20)2p( 4.24)3p( 0.01)
      C   16      [core]2S( 1.02)2p( 3.22)3p( 0.01)
      C   17      [core]2S( 1.11)2p( 3.57)
      C   18      [core]2S( 1.02)2p( 3.23)3p( 0.01)3d( 0.01)
      C   19      [core]2S( 1.11)2p( 3.57)
      C   20      [core]2S( 1.02)2p( 3.22)3p( 0.01)
      C   21      [core]2S( 1.11)2p( 3.57)
      H   22            1S( 0.77)
      H   23            1S( 0.77)
      H   24            1S( 0.76)
      H   25            1S( 0.77)
      H   26            1S( 0.74)
      H   27            1S( 0.74)
      H   28            1S( 0.77)
      H   29            1S( 0.77)
      H   30            1S( 0.77)
      H   31            1S( 0.77)
      H   32            1S( 0.73)
      H   33            1S( 0.77)
      H   34            1S( 0.76)
      H   35            1S( 0.76)
      H   36            1S( 0.77)
      H   37            1S( 0.75)
      H   38            1S( 0.77)
      H   39            1S( 0.76)
      H   40            1S( 0.76)
      H   41            1S( 0.74)
      H   42            1S( 0.77)
      H   43            1S( 0.75)
      H   44            1S( 0.76)
      H   45            1S( 0.78)


 NBO analysis skipped by request.
 Leave Link  607 at Thu Sep 30 23:05:40 2021, MaxMem= 1879048192 cpu:      34.8
 (Enter /sw/target/amd/app/gaussian/Gaussian09RevA.02_gcc-4.9.2/g09/l9999.exe)
 1\1\GINC-HERMITE\SP\RTD-B3LYP-FC\6-31G(d)\C16H24N2O3\JSCHLEINITZ\30-Se
 p-2021\0\\#p TD(NStates=10, Root=1) b3lyp/6-31G* volume pop=NPA densit
 y=current Geom=AllCheck Guess=Read\\CCN(C(=O)Oc1ccccc1C(=O)N(CC)CC)CC_
 conf_0\\0,1\C,0,-2.1252769112,-1.5707952309,-0.1049873122\C,0,-0.65576
 10899,-1.1664057841,0.0368942377\N,0,0.1737356188,-1.5983411094,-1.095
 7820855\C,0,0.3965597042,-0.8344298598,-2.1967183562\O,0,1.1966912366,
 -1.0836208538,-3.0799472348\O,0,-0.4523495104,0.2614991128,-2.20148755
 45\C,0,-0.2231968414,1.3294220303,-3.0546898749\C,0,0.0604717747,1.165
 5659038,-4.4114802727\C,0,0.2230798105,2.2932654739,-5.216754939\C,0,0
 .0881221664,3.5738757015,-4.6807319463\C,0,-0.2265566723,3.7238371246,
 -3.3308612336\C,0,-0.3916674634,2.6083236058,-2.5001693202\C,0,-0.6187
 991764,2.7782620868,-1.0158032222\O,0,0.2137227256,2.3674375909,-0.208
 1325235\N,0,-1.7438964013,3.4590459349,-0.6136109865\C,0,-2.9243032346
 ,3.6832162229,-1.454606725\C,0,-3.2151840393,5.1578432764,-1.750095143
 7\C,0,-1.8925651659,3.7100177094,0.8261831754\C,0,-2.5107892333,2.5387
 56574,1.5960190205\C,0,0.922856303,-2.8542478918,-0.98598537\C,0,2.295
 1602879,-2.6826158638,-0.3296792508\H,0,-2.6924681873,-1.2617159448,0.
 7810871961\H,0,-2.2315171086,-2.6563707037,-0.2137709889\H,0,-2.571139
 8688,-1.0930886095,-0.9827425502\H,0,-0.2251468778,-1.6210294753,0.936
 2551088\H,0,-0.5564797306,-0.0851704188,0.1466844622\H,0,0.1720582198,
 0.1690300619,-4.8151781263\H,0,0.4564069081,2.1634197483,-6.2699555382
 \H,0,0.2255884878,4.4502912632,-5.3075473066\H,0,-0.324513573,4.717077
 7043,-2.9026148789\H,0,-3.7908801638,3.2331114005,-0.950886572\H,0,-2.
 7885238911,3.1368793202,-2.3894160083\H,0,-3.3493152034,5.7395901756,-
 0.8318167438\H,0,-4.1375696532,5.2444179067,-2.3357652905\H,0,-2.40301
 89076,5.613766132,-2.3244160274\H,0,-2.507100893,4.6089710154,0.944025
 7125\H,0,-0.8991025373,3.9280651546,1.2229319775\H,0,-3.4999659023,2.2
 721219792,1.2060598939\H,0,-2.6286514129,2.8035651807,2.6532235287\H,0
 ,-1.8619772891,1.6612332361,1.5324594458\H,0,1.0393375245,-3.262509536
 7,-1.9923663847\H,0,0.3036484502,-3.5534074778,-0.4121508778\H,0,2.918
 1633734,-2.0149844206,-0.9317889222\H,0,2.8023472296,-3.6512426274,-0.
 2492801122\H,0,2.2078802859,-2.2607890316,0.6780722016\\Version=AM64L-
 G09RevA.02\State=1-A\HF=-959.3720359\RMSD=1.270e-09\Dipole=-1.5342416,
 0.3183365,1.6027982\Quadrupole=-4.4248094,6.6507986,-2.2259892,-3.9968
 96,0.6284998,-2.7130637\PG=C01 [X(C16H24N2O3)]\\@


 BE NOT THE FIRST BY WHOM THE NEW ARE TRIED,
 NOR YET THE THE LAST TO LAY THE OLD ASIDE.

                          -- ALEXANDER POPE
 Job cpu time:  0 days  9 hours  5 minutes 19.2 seconds.
 File lengths (MBytes):  RWF=    440 Int=      0 D2E=      0 Chk=     60 Scr=      1
 Normal termination of Gaussian 09 at Thu Sep 30 23:05:46 2021.
