 Entering Gaussian System, Link 0=g09
 Input=C16H20O2_02c6_conf_0.com
 Output=C16H20O2_02c6_conf_0.log
 Initial command:
 /sw/target/amd/app/gaussian/Gaussian09RevA.02_gcc-4.9.2/g09/l1.exe /home/jschleinitz/gaussian/Gau-3297931.inp -scrdir=/home/jschleinitz/gaussian/
 Entering Link 1 = /sw/target/amd/app/gaussian/Gaussian09RevA.02_gcc-4.9.2/g09/l1.exe PID=   3297933.
  
 Copyright (c) 1988,1990,1992,1993,1995,1998,2003,2009, Gaussian, Inc.
                  All Rights Reserved.
  
 This is part of the Gaussian(R) 09 program.  It is based on
 the Gaussian(R) 03 system (copyright 2003, Gaussian, Inc.),
 the Gaussian(R) 98 system (copyright 1998, Gaussian, Inc.),
 the Gaussian(R) 94 system (copyright 1995, Gaussian, Inc.),
 the Gaussian 92(TM) system (copyright 1992, Gaussian, Inc.),
 the Gaussian 90(TM) system (copyright 1990, Gaussian, Inc.),
 the Gaussian 88(TM) system (copyright 1988, Gaussian, Inc.),
 the Gaussian 86(TM) system (copyright 1986, Carnegie Mellon
 University), and the Gaussian 82(TM) system (copyright 1983,
 Carnegie Mellon University). Gaussian is a federally registered
 trademark of Gaussian, Inc.
  
 This software contains proprietary and confidential information,
 including trade secrets, belonging to Gaussian, Inc.
  
 This software is provided under written license and may be
 used, copied, transmitted, or stored only in accord with that
 written license.
  
 The following legend is applicable only to US Government
 contracts under FAR:
  
                    RESTRICTED RIGHTS LEGEND
  
 Use, reproduction and disclosure by the US Government is
 subject to restrictions as set forth in subparagraphs (a)
 and (c) of the Commercial Computer Software - Restricted
 Rights clause in FAR 52.227-19.
  
 Gaussian, Inc.
 340 Quinnipiac St., Bldg. 40, Wallingford CT 06492
  
  
 ---------------------------------------------------------------
 Warning -- This program may not be used in any manner that
 competes with the business of Gaussian, Inc. or will provide
 assistance to any competitor of Gaussian, Inc.  The licensee
 of this program is prohibited from giving any competitor of
 Gaussian, Inc. access to this program.  By using this program,
 the user acknowledges that Gaussian, Inc. is engaged in the
 business of creating and licensing software in the field of
 computational chemistry and represents and warrants to the
 licensee that it is not a competitor of Gaussian, Inc. and that
 it will not use this program in any manner prohibited above.
 ---------------------------------------------------------------
  

 Cite this work as:
 Gaussian 09, Revision A.02,
 M. J. Frisch, G. W. Trucks, H. B. Schlegel, G. E. Scuseria, 
 M. A. Robb, J. R. Cheeseman, G. Scalmani, V. Barone, B. Mennucci, 
 G. A. Petersson, H. Nakatsuji, M. Caricato, X. Li, H. P. Hratchian, 
 A. F. Izmaylov, J. Bloino, G. Zheng, J. L. Sonnenberg, M. Hada, 
 M. Ehara, K. Toyota, R. Fukuda, J. Hasegawa, M. Ishida, T. Nakajima, 
 Y. Honda, O. Kitao, H. Nakai, T. Vreven, J. A. Montgomery, Jr., 
 J. E. Peralta, F. Ogliaro, M. Bearpark, J. J. Heyd, E. Brothers, 
 K. N. Kudin, V. N. Staroverov, R. Kobayashi, J. Normand, 
 K. Raghavachari, A. Rendell, J. C. Burant, S. S. Iyengar, J. Tomasi, 
 M. Cossi, N. Rega, J. M. Millam, M. Klene, J. E. Knox, J. B. Cross, 
 V. Bakken, C. Adamo, J. Jaramillo, R. Gomperts, R. E. Stratmann, 
 O. Yazyev, A. J. Austin, R. Cammi, C. Pomelli, J. W. Ochterski, 
 R. L. Martin, K. Morokuma, V. G. Zakrzewski, G. A. Voth, 
 P. Salvador, J. J. Dannenberg, S. Dapprich, A. D. Daniels, 
 O. Farkas, J. B. Foresman, J. V. Ortiz, J. Cioslowski, 
 and D. J. Fox, Gaussian, Inc., Wallingford CT, 2009.
 
 ******************************************
 Gaussian 09:  AM64L-G09RevA.02 11-Jun-2009
                28-Sep-2021 
 ******************************************
 %nproc=6
 Will use up to    6 processors via shared memory.
 %mem=12gb
 %chk=C16H20O2_02c6_conf_0.chk
 -----------------------------------
 #p opt b3lyp/6-31G* scf=(xqc,tight)
 -----------------------------------
 1/14=-1,18=20,19=15,26=3,38=1/1,3;
 2/9=110,12=2,17=6,18=5,40=1/2;
 3/5=1,6=6,7=1,11=2,16=1,25=1,30=1,71=1,74=-5/1,2,3;
 4//1;
 5/5=2,8=3,13=1,32=2,38=5/2,8;
 6/7=2,8=2,9=2,10=2,28=1/1;
 7//1,2,3,16;
 1/14=-1,18=20,19=15/3(2);
 2/9=110/2;
 99//99;
 2/9=110/2;
 3/5=1,6=6,7=1,11=2,16=1,25=1,30=1,71=1,74=-5/1,2,3;
 4/5=5,16=3/1;
 5/5=2,8=3,13=1,32=2,38=5/2,8;
 7//1,2,3,16;
 1/14=-1,18=20,19=15/3(-5);
 2/9=110/2;
 6/7=2,8=2,9=2,10=2,19=2,28=1/1;
 99/9=1/99;
 Leave Link    1 at Tue Sep 28 15:18:09 2021, MaxMem= 1610612736 cpu:       0.1
 (Enter /sw/target/amd/app/gaussian/Gaussian09RevA.02_gcc-4.9.2/g09/l101.exe)
 ---------------------------------
 COCCCCc1ccc2c(c1)ccc(c2)OC_conf_0
 ---------------------------------
 Symbolic Z-matrix:
 Charge =  0 Multiplicity = 1
 C                     7.3469   -5.29419   2.84312 
 O                     6.84772  -4.50899   1.76884 
 C                     7.43451  -3.20971   1.74924 
 C                     6.87554  -2.41961   0.57021 
 C                     7.21139  -3.06587  -0.77785 
 C                     6.63746  -2.24194  -1.93347 
 C                     6.95497  -2.81543  -3.2934 
 C                     6.50083  -4.08471  -3.66827 
 C                     6.76774  -4.58779  -4.9454 
 C                     7.48516  -3.82767  -5.88147 
 C                     7.94796  -2.54709  -5.51057 
 C                     7.67893  -2.05724  -4.22286 
 C                     8.66394  -1.77924  -6.44011 
 C                     8.91496  -2.26382  -7.72544 
 C                     8.45485  -3.52289  -8.10434 
 C                     7.74797  -4.30027  -7.17974 
 O                     8.6264   -4.09862  -9.33354 
 C                     9.30146  -3.31439  -10.31025 
 H                     6.84221  -6.26379   2.82442 
 H                     7.13793  -4.80973   3.80173 
 H                     8.42291  -5.45787   2.72973 
 H                     8.52446  -3.29262   1.66909 
 H                     7.18757  -2.68952   2.68187 
 H                     7.27456  -1.3991    0.60166 
 H                     5.78494  -2.35272   0.66709 
 H                     6.80926  -4.08513  -0.80751 
 H                     8.29997  -3.1506   -0.88627 
 H                     7.02768  -1.218    -1.8666 
 H                     5.54757  -2.15995  -1.83964 
 H                     5.92725  -4.69191  -2.97137 
 H                     6.40111  -5.57784  -5.20688 
 H                     8.03031  -1.06539  -3.94483 
 H                     9.02894  -0.79179  -6.16996 
 H                     9.47095  -1.62698  -8.40401 
 H                     7.39587  -5.28375  -7.48324 
 H                     9.32754  -3.88522  -11.2431 
 H                     10.33602  -3.11987  -10.00833 
 H                     8.76532  -2.37987  -10.50813 
 
 NAtoms=     38 NQM=     38 NQMF=      0 NMic=      0 NMicF=      0 NTot=     38.
                    Isotopes and Nuclear Properties:
 (Nuclear quadrupole moments (NQMom) in fm**2, nuclear magnetic moments (NMagM)
  in nuclear magnetons)

  Atom         1           2           3           4           5           6           7           8           9          10
 IAtWgt=          12          16          12          12          12          12          12          12          12          12
 AtmWgt=  12.0000000  15.9949146  12.0000000  12.0000000  12.0000000  12.0000000  12.0000000  12.0000000  12.0000000  12.0000000
 NucSpn=           0           0           0           0           0           0           0           0           0           0
 AtZEff=   0.0000000   0.0000000   0.0000000   0.0000000   0.0000000   0.0000000   0.0000000   0.0000000   0.0000000   0.0000000
 NQMom=    0.0000000   0.0000000   0.0000000   0.0000000   0.0000000   0.0000000   0.0000000   0.0000000   0.0000000   0.0000000
 NMagM=    0.0000000   0.0000000   0.0000000   0.0000000   0.0000000   0.0000000   0.0000000   0.0000000   0.0000000   0.0000000

  Atom        11          12          13          14          15          16          17          18          19          20
 IAtWgt=          12          12          12          12          12          12          16          12           1           1
 AtmWgt=  12.0000000  12.0000000  12.0000000  12.0000000  12.0000000  12.0000000  15.9949146  12.0000000   1.0078250   1.0078250
 NucSpn=           0           0           0           0           0           0           0           0           1           1
 AtZEff=   0.0000000   0.0000000   0.0000000   0.0000000   0.0000000   0.0000000   0.0000000   0.0000000   0.0000000   0.0000000
 NQMom=    0.0000000   0.0000000   0.0000000   0.0000000   0.0000000   0.0000000   0.0000000   0.0000000   0.0000000   0.0000000
 NMagM=    0.0000000   0.0000000   0.0000000   0.0000000   0.0000000   0.0000000   0.0000000   0.0000000   2.7928460   2.7928460

  Atom        21          22          23          24          25          26          27          28          29          30
 IAtWgt=           1           1           1           1           1           1           1           1           1           1
 AtmWgt=   1.0078250   1.0078250   1.0078250   1.0078250   1.0078250   1.0078250   1.0078250   1.0078250   1.0078250   1.0078250
 NucSpn=           1           1           1           1           1           1           1           1           1           1
 AtZEff=   0.0000000   0.0000000   0.0000000   0.0000000   0.0000000   0.0000000   0.0000000   0.0000000   0.0000000   0.0000000
 NQMom=    0.0000000   0.0000000   0.0000000   0.0000000   0.0000000   0.0000000   0.0000000   0.0000000   0.0000000   0.0000000
 NMagM=    2.7928460   2.7928460   2.7928460   2.7928460   2.7928460   2.7928460   2.7928460   2.7928460   2.7928460   2.7928460

  Atom        31          32          33          34          35          36          37          38
 IAtWgt=           1           1           1           1           1           1           1           1
 AtmWgt=   1.0078250   1.0078250   1.0078250   1.0078250   1.0078250   1.0078250   1.0078250   1.0078250
 NucSpn=           1           1           1           1           1           1           1           1
 AtZEff=   0.0000000   0.0000000   0.0000000   0.0000000   0.0000000   0.0000000   0.0000000   0.0000000
 NQMom=    0.0000000   0.0000000   0.0000000   0.0000000   0.0000000   0.0000000   0.0000000   0.0000000
 NMagM=    2.7928460   2.7928460   2.7928460   2.7928460   2.7928460   2.7928460   2.7928460   2.7928460
 Leave Link  101 at Tue Sep 28 15:18:09 2021, MaxMem= 1610612736 cpu:       0.2
 (Enter /sw/target/amd/app/gaussian/Gaussian09RevA.02_gcc-4.9.2/g09/l103.exe)

 GradGradGradGradGradGradGradGradGradGradGradGradGradGradGradGradGradGrad
 Berny optimization.
 Initialization pass.
                           ----------------------------
                           !    Initial Parameters    !
                           ! (Angstroms and Degrees)  !
 --------------------------                            --------------------------
 ! Name  Definition              Value          Derivative Info.                !
 --------------------------------------------------------------------------------
 ! R1    R(1,2)                  1.4212         estimate D2E/DX2                !
 ! R2    R(1,19)                 1.0932         estimate D2E/DX2                !
 ! R3    R(1,20)                 1.0942         estimate D2E/DX2                !
 ! R4    R(1,21)                 1.0943         estimate D2E/DX2                !
 ! R5    R(2,3)                  1.4258         estimate D2E/DX2                !
 ! R6    R(3,4)                  1.5254         estimate D2E/DX2                !
 ! R7    R(3,22)                 1.096          estimate D2E/DX2                !
 ! R8    R(3,23)                 1.0961         estimate D2E/DX2                !
 ! R9    R(4,5)                  1.5322         estimate D2E/DX2                !
 ! R10   R(4,24)                 1.0962         estimate D2E/DX2                !
 ! R11   R(4,25)                 1.0969         estimate D2E/DX2                !
 ! R12   R(5,6)                  1.5309         estimate D2E/DX2                !
 ! R13   R(5,26)                 1.0961         estimate D2E/DX2                !
 ! R14   R(5,27)                 1.0972         estimate D2E/DX2                !
 ! R15   R(6,7)                  1.5097         estimate D2E/DX2                !
 ! R16   R(6,28)                 1.0978         estimate D2E/DX2                !
 ! R17   R(6,29)                 1.097          estimate D2E/DX2                !
 ! R18   R(7,8)                  1.3992         estimate D2E/DX2                !
 ! R19   R(7,12)                 1.401          estimate D2E/DX2                !
 ! R20   R(8,9)                  1.3984         estimate D2E/DX2                !
 ! R21   R(8,30)                 1.0878         estimate D2E/DX2                !
 ! R22   R(9,10)                 1.4031         estimate D2E/DX2                !
 ! R23   R(9,31)                 1.0877         estimate D2E/DX2                !
 ! R24   R(10,11)                1.4113         estimate D2E/DX2                !
 ! R25   R(10,16)                1.4064         estimate D2E/DX2                !
 ! R26   R(11,12)                1.4038         estimate D2E/DX2                !
 ! R27   R(11,13)                1.4022         estimate D2E/DX2                !
 ! R28   R(12,32)                1.0884         estimate D2E/DX2                !
 ! R29   R(13,14)                1.3964         estimate D2E/DX2                !
 ! R30   R(13,33)                1.0869         estimate D2E/DX2                !
 ! R31   R(14,15)                1.393          estimate D2E/DX2                !
 ! R32   R(14,34)                1.084          estimate D2E/DX2                !
 ! R33   R(15,16)                1.3996         estimate D2E/DX2                !
 ! R34   R(15,17)                1.3681         estimate D2E/DX2                !
 ! R35   R(16,35)                1.0878         estimate D2E/DX2                !
 ! R36   R(17,18)                1.4229         estimate D2E/DX2                !
 ! R37   R(18,36)                1.0939         estimate D2E/DX2                !
 ! R38   R(18,37)                1.0951         estimate D2E/DX2                !
 ! R39   R(18,38)                1.0954         estimate D2E/DX2                !
 ! A1    A(2,1,19)             108.3562         estimate D2E/DX2                !
 ! A2    A(2,1,20)             110.5196         estimate D2E/DX2                !
 ! A3    A(2,1,21)             110.4682         estimate D2E/DX2                !
 ! A4    A(19,1,20)            108.6324         estimate D2E/DX2                !
 ! A5    A(19,1,21)            108.6328         estimate D2E/DX2                !
 ! A6    A(20,1,21)            110.1697         estimate D2E/DX2                !
 ! A7    A(1,2,3)              111.673          estimate D2E/DX2                !
 ! A8    A(2,3,4)              109.3793         estimate D2E/DX2                !
 ! A9    A(2,3,22)             109.9585         estimate D2E/DX2                !
 ! A10   A(2,3,23)             109.1519         estimate D2E/DX2                !
 ! A11   A(4,3,22)             110.308          estimate D2E/DX2                !
 ! A12   A(4,3,23)             109.2266         estimate D2E/DX2                !
 ! A13   A(22,3,23)            108.7941         estimate D2E/DX2                !
 ! A14   A(3,4,5)              112.4112         estimate D2E/DX2                !
 ! A15   A(3,4,24)             109.0647         estimate D2E/DX2                !
 ! A16   A(3,4,25)             109.1259         estimate D2E/DX2                !
 ! A17   A(5,4,24)             109.7622         estimate D2E/DX2                !
 ! A18   A(5,4,25)             108.7447         estimate D2E/DX2                !
 ! A19   A(24,4,25)            107.6134         estimate D2E/DX2                !
 ! A20   A(4,5,6)              110.7904         estimate D2E/DX2                !
 ! A21   A(4,5,26)             109.6084         estimate D2E/DX2                !
 ! A22   A(4,5,27)             109.6917         estimate D2E/DX2                !
 ! A23   A(6,5,26)             110.0292         estimate D2E/DX2                !
 ! A24   A(6,5,27)             109.8104         estimate D2E/DX2                !
 ! A25   A(26,5,27)            106.828          estimate D2E/DX2                !
 ! A26   A(5,6,7)              113.3706         estimate D2E/DX2                !
 ! A27   A(5,6,28)             108.8285         estimate D2E/DX2                !
 ! A28   A(5,6,29)             110.3722         estimate D2E/DX2                !
 ! A29   A(7,6,28)             109.5381         estimate D2E/DX2                !
 ! A30   A(7,6,29)             108.3251         estimate D2E/DX2                !
 ! A31   A(28,6,29)            106.155          estimate D2E/DX2                !
 ! A32   A(6,7,8)              121.1765         estimate D2E/DX2                !
 ! A33   A(6,7,12)             120.0468         estimate D2E/DX2                !
 ! A34   A(8,7,12)             118.7435         estimate D2E/DX2                !
 ! A35   A(7,8,9)              120.6031         estimate D2E/DX2                !
 ! A36   A(7,8,30)             120.3867         estimate D2E/DX2                !
 ! A37   A(9,8,30)             119.0085         estimate D2E/DX2                !
 ! A38   A(8,9,10)             120.7976         estimate D2E/DX2                !
 ! A39   A(8,9,31)             118.8621         estimate D2E/DX2                !
 ! A40   A(10,9,31)            120.3378         estimate D2E/DX2                !
 ! A41   A(9,10,11)            118.9416         estimate D2E/DX2                !
 ! A42   A(9,10,16)            121.9621         estimate D2E/DX2                !
 ! A43   A(11,10,16)           119.0947         estimate D2E/DX2                !
 ! A44   A(10,11,12)           119.6621         estimate D2E/DX2                !
 ! A45   A(10,11,13)           119.3479         estimate D2E/DX2                !
 ! A46   A(12,11,13)           120.9888         estimate D2E/DX2                !
 ! A47   A(7,12,11)            121.2492         estimate D2E/DX2                !
 ! A48   A(7,12,32)            119.3758         estimate D2E/DX2                !
 ! A49   A(11,12,32)           119.3718         estimate D2E/DX2                !
 ! A50   A(11,13,14)           120.7929         estimate D2E/DX2                !
 ! A51   A(11,13,33)           120.2787         estimate D2E/DX2                !
 ! A52   A(14,13,33)           118.9277         estimate D2E/DX2                !
 ! A53   A(13,14,15)           120.3078         estimate D2E/DX2                !
 ! A54   A(13,14,34)           117.679          estimate D2E/DX2                !
 ! A55   A(15,14,34)           122.0129         estimate D2E/DX2                !
 ! A56   A(14,15,16)           119.2844         estimate D2E/DX2                !
 ! A57   A(14,15,17)           125.6833         estimate D2E/DX2                !
 ! A58   A(16,15,17)           115.0322         estimate D2E/DX2                !
 ! A59   A(10,16,15)           121.1692         estimate D2E/DX2                !
 ! A60   A(10,16,35)           120.0584         estimate D2E/DX2                !
 ! A61   A(15,16,35)           118.7716         estimate D2E/DX2                !
 ! A62   A(15,17,18)           116.3763         estimate D2E/DX2                !
 ! A63   A(17,18,36)           108.0018         estimate D2E/DX2                !
 ! A64   A(17,18,37)           110.9061         estimate D2E/DX2                !
 ! A65   A(17,18,38)           111.2223         estimate D2E/DX2                !
 ! A66   A(36,18,37)           107.7733         estimate D2E/DX2                !
 ! A67   A(36,18,38)           107.6257         estimate D2E/DX2                !
 ! A68   A(37,18,38)           111.1394         estimate D2E/DX2                !
 ! D1    D(19,1,2,3)           178.3799         estimate D2E/DX2                !
 ! D2    D(20,1,2,3)            59.4581         estimate D2E/DX2                !
 ! D3    D(21,1,2,3)           -62.7279         estimate D2E/DX2                !
 ! D4    D(1,2,3,4)            179.3544         estimate D2E/DX2                !
 ! D5    D(1,2,3,22)            58.0787         estimate D2E/DX2                !
 ! D6    D(1,2,3,23)           -61.1934         estimate D2E/DX2                !
 ! D7    D(2,3,4,5)            -62.064          estimate D2E/DX2                !
 ! D8    D(2,3,4,24)           175.9653         estimate D2E/DX2                !
 ! D9    D(2,3,4,25)            58.6618         estimate D2E/DX2                !
 ! D10   D(22,3,4,5)            59.0            estimate D2E/DX2                !
 ! D11   D(22,3,4,24)          -62.9707         estimate D2E/DX2                !
 ! D12   D(22,3,4,25)          179.7257         estimate D2E/DX2                !
 ! D13   D(23,3,4,5)           178.53           estimate D2E/DX2                !
 ! D14   D(23,3,4,24)           56.5592         estimate D2E/DX2                !
 ! D15   D(23,3,4,25)          -60.7443         estimate D2E/DX2                !
 ! D16   D(3,4,5,6)           -179.8273         estimate D2E/DX2                !
 ! D17   D(3,4,5,26)            58.5606         estimate D2E/DX2                !
 ! D18   D(3,4,5,27)           -58.434          estimate D2E/DX2                !
 ! D19   D(24,4,5,6)           -58.2534         estimate D2E/DX2                !
 ! D20   D(24,4,5,26)         -179.8655         estimate D2E/DX2                !
 ! D21   D(24,4,5,27)           63.1399         estimate D2E/DX2                !
 ! D22   D(25,4,5,6)            59.2279         estimate D2E/DX2                !
 ! D23   D(25,4,5,26)          -62.3842         estimate D2E/DX2                !
 ! D24   D(25,4,5,27)         -179.3788         estimate D2E/DX2                !
 ! D25   D(4,5,6,7)            179.0272         estimate D2E/DX2                !
 ! D26   D(4,5,6,28)            56.8683         estimate D2E/DX2                !
 ! D27   D(4,5,6,29)           -59.2486         estimate D2E/DX2                !
 ! D28   D(26,5,6,7)           -59.6083         estimate D2E/DX2                !
 ! D29   D(26,5,6,28)          178.2328         estimate D2E/DX2                !
 ! D30   D(26,5,6,29)           62.1159         estimate D2E/DX2                !
 ! D31   D(27,5,6,7)            57.7039         estimate D2E/DX2                !
 ! D32   D(27,5,6,28)          -64.455          estimate D2E/DX2                !
 ! D33   D(27,5,6,29)          179.4281         estimate D2E/DX2                !
 ! D34   D(5,6,7,8)             61.923          estimate D2E/DX2                !
 ! D35   D(5,6,7,12)          -120.1998         estimate D2E/DX2                !
 ! D36   D(28,6,7,8)          -176.3138         estimate D2E/DX2                !
 ! D37   D(28,6,7,12)            1.5634         estimate D2E/DX2                !
 ! D38   D(29,6,7,8)           -60.9387         estimate D2E/DX2                !
 ! D39   D(29,6,7,12)          116.9385         estimate D2E/DX2                !
 ! D40   D(6,7,8,9)            178.0658         estimate D2E/DX2                !
 ! D41   D(6,7,8,30)            -1.4496         estimate D2E/DX2                !
 ! D42   D(12,7,8,9)             0.1616         estimate D2E/DX2                !
 ! D43   D(12,7,8,30)         -179.3539         estimate D2E/DX2                !
 ! D44   D(6,7,12,11)         -177.753          estimate D2E/DX2                !
 ! D45   D(6,7,12,32)            1.5899         estimate D2E/DX2                !
 ! D46   D(8,7,12,11)            0.1755         estimate D2E/DX2                !
 ! D47   D(8,7,12,32)          179.5185         estimate D2E/DX2                !
 ! D48   D(7,8,9,10)            -0.5715         estimate D2E/DX2                !
 ! D49   D(7,8,9,31)          -179.9932         estimate D2E/DX2                !
 ! D50   D(30,8,9,10)          178.9506         estimate D2E/DX2                !
 ! D51   D(30,8,9,31)           -0.4711         estimate D2E/DX2                !
 ! D52   D(8,9,10,11)            0.6315         estimate D2E/DX2                !
 ! D53   D(8,9,10,16)         -178.9133         estimate D2E/DX2                !
 ! D54   D(31,9,10,11)        -179.9553         estimate D2E/DX2                !
 ! D55   D(31,9,10,16)           0.4999         estimate D2E/DX2                !
 ! D56   D(9,10,11,12)          -0.2935         estimate D2E/DX2                !
 ! D57   D(9,10,11,13)        -179.8962         estimate D2E/DX2                !
 ! D58   D(16,10,11,12)        179.2646         estimate D2E/DX2                !
 ! D59   D(16,10,11,13)         -0.3381         estimate D2E/DX2                !
 ! D60   D(9,10,16,15)         179.4075         estimate D2E/DX2                !
 ! D61   D(9,10,16,35)          -0.2659         estimate D2E/DX2                !
 ! D62   D(11,10,16,15)         -0.1366         estimate D2E/DX2                !
 ! D63   D(11,10,16,35)       -179.81           estimate D2E/DX2                !
 ! D64   D(10,11,12,7)          -0.1075         estimate D2E/DX2                !
 ! D65   D(10,11,12,32)       -179.4505         estimate D2E/DX2                !
 ! D66   D(13,11,12,7)         179.4885         estimate D2E/DX2                !
 ! D67   D(13,11,12,32)          0.1455         estimate D2E/DX2                !
 ! D68   D(10,11,13,14)          0.3964         estimate D2E/DX2                !
 ! D69   D(10,11,13,33)       -179.8899         estimate D2E/DX2                !
 ! D70   D(12,11,13,14)       -179.2009         estimate D2E/DX2                !
 ! D71   D(12,11,13,33)          0.5128         estimate D2E/DX2                !
 ! D72   D(11,13,14,15)          0.0259         estimate D2E/DX2                !
 ! D73   D(11,13,14,34)        179.8394         estimate D2E/DX2                !
 ! D74   D(33,13,14,15)       -179.6916         estimate D2E/DX2                !
 ! D75   D(33,13,14,34)          0.1219         estimate D2E/DX2                !
 ! D76   D(13,14,15,16)         -0.4994         estimate D2E/DX2                !
 ! D77   D(13,14,15,17)        179.3498         estimate D2E/DX2                !
 ! D78   D(34,14,15,16)        179.6954         estimate D2E/DX2                !
 ! D79   D(34,14,15,17)         -0.4554         estimate D2E/DX2                !
 ! D80   D(14,15,16,10)          0.5568         estimate D2E/DX2                !
 ! D81   D(14,15,16,35)       -179.7657         estimate D2E/DX2                !
 ! D82   D(17,15,16,10)       -179.308          estimate D2E/DX2                !
 ! D83   D(17,15,16,35)          0.3695         estimate D2E/DX2                !
 ! D84   D(14,15,17,18)         -1.9371         estimate D2E/DX2                !
 ! D85   D(16,15,17,18)        177.9178         estimate D2E/DX2                !
 ! D86   D(15,17,18,36)       -177.7819         estimate D2E/DX2                !
 ! D87   D(15,17,18,37)         64.3322         estimate D2E/DX2                !
 ! D88   D(15,17,18,38)        -59.8947         estimate D2E/DX2                !
 --------------------------------------------------------------------------------
 Trust Radius=3.00D-01 FncErr=1.00D-07 GrdErr=1.00D-06
 Number of steps in this run= 205 maximum allowed number of steps= 228.
 GradGradGradGradGradGradGradGradGradGradGradGradGradGradGradGradGradGrad

 Leave Link  103 at Tue Sep 28 15:18:09 2021, MaxMem= 1610612736 cpu:       0.0
 (Enter /sw/target/amd/app/gaussian/Gaussian09RevA.02_gcc-4.9.2/g09/l202.exe)
                          Input orientation:                          
 ---------------------------------------------------------------------
 Center     Atomic      Atomic             Coordinates (Angstroms)
 Number     Number       Type             X           Y           Z
 ---------------------------------------------------------------------
      1          6           0        7.346900   -5.294188    2.843124
      2          8           0        6.847720   -4.508987    1.768836
      3          6           0        7.434505   -3.209706    1.749241
      4          6           0        6.875537   -2.419614    0.570209
      5          6           0        7.211389   -3.065873   -0.777854
      6          6           0        6.637456   -2.241935   -1.933475
      7          6           0        6.954973   -2.815435   -3.293401
      8          6           0        6.500825   -4.084713   -3.668274
      9          6           0        6.767735   -4.587790   -4.945404
     10          6           0        7.485161   -3.827675   -5.881474
     11          6           0        7.947958   -2.547091   -5.510574
     12          6           0        7.678928   -2.057243   -4.222858
     13          6           0        8.663942   -1.779242   -6.440110
     14          6           0        8.914956   -2.263816   -7.725437
     15          6           0        8.454846   -3.522895   -8.104343
     16          6           0        7.747971   -4.300274   -7.179739
     17          8           0        8.626397   -4.098621   -9.333541
     18          6           0        9.301457   -3.314388  -10.310253
     19          1           0        6.842207   -6.263787    2.824420
     20          1           0        7.137925   -4.809727    3.801733
     21          1           0        8.422914   -5.457874    2.729731
     22          1           0        8.524465   -3.292619    1.669086
     23          1           0        7.187571   -2.689520    2.681870
     24          1           0        7.274555   -1.399097    0.601664
     25          1           0        5.784937   -2.352722    0.667092
     26          1           0        6.809256   -4.085130   -0.807508
     27          1           0        8.299970   -3.150598   -0.886266
     28          1           0        7.027682   -1.217999   -1.866598
     29          1           0        5.547567   -2.159948   -1.839636
     30          1           0        5.927249   -4.691905   -2.971369
     31          1           0        6.401112   -5.577843   -5.206876
     32          1           0        8.030308   -1.065387   -3.944828
     33          1           0        9.028943   -0.791791   -6.169956
     34          1           0        9.470948   -1.626982   -8.404011
     35          1           0        7.395871   -5.283754   -7.483244
     36          1           0        9.327536   -3.885216  -11.243095
     37          1           0       10.336024   -3.119871  -10.008334
     38          1           0        8.765322   -2.379870  -10.508125
 ---------------------------------------------------------------------
                    Distance matrix (angstroms):
                    1          2          3          4          5
     1  C    0.000000
     2  O    1.421203   0.000000
     3  C    2.355700   1.425774   0.000000
     4  C    3.694794   2.408933   1.525387   0.000000
     5  C    4.253849   2.949654   2.540999   1.532227   0.000000
     6  C    5.712745   4.346359   3.890278   2.521247   1.530925
     7  C    6.629839   5.339088   5.080712   3.884645   2.540954
     8  C    6.676599   5.464659   5.566584   4.569212   3.146023
     9  C    7.841913   6.715178   6.867457   5.927444   4.458871
    10  C    8.848073   7.706994   7.655864   6.631628   5.167420
    11  C    8.814312   7.619014   7.308051   6.175942   4.817708
    12  C    7.779214   6.527048   6.087190   4.873422   3.619943
    13  C   10.013385   8.839511   8.403762   7.263129   5.985523
    14  C   11.105694   9.972736   9.636179   8.544076   7.198218
    15  C   11.145046  10.051611   9.911220   8.885904   7.445300
    16  C   10.080006   8.996166   9.000793   8.022451   6.541850
    17  O   12.301937  11.251438  11.182076  10.196511   8.733189
    18  C   13.444375  12.383548  12.203600  11.183477   9.762007
    19  H    1.093246   2.047831   3.291540   4.456483   4.831079
    20  H    1.094215   2.075412   2.619304   4.027932   4.900922
    21  H    1.094284   2.074836   2.644347   4.035955   4.415044
    22  H    2.602172   2.073878   1.096043   2.165325   2.786234
    23  H    2.614514   2.063877   1.096069   2.151587   3.480215
    24  H    4.494565   3.349013   2.149610   1.096202   2.164533
    25  H    3.978325   2.644395   2.150940   1.096936   2.152026
    26  H    3.883040   2.611260   2.773854   2.162509   1.096119
    27  H    4.405868   3.317200   2.774602   2.164409   1.097243
    28  H    6.236882   4.907073   4.148095   2.721223   2.152615
    29  H    5.915175   4.497716   4.188384   2.763745   2.171723
    30  H    6.015520   4.832211   5.172319   4.313390   3.017367
    31  H    8.110332   7.071242   7.420481   6.601076   5.155849
    32  H    8.026587   6.775164   6.113551   4.853142   3.834358
    33  H   10.214522   9.033255   8.432213   7.260633   6.127783
    34  H   12.019069  10.893764  10.475716   9.375556   8.082963
    35  H   10.326489   9.300629   9.462660   8.563419   7.065075
    36  H   14.294394  13.260804  13.146889  12.153784  10.708440
    37  H   13.372452  12.361214  12.110633  11.152170   9.745154
    38  H   13.739033  12.606907  12.357294  11.238432   9.877423
                    6          7          8          9         10
     6  C    0.000000
     7  C    1.509675   0.000000
     8  C    2.534566   1.399231   0.000000
     9  C    3.819912   2.430106   1.398352   0.000000
    10  C    4.338187   2.829108   2.435824   1.403104   0.000000
    11  C    3.821803   2.444153   2.802239   2.424210   1.411256
    12  C    2.521914   1.401020   2.409590   2.784962   2.433717
    13  C    4.962912   3.727740   4.204443   3.703740   2.428513
    14  C    6.223689   4.877372   5.060065   4.211887   2.808944
    15  C    6.559221   5.088741   4.879810   3.736207   2.444244
    16  C    5.743979   4.235235   3.732590   2.456783   1.406383
    17  O    7.884424   6.397149   6.050909   4.790580   3.645901
    18  C    8.855364   7.415602   7.249332   6.068187   4.814195
    19  H    6.233360   7.023644   6.857111   7.948879   9.063146
    20  H    6.303700   7.372354   7.532101   8.757780   9.739071
    21  H    5.939328   6.739099   6.820151   7.899643   8.814181
    22  H    4.200379   5.226594   5.762807   6.965274   7.640510
    23  H    4.669514   5.981122   6.537775   7.871149   8.643773
    24  H    2.746489   4.156883   5.103289   6.418301   6.926285
    25  H    2.738980   4.155549   4.723101   6.120583   6.924591
    26  H    2.166722   2.795179   2.877344   4.168522   5.125257
    27  H    2.164779   2.777706   3.442246   4.570543   5.106315
    28  H    1.097813   2.143094   3.426610   4.571882   4.810293
    29  H    1.096989   2.126943   2.820875   4.126623   4.782471
    30  H    2.753901   2.163577   1.087819   2.148039   3.412139
    31  H    4.679669   3.405738   2.146318   1.087652   2.166410
    32  H    2.714745   2.154848   3.395898   3.873315   3.417312
    33  H    5.076406   4.083020   4.846971   4.584997   3.418052
    34  H    7.090464   5.819011   6.106495   5.294876   3.892248
    35  H    6.373993   4.882804   4.097902   2.705467   2.166519
    36  H    9.828832   8.364875   8.087522   6.834260   5.669625
    37  H    8.924882   7.524261   7.472351   6.365589   5.065509
    38  H    8.835806   7.451129   7.403918   6.309448   5.014066
                   11         12         13         14         15
    11  C    0.000000
    12  C    1.403759   0.000000
    13  C    1.402234   2.442078   0.000000
    14  C    2.433299   3.720012   1.396382   0.000000
    15  C    2.817226   4.220913   2.419445   1.393037   0.000000
    16  C    2.428942   3.712021   2.782383   2.409731   1.399601
    17  O    4.181220   5.584263   3.708486   2.456782   1.368144
    18  C    5.045554   6.424125   4.212019   2.816800   2.371974
    19  H    9.192858   8.249802  10.452817  11.471509  11.382045
    20  H    9.617419   8.500760  10.789250  11.937971  12.047608
    21  H    8.752193   7.775366   9.883138  10.943247  11.005559
    22  H    7.241250   6.079153   8.250384   9.458751   9.776389
    23  H    8.228889   6.951006   9.285408  10.558272  10.892331
    24  H    6.255463   4.885969   7.187593   8.531076   9.038704
    25  H    6.548282   5.252249   7.689595   8.957648   9.243148
    26  H    5.077504   4.066113   6.362640   7.457137   7.501192
    27  H    4.676790   3.565665   5.732214   6.923788   7.229331
    28  H    3.986472   2.584650   4.889719   6.243519   6.801383
    29  H    4.403129   3.198905   5.569658   6.781795   7.039634
    30  H    3.889866   3.402359   5.292000   6.117448   5.839757
    31  H    3.416201   3.872432   4.590276   4.862647   4.103164
    32  H    2.157265   1.088369   2.671613   4.063476   4.849860
    33  H    2.164345   2.686094   1.086862   2.144614   3.395640
    34  H    3.396774   4.569300   2.128696   1.084043   2.171808
    35  H    3.418413   4.595716   3.870108   3.389145   2.146583
    36  H    6.046124   7.439296   5.286223   3.895265   3.277901
    37  H    5.124527   6.454538   4.162374   2.822035   2.706739
    38  H    5.066711   6.386620   4.113366   2.789124   2.679752
                   16         17         18         19         20
    16  C    0.000000
    17  O    2.334771   0.000000
    18  C    3.631171   1.422917   0.000000
    19  H   10.235184  12.477471  13.684534   0.000000
    20  H   11.010197  13.238453  14.354966   1.776762   0.000000
    21  H    9.999660  12.141314  13.244151   1.776822   1.794570
    22  H    8.939800  11.032580  12.004530   3.604528   2.961805
    23  H   10.007992  12.183016  13.177793   3.593742   2.398298
    24  H    8.318124  10.383795  11.262620   5.365890   4.678836
    25  H    8.319809  10.542045  11.566884   4.590023   4.206355
    26  H    6.444595   8.717535   9.854302   4.235390   4.677410
    27  H    6.421391   8.506571   9.478467   5.058281   5.106897
    28  H    6.184554   8.161440   8.992230   6.892026   6.711381
    29  H    6.159503   8.330441   9.336796   6.345943   6.432388
    30  H    4.602042   6.936470   8.194025   6.074465   6.881463
    31  H    2.708948   4.916233   6.291238   8.072595   9.071270
    32  H    4.583543   6.212412   6.869677   8.617288   8.650181
    33  H    3.869109   4.594066   4.855905  10.752830  10.915784
    34  H    3.407930   2.772417   2.551436  12.429316  12.827824
    35  H    1.087806   2.518399   3.937212  10.368941  11.297874
    36  H    4.379288   2.045370   1.093947  14.482039  15.231415
    37  H    4.011523   2.082335   1.095135  13.666401  14.275903
    38  H    3.975060   2.086397   1.095408  14.019270  14.605638
                   21         22         23         24         25
    21  H    0.000000
    22  H    2.413215   0.000000
    23  H    3.031855   1.782343   0.000000
    24  H    4.724518   2.507407   2.449493   0.000000
    25  H    4.566768   3.064704   2.477931   1.769927   0.000000
    26  H    4.123152   3.115050   3.777116   3.068720   2.494977
    27  H    4.291162   2.569123   3.765849   2.516579   3.061848
    28  H    6.406985   4.364112   4.783252   2.487179   3.041643
    29  H    6.326377   4.738776   4.838809   3.085665   2.525310
    30  H    6.270374   5.498850   6.128382   5.042260   4.327866
    31  H    8.190959   7.550479   8.437609   7.208603   6.729382
    32  H    7.999864   6.059768   6.874674   4.620943   5.288546
    33  H   10.066978   8.243738   9.238336   7.021505   7.726921
    34  H   11.820928  10.253656  11.368358   9.272446   9.818263
    35  H   10.265963   9.434166  10.492996   8.970564   8.809882
    36  H   14.090120  12.950696  14.139088  12.275742  12.520028
    37  H   13.091392  11.818364  13.082019  11.176122  11.630375
    38  H   13.595300  12.213746  13.287631  11.252187  11.565851
                   26         27         28         29         30
    26  H    0.000000
    27  H    1.761188   0.000000
    28  H    3.064282   2.512908   0.000000
    29  H    2.522592   3.076690   1.754632   0.000000
    30  H    2.414209   3.514696   3.807820   2.799247   0.000000
    31  H    4.663605   5.307057   5.527955   4.873279   2.450903
    32  H    4.522455   3.711553   2.312485   3.434224   4.303733
    33  H    6.673001   5.832045   4.765038   5.722194   5.921348
    34  H    8.416291   7.759451   6.991036   7.666028   7.173922
    35  H    6.807809   6.991986   6.943532   6.710044   4.781647
    36  H   10.737001  10.433574  10.016091  10.280553   8.979653
    37  H    9.900758   9.346581   8.991668   9.517268   8.451477
    38  H   10.041717   9.663889   8.890744   9.249055   8.378715
                   31         32         33         34         35
    31  H    0.000000
    32  H    4.960777   0.000000
    33  H    5.544305   2.454246   0.000000
    34  H    5.937581   4.719656   2.425678   0.000000
    35  H    2.501576   5.542339   4.956751   4.304154   0.000000
    36  H    6.918446   7.930886   5.949385   3.630508   4.452384
    37  H    6.676762   6.804655   4.675635   2.356040   4.438802
    38  H    6.627199   6.733869   4.627224   2.343511   4.411105
                   36         37         38
    36  H    0.000000
    37  H    1.768456   0.000000
    38  H    1.767012   1.806792   0.000000
 Stoichiometry    C16H20O2
 Framework group  C1[X(C16H20O2)]
 Deg. of freedom   108
 Full point group                 C1      NOp   1
 Largest Abelian subgroup         C1      NOp   1
 Largest concise Abelian subgroup C1      NOp   1
                         Standard orientation:                         
 ---------------------------------------------------------------------
 Center     Atomic      Atomic             Coordinates (Angstroms)
 Number     Number       Type             X           Y           Z
 ---------------------------------------------------------------------
      1          6           0       -6.732304   -1.481355    0.955037
      2          8           0       -5.708572   -0.850019    0.197934
      3          6           0       -5.533170    0.511737    0.582233
      4          6           0       -4.414978    1.132305   -0.249241
      5          6           0       -3.066068    0.441964   -0.022098
      6          6           0       -1.971548    1.095645   -0.869717
      7          6           0       -0.610033    0.473882   -0.672726
      8          6           0       -0.374295   -0.868711   -0.988507
      9          6           0        0.901345   -1.421751   -0.839245
     10          6           0        1.973750   -0.641135   -0.381767
     11          6           0        1.743834    0.713513   -0.059722
     12          6           0        0.456748    1.253954   -0.207622
     13          6           0        2.809963    1.502047    0.396175
     14          6           0        4.092200    0.964560    0.526024
     15          6           0        4.331524   -0.369049    0.202353
     16          6           0        3.271172   -1.166128   -0.243966
     17          8           0        5.541553   -1.003299    0.275663
     18          6           0        6.648806   -0.207488    0.682318
     19          1           0       -6.840541   -2.508986    0.598041
     20          1           0       -7.685674   -0.961813    0.819146
     21          1           0       -6.463915   -1.506114    2.015608
     22          1           0       -5.291333    0.571074    1.649615
     23          1           0       -6.464896    1.059593    0.400277
     24          1           0       -4.332918    2.196916   -0.001193
     25          1           0       -4.674238    1.058252   -1.312523
     26          1           0       -3.150319   -0.621694   -0.273117
     27          1           0       -2.796648    0.497292    1.040113
     28          1           0       -1.925617    2.164998   -0.625651
     29          1           0       -2.226926    1.036386   -1.934919
     30          1           0       -1.180848   -1.496005   -1.361771
     31          1           0        1.052799   -2.468436   -1.093210
     32          1           0        0.286710    2.301555    0.033553
     33          1           0        2.649560    2.546567    0.650182
     34          1           0        4.879478    1.620093    0.880449
     35          1           0        3.466667   -2.207382   -0.490735
     36          1           0        7.544333   -0.835201    0.655338
     37          1           0        6.519227    0.146034    1.710692
     38          1           0        6.809561    0.629479   -0.005840
 ---------------------------------------------------------------------
 Rotational constants (GHZ):      1.4284435      0.1213148      0.1164324
 Leave Link  202 at Tue Sep 28 15:18:09 2021, MaxMem= 1610612736 cpu:       0.1
 (Enter /sw/target/amd/app/gaussian/Gaussian09RevA.02_gcc-4.9.2/g09/l301.exe)
 Standard basis: 6-31G(d) (6D, 7F)
 Ernie: Thresh=  0.10000D-02 Tol=  0.10000D-05 Strict=F.
 There are   310 symmetry adapted basis functions of A   symmetry.
 Integral buffers will be    131072 words long.
 Raffenetti 2 integral format.
 Two-electron integral symmetry is turned on.
   310 basis functions,   584 primitive gaussians,   310 cartesian basis functions
    66 alpha electrons       66 beta electrons
       nuclear repulsion energy      1202.1433822220 Hartrees.
 IExCor=  402 DFT=T Ex+Corr=B3LYP ExCW=0 ScaHFX=  0.200000
 ScaDFX=  0.800000  0.720000  1.000000  0.810000 ScalE2=  1.000000  1.000000
 IRadAn=      0 IRanWt=     -1 IRanGd=            0 ICorTp=0
 NAtoms=   38 NActive=   38 NUniq=   38 SFac= 7.50D-01 NAtFMM=   80 NAOKFM=F Big=F
 Leave Link  301 at Tue Sep 28 15:18:09 2021, MaxMem= 1610612736 cpu:       0.1
 (Enter /sw/target/amd/app/gaussian/Gaussian09RevA.02_gcc-4.9.2/g09/l302.exe)
 NPDir=0 NMtPBC=     1 NCelOv=     1 NCel=       1 NClECP=     1 NCelD=      1
         NCelK=      1 NCelE2=     1 NClLst=     1 CellRange=     0.0.
 One-electron integrals computed using PRISM.
 NBasis=   310 RedAO= T  NBF=   310
 NBsUse=   310 1.00D-06 NBFU=   310
 Precomputing XC quadrature grid using
 IXCGrd= 2 IRadAn=           0 IRanWt=          -1 IRanGd=           0 AccXCQ= 1.00D-10.
 NRdTot=    2441 NPtTot=      311692 NUsed=      329286 NTot=      329318
 NSgBfM=   301   302   302   302   302 NAtAll=    38    38.
 Leave Link  302 at Tue Sep 28 15:18:11 2021, MaxMem= 1610612736 cpu:       3.8
 (Enter /sw/target/amd/app/gaussian/Gaussian09RevA.02_gcc-4.9.2/g09/l303.exe)
 DipDrv:  MaxL=1.
 Leave Link  303 at Tue Sep 28 15:18:12 2021, MaxMem= 1610612736 cpu:       0.3
 (Enter /sw/target/amd/app/gaussian/Gaussian09RevA.02_gcc-4.9.2/g09/l401.exe)
 Harris functional with IExCor=  402 diagonalized for initial guess.
 ExpMin= 1.61D-01 ExpMax= 5.48D+03 ExpMxC= 8.25D+02 IAcc=1 IRadAn=         1 AccDes= 0.00D+00
 HarFok:  IExCor=  402 AccDes= 0.00D+00 IRadAn=         1 IDoV= 1
 ScaDFX=  1.000000  1.000000  1.000000  1.000000
 FoFCou: FMM=F IPFlag=           0 FMFlag=      100000 FMFlg1=           0
         NFxFlg=           0 DoJE=T BraDBF=F KetDBF=T FulRan=T
         Omega=  0.000000  0.000000  1.000000  0.000000  0.000000 ICntrl=     500 IOpCl=  0
         NMat0=    1 NMatS0=    1 NMatT0=    0 NMatD0=    1 NMtDS0=    0 NMtDT0=    0
         I1Cent=           4 NGrid=           0.
 Petite list used in FoFCou.
 Harris En= -772.275839844114    
 Initial guess orbital symmetries:
       Occupied  (A) (A) (A) (A) (A) (A) (A) (A) (A) (A) (A) (A)
                 (A) (A) (A) (A) (A) (A) (A) (A) (A) (A) (A) (A)
                 (A) (A) (A) (A) (A) (A) (A) (A) (A) (A) (A) (A)
                 (A) (A) (A) (A) (A) (A) (A) (A) (A) (A) (A) (A)
                 (A) (A) (A) (A) (A) (A) (A) (A) (A) (A) (A) (A)
                 (A) (A) (A) (A) (A) (A)
       Virtual   (A) (A) (A) (A) (A) (A) (A) (A) (A) (A) (A) (A)
                 (A) (A) (A) (A) (A) (A) (A) (A) (A) (A) (A) (A)
                 (A) (A) (A) (A) (A) (A) (A) (A) (A) (A) (A) (A)
                 (A) (A) (A) (A) (A) (A) (A) (A) (A) (A) (A) (A)
                 (A) (A) (A) (A) (A) (A) (A) (A) (A) (A) (A) (A)
                 (A) (A) (A) (A) (A) (A) (A) (A) (A) (A) (A) (A)
                 (A) (A) (A) (A) (A) (A) (A) (A) (A) (A) (A) (A)
                 (A) (A) (A) (A) (A) (A) (A) (A) (A) (A) (A) (A)
                 (A) (A) (A) (A) (A) (A) (A) (A) (A) (A) (A) (A)
                 (A) (A) (A) (A) (A) (A) (A) (A) (A) (A) (A) (A)
                 (A) (A) (A) (A) (A) (A) (A) (A) (A) (A) (A) (A)
                 (A) (A) (A) (A) (A) (A) (A) (A) (A) (A) (A) (A)
                 (A) (A) (A) (A) (A) (A) (A) (A) (A) (A) (A) (A)
                 (A) (A) (A) (A) (A) (A) (A) (A) (A) (A) (A) (A)
                 (A) (A) (A) (A) (A) (A) (A) (A) (A) (A) (A) (A)
                 (A) (A) (A) (A) (A) (A) (A) (A) (A) (A) (A) (A)
                 (A) (A) (A) (A) (A) (A) (A) (A) (A) (A) (A) (A)
                 (A) (A) (A) (A) (A) (A) (A) (A) (A) (A) (A) (A)
                 (A) (A) (A) (A) (A) (A) (A) (A) (A) (A) (A) (A)
                 (A) (A) (A) (A) (A) (A) (A) (A) (A) (A) (A) (A)
                 (A) (A) (A) (A)
 The electronic state of the initial guess is 1-A.
 Leave Link  401 at Tue Sep 28 15:18:19 2021, MaxMem= 1610612736 cpu:      14.2
 (Enter /sw/target/amd/app/gaussian/Gaussian09RevA.02_gcc-4.9.2/g09/l502.exe)
 Closed shell SCF:
 Requested convergence on RMS density matrix=1.00D-08 within  64 cycles.
 Requested convergence on MAX density matrix=1.00D-06.
 Requested convergence on             energy=1.00D-06.
 No special actions if energy rises.
 Using DIIS extrapolation, IDIIS=  1040.
 Integral symmetry usage will be decided dynamically.
       328931 words used for storage of precomputed grid.
 Keep R1 ints in memory in canonical form, NReq=1177552076.
 IEnd=      626987 IEndB=      626987 NGot=  1610612736 MDV=   448201241
 LenX=   448201241 LenY=   448104700
 Symmetry not used in FoFDir.
 MinBra= 0 MaxBra= 2 Meth= 1.
 IRaf=       0 NMat=   1 IRICut=       1 DoRegI=T DoRafI=F ISym2E= 0 JSym2E=0.
 Integral accuracy reduced to 1.0D-05 until final iterations.

 Cycle   1  Pass 0  IDiag  1:
 E= -771.745963284546    
 DIIS: error= 3.00D-02 at cycle   1 NSaved=   1.
 NSaved= 1 IEnMin= 1 EnMin= -771.745963284546     IErMin= 1 ErrMin= 3.00D-02
 ErrMax= 3.00D-02 EMaxC= 1.00D-01 BMatC= 3.95D-01 BMatP= 3.95D-01
 IDIUse=3 WtCom= 7.00D-01 WtEn= 3.00D-01
 Coeff-Com:  0.100D+01
 Coeff-En:   0.100D+01
 Coeff:      0.100D+01
 Gap=     0.169 Goal=   None    Shift=    0.000
 GapD=    0.169 DampG=1.000 DampE=0.500 DampFc=0.5000 IDamp=-1.
 Damping current iteration by 5.00D-01
 RMSDP=5.09D-03 MaxDP=1.38D-01              OVMax= 1.80D-01

 Cycle   2  Pass 0  IDiag  1:
 E= -771.949446018917     Delta-E=       -0.203482734372 Rises=F Damp=T
 DIIS: error= 6.57D-03 at cycle   2 NSaved=   2.
 NSaved= 2 IEnMin= 2 EnMin= -771.949446018917     IErMin= 2 ErrMin= 6.57D-03
 ErrMax= 6.57D-03 EMaxC= 1.00D-01 BMatC= 2.18D-02 BMatP= 3.95D-01
 IDIUse=3 WtCom= 9.34D-01 WtEn= 6.57D-02
 Coeff-Com:  0.212D-01 0.979D+00
 Coeff-En:   0.296D-01 0.970D+00
 Coeff:      0.218D-01 0.978D+00
 Gap=     0.161 Goal=   None    Shift=    0.000
 RMSDP=1.53D-03 MaxDP=4.26D-02 DE=-2.03D-01 OVMax= 1.67D-01

 Cycle   3  Pass 0  IDiag  1:
 E= -772.164035501601     Delta-E=       -0.214589482684 Rises=F Damp=F
 DIIS: error= 4.71D-03 at cycle   3 NSaved=   3.
 NSaved= 3 IEnMin= 3 EnMin= -772.164035501601     IErMin= 3 ErrMin= 4.71D-03
 ErrMax= 4.71D-03 EMaxC= 1.00D-01 BMatC= 1.67D-02 BMatP= 2.18D-02
 IDIUse=3 WtCom= 9.53D-01 WtEn= 4.71D-02
 Coeff-Com: -0.302D-01 0.470D+00 0.561D+00
 Coeff-En:   0.000D+00 0.000D+00 0.100D+01
 Coeff:     -0.288D-01 0.447D+00 0.581D+00
 Gap=     0.158 Goal=   None    Shift=    0.000
 RMSDP=7.31D-04 MaxDP=3.22D-02 DE=-2.15D-01 OVMax= 7.78D-02

 Cycle   4  Pass 0  IDiag  1:
 E= -772.175475406038     Delta-E=       -0.011439904436 Rises=F Damp=F
 DIIS: error= 3.09D-03 at cycle   4 NSaved=   4.
 NSaved= 4 IEnMin= 4 EnMin= -772.175475406038     IErMin= 4 ErrMin= 3.09D-03
 ErrMax= 3.09D-03 EMaxC= 1.00D-01 BMatC= 5.56D-03 BMatP= 1.67D-02
 IDIUse=3 WtCom= 9.69D-01 WtEn= 3.09D-02
 Coeff-Com: -0.191D-01 0.110D+00 0.374D+00 0.535D+00
 Coeff-En:   0.000D+00 0.000D+00 0.287D+00 0.713D+00
 Coeff:     -0.185D-01 0.107D+00 0.371D+00 0.540D+00
 Gap=     0.157 Goal=   None    Shift=    0.000
 RMSDP=3.03D-04 MaxDP=1.21D-02 DE=-1.14D-02 OVMax= 3.66D-02

 Cycle   5  Pass 0  IDiag  1:
 E= -772.181142351216     Delta-E=       -0.005666945179 Rises=F Damp=F
 DIIS: error= 5.79D-04 at cycle   5 NSaved=   5.
 NSaved= 5 IEnMin= 5 EnMin= -772.181142351216     IErMin= 5 ErrMin= 5.79D-04
 ErrMax= 5.79D-04 EMaxC= 1.00D-01 BMatC= 2.53D-04 BMatP= 5.56D-03
 IDIUse=3 WtCom= 9.94D-01 WtEn= 5.79D-03
 Coeff-Com: -0.723D-02 0.287D-01 0.161D+00 0.283D+00 0.534D+00
 Coeff-En:   0.000D+00 0.000D+00 0.000D+00 0.000D+00 0.100D+01
 Coeff:     -0.718D-02 0.286D-01 0.160D+00 0.282D+00 0.537D+00
 Gap=     0.156 Goal=   None    Shift=    0.000
 RMSDP=7.58D-05 MaxDP=2.52D-03 DE=-5.67D-03 OVMax= 8.11D-03

 Cycle   6  Pass 0  IDiag  1:
 E= -772.181387154996     Delta-E=       -0.000244803780 Rises=F Damp=F
 DIIS: error= 2.50D-04 at cycle   6 NSaved=   6.
 NSaved= 6 IEnMin= 6 EnMin= -772.181387154996     IErMin= 6 ErrMin= 2.50D-04
 ErrMax= 2.50D-04 EMaxC= 1.00D-01 BMatC= 3.18D-05 BMatP= 2.53D-04
 IDIUse=3 WtCom= 9.98D-01 WtEn= 2.50D-03
 Coeff-Com: -0.163D-02 0.255D-02 0.460D-01 0.935D-01 0.308D+00 0.552D+00
 Coeff-En:   0.000D+00 0.000D+00 0.000D+00 0.000D+00 0.755D-01 0.924D+00
 Coeff:     -0.162D-02 0.254D-02 0.459D-01 0.933D-01 0.307D+00 0.552D+00
 Gap=     0.156 Goal=   None    Shift=    0.000
 RMSDP=2.20D-05 MaxDP=8.12D-04 DE=-2.45D-04 OVMax= 2.62D-03

 Cycle   7  Pass 0  IDiag  1:
 E= -772.181416148768     Delta-E=       -0.000028993771 Rises=F Damp=F
 DIIS: error= 8.20D-05 at cycle   7 NSaved=   7.
 NSaved= 7 IEnMin= 7 EnMin= -772.181416148768     IErMin= 7 ErrMin= 8.20D-05
 ErrMax= 8.20D-05 EMaxC= 1.00D-01 BMatC= 2.11D-06 BMatP= 3.18D-05
 IDIUse=1 WtCom= 1.00D+00 WtEn= 0.00D+00
 Coeff-Com: -0.563D-03 0.187D-03 0.189D-01 0.400D-01 0.154D+00 0.317D+00
 Coeff-Com:  0.471D+00
 Coeff:     -0.563D-03 0.187D-03 0.189D-01 0.400D-01 0.154D+00 0.317D+00
 Coeff:      0.471D+00
 Gap=     0.156 Goal=   None    Shift=    0.000
 RMSDP=6.66D-06 MaxDP=2.97D-04 DE=-2.90D-05 OVMax= 8.66D-04

 Initial convergence to 1.0D-05 achieved.  Increase integral accuracy.
 Cycle   8  Pass 1  IDiag  1:
 E= -772.181446459383     Delta-E=       -0.000030310616 Rises=F Damp=F
 DIIS: error= 3.09D-05 at cycle   1 NSaved=   1.
 NSaved= 1 IEnMin= 1 EnMin= -772.181446459383     IErMin= 1 ErrMin= 3.09D-05
 ErrMax= 3.09D-05 EMaxC= 1.00D-01 BMatC= 2.76D-07 BMatP= 2.76D-07
 IDIUse=1 WtCom= 1.00D+00 WtEn= 0.00D+00
 Coeff-Com:  0.100D+01
 Coeff:      0.100D+01
 Gap=     0.156 Goal=   None    Shift=    0.000
 RMSDP=6.66D-06 MaxDP=2.97D-04 DE=-3.03D-05 OVMax= 7.38D-04

 Cycle   9  Pass 1  IDiag  1:
 E= -772.181445797400     Delta-E=        0.000000661983 Rises=F Damp=F
 DIIS: error= 6.72D-05 at cycle   2 NSaved=   2.
 NSaved= 2 IEnMin= 1 EnMin= -772.181446459383     IErMin= 1 ErrMin= 3.09D-05
 ErrMax= 6.72D-05 EMaxC= 1.00D-01 BMatC= 8.48D-07 BMatP= 2.76D-07
 IDIUse=1 WtCom= 1.00D+00 WtEn= 0.00D+00
 Coeff-Com:  0.650D+00 0.350D+00
 Coeff:      0.650D+00 0.350D+00
 Gap=     0.156 Goal=   None    Shift=    0.000
 RMSDP=3.98D-06 MaxDP=1.70D-04 DE= 6.62D-07 OVMax= 6.08D-04

 Cycle  10  Pass 1  IDiag  1:
 E= -772.181446770790     Delta-E=       -0.000000973390 Rises=F Damp=F
 DIIS: error= 8.64D-06 at cycle   3 NSaved=   3.
 NSaved= 3 IEnMin= 3 EnMin= -772.181446770790     IErMin= 3 ErrMin= 8.64D-06
 ErrMax= 8.64D-06 EMaxC= 1.00D-01 BMatC= 1.57D-08 BMatP= 2.76D-07
 IDIUse=1 WtCom= 1.00D+00 WtEn= 0.00D+00
 Coeff-Com:  0.390D-01 0.122D+00 0.839D+00
 Coeff:      0.390D-01 0.122D+00 0.839D+00
 Gap=     0.156 Goal=   None    Shift=    0.000
 RMSDP=6.51D-07 MaxDP=2.60D-05 DE=-9.73D-07 OVMax= 8.33D-05

 Cycle  11  Pass 1  IDiag  1:
 E= -772.181446786012     Delta-E=       -0.000000015222 Rises=F Damp=F
 DIIS: error= 1.80D-06 at cycle   4 NSaved=   4.
 NSaved= 4 IEnMin= 4 EnMin= -772.181446786012     IErMin= 4 ErrMin= 1.80D-06
 ErrMax= 1.80D-06 EMaxC= 1.00D-01 BMatC= 3.65D-09 BMatP= 1.57D-08
 IDIUse=1 WtCom= 1.00D+00 WtEn= 0.00D+00
 Coeff-Com: -0.119D-01 0.527D-01 0.491D+00 0.469D+00
 Coeff:     -0.119D-01 0.527D-01 0.491D+00 0.469D+00
 Gap=     0.156 Goal=   None    Shift=    0.000
 RMSDP=2.26D-07 MaxDP=1.09D-05 DE=-1.52D-08 OVMax= 2.29D-05

 Cycle  12  Pass 1  IDiag  1:
 E= -772.181446789510     Delta-E=       -0.000000003498 Rises=F Damp=F
 DIIS: error= 5.92D-07 at cycle   5 NSaved=   5.
 NSaved= 5 IEnMin= 5 EnMin= -772.181446789510     IErMin= 5 ErrMin= 5.92D-07
 ErrMax= 5.92D-07 EMaxC= 1.00D-01 BMatC= 1.73D-10 BMatP= 3.65D-09
 IDIUse=1 WtCom= 1.00D+00 WtEn= 0.00D+00
 Coeff-Com: -0.898D-02 0.214D-01 0.216D+00 0.258D+00 0.514D+00
 Coeff:     -0.898D-02 0.214D-01 0.216D+00 0.258D+00 0.514D+00
 Gap=     0.156 Goal=   None    Shift=    0.000
 RMSDP=6.24D-08 MaxDP=1.78D-06 DE=-3.50D-09 OVMax= 4.92D-06

 Cycle  13  Pass 1  IDiag  1:
 E= -772.181446789660     Delta-E=       -0.000000000149 Rises=F Damp=F
 DIIS: error= 2.39D-07 at cycle   6 NSaved=   6.
 NSaved= 6 IEnMin= 6 EnMin= -772.181446789660     IErMin= 6 ErrMin= 2.39D-07
 ErrMax= 2.39D-07 EMaxC= 1.00D-01 BMatC= 2.38D-11 BMatP= 1.73D-10
 IDIUse=1 WtCom= 1.00D+00 WtEn= 0.00D+00
 Coeff-Com: -0.434D-02 0.769D-02 0.798D-01 0.109D+00 0.312D+00 0.496D+00
 Coeff:     -0.434D-02 0.769D-02 0.798D-01 0.109D+00 0.312D+00 0.496D+00
 Gap=     0.156 Goal=   None    Shift=    0.000
 RMSDP=1.93D-08 MaxDP=6.96D-07 DE=-1.49D-10 OVMax= 1.59D-06

 Cycle  14  Pass 1  IDiag  1:
 E= -772.181446789701     Delta-E=       -0.000000000042 Rises=F Damp=F
 DIIS: error= 2.87D-08 at cycle   7 NSaved=   7.
 NSaved= 7 IEnMin= 7 EnMin= -772.181446789701     IErMin= 7 ErrMin= 2.87D-08
 ErrMax= 2.87D-08 EMaxC= 1.00D-01 BMatC= 6.79D-13 BMatP= 2.38D-11
 IDIUse=1 WtCom= 1.00D+00 WtEn= 0.00D+00
 Coeff-Com: -0.662D-03 0.924D-03 0.807D-02 0.149D-01 0.587D-01 0.179D+00
 Coeff-Com:  0.739D+00
 Coeff:     -0.662D-03 0.924D-03 0.807D-02 0.149D-01 0.587D-01 0.179D+00
 Coeff:      0.739D+00
 Gap=     0.156 Goal=   None    Shift=    0.000
 RMSDP=4.69D-09 MaxDP=1.35D-07 DE=-4.18D-11 OVMax= 4.96D-07

 SCF Done:  E(RB3LYP) =  -772.181446790     A.U. after   14 cycles
             Convg  =    0.4687D-08             -V/T =  2.0093
 KE= 7.650511120727D+02 PE=-4.197931563502D+03 EE= 1.458555622418D+03
 Leave Link  502 at Tue Sep 28 18:09:08 2021, MaxMem= 1610612736 cpu:     550.2
 (Enter /sw/target/amd/app/gaussian/Gaussian09RevA.02_gcc-4.9.2/g09/l508.exe)
 QCSCF skips out because SCF is already converged.
 Leave Link  508 at Tue Sep 28 18:09:17 2021, MaxMem= 1610612736 cpu:       0.0
 (Enter /sw/target/amd/app/gaussian/Gaussian09RevA.02_gcc-4.9.2/g09/l601.exe)
 Copying SCF densities to generalized density rwf, IOpCl= 0 IROHF=0.

 **********************************************************************

            Population analysis using the SCF density.

 **********************************************************************

 Orbital symmetries:
       Occupied  (A) (A) (A) (A) (A) (A) (A) (A) (A) (A) (A) (A)
                 (A) (A) (A) (A) (A) (A) (A) (A) (A) (A) (A) (A)
                 (A) (A) (A) (A) (A) (A) (A) (A) (A) (A) (A) (A)
                 (A) (A) (A) (A) (A) (A) (A) (A) (A) (A) (A) (A)
                 (A) (A) (A) (A) (A) (A) (A) (A) (A) (A) (A) (A)
                 (A) (A) (A) (A) (A) (A)
       Virtual   (A) (A) (A) (A) (A) (A) (A) (A) (A) (A) (A) (A)
                 (A) (A) (A) (A) (A) (A) (A) (A) (A) (A) (A) (A)
                 (A) (A) (A) (A) (A) (A) (A) (A) (A) (A) (A) (A)
                 (A) (A) (A) (A) (A) (A) (A) (A) (A) (A) (A) (A)
                 (A) (A) (A) (A) (A) (A) (A) (A) (A) (A) (A) (A)
                 (A) (A) (A) (A) (A) (A) (A) (A) (A) (A) (A) (A)
                 (A) (A) (A) (A) (A) (A) (A) (A) (A) (A) (A) (A)
                 (A) (A) (A) (A) (A) (A) (A) (A) (A) (A) (A) (A)
                 (A) (A) (A) (A) (A) (A) (A) (A) (A) (A) (A) (A)
                 (A) (A) (A) (A) (A) (A) (A) (A) (A) (A) (A) (A)
                 (A) (A) (A) (A) (A) (A) (A) (A) (A) (A) (A) (A)
                 (A) (A) (A) (A) (A) (A) (A) (A) (A) (A) (A) (A)
                 (A) (A) (A) (A) (A) (A) (A) (A) (A) (A) (A) (A)
                 (A) (A) (A) (A) (A) (A) (A) (A) (A) (A) (A) (A)
                 (A) (A) (A) (A) (A) (A) (A) (A) (A) (A) (A) (A)
                 (A) (A) (A) (A) (A) (A) (A) (A) (A) (A) (A) (A)
                 (A) (A) (A) (A) (A) (A) (A) (A) (A) (A) (A) (A)
                 (A) (A) (A) (A) (A) (A) (A) (A) (A) (A) (A) (A)
                 (A) (A) (A) (A) (A) (A) (A) (A) (A) (A) (A) (A)
                 (A) (A) (A) (A) (A) (A) (A) (A) (A) (A) (A) (A)
                 (A) (A) (A) (A)
 The electronic state is 1-A.
 Alpha  occ. eigenvalues --  -19.17359 -19.14176 -10.24094 -10.23804 -10.22467
 Alpha  occ. eigenvalues --  -10.22297 -10.18731 -10.18617 -10.18526 -10.18373
 Alpha  occ. eigenvalues --  -10.18146 -10.18036 -10.17978 -10.17841 -10.17835
 Alpha  occ. eigenvalues --  -10.17768 -10.17534 -10.17337  -1.05835  -1.02142
 Alpha  occ. eigenvalues --   -0.86788  -0.82101  -0.79203  -0.76703  -0.75412
 Alpha  occ. eigenvalues --   -0.72120  -0.71751  -0.68505  -0.66296  -0.62735
 Alpha  occ. eigenvalues --   -0.61815  -0.59287  -0.58010  -0.57019  -0.52522
 Alpha  occ. eigenvalues --   -0.50319  -0.49196  -0.48660  -0.47309  -0.46726
 Alpha  occ. eigenvalues --   -0.46326  -0.45522  -0.44470  -0.43977  -0.43233
 Alpha  occ. eigenvalues --   -0.41696  -0.40998  -0.39827  -0.39594  -0.38825
 Alpha  occ. eigenvalues --   -0.38480  -0.37485  -0.36453  -0.35452  -0.34242
 Alpha  occ. eigenvalues --   -0.34088  -0.33451  -0.32951  -0.32112  -0.31393
 Alpha  occ. eigenvalues --   -0.30528  -0.29096  -0.26442  -0.25033  -0.22632
 Alpha  occ. eigenvalues --   -0.18969
 Alpha virt. eigenvalues --   -0.03352   0.01138   0.04090   0.08938   0.09706
 Alpha virt. eigenvalues --    0.10253   0.10962   0.11539   0.11927   0.12750
 Alpha virt. eigenvalues --    0.13729   0.14107   0.14345   0.14622   0.15296
 Alpha virt. eigenvalues --    0.15652   0.16402   0.17036   0.17130   0.18543
 Alpha virt. eigenvalues --    0.18697   0.19214   0.19518   0.20038   0.21530
 Alpha virt. eigenvalues --    0.21835   0.22961   0.23469   0.24293   0.25189
 Alpha virt. eigenvalues --    0.25889   0.27591   0.28173   0.29481   0.31845
 Alpha virt. eigenvalues --    0.33929   0.35097   0.36287   0.36604   0.40415
 Alpha virt. eigenvalues --    0.48284   0.49628   0.50390   0.50883   0.51456
 Alpha virt. eigenvalues --    0.51649   0.52824   0.53382   0.54090   0.54437
 Alpha virt. eigenvalues --    0.55515   0.55786   0.56499   0.56990   0.57315
 Alpha virt. eigenvalues --    0.57809   0.58300   0.58855   0.59644   0.59896
 Alpha virt. eigenvalues --    0.61018   0.61826   0.62141   0.62836   0.63464
 Alpha virt. eigenvalues --    0.63810   0.65598   0.66461   0.67620   0.68528
 Alpha virt. eigenvalues --    0.69636   0.70819   0.72300   0.74750   0.75150
 Alpha virt. eigenvalues --    0.77800   0.79391   0.80132   0.80988   0.81917
 Alpha virt. eigenvalues --    0.83399   0.83572   0.83796   0.84331   0.84806
 Alpha virt. eigenvalues --    0.85496   0.85944   0.86312   0.86855   0.87104
 Alpha virt. eigenvalues --    0.87818   0.89049   0.90260   0.92246   0.92790
 Alpha virt. eigenvalues --    0.93094   0.93511   0.93964   0.94338   0.94702
 Alpha virt. eigenvalues --    0.95962   0.96177   0.97018   0.98640   1.00774
 Alpha virt. eigenvalues --    1.01561   1.01949   1.03552   1.05416   1.06176
 Alpha virt. eigenvalues --    1.07632   1.09230   1.11849   1.13015   1.14050
 Alpha virt. eigenvalues --    1.16654   1.19554   1.21794   1.23367   1.24044
 Alpha virt. eigenvalues --    1.25337   1.26174   1.26853   1.28528   1.32426
 Alpha virt. eigenvalues --    1.36583   1.37932   1.39036   1.40335   1.42593
 Alpha virt. eigenvalues --    1.43378   1.45015   1.45970   1.47515   1.48014
 Alpha virt. eigenvalues --    1.49052   1.49966   1.50283   1.50867   1.51876
 Alpha virt. eigenvalues --    1.52629   1.52960   1.54921   1.59806   1.66825
 Alpha virt. eigenvalues --    1.68848   1.69452   1.74307   1.76294   1.79428
 Alpha virt. eigenvalues --    1.81832   1.83269   1.84573   1.85957   1.87136
 Alpha virt. eigenvalues --    1.89047   1.90124   1.91425   1.91983   1.92514
 Alpha virt. eigenvalues --    1.93658   1.94846   1.96279   1.96671   1.97208
 Alpha virt. eigenvalues --    1.97718   1.98769   2.00042   2.01803   2.03371
 Alpha virt. eigenvalues --    2.04336   2.06300   2.07581   2.08347   2.09545
 Alpha virt. eigenvalues --    2.10809   2.11872   2.12198   2.14863   2.16251
 Alpha virt. eigenvalues --    2.18419   2.19311   2.21636   2.23266   2.24285
 Alpha virt. eigenvalues --    2.25812   2.27822   2.29122   2.30125   2.31976
 Alpha virt. eigenvalues --    2.33621   2.34298   2.34942   2.36452   2.38293
 Alpha virt. eigenvalues --    2.40087   2.41130   2.42046   2.45191   2.47971
 Alpha virt. eigenvalues --    2.48997   2.52478   2.53557   2.56762   2.59560
 Alpha virt. eigenvalues --    2.64569   2.65208   2.68170   2.69419   2.70087
 Alpha virt. eigenvalues --    2.71305   2.75064   2.78906   2.80557   2.82168
 Alpha virt. eigenvalues --    2.82618   2.85829   2.89789   2.93339   2.95403
 Alpha virt. eigenvalues --    2.98324   3.03103   3.08166   3.17194   3.40371
 Alpha virt. eigenvalues --    3.51246   3.91538   4.05761   4.10610   4.11682
 Alpha virt. eigenvalues --    4.13924   4.14293   4.17844   4.22293   4.24585
 Alpha virt. eigenvalues --    4.29151   4.30918   4.33753   4.41136   4.42257
 Alpha virt. eigenvalues --    4.46778   4.55986   4.64289   4.86314
          Condensed to atoms (all electrons):
              1          2          3          4          5          6
     1  C    4.874242   0.257583  -0.041142   0.005639   0.000251  -0.000001
     2  O    0.257583   8.196119   0.243140  -0.046992  -0.001607   0.000148
     3  C   -0.041142   0.243140   4.839318   0.378646  -0.034511   0.003527
     4  C    0.005639  -0.046992   0.378646   5.044030   0.358500  -0.040054
     5  C    0.000251  -0.001607  -0.034511   0.358500   5.031721   0.361324
     6  C   -0.000001   0.000148   0.003527  -0.040054   0.361324   5.153112
     7  C   -0.000000   0.000006  -0.000116   0.003882  -0.043850   0.354882
     8  C    0.000000  -0.000003  -0.000001   0.000151  -0.001551  -0.068460
     9  C    0.000000  -0.000000  -0.000000   0.000001   0.000284   0.005733
    10  C   -0.000000   0.000000  -0.000000  -0.000000   0.000001   0.000935
    11  C    0.000000  -0.000000  -0.000000   0.000002  -0.000185   0.005907
    12  C   -0.000000   0.000000   0.000001  -0.000036  -0.001478  -0.036804
    13  C   -0.000000  -0.000000   0.000000  -0.000000   0.000003  -0.000289
    14  C   -0.000000   0.000000  -0.000000   0.000000  -0.000000   0.000003
    15  C    0.000000  -0.000000  -0.000000   0.000000  -0.000000  -0.000000
    16  C   -0.000000   0.000000  -0.000000  -0.000000  -0.000000   0.000001
    17  O    0.000000   0.000000   0.000000  -0.000000   0.000000  -0.000000
    18  C    0.000000   0.000000   0.000000  -0.000000   0.000000  -0.000000
    19  H    0.383749  -0.031417   0.006013  -0.000253   0.000013  -0.000000
    20  H    0.361014  -0.039120  -0.009057  -0.000166   0.000044   0.000000
    21  H    0.362638  -0.039522  -0.008786   0.000194  -0.000171  -0.000001
    22  H   -0.006648  -0.042847   0.351582  -0.036246  -0.011073  -0.000024
    23  H   -0.007128  -0.041764   0.356473  -0.037102   0.005887  -0.000093
    24  H   -0.000208   0.002872  -0.032294   0.361224  -0.038449  -0.004366
    25  H   -0.000018   0.001449  -0.032977   0.368118  -0.042356  -0.003803
    26  H   -0.000350   0.010698  -0.007036  -0.036069   0.376985  -0.038240
    27  H   -0.000045  -0.000370  -0.002473  -0.040935   0.370296  -0.040666
    28  H    0.000000  -0.000003  -0.000001  -0.004446  -0.037189   0.358549
    29  H   -0.000000   0.000001   0.000067  -0.004404  -0.040447   0.358565
    30  H    0.000000  -0.000009   0.000007  -0.000140   0.001411  -0.007469
    31  H    0.000000   0.000000   0.000000  -0.000000  -0.000001  -0.000190
    32  H    0.000000  -0.000000   0.000000  -0.000019   0.000173  -0.010587
    33  H    0.000000   0.000000   0.000000  -0.000000  -0.000000  -0.000007
    34  H   -0.000000   0.000000   0.000000  -0.000000   0.000000  -0.000000
    35  H    0.000000  -0.000000   0.000000  -0.000000   0.000000   0.000000
    36  H    0.000000   0.000000   0.000000  -0.000000   0.000000  -0.000000
    37  H    0.000000   0.000000  -0.000000   0.000000  -0.000000  -0.000000
    38  H    0.000000   0.000000   0.000000  -0.000000   0.000000   0.000000
              7          8          9         10         11         12
     1  C   -0.000000   0.000000   0.000000  -0.000000   0.000000  -0.000000
     2  O    0.000006  -0.000003  -0.000000   0.000000  -0.000000   0.000000
     3  C   -0.000116  -0.000001  -0.000000  -0.000000  -0.000000   0.000001
     4  C    0.003882   0.000151   0.000001  -0.000000   0.000002  -0.000036
     5  C   -0.043850  -0.001551   0.000284   0.000001  -0.000185  -0.001478
     6  C    0.354882  -0.068460   0.005733   0.000935   0.005907  -0.036804
     7  C    4.679560   0.494208  -0.008433  -0.029549  -0.001880   0.516936
     8  C    0.494208   5.027557   0.485028  -0.009444  -0.045708  -0.026315
     9  C   -0.008433   0.485028   5.159777   0.445847  -0.022758  -0.084532
    10  C   -0.029549  -0.009444   0.445847   4.666678   0.490440  -0.037434
    11  C   -0.001880  -0.045708  -0.022758   0.490440   4.703618   0.408865
    12  C    0.516936  -0.026315  -0.084532  -0.037434   0.408865   5.266086
    13  C    0.008243  -0.000345   0.017679  -0.026891   0.439864  -0.094755
    14  C   -0.000317   0.000057  -0.000766  -0.040386  -0.002913   0.009373
    15  C    0.000034  -0.000308   0.008066   0.009151  -0.036867  -0.000769
    16  C   -0.000545   0.008476  -0.098575   0.425837  -0.031708   0.017528
    17  O   -0.000000   0.000000  -0.000080   0.001906   0.000371   0.000001
    18  C    0.000000  -0.000000   0.000004  -0.000030  -0.000047  -0.000000
    19  H    0.000000   0.000000   0.000000   0.000000  -0.000000  -0.000000
    20  H    0.000000  -0.000000  -0.000000  -0.000000   0.000000   0.000000
    21  H   -0.000000   0.000000  -0.000000  -0.000000   0.000000   0.000000
    22  H   -0.000004   0.000000  -0.000000   0.000000   0.000000  -0.000000
    23  H    0.000002  -0.000000  -0.000000   0.000000   0.000000   0.000000
    24  H    0.000082   0.000004   0.000000   0.000000  -0.000000  -0.000003
    25  H    0.000097  -0.000005  -0.000000   0.000000  -0.000000  -0.000002
    26  H   -0.004477   0.003577  -0.000033  -0.000004   0.000010   0.000094
    27  H    0.001231  -0.000386  -0.000077  -0.000004  -0.000047   0.001391
    28  H   -0.034475   0.005024  -0.000166   0.000010   0.000262  -0.005603
    29  H   -0.029667  -0.003969  -0.000017   0.000009  -0.000211   0.000619
    30  H   -0.044527   0.352956  -0.037464   0.002529   0.000924   0.005282
    31  H    0.003063  -0.041750   0.350518  -0.038299   0.004537   0.000947
    32  H   -0.042462   0.006281   0.000279   0.004612  -0.046434   0.347338
    33  H    0.000149   0.000014  -0.000216   0.004580  -0.036442  -0.008918
    34  H    0.000004  -0.000000   0.000011   0.001049   0.002481  -0.000207
    35  H    0.000011   0.000204  -0.008936  -0.042635   0.005009  -0.000149
    36  H    0.000000   0.000000  -0.000000   0.000001   0.000000  -0.000000
    37  H    0.000000  -0.000000  -0.000000   0.000005  -0.000001   0.000000
    38  H    0.000000  -0.000000  -0.000000   0.000004  -0.000003   0.000000
             13         14         15         16         17         18
     1  C   -0.000000  -0.000000   0.000000  -0.000000   0.000000   0.000000
     2  O   -0.000000   0.000000  -0.000000   0.000000   0.000000   0.000000
     3  C    0.000000  -0.000000  -0.000000  -0.000000   0.000000   0.000000
     4  C   -0.000000   0.000000   0.000000  -0.000000  -0.000000  -0.000000
     5  C    0.000003  -0.000000  -0.000000  -0.000000   0.000000   0.000000
     6  C   -0.000289   0.000003  -0.000000   0.000001  -0.000000  -0.000000
     7  C    0.008243  -0.000317   0.000034  -0.000545  -0.000000   0.000000
     8  C   -0.000345   0.000057  -0.000308   0.008476   0.000000  -0.000000
     9  C    0.017679  -0.000766   0.008066  -0.098575  -0.000080   0.000004
    10  C   -0.026891  -0.040386   0.009151   0.425837   0.001906  -0.000030
    11  C    0.439864  -0.002913  -0.036867  -0.031708   0.000371  -0.000047
    12  C   -0.094755   0.009373  -0.000769   0.017528   0.000001  -0.000000
    13  C    5.160387   0.457951   0.011448  -0.075934   0.003504   0.000494
    14  C    0.457951   5.151301   0.422807  -0.055973  -0.060841  -0.006530
    15  C    0.011448   0.422807   4.565868   0.498913   0.271959  -0.044405
    16  C   -0.075934  -0.055973   0.498913   5.290428  -0.049193   0.003939
    17  O    0.003504  -0.060841   0.271959  -0.049193   8.204427   0.249060
    18  C    0.000494  -0.006530  -0.044405   0.003939   0.249060   4.895887
    19  H   -0.000000   0.000000   0.000000  -0.000000   0.000000   0.000000
    20  H   -0.000000   0.000000  -0.000000   0.000000   0.000000   0.000000
    21  H   -0.000000   0.000000   0.000000   0.000000   0.000000   0.000000
    22  H    0.000000  -0.000000  -0.000000  -0.000000   0.000000   0.000000
    23  H   -0.000000   0.000000   0.000000   0.000000   0.000000   0.000000
    24  H    0.000000   0.000000  -0.000000   0.000000  -0.000000  -0.000000
    25  H    0.000000  -0.000000  -0.000000  -0.000000   0.000000  -0.000000
    26  H   -0.000000  -0.000000   0.000000   0.000000  -0.000000   0.000000
    27  H   -0.000000  -0.000000   0.000000  -0.000000  -0.000000  -0.000000
    28  H   -0.000006   0.000000   0.000000   0.000000  -0.000000   0.000000
    29  H    0.000006  -0.000000  -0.000000  -0.000000   0.000000   0.000000
    30  H    0.000013  -0.000001   0.000003  -0.000198  -0.000000   0.000000
    31  H   -0.000213   0.000012   0.000126  -0.008018  -0.000002   0.000000
    32  H   -0.008606   0.000225   0.000009  -0.000189  -0.000000   0.000000
    33  H    0.352243  -0.042293   0.002932   0.000673  -0.000048  -0.000006
    34  H   -0.034100   0.350508  -0.044813   0.004118  -0.007165   0.005872
    35  H   -0.000058   0.007585  -0.039101   0.343192   0.000437  -0.000220
    36  H    0.000001   0.000193   0.003336  -0.000084  -0.030912   0.383841
    37  H   -0.000131   0.004204  -0.005054   0.000031  -0.036429   0.365222
    38  H   -0.000166   0.004901  -0.005214   0.000118  -0.035721   0.363618
             19         20         21         22         23         24
     1  C    0.383749   0.361014   0.362638  -0.006648  -0.007128  -0.000208
     2  O   -0.031417  -0.039120  -0.039522  -0.042847  -0.041764   0.002872
     3  C    0.006013  -0.009057  -0.008786   0.351582   0.356473  -0.032294
     4  C   -0.000253  -0.000166   0.000194  -0.036246  -0.037102   0.361224
     5  C    0.000013   0.000044  -0.000171  -0.011073   0.005887  -0.038449
     6  C   -0.000000   0.000000  -0.000001  -0.000024  -0.000093  -0.004366
     7  C    0.000000   0.000000  -0.000000  -0.000004   0.000002   0.000082
     8  C    0.000000  -0.000000   0.000000   0.000000  -0.000000   0.000004
     9  C    0.000000  -0.000000  -0.000000  -0.000000  -0.000000   0.000000
    10  C    0.000000  -0.000000  -0.000000   0.000000   0.000000   0.000000
    11  C   -0.000000   0.000000   0.000000   0.000000   0.000000  -0.000000
    12  C   -0.000000   0.000000   0.000000  -0.000000   0.000000  -0.000003
    13  C   -0.000000  -0.000000  -0.000000   0.000000  -0.000000   0.000000
    14  C    0.000000   0.000000   0.000000  -0.000000   0.000000   0.000000
    15  C    0.000000  -0.000000   0.000000  -0.000000   0.000000  -0.000000
    16  C   -0.000000   0.000000   0.000000  -0.000000   0.000000   0.000000
    17  O    0.000000   0.000000   0.000000   0.000000   0.000000  -0.000000
    18  C    0.000000   0.000000   0.000000   0.000000   0.000000  -0.000000
    19  H    0.554997  -0.034666  -0.035128  -0.000161  -0.000112   0.000003
    20  H   -0.034666   0.628892  -0.049095  -0.002892   0.014399   0.000006
    21  H   -0.035128  -0.049095   0.625434   0.014374  -0.002593   0.000015
    22  H   -0.000161  -0.002892   0.014374   0.662886  -0.058092  -0.000157
    23  H   -0.000112   0.014399  -0.002593  -0.058092   0.659275  -0.000543
    24  H    0.000003   0.000006   0.000015  -0.000157  -0.000543   0.609340
    25  H    0.000001  -0.000061   0.000046   0.006516  -0.006360  -0.034025
    26  H   -0.000012   0.000027   0.000037   0.000044   0.000290   0.005505
    27  H    0.000000  -0.000000   0.000022   0.005567  -0.000051  -0.004780
    28  H    0.000000  -0.000000   0.000000   0.000011  -0.000008   0.005519
    29  H    0.000000   0.000000  -0.000000   0.000004   0.000005  -0.000469
    30  H    0.000000  -0.000000  -0.000000   0.000000  -0.000000   0.000000
    31  H   -0.000000   0.000000  -0.000000  -0.000000  -0.000000   0.000000
    32  H   -0.000000  -0.000000  -0.000000   0.000000  -0.000000   0.000001
    33  H   -0.000000   0.000000   0.000000   0.000000  -0.000000  -0.000000
    34  H   -0.000000   0.000000   0.000000  -0.000000  -0.000000  -0.000000
    35  H    0.000000  -0.000000  -0.000000   0.000000  -0.000000   0.000000
    36  H    0.000000   0.000000   0.000000   0.000000   0.000000   0.000000
    37  H    0.000000   0.000000   0.000000  -0.000000   0.000000   0.000000
    38  H    0.000000   0.000000   0.000000   0.000000   0.000000  -0.000000
             25         26         27         28         29         30
     1  C   -0.000018  -0.000350  -0.000045   0.000000  -0.000000   0.000000
     2  O    0.001449   0.010698  -0.000370  -0.000003   0.000001  -0.000009
     3  C   -0.032977  -0.007036  -0.002473  -0.000001   0.000067   0.000007
     4  C    0.368118  -0.036069  -0.040935  -0.004446  -0.004404  -0.000140
     5  C   -0.042356   0.376985   0.370296  -0.037189  -0.040447   0.001411
     6  C   -0.003803  -0.038240  -0.040666   0.358549   0.358565  -0.007469
     7  C    0.000097  -0.004477   0.001231  -0.034475  -0.029667  -0.044527
     8  C   -0.000005   0.003577  -0.000386   0.005024  -0.003969   0.352956
     9  C   -0.000000  -0.000033  -0.000077  -0.000166  -0.000017  -0.037464
    10  C    0.000000  -0.000004  -0.000004   0.000010   0.000009   0.002529
    11  C   -0.000000   0.000010  -0.000047   0.000262  -0.000211   0.000924
    12  C   -0.000002   0.000094   0.001391  -0.005603   0.000619   0.005282
    13  C    0.000000  -0.000000  -0.000000  -0.000006   0.000006   0.000013
    14  C   -0.000000  -0.000000  -0.000000   0.000000  -0.000000  -0.000001
    15  C   -0.000000   0.000000   0.000000   0.000000  -0.000000   0.000003
    16  C   -0.000000   0.000000  -0.000000   0.000000  -0.000000  -0.000198
    17  O    0.000000  -0.000000  -0.000000  -0.000000   0.000000  -0.000000
    18  C   -0.000000   0.000000  -0.000000   0.000000   0.000000   0.000000
    19  H    0.000001  -0.000012   0.000000   0.000000   0.000000   0.000000
    20  H   -0.000061   0.000027  -0.000000  -0.000000   0.000000  -0.000000
    21  H    0.000046   0.000037   0.000022   0.000000  -0.000000  -0.000000
    22  H    0.006516   0.000044   0.005567   0.000011   0.000004   0.000000
    23  H   -0.006360   0.000290  -0.000051  -0.000008   0.000005  -0.000000
    24  H   -0.034025   0.005505  -0.004780   0.005519  -0.000469   0.000000
    25  H    0.593351  -0.004506   0.005799  -0.000390   0.005345   0.000010
    26  H   -0.004506   0.565241  -0.035767   0.005317  -0.004932   0.003100
    27  H    0.005799  -0.035767   0.607840  -0.005093   0.005994   0.000099
    28  H   -0.000390   0.005317  -0.005093   0.607993  -0.037354   0.000033
    29  H    0.005345  -0.004932   0.005994  -0.037354   0.603466   0.002026
[...]
    58    C    4  dyz    Ryd( 3d)     0.00027
    59    C    4  dx2y2  Ryd( 3d)     0.00104
    60    C    4  dz2    Ryd( 3d)     0.00104

    61    C    5  S      Cor( 1S)     1.99931
    62    C    5  S      Val( 2S)     1.03627
    63    C    5  S      Ryd( 3S)     0.00108
    64    C    5  S      Ryd( 4S)     0.00002
    65    C    5  px     Val( 2p)     1.02594
    66    C    5  px     Ryd( 3p)     0.00264
    67    C    5  py     Val( 2p)     1.20350
    68    C    5  py     Ryd( 3p)     0.00238
    69    C    5  pz     Val( 2p)     1.17116
    70    C    5  pz     Ryd( 3p)     0.00265
    71    C    5  dxy    Ryd( 3d)     0.00045
    72    C    5  dxz    Ryd( 3d)     0.00065
    73    C    5  dyz    Ryd( 3d)     0.00025
    74    C    5  dx2y2  Ryd( 3d)     0.00104
    75    C    5  dz2    Ryd( 3d)     0.00113

    76    C    6  S      Cor( 1S)     1.99927
    77    C    6  S      Val( 2S)     1.02718
    78    C    6  S      Ryd( 3S)     0.00069
    79    C    6  S      Ryd( 4S)     0.00002
    80    C    6  px     Val( 2p)     1.05202
    81    C    6  px     Ryd( 3p)     0.00211
    82    C    6  py     Val( 2p)     1.19418
    83    C    6  py     Ryd( 3p)     0.00369
    84    C    6  pz     Val( 2p)     1.18463
    85    C    6  pz     Ryd( 3p)     0.00247
    86    C    6  dxy    Ryd( 3d)     0.00047
    87    C    6  dxz    Ryd( 3d)     0.00065
    88    C    6  dyz    Ryd( 3d)     0.00028
    89    C    6  dx2y2  Ryd( 3d)     0.00107
    90    C    6  dz2    Ryd( 3d)     0.00112

    91    C    7  S      Cor( 1S)     1.99904
    92    C    7  S      Val( 2S)     0.88580
    93    C    7  S      Ryd( 3S)     0.00083
    94    C    7  S      Ryd( 4S)     0.00006
    95    C    7  px     Val( 2p)     1.05034
    96    C    7  px     Ryd( 3p)     0.00509
    97    C    7  py     Val( 2p)     1.05287
    98    C    7  py     Ryd( 3p)     0.00422
    99    C    7  pz     Val( 2p)     0.95624
   100    C    7  pz     Ryd( 3p)     0.00313
   101    C    7  dxy    Ryd( 3d)     0.00081
   102    C    7  dxz    Ryd( 3d)     0.00063
   103    C    7  dyz    Ryd( 3d)     0.00054
   104    C    7  dx2y2  Ryd( 3d)     0.00071
   105    C    7  dz2    Ryd( 3d)     0.00075

   106    C    8  S      Cor( 1S)     1.99905
   107    C    8  S      Val( 2S)     0.94434
   108    C    8  S      Ryd( 3S)     0.00069
   109    C    8  S      Ryd( 4S)     0.00004
   110    C    8  px     Val( 2p)     1.13779
   111    C    8  px     Ryd( 3p)     0.00420
   112    C    8  py     Val( 2p)     1.08779
   113    C    8  py     Ryd( 3p)     0.00421
   114    C    8  pz     Val( 2p)     1.10952
   115    C    8  pz     Ryd( 3p)     0.00338
   116    C    8  dxy    Ryd( 3d)     0.00066
   117    C    8  dxz    Ryd( 3d)     0.00067
   118    C    8  dyz    Ryd( 3d)     0.00051
   119    C    8  dx2y2  Ryd( 3d)     0.00062
   120    C    8  dz2    Ryd( 3d)     0.00033

   121    C    9  S      Cor( 1S)     1.99906
   122    C    9  S      Val( 2S)     0.94315
   123    C    9  S      Ryd( 3S)     0.00069
   124    C    9  S      Ryd( 4S)     0.00004
   125    C    9  px     Val( 2p)     1.05820
   126    C    9  px     Ryd( 3p)     0.00421
   127    C    9  py     Val( 2p)     1.15824
   128    C    9  py     Ryd( 3p)     0.00446
   129    C    9  pz     Val( 2p)     1.05161
   130    C    9  pz     Ryd( 3p)     0.00351
   131    C    9  dxy    Ryd( 3d)     0.00065
   132    C    9  dxz    Ryd( 3d)     0.00063
   133    C    9  dyz    Ryd( 3d)     0.00050
   134    C    9  dx2y2  Ryd( 3d)     0.00071
   135    C    9  dz2    Ryd( 3d)     0.00040

   136    C   10  S      Cor( 1S)     1.99903
   137    C   10  S      Val( 2S)     0.86983
   138    C   10  S      Ryd( 3S)     0.00050
   139    C   10  S      Ryd( 4S)     0.00007
   140    C   10  px     Val( 2p)     1.08195
   141    C   10  px     Ryd( 3p)     0.00453
   142    C   10  py     Val( 2p)     1.06668
   143    C   10  py     Ryd( 3p)     0.00483
   144    C   10  pz     Val( 2p)     1.02140
   145    C   10  pz     Ryd( 3p)     0.00199
   146    C   10  dxy    Ryd( 3d)     0.00071
   147    C   10  dxz    Ryd( 3d)     0.00074
   148    C   10  dyz    Ryd( 3d)     0.00048
   149    C   10  dx2y2  Ryd( 3d)     0.00070
   150    C   10  dz2    Ryd( 3d)     0.00064

   151    C   11  S      Cor( 1S)     1.99903
   152    C   11  S      Val( 2S)     0.86902
   153    C   11  S      Ryd( 3S)     0.00049
   154    C   11  S      Ryd( 4S)     0.00006
   155    C   11  px     Val( 2p)     1.08696
   156    C   11  px     Ryd( 3p)     0.00457
   157    C   11  py     Val( 2p)     1.06203
   158    C   11  py     Ryd( 3p)     0.00486
   159    C   11  pz     Val( 2p)     1.01144
   160    C   11  pz     Ryd( 3p)     0.00201
   161    C   11  dxy    Ryd( 3d)     0.00072
   162    C   11  dxz    Ryd( 3d)     0.00076
   163    C   11  dyz    Ryd( 3d)     0.00047
   164    C   11  dx2y2  Ryd( 3d)     0.00070
   165    C   11  dz2    Ryd( 3d)     0.00060

   166    C   12  S      Cor( 1S)     1.99898
   167    C   12  S      Val( 2S)     0.93764
   168    C   12  S      Ryd( 3S)     0.00061
   169    C   12  S      Ryd( 4S)     0.00005
   170    C   12  px     Val( 2p)     1.05430
   171    C   12  px     Ryd( 3p)     0.00327
   172    C   12  py     Val( 2p)     1.16525
   173    C   12  py     Ryd( 3p)     0.00434
   174    C   12  pz     Val( 2p)     1.07057
   175    C   12  pz     Ryd( 3p)     0.00331
   176    C   12  dxy    Ryd( 3d)     0.00063
   177    C   12  dxz    Ryd( 3d)     0.00047
   178    C   12  dyz    Ryd( 3d)     0.00048
   179    C   12  dx2y2  Ryd( 3d)     0.00071
   180    C   12  dz2    Ryd( 3d)     0.00046

   181    C   13  S      Cor( 1S)     1.99907
   182    C   13  S      Val( 2S)     0.94287
   183    C   13  S      Ryd( 3S)     0.00075
   184    C   13  S      Ryd( 4S)     0.00005
   185    C   13  px     Val( 2p)     1.05279
   186    C   13  px     Ryd( 3p)     0.00423
   187    C   13  py     Val( 2p)     1.15844
   188    C   13  py     Ryd( 3p)     0.00464
   189    C   13  pz     Val( 2p)     1.04357
   190    C   13  pz     Ryd( 3p)     0.00369
   191    C   13  dxy    Ryd( 3d)     0.00064
   192    C   13  dxz    Ryd( 3d)     0.00065
   193    C   13  dyz    Ryd( 3d)     0.00050
   194    C   13  dx2y2  Ryd( 3d)     0.00072
   195    C   13  dz2    Ryd( 3d)     0.00042

   196    C   14  S      Cor( 1S)     1.99904
   197    C   14  S      Val( 2S)     0.95053
   198    C   14  S      Ryd( 3S)     0.00067
   199    C   14  S      Ryd( 4S)     0.00005
   200    C   14  px     Val( 2p)     1.15277
   201    C   14  px     Ryd( 3p)     0.00377
   202    C   14  py     Val( 2p)     1.10343
   203    C   14  py     Ryd( 3p)     0.00417
   204    C   14  pz     Val( 2p)     1.16272
   205    C   14  pz     Ryd( 3p)     0.00351
   206    C   14  dxy    Ryd( 3d)     0.00056
   207    C   14  dxz    Ryd( 3d)     0.00065
   208    C   14  dyz    Ryd( 3d)     0.00051
   209    C   14  dx2y2  Ryd( 3d)     0.00063
   210    C   14  dz2    Ryd( 3d)     0.00036

   211    C   15  S      Cor( 1S)     1.99879
   212    C   15  S      Val( 2S)     0.84156
   213    C   15  S      Ryd( 3S)     0.00161
   214    C   15  S      Ryd( 4S)     0.00013
   215    C   15  px     Val( 2p)     0.79676
   216    C   15  px     Ryd( 3p)     0.00527
   217    C   15  py     Val( 2p)     1.00280
   218    C   15  py     Ryd( 3p)     0.00676
   219    C   15  pz     Val( 2p)     0.97409
   220    C   15  pz     Ryd( 3p)     0.00204
   221    C   15  dxy    Ryd( 3d)     0.00178
   222    C   15  dxz    Ryd( 3d)     0.00142
   223    C   15  dyz    Ryd( 3d)     0.00090
   224    C   15  dx2y2  Ryd( 3d)     0.00147
   225    C   15  dz2    Ryd( 3d)     0.00110

   226    C   16  S      Cor( 1S)     1.99900
   227    C   16  S      Val( 2S)     0.95253
   228    C   16  S      Ryd( 3S)     0.00091
   229    C   16  S      Ryd( 4S)     0.00006
   230    C   16  px     Val( 2p)     1.05545
   231    C   16  px     Ryd( 3p)     0.00453
   232    C   16  py     Val( 2p)     1.16735
   233    C   16  py     Ryd( 3p)     0.00426
   234    C   16  pz     Val( 2p)     1.05719
   235    C   16  pz     Ryd( 3p)     0.00359
   236    C   16  dxy    Ryd( 3d)     0.00070
   237    C   16  dxz    Ryd( 3d)     0.00054
   238    C   16  dyz    Ryd( 3d)     0.00049
   239    C   16  dx2y2  Ryd( 3d)     0.00058
   240    C   16  dz2    Ryd( 3d)     0.00050

   241    O   17  S      Cor( 1S)     1.99975
   242    O   17  S      Val( 2S)     1.59522
   243    O   17  S      Ryd( 3S)     0.00079
   244    O   17  S      Ryd( 4S)     0.00006
   245    O   17  px     Val( 2p)     1.40672
   246    O   17  px     Ryd( 3p)     0.00090
   247    O   17  py     Val( 2p)     1.73801
   248    O   17  py     Ryd( 3p)     0.00239
   249    O   17  pz     Val( 2p)     1.70553
   250    O   17  pz     Ryd( 3p)     0.00205
   251    O   17  dxy    Ryd( 3d)     0.00116
   252    O   17  dxz    Ryd( 3d)     0.00061
   253    O   17  dyz    Ryd( 3d)     0.00144
   254    O   17  dx2y2  Ryd( 3d)     0.00129
   255    O   17  dz2    Ryd( 3d)     0.00088

   256    C   18  S      Cor( 1S)     1.99942
   257    C   18  S      Val( 2S)     1.10257
   258    C   18  S      Ryd( 3S)     0.00148
   259    C   18  S      Ryd( 4S)     0.00003
   260    C   18  px     Val( 2p)     0.94315
   261    C   18  px     Ryd( 3p)     0.00219
   262    C   18  py     Val( 2p)     1.13356
   263    C   18  py     Ryd( 3p)     0.00277
   264    C   18  pz     Val( 2p)     1.12944
   265    C   18  pz     Ryd( 3p)     0.00100
   266    C   18  dxy    Ryd( 3d)     0.00174
   267    C   18  dxz    Ryd( 3d)     0.00118
   268    C   18  dyz    Ryd( 3d)     0.00096
   269    C   18  dx2y2  Ryd( 3d)     0.00107
   270    C   18  dz2    Ryd( 3d)     0.00152

   271    H   19  S      Val( 1S)     0.78011
   272    H   19  S      Ryd( 2S)     0.00066

   273    H   20  S      Val( 1S)     0.81135
   274    H   20  S      Ryd( 2S)     0.00213

   275    H   21  S      Val( 1S)     0.81036
   276    H   21  S      Ryd( 2S)     0.00209

   277    H   22  S      Val( 1S)     0.80581
   278    H   22  S      Ryd( 2S)     0.00268

   279    H   23  S      Val( 1S)     0.79977
   280    H   23  S      Ryd( 2S)     0.00238

   281    H   24  S      Val( 1S)     0.76604
   282    H   24  S      Ryd( 2S)     0.00141

   283    H   25  S      Val( 1S)     0.76234
   284    H   25  S      Ryd( 2S)     0.00218

   285    H   26  S      Val( 1S)     0.75001
   286    H   26  S      Ryd( 2S)     0.00207

   287    H   27  S      Val( 1S)     0.76916
   288    H   27  S      Ryd( 2S)     0.00179

   289    H   28  S      Val( 1S)     0.76485
   290    H   28  S      Ryd( 2S)     0.00168

   291    H   29  S      Val( 1S)     0.75387
   292    H   29  S      Ryd( 2S)     0.00174

   293    H   30  S      Val( 1S)     0.77074
   294    H   30  S      Ryd( 2S)     0.00094

   295    H   31  S      Val( 1S)     0.77157
   296    H   31  S      Ryd( 2S)     0.00114

   297    H   32  S      Val( 1S)     0.77421
   298    H   32  S      Ryd( 2S)     0.00134

   299    H   33  S      Val( 1S)     0.76869
   300    H   33  S      Ryd( 2S)     0.00114

   301    H   34  S      Val( 1S)     0.76817
   302    H   34  S      Ryd( 2S)     0.00085

   303    H   35  S      Val( 1S)     0.75653
   304    H   35  S      Ryd( 2S)     0.00160

   305    H   36  S      Val( 1S)     0.76823
   306    H   36  S      Ryd( 2S)     0.00053

   307    H   37  S      Val( 1S)     0.78283
   308    H   37  S      Ryd( 2S)     0.00193

   309    H   38  S      Val( 1S)     0.78268
   310    H   38  S      Ryd( 2S)     0.00194

 WARNING:  1 low occupancy (<1.9990e) core orbital  found on  C   12
           1 low occupancy (<1.9990e) core orbital  found on  C   15
           1 low occupancy (<1.9990e) core orbital  found on  C   16


 Summary of Natural Population Analysis:                  
                                                          
                                       Natural Population 
                Natural  -----------------------------------------------
    Atom  No    Charge         Core      Valence    Rydberg      Total
 -----------------------------------------------------------------------
      C    1   -0.30676      1.99947     4.29287    0.01442     6.30676
      O    2   -0.57729      1.99979     6.56490    0.01260     8.57729
      C    3   -0.09406      1.99928     4.07783    0.01695     6.09406
      C    4   -0.47479      1.99931     4.46357    0.01191     6.47479
      C    5   -0.44847      1.99931     4.43686    0.01230     6.44847
      C    6   -0.46985      1.99927     4.45802    0.01257     6.46985
      C    7    0.03897      1.99904     3.94524    0.01675     5.96103
      C    8   -0.29382      1.99905     4.27945    0.01532     6.29382
      C    9   -0.22605      1.99906     4.21119    0.01579     6.22605
      C   10   -0.05407      1.99903     4.03985    0.01518     6.05407
      C   11   -0.04372      1.99903     4.02945    0.01524     6.04372
      C   12   -0.24107      1.99898     4.22776    0.01434     6.24107
      C   13   -0.21304      1.99907     4.19768    0.01629     6.21304
      C   14   -0.38337      1.99904     4.36944    0.01488     6.38337
      C   15    0.36352      1.99879     3.61521    0.02249     5.63648
      C   16   -0.24767      1.99900     4.23252    0.01615     6.24767
      O   17   -0.45680      1.99975     6.44548    0.01157     8.45680
      C   18   -0.32209      1.99942     4.30873    0.01394     6.32209
      H   19    0.21923      0.00000     0.78011    0.00066     0.78077
      H   20    0.18652      0.00000     0.81135    0.00213     0.81348
      H   21    0.18755      0.00000     0.81036    0.00209     0.81245
      H   22    0.19151      0.00000     0.80581    0.00268     0.80849
      H   23    0.19784      0.00000     0.79977    0.00238     0.80216
      H   24    0.23255      0.00000     0.76604    0.00141     0.76745
      H   25    0.23547      0.00000     0.76234    0.00218     0.76453
      H   26    0.24792      0.00000     0.75001    0.00207     0.75208
      H   27    0.22905      0.00000     0.76916    0.00179     0.77095
      H   28    0.23346      0.00000     0.76485    0.00168     0.76654
      H   29    0.24439      0.00000     0.75387    0.00174     0.75561
      H   30    0.22832      0.00000     0.77074    0.00094     0.77168
      H   31    0.22729      0.00000     0.77157    0.00114     0.77271
      H   32    0.22445      0.00000     0.77421    0.00134     0.77555
      H   33    0.23017      0.00000     0.76869    0.00114     0.76983
      H   34    0.23098      0.00000     0.76817    0.00085     0.76902
      H   35    0.24187      0.00000     0.75653    0.00160     0.75813
      H   36    0.23123      0.00000     0.76823    0.00053     0.76877
      H   37    0.21525      0.00000     0.78283    0.00193     0.78475
      H   38    0.21538      0.00000     0.78268    0.00194     0.78462
 =======================================================================
   * Total *    0.00000     35.98569    95.71340    0.30091   132.00000

                                 Natural Population      
 --------------------------------------------------------
   Core                      35.98569 ( 99.9603% of  36)
   Valence                   95.71340 ( 99.7015% of  96)
   Natural Minimal Basis    131.69909 ( 99.7720% of 132)
   Natural Rydberg Basis      0.30091 (  0.2280% of 132)
 --------------------------------------------------------

    Atom  No          Natural Electron Configuration
 ----------------------------------------------------------------------------
      C    1      [core]2S( 1.09)2p( 3.20)3p( 0.01)3d( 0.01)
      O    2      [core]2S( 1.62)2p( 4.94)3p( 0.01)3d( 0.01)
      C    3      [core]2S( 1.02)2p( 3.06)3p( 0.01)3d( 0.01)
      C    4      [core]2S( 1.04)2p( 3.42)3p( 0.01)
      C    5      [core]2S( 1.04)2p( 3.40)3p( 0.01)
      C    6      [core]2S( 1.03)2p( 3.43)3p( 0.01)
      C    7      [core]2S( 0.89)2p( 3.06)3p( 0.01)
      C    8      [core]2S( 0.94)2p( 3.34)3p( 0.01)
      C    9      [core]2S( 0.94)2p( 3.27)3p( 0.01)
      C   10      [core]2S( 0.87)2p( 3.17)3p( 0.01)
      C   11      [core]2S( 0.87)2p( 3.16)3p( 0.01)
      C   12      [core]2S( 0.94)2p( 3.29)3p( 0.01)
      C   13      [core]2S( 0.94)2p( 3.25)3p( 0.01)
      C   14      [core]2S( 0.95)2p( 3.42)3p( 0.01)
      C   15      [core]2S( 0.84)2p( 2.77)3p( 0.01)3d( 0.01)
      C   16      [core]2S( 0.95)2p( 3.28)3p( 0.01)
      O   17      [core]2S( 1.60)2p( 4.85)3p( 0.01)3d( 0.01)
      C   18      [core]2S( 1.10)2p( 3.21)3p( 0.01)3d( 0.01)
      H   19            1S( 0.78)
      H   20            1S( 0.81)
      H   21            1S( 0.81)
      H   22            1S( 0.81)
      H   23            1S( 0.80)
      H   24            1S( 0.77)
      H   25            1S( 0.76)
      H   26            1S( 0.75)
      H   27            1S( 0.77)
      H   28            1S( 0.76)
      H   29            1S( 0.75)
      H   30            1S( 0.77)
      H   31            1S( 0.77)
      H   32            1S( 0.77)
      H   33            1S( 0.77)
      H   34            1S( 0.77)
      H   35            1S( 0.76)
      H   36            1S( 0.77)
      H   37            1S( 0.78)
      H   38            1S( 0.78)


 NBO analysis skipped by request.
 Leave Link  607 at Wed Sep 29 02:52:11 2021, MaxMem= 1610612736 cpu:      36.5
 (Enter /sw/target/amd/app/gaussian/Gaussian09RevA.02_gcc-4.9.2/g09/l9999.exe)
 1\1\GINC-HERMITE\SP\RTD-B3LYP-FC\6-31G(d)\C16H20O2\JSCHLEINITZ\29-Sep-
 2021\0\\#p TD(NStates=10, Root=1) b3lyp/6-31G* volume pop=NPA density=
 current Geom=AllCheck Guess=Read\\COCCCCc1ccc2c(c1)ccc(c2)OC_conf_0\\0
 ,1\C,0,7.6910165495,-5.3469408778,2.6734087066\O,0,7.0672771659,-4.553
 5614958,1.688972038\C,0,7.5114340925,-3.2079907664,1.7034410963\C,0,6.
 8082815119,-2.4439210794,0.5874736211\C,0,7.1470226224,-2.9629884865,-
 0.8151652441\C,0,6.4079268518,-2.1977190114,-1.9304253351\C,0,6.720552
 9639,-2.7131242455,-3.3183995585\C,0,6.158347302,-3.9449946089,-3.7635
 037713\C,0,6.4374661826,-4.4550024029,-5.0080233483\C,0,7.3048533961,-
 3.7665278109,-5.9029297705\C,0,7.8768028952,-2.5262992153,-5.468352594
 1\C,0,7.561685094,-2.0324088713,-4.1730820867\C,0,8.7368172421,-1.8375
 868189,-6.358724687\C,0,9.0264213871,-2.3330315091,-7.6127470642\C,0,8
 .4557810094,-3.5611638067,-8.0369419377\C,0,7.611548279,-4.2591559057,
 -7.1917220654\O,0,8.6879633673,-4.1236494461,-9.2625166584\C,0,9.53861
 76355,-3.446098923,-10.1715891086\H,0,7.2846553714,-6.3578610143,2.581
 3257249\H,0,7.4877904613,-4.9722516676,3.6903430816\H,0,8.7839514382,-
 5.3876522075,2.5345904135\H,0,8.6070699655,-3.1682803227,1.5654191128\
 H,0,7.2907174145,-2.7468174909,2.6821387255\H,0,7.0832909057,-1.383070
 3355,0.67277578\H,0,5.7244960582,-2.5035612562,0.7556543208\H,0,6.9009
 303345,-4.0294866601,-0.870856606\H,0,8.2302362961,-2.8861580914,-0.98
 52298324\H,0,6.6647263244,-1.131832732,-1.8698021259\H,0,5.3257825813,
 -2.2661159787,-1.7479153917\H,0,5.4886083842,-4.4864709148,-3.09862608
 44\H,0,5.9930653526,-5.3944591757,-5.3284788028\H,0,8.0003755789,-1.08
 6229469,-3.8596924599\H,0,9.1767223745,-0.8951839677,-6.0403127439\H,0
 ,9.6895482165,-1.7781175186,-8.2666234805\H,0,7.1849646286,-5.19708859
 99,-7.5355952547\H,0,9.5707250964,-4.0672521053,-11.0689207165\H,0,10.
 5566749473,-3.3367168445,-9.7740604046\H,0,9.146870847,-2.4543535792,-
 10.434879323\\Version=AM64L-G09RevA.02\State=1-A\HF=-772.1872998\RMSD=
 9.749e-09\Dipole=0.8002283,0.3373371,-0.3415955\Quadrupole=-8.0354157,
 -7.0500085,15.0854242,1.6401872,-5.4091616,-0.4228239\PG=C01 [X(C16H20
 O2)]\\@


 DESK:  A WASTEBASKET WITH DRAWERS.
 Job cpu time:  0 days  6 hours 16 minutes  9.9 seconds.
 File lengths (MBytes):  RWF=    317 Int=      0 D2E=      0 Chk=     44 Scr=      1
 Normal termination of Gaussian 09 at Wed Sep 29 02:52:16 2021.
