 Entering Gaussian System, Link 0=g09
 Input=C16H12O2_e52d_conf_0.com
 Output=C16H12O2_e52d_conf_0.log
 Initial command:
 /sw/target/amd/app/gaussian/Gaussian09RevA.02_gcc-4.9.2/g09/l1.exe /home/jschleinitz/gaussian/Gau-3810875.inp -scrdir=/home/jschleinitz/gaussian/
 Entering Link 1 = /sw/target/amd/app/gaussian/Gaussian09RevA.02_gcc-4.9.2/g09/l1.exe PID=   3810877.
  
 Copyright (c) 1988,1990,1992,1993,1995,1998,2003,2009, Gaussian, Inc.
                  All Rights Reserved.
  
 This is part of the Gaussian(R) 09 program.  It is based on
 the Gaussian(R) 03 system (copyright 2003, Gaussian, Inc.),
 the Gaussian(R) 98 system (copyright 1998, Gaussian, Inc.),
 the Gaussian(R) 94 system (copyright 1995, Gaussian, Inc.),
 the Gaussian 92(TM) system (copyright 1992, Gaussian, Inc.),
 the Gaussian 90(TM) system (copyright 1990, Gaussian, Inc.),
 the Gaussian 88(TM) system (copyright 1988, Gaussian, Inc.),
 the Gaussian 86(TM) system (copyright 1986, Carnegie Mellon
 University), and the Gaussian 82(TM) system (copyright 1983,
 Carnegie Mellon University). Gaussian is a federally registered
 trademark of Gaussian, Inc.
  
 This software contains proprietary and confidential information,
 including trade secrets, belonging to Gaussian, Inc.
  
 This software is provided under written license and may be
 used, copied, transmitted, or stored only in accord with that
 written license.
  
 The following legend is applicable only to US Government
 contracts under FAR:
  
                    RESTRICTED RIGHTS LEGEND
  
 Use, reproduction and disclosure by the US Government is
 subject to restrictions as set forth in subparagraphs (a)
 and (c) of the Commercial Computer Software - Restricted
 Rights clause in FAR 52.227-19.
  
 Gaussian, Inc.
 340 Quinnipiac St., Bldg. 40, Wallingford CT 06492
  
  
 ---------------------------------------------------------------
 Warning -- This program may not be used in any manner that
 competes with the business of Gaussian, Inc. or will provide
 assistance to any competitor of Gaussian, Inc.  The licensee
 of this program is prohibited from giving any competitor of
 Gaussian, Inc. access to this program.  By using this program,
 the user acknowledges that Gaussian, Inc. is engaged in the
 business of creating and licensing software in the field of
 computational chemistry and represents and warrants to the
 licensee that it is not a competitor of Gaussian, Inc. and that
 it will not use this program in any manner prohibited above.
 ---------------------------------------------------------------
  

 Cite this work as:
 Gaussian 09, Revision A.02,
 M. J. Frisch, G. W. Trucks, H. B. Schlegel, G. E. Scuseria, 
 M. A. Robb, J. R. Cheeseman, G. Scalmani, V. Barone, B. Mennucci, 
 G. A. Petersson, H. Nakatsuji, M. Caricato, X. Li, H. P. Hratchian, 
 A. F. Izmaylov, J. Bloino, G. Zheng, J. L. Sonnenberg, M. Hada, 
 M. Ehara, K. Toyota, R. Fukuda, J. Hasegawa, M. Ishida, T. Nakajima, 
 Y. Honda, O. Kitao, H. Nakai, T. Vreven, J. A. Montgomery, Jr., 
 J. E. Peralta, F. Ogliaro, M. Bearpark, J. J. Heyd, E. Brothers, 
 K. N. Kudin, V. N. Staroverov, R. Kobayashi, J. Normand, 
 K. Raghavachari, A. Rendell, J. C. Burant, S. S. Iyengar, J. Tomasi, 
 M. Cossi, N. Rega, J. M. Millam, M. Klene, J. E. Knox, J. B. Cross, 
 V. Bakken, C. Adamo, J. Jaramillo, R. Gomperts, R. E. Stratmann, 
 O. Yazyev, A. J. Austin, R. Cammi, C. Pomelli, J. W. Ochterski, 
 R. L. Martin, K. Morokuma, V. G. Zakrzewski, G. A. Voth, 
 P. Salvador, J. J. Dannenberg, S. Dapprich, A. D. Daniels, 
 O. Farkas, J. B. Foresman, J. V. Ortiz, J. Cioslowski, 
 and D. J. Fox, Gaussian, Inc., Wallingford CT, 2009.
 
 ******************************************
 Gaussian 09:  AM64L-G09RevA.02 11-Jun-2009
                29-Sep-2021 
 ******************************************
 %nproc=5
 Will use up to    5 processors via shared memory.
 %mem=10gb
 %chk=C16H12O2_e52d_conf_0.chk
 -----------------------------------
 #p opt b3lyp/6-31G* scf=(xqc,tight)
 -----------------------------------
 1/14=-1,18=20,19=15,26=3,38=1/1,3;
 2/9=110,12=2,17=6,18=5,40=1/2;
 3/5=1,6=6,7=1,11=2,16=1,25=1,30=1,71=1,74=-5/1,2,3;
 4//1;
 5/5=2,8=3,13=1,32=2,38=5/2,8;
 6/7=2,8=2,9=2,10=2,28=1/1;
 7//1,2,3,16;
 1/14=-1,18=20,19=15/3(2);
 2/9=110/2;
 99//99;
 2/9=110/2;
 3/5=1,6=6,7=1,11=2,16=1,25=1,30=1,71=1,74=-5/1,2,3;
 4/5=5,16=3/1;
 5/5=2,8=3,13=1,32=2,38=5/2,8;
 7//1,2,3,16;
 1/14=-1,18=20,19=15/3(-5);
 2/9=110/2;
 6/7=2,8=2,9=2,10=2,19=2,28=1/1;
 99/9=1/99;
 Leave Link    1 at Wed Sep 29 16:20:23 2021, MaxMem= 1342177280 cpu:       0.1
 (Enter /sw/target/amd/app/gaussian/Gaussian09RevA.02_gcc-4.9.2/g09/l101.exe)
 ----------------------------------
 CC(=O)Oc1c2ccccc2cc2c1cccc2_conf_0
 ----------------------------------
 Symbolic Z-matrix:
 Charge =  0 Multiplicity = 1
 C                     1.15553  -0.38375   1.77907 
 C                     2.4889   -0.58997   1.11384 
 O                     2.763    -1.55745   0.4183 
 O                     3.35248   0.42163   1.51968 
 C                     4.73236   0.18585   1.30433 
 C                     5.41583   1.0066    0.37128 
 C                     4.79528   1.98261  -0.44125 
 C                     5.53602   2.77713  -1.32165 
 C                     6.91396   2.62031  -1.40642 
 C                     7.54902   1.65895  -0.62255 
 C                     6.81734   0.84998   0.26136 
 C                     7.47385  -0.11195   1.04234 
 C                     6.7897   -0.91905   1.96567 
 C                     5.39472  -0.76668   2.12689 
 C                     4.75746  -1.56337   3.10884 
 C                     5.45956  -2.5028    3.86257 
 C                     6.8251   -2.65699   3.67215 
 C                     7.48491  -1.86351   2.73557 
 H                     0.36041  -0.77431   1.13934 
 H                     0.96719   0.68063   1.94315 
 H                     1.14839  -0.90713   2.73943 
 H                     3.71846   2.12564  -0.39647 
 H                     5.03727   3.51955  -1.93701 
 H                     7.49727   3.24148  -2.08211 
 H                     8.62935   1.55134  -0.70148 
 H                     8.55335  -0.22658   0.942 
 H                     3.69192  -1.46829   3.29495 
 H                     4.93651  -3.11489   4.59305 
 H                     7.3776   -3.38932   4.2533 
 H                     8.55721  -1.99138   2.61049 
 
 NAtoms=     30 NQM=     30 NQMF=      0 NMic=      0 NMicF=      0 NTot=     30.
                    Isotopes and Nuclear Properties:
 (Nuclear quadrupole moments (NQMom) in fm**2, nuclear magnetic moments (NMagM)
  in nuclear magnetons)

  Atom         1           2           3           4           5           6           7           8           9          10
 IAtWgt=          12          12          16          16          12          12          12          12          12          12
 AtmWgt=  12.0000000  12.0000000  15.9949146  15.9949146  12.0000000  12.0000000  12.0000000  12.0000000  12.0000000  12.0000000
 NucSpn=           0           0           0           0           0           0           0           0           0           0
 AtZEff=   0.0000000   0.0000000   0.0000000   0.0000000   0.0000000   0.0000000   0.0000000   0.0000000   0.0000000   0.0000000
 NQMom=    0.0000000   0.0000000   0.0000000   0.0000000   0.0000000   0.0000000   0.0000000   0.0000000   0.0000000   0.0000000
 NMagM=    0.0000000   0.0000000   0.0000000   0.0000000   0.0000000   0.0000000   0.0000000   0.0000000   0.0000000   0.0000000

  Atom        11          12          13          14          15          16          17          18          19          20
 IAtWgt=          12          12          12          12          12          12          12          12           1           1
 AtmWgt=  12.0000000  12.0000000  12.0000000  12.0000000  12.0000000  12.0000000  12.0000000  12.0000000   1.0078250   1.0078250
 NucSpn=           0           0           0           0           0           0           0           0           1           1
 AtZEff=   0.0000000   0.0000000   0.0000000   0.0000000   0.0000000   0.0000000   0.0000000   0.0000000   0.0000000   0.0000000
 NQMom=    0.0000000   0.0000000   0.0000000   0.0000000   0.0000000   0.0000000   0.0000000   0.0000000   0.0000000   0.0000000
 NMagM=    0.0000000   0.0000000   0.0000000   0.0000000   0.0000000   0.0000000   0.0000000   0.0000000   2.7928460   2.7928460

  Atom        21          22          23          24          25          26          27          28          29          30
 IAtWgt=           1           1           1           1           1           1           1           1           1           1
 AtmWgt=   1.0078250   1.0078250   1.0078250   1.0078250   1.0078250   1.0078250   1.0078250   1.0078250   1.0078250   1.0078250
 NucSpn=           1           1           1           1           1           1           1           1           1           1
 AtZEff=   0.0000000   0.0000000   0.0000000   0.0000000   0.0000000   0.0000000   0.0000000   0.0000000   0.0000000   0.0000000
 NQMom=    0.0000000   0.0000000   0.0000000   0.0000000   0.0000000   0.0000000   0.0000000   0.0000000   0.0000000   0.0000000
 NMagM=    2.7928460   2.7928460   2.7928460   2.7928460   2.7928460   2.7928460   2.7928460   2.7928460   2.7928460   2.7928460
 Leave Link  101 at Wed Sep 29 16:20:24 2021, MaxMem= 1342177280 cpu:       0.2
 (Enter /sw/target/amd/app/gaussian/Gaussian09RevA.02_gcc-4.9.2/g09/l103.exe)

 GradGradGradGradGradGradGradGradGradGradGradGradGradGradGradGradGradGrad
 Berny optimization.
 Initialization pass.
                           ----------------------------
                           !    Initial Parameters    !
                           ! (Angstroms and Degrees)  !
 --------------------------                            --------------------------
 ! Name  Definition              Value          Derivative Info.                !
 --------------------------------------------------------------------------------
 ! R1    R(1,2)                  1.5043         estimate D2E/DX2                !
 ! R2    R(1,19)                 1.0927         estimate D2E/DX2                !
 ! R3    R(1,20)                 1.0933         estimate D2E/DX2                !
 ! R4    R(1,21)                 1.0937         estimate D2E/DX2                !
 ! R5    R(2,3)                  1.2227         estimate D2E/DX2                !
 ! R6    R(2,4)                  1.3906         estimate D2E/DX2                !
 ! R7    R(4,5)                  1.4163         estimate D2E/DX2                !
 ! R8    R(5,6)                  1.4182         estimate D2E/DX2                !
 ! R9    R(5,14)                 1.4222         estimate D2E/DX2                !
 ! R10   R(6,7)                  1.4135         estimate D2E/DX2                !
 ! R11   R(6,11)                 1.4145         estimate D2E/DX2                !
 ! R12   R(7,8)                  1.3982         estimate D2E/DX2                !
 ! R13   R(7,22)                 1.0872         estimate D2E/DX2                !
 ! R14   R(8,9)                  1.3894         estimate D2E/DX2                !
 ! R15   R(8,23)                 1.0856         estimate D2E/DX2                !
 ! R16   R(9,10)                 1.3935         estimate D2E/DX2                !
 ! R17   R(9,24)                 1.0875         estimate D2E/DX2                !
 ! R18   R(10,11)                1.4039         estimate D2E/DX2                !
 ! R19   R(10,25)                1.0885         estimate D2E/DX2                !
 ! R20   R(11,12)                1.4022         estimate D2E/DX2                !
 ! R21   R(12,13)                1.4043         estimate D2E/DX2                !
 ! R22   R(12,26)                1.0902         estimate D2E/DX2                !
 ! R23   R(13,14)                1.4125         estimate D2E/DX2                !
 ! R24   R(13,18)                1.4029         estimate D2E/DX2                !
 ! R25   R(14,15)                1.416          estimate D2E/DX2                !
 ! R26   R(15,16)                1.3941         estimate D2E/DX2                !
 ! R27   R(15,27)                1.0858         estimate D2E/DX2                !
 ! R28   R(16,17)                1.3873         estimate D2E/DX2                !
 ! R29   R(16,28)                1.0871         estimate D2E/DX2                !
 ! R30   R(17,18)                1.3936         estimate D2E/DX2                !
 ! R31   R(17,29)                1.086          estimate D2E/DX2                !
 ! R32   R(18,30)                1.0871         estimate D2E/DX2                !
 ! A1    A(2,1,19)             109.6988         estimate D2E/DX2                !
 ! A2    A(2,1,20)             110.6417         estimate D2E/DX2                !
 ! A3    A(2,1,21)             109.1762         estimate D2E/DX2                !
 ! A4    A(19,1,20)            108.0883         estimate D2E/DX2                !
 ! A5    A(19,1,21)            109.7718         estimate D2E/DX2                !
 ! A6    A(20,1,21)            109.449          estimate D2E/DX2                !
 ! A7    A(1,2,3)              123.9691         estimate D2E/DX2                !
 ! A8    A(1,2,4)              108.7631         estimate D2E/DX2                !
 ! A9    A(3,2,4)              127.0436         estimate D2E/DX2                !
 ! A10   A(2,4,5)              116.0746         estimate D2E/DX2                !
 ! A11   A(4,5,6)              118.2422         estimate D2E/DX2                !
 ! A12   A(4,5,14)             118.5088         estimate D2E/DX2                !
 ! A13   A(6,5,14)             122.9344         estimate D2E/DX2                !
 ! A14   A(5,6,7)              124.4881         estimate D2E/DX2                !
 ! A15   A(5,6,11)             117.68           estimate D2E/DX2                !
 ! A16   A(7,6,11)             117.8253         estimate D2E/DX2                !
 ! A17   A(6,7,8)              121.4492         estimate D2E/DX2                !
 ! A18   A(6,7,22)             120.1323         estimate D2E/DX2                !
 ! A19   A(8,7,22)             118.4172         estimate D2E/DX2                !
 ! A20   A(7,8,9)              119.9781         estimate D2E/DX2                !
 ! A21   A(7,8,23)             120.14           estimate D2E/DX2                !
 ! A22   A(9,8,23)             119.8815         estimate D2E/DX2                !
 ! A23   A(8,9,10)             119.702          estimate D2E/DX2                !
 ! A24   A(8,9,24)             120.3563         estimate D2E/DX2                !
 ! A25   A(10,9,24)            119.9416         estimate D2E/DX2                !
 ! A26   A(9,10,11)            120.941          estimate D2E/DX2                !
 ! A27   A(9,10,25)            118.6645         estimate D2E/DX2                !
 ! A28   A(11,10,25)           120.3924         estimate D2E/DX2                !
 ! A29   A(6,11,10)            120.0987         estimate D2E/DX2                !
 ! A30   A(6,11,12)            119.7727         estimate D2E/DX2                !
 ! A31   A(10,11,12)           120.128          estimate D2E/DX2                !
 ! A32   A(11,12,13)           122.1666         estimate D2E/DX2                !
 ! A33   A(11,12,26)           118.9771         estimate D2E/DX2                !
 ! A34   A(13,12,26)           118.8485         estimate D2E/DX2                !
 ! A35   A(12,13,14)           119.6166         estimate D2E/DX2                !
 ! A36   A(12,13,18)           120.4206         estimate D2E/DX2                !
 ! A37   A(14,13,18)           119.9597         estimate D2E/DX2                !
 ! A38   A(5,14,13)            117.7866         estimate D2E/DX2                !
 ! A39   A(5,14,15)            124.6333         estimate D2E/DX2                !
 ! A40   A(13,14,15)           117.5756         estimate D2E/DX2                !
 ! A41   A(14,15,16)           121.8309         estimate D2E/DX2                !
 ! A42   A(14,15,27)           120.7451         estimate D2E/DX2                !
 ! A43   A(16,15,27)           117.4215         estimate D2E/DX2                !
 ! A44   A(15,16,17)           119.7607         estimate D2E/DX2                !
 ! A45   A(15,16,28)           120.0257         estimate D2E/DX2                !
 ! A46   A(17,16,28)           120.213          estimate D2E/DX2                !
 ! A47   A(16,17,18)           119.6681         estimate D2E/DX2                !
 ! A48   A(16,17,29)           120.1504         estimate D2E/DX2                !
 ! A49   A(18,17,29)           120.1809         estimate D2E/DX2                !
 ! A50   A(13,18,17)           121.1658         estimate D2E/DX2                !
 ! A51   A(13,18,30)           120.3213         estimate D2E/DX2                !
 ! A52   A(17,18,30)           118.5129         estimate D2E/DX2                !
 ! D1    D(19,1,2,3)           -34.8089         estimate D2E/DX2                !
 ! D2    D(19,1,2,4)           150.2985         estimate D2E/DX2                !
 ! D3    D(20,1,2,3)          -153.9707         estimate D2E/DX2                !
 ! D4    D(20,1,2,4)            31.1368         estimate D2E/DX2                !
 ! D5    D(21,1,2,3)            85.5173         estimate D2E/DX2                !
 ! D6    D(21,1,2,4)           -89.3753         estimate D2E/DX2                !
 ! D7    D(1,2,4,5)            162.7484         estimate D2E/DX2                !
 ! D8    D(3,2,4,5)            -11.9441         estimate D2E/DX2                !
 ! D9    D(2,4,5,6)            113.8748         estimate D2E/DX2                !
 ! D10   D(2,4,5,14)           -72.3749         estimate D2E/DX2                !
 ! D11   D(4,5,6,7)             -5.1315         estimate D2E/DX2                !
 ! D12   D(4,5,6,11)           173.9078         estimate D2E/DX2                !
 ! D13   D(14,5,6,7)          -178.5869         estimate D2E/DX2                !
 ! D14   D(14,5,6,11)            0.4525         estimate D2E/DX2                !
 ! D15   D(4,5,14,13)         -175.4547         estimate D2E/DX2                !
 ! D16   D(4,5,14,15)            3.7511         estimate D2E/DX2                !
 ! D17   D(6,5,14,13)           -2.0159         estimate D2E/DX2                !
 ! D18   D(6,5,14,15)          177.1899         estimate D2E/DX2                !
 ! D19   D(5,6,7,8)            178.6587         estimate D2E/DX2                !
 ! D20   D(5,6,7,22)            -1.7556         estimate D2E/DX2                !
 ! D21   D(11,6,7,8)            -0.3794         estimate D2E/DX2                !
 ! D22   D(11,6,7,22)          179.2063         estimate D2E/DX2                !
 ! D23   D(5,6,11,10)         -178.442          estimate D2E/DX2                !
 ! D24   D(5,6,11,12)            1.2854         estimate D2E/DX2                !
 ! D25   D(7,6,11,10)            0.6627         estimate D2E/DX2                !
 ! D26   D(7,6,11,12)         -179.6099         estimate D2E/DX2                !
 ! D27   D(6,7,8,9)             -0.3206         estimate D2E/DX2                !
 ! D28   D(6,7,8,23)           179.9123         estimate D2E/DX2                !
 ! D29   D(22,7,8,9)          -179.9132         estimate D2E/DX2                !
 ! D30   D(22,7,8,23)            0.3197         estimate D2E/DX2                !
 ! D31   D(7,8,9,10)             0.7373         estimate D2E/DX2                !
 ! D32   D(7,8,9,24)          -179.414          estimate D2E/DX2                !
 ! D33   D(23,8,9,10)         -179.495          estimate D2E/DX2                !
 ! D34   D(23,8,9,24)            0.3537         estimate D2E/DX2                !
 ! D35   D(8,9,10,11)           -0.4515         estimate D2E/DX2                !
 ! D36   D(8,9,10,25)         -179.9245         estimate D2E/DX2                !
 ! D37   D(24,9,10,11)         179.6992         estimate D2E/DX2                !
 ! D38   D(24,9,10,25)           0.2262         estimate D2E/DX2                !
 ! D39   D(9,10,11,6)           -0.2608         estimate D2E/DX2                !
 ! D40   D(9,10,11,12)        -179.9872         estimate D2E/DX2                !
 ! D41   D(25,10,11,6)         179.2031         estimate D2E/DX2                !
 ! D42   D(25,10,11,12)         -0.5233         estimate D2E/DX2                !
 ! D43   D(6,11,12,13)          -1.4607         estimate D2E/DX2                !
 ! D44   D(6,11,12,26)         179.5634         estimate D2E/DX2                !
 ! D45   D(10,11,12,13)        178.2666         estimate D2E/DX2                !
 ! D46   D(10,11,12,26)         -0.7092         estimate D2E/DX2                !
 ! D47   D(11,12,13,14)         -0.157          estimate D2E/DX2                !
 ! D48   D(11,12,13,18)       -179.5244         estimate D2E/DX2                !
 ! D49   D(26,12,13,14)        178.82           estimate D2E/DX2                !
 ! D50   D(26,12,13,18)         -0.5473         estimate D2E/DX2                !
 ! D51   D(12,13,14,5)           1.8335         estimate D2E/DX2                !
 ! D52   D(12,13,14,15)       -177.4294         estimate D2E/DX2                !
 ! D53   D(18,13,14,5)        -178.7962         estimate D2E/DX2                !
 ! D54   D(18,13,14,15)          1.9409         estimate D2E/DX2                !
 ! D55   D(12,13,18,17)        178.9245         estimate D2E/DX2                !
 ! D56   D(12,13,18,30)         -1.1373         estimate D2E/DX2                !
 ! D57   D(14,13,18,17)         -0.4407         estimate D2E/DX2                !
 ! D58   D(14,13,18,30)        179.4975         estimate D2E/DX2                !
 ! D59   D(5,14,15,16)         178.4931         estimate D2E/DX2                !
 ! D60   D(5,14,15,27)          -0.907          estimate D2E/DX2                !
 ! D61   D(13,14,15,16)         -2.2995         estimate D2E/DX2                !
 ! D62   D(13,14,15,27)        178.3004         estimate D2E/DX2                !
 ! D63   D(14,15,16,17)          1.1023         estimate D2E/DX2                !
 ! D64   D(14,15,16,28)       -178.603          estimate D2E/DX2                !
 ! D65   D(27,15,16,17)       -179.4786         estimate D2E/DX2                !
 ! D66   D(27,15,16,28)          0.8161         estimate D2E/DX2                !
 ! D67   D(15,16,17,18)          0.489          estimate D2E/DX2                !
 ! D68   D(15,16,17,29)       -179.7819         estimate D2E/DX2                !
 ! D69   D(28,16,17,18)       -179.8063         estimate D2E/DX2                !
 ! D70   D(28,16,17,29)         -0.0772         estimate D2E/DX2                !
 ! D71   D(16,17,18,13)         -0.8154         estimate D2E/DX2                !
 ! D72   D(16,17,18,30)        179.2453         estimate D2E/DX2                !
 ! D73   D(29,17,18,13)        179.4555         estimate D2E/DX2                !
 ! D74   D(29,17,18,30)         -0.4838         estimate D2E/DX2                !
 --------------------------------------------------------------------------------
 Trust Radius=3.00D-01 FncErr=1.00D-07 GrdErr=1.00D-06
 Number of steps in this run= 168 maximum allowed number of steps= 180.
 GradGradGradGradGradGradGradGradGradGradGradGradGradGradGradGradGradGrad

 Leave Link  103 at Wed Sep 29 16:20:24 2021, MaxMem= 1342177280 cpu:       0.0
 (Enter /sw/target/amd/app/gaussian/Gaussian09RevA.02_gcc-4.9.2/g09/l202.exe)
                          Input orientation:                          
 ---------------------------------------------------------------------
 Center     Atomic      Atomic             Coordinates (Angstroms)
 Number     Number       Type             X           Y           Z
 ---------------------------------------------------------------------
      1          6           0        1.155526   -0.383748    1.779074
      2          6           0        2.488901   -0.589974    1.113841
      3          8           0        2.762997   -1.557454    0.418301
      4          8           0        3.352485    0.421631    1.519683
      5          6           0        4.732361    0.185848    1.304332
      6          6           0        5.415827    1.006604    0.371277
      7          6           0        4.795281    1.982615   -0.441248
      8          6           0        5.536017    2.777131   -1.321653
      9          6           0        6.913965    2.620310   -1.406423
     10          6           0        7.549018    1.658950   -0.622547
     11          6           0        6.817339    0.849981    0.261355
     12          6           0        7.473845   -0.111951    1.042338
     13          6           0        6.789696   -0.919049    1.965667
     14          6           0        5.394716   -0.766680    2.126894
     15          6           0        4.757464   -1.563365    3.108843
     16          6           0        5.459555   -2.502805    3.862565
     17          6           0        6.825097   -2.656987    3.672153
     18          6           0        7.484907   -1.863512    2.735568
     19          1           0        0.360408   -0.774306    1.139340
     20          1           0        0.967187    0.680634    1.943154
     21          1           0        1.148386   -0.907128    2.739428
     22          1           0        3.718460    2.125643   -0.396468
     23          1           0        5.037274    3.519554   -1.937014
     24          1           0        7.497265    3.241480   -2.082115
     25          1           0        8.629347    1.551342   -0.701481
     26          1           0        8.553352   -0.226579    0.941995
     27          1           0        3.691918   -1.468292    3.294948
     28          1           0        4.936513   -3.114890    4.593053
     29          1           0        7.377602   -3.389325    4.253301
     30          1           0        8.557214   -1.991378    2.610489
 ---------------------------------------------------------------------
                    Distance matrix (angstroms):
                    1          2          3          4          5
     1  C    0.000000
     2  C    1.504312   0.000000
     3  O    2.411069   1.222671   0.000000
     4  O    2.354262   1.390622   2.340367   0.000000
     5  C    3.652885   2.381449   2.775347   1.416343   0.000000
     6  C    4.697354   3.415751   3.689730   2.432778   1.418224
     7  C    4.876199   3.788918   4.171461   2.891985   2.505869
     8  C    6.228513   5.153052   5.431916   4.288284   3.775766
     9  C    7.234043   6.019871   6.165538   5.106900   4.246669
    10  C    7.128614   5.803231   5.859575   4.871447   3.717049
    11  C    5.990132   4.640644   4.717845   3.711076   2.424048
    12  C    6.366931   5.008322   4.966990   4.183083   2.770029
    13  C    5.662617   4.396673   4.360757   3.716281   2.427094
    14  C    4.270638   3.082412   3.235824   2.439569   1.422193
    15  C    4.016683   3.173941   3.349172   2.905101   2.513292
    16  C    5.230297   4.476515   4.475273   4.298973   3.781828
    17  C    6.394951   5.442435   5.319510   5.115668   4.250627
    18  C    6.570057   5.404810   5.268760   4.876184   3.718174
    19  H    1.092706   2.136612   2.627861   3.244603   4.479184
    20  H    1.093299   2.148911   3.249485   2.436402   3.850901
    21  H    1.093736   2.130751   2.901297   2.848058   4.012353
    22  H    4.195075   3.341769   3.891267   2.590217   2.771916
    23  H    6.641765   5.717530   6.041180   4.938056   4.659710
    24  H    8.262488   7.069504   7.189933   6.172819   5.333817
    25  H    8.108991   6.751719   6.732948   5.835674   4.590682
    26  H    7.446692   6.077758   5.964368   5.272847   3.860227
    27  H    3.147601   2.641196   3.024226   2.615070   2.789489
    28  H    5.447336   4.946809   4.957654   4.945880   4.663928
    29  H    7.339586   6.449184   6.273560   6.180423   5.336251
    30  H    7.619758   6.405334   6.210228   5.839664   4.590845
                    6          7          8          9         10
     6  C    0.000000
     7  C    1.413460   0.000000
     8  C    2.452595   1.398235   0.000000
     9  C    2.829962   2.413927   1.389431   0.000000
    10  C    2.442078   2.778615   2.406502   1.393545   0.000000
    11  C    1.414514   2.421824   2.803856   2.434109   1.403947
    12  C    2.436581   3.709843   4.205998   3.711488   2.431785
    13  C    2.852672   4.265042   5.102934   4.890143   3.731153
    14  C    2.495431   3.809632   4.946821   5.124856   4.252543
    15  C    3.812145   5.017823   6.251028   6.522366   5.665630
    16  C    4.950450   6.251644   7.399979   7.491585   6.465469
    17  C    5.128716   6.524272   7.491960   7.324595   6.131543
    18  C    4.255412   5.667357   6.464888   6.130801   4.867112
    19  H    5.414685   5.455911   6.742116   7.807268   7.791090
    20  H    4.729424   4.694127   5.994037   7.095504   7.131649
    21  H    5.242286   5.636236   7.022639   7.929237   7.671748
    22  H    2.173185   1.087201   2.141009   3.387618   3.865500
    23  H    3.433137   2.158254   1.085637   2.147588   3.390948
    24  H    3.917421   3.402633   2.154162   1.087497   2.153467
    25  H    3.431365   3.867012   3.384651   2.140601   1.088541
    26  H    3.419141   4.573510   4.821896   4.038246   2.647961
    27  H    4.200574   5.204356   6.537379   7.014352   6.324842
    28  H    5.919446   7.165799   8.370129   8.532089   7.537719
    29  H    6.184082   7.587154   8.514501   8.268201   7.020566
    30  H    4.885722   6.265609   6.879538   6.332734   4.979345
                   11         12         13         14         15
    11  C    0.000000
    12  C    1.402229   0.000000
    13  C    2.456606   1.404282   0.000000
    14  C    2.849155   2.434689   1.412508   0.000000
    15  C    4.263275   3.708878   2.419082   1.415988   0.000000
    16  C    5.104259   4.210372   2.806381   2.455786   1.394122
    17  C    4.892078   3.716721   2.435934   2.829678   2.405916
    18  C    3.732348   2.436210   1.402881   2.437708   2.769181
    19  H    6.715737   7.144866   6.483788   5.130261   4.882177
    20  H    6.089450   6.616363   6.038303   4.661705   4.556376
    21  H    6.431587   6.597262   5.694139   4.292580   3.686809
    22  H    3.415128   4.602163   4.927710   4.188403   5.193796
    23  H    3.889483   5.291620   6.164666   5.917341   7.167638
    24  H    3.416639   4.583476   5.847666   6.180762   7.585453
    25  H    2.168487   2.672570   4.074412   4.882189   6.261905
    26  H    2.153135   1.090203   2.153579   3.416530   4.570666
    27  H    4.934099   4.606179   3.415389   2.180855   1.085846
    28  H    6.166142   5.297478   3.893476   3.435983   2.154568
    29  H    5.849892   4.589197   3.417772   3.915573   3.392497
    30  H    4.076630   2.676758   2.165596   3.425660   3.856119
                   16         17         18         19         20
    16  C    0.000000
    17  C    1.387348   0.000000
    18  C    2.404343   1.393608   0.000000
    19  H    6.033652   7.193874   7.381923   0.000000
    20  H    5.830934   6.960191   7.041397   1.769505   0.000000
    21  H    4.732209   6.013072   6.408290   1.788528   1.785461
    22  H    6.526355   7.005599   6.317367   4.695202   3.889908
    23  H    8.371514   8.532803   7.536666   7.055088   6.299269
    24  H    8.514006   8.267728   7.019342   8.799945   8.087190
    25  H    6.878532   6.331984   4.978381   8.784794   8.152357
    26  H    4.825195   4.043205   2.652928   8.213603   7.705534
    27  H    2.125311   3.372253   3.854331   4.028302   3.724162
    28  H    1.087121   2.150461   3.392714   6.192511   6.097828
    29  H    2.148836   1.085962   2.154793   8.110246   7.936924
    30  H    3.380051   2.137849   1.087124   8.416244   8.074249
                   21         22         23         24         25
    21  H    0.000000
    22  H    5.063282   0.000000
    23  H    7.522505   2.460801   0.000000
    24  H    8.987018   4.285542   2.479906   0.000000
    25  H    8.593527   4.953753   4.278246   2.458521   0.000000
    26  H    7.650322   5.540813   5.889398   4.721016   2.422353
    27  H    2.663280   5.152050   7.352688   8.097865   7.033338
    28  H    4.760257   7.337721   9.309553   9.566543   7.965101
    29  H    6.874318   8.088544   9.567118   9.171662   7.108229
    30  H    7.488856   7.028883   7.964932   7.108222   4.850279
                   26         27         28         29         30
    26  H    0.000000
    27  H    5.541821   0.000000
    28  H    5.895259   2.438315   0.000000
    29  H    4.727589   4.265334   2.479851   0.000000
    30  H    2.428662   4.940973   4.278121   2.458571   0.000000
 Stoichiometry    C16H12O2
 Framework group  C1[X(C16H12O2)]
 Deg. of freedom    84
 Full point group                 C1      NOp   1
 Largest Abelian subgroup         C1      NOp   1
 Largest concise Abelian subgroup C1      NOp   1
                         Standard orientation:                         
 ---------------------------------------------------------------------
 Center     Atomic      Atomic             Coordinates (Angstroms)
 Number     Number       Type             X           Y           Z
 ---------------------------------------------------------------------
      1          6           0        1.844190    3.664646   -0.287894
      2          6           0        1.137335    2.505243    0.359482
      3          8           0        1.267948    2.195630    1.535069
      4          8           0        0.432377    1.809594   -0.616702
      5          6           0        0.024446    0.497328   -0.273805
      6          6           0       -1.364271    0.236451   -0.152282
      7          6           0       -2.374794    1.220079   -0.248136
      8          6           0       -3.728951    0.887195   -0.145620
      9          6           0       -4.105851   -0.436011    0.048256
     10          6           0       -3.128648   -1.423760    0.155002
     11          6           0       -1.765045   -1.103375    0.060082
     12          6           0       -0.796028   -2.110964    0.169696
     13          6           0        0.577121   -1.844295    0.045784
     14          6           0        1.012212   -0.523260   -0.200672
     15          6           0        2.401696   -0.312240   -0.373374
     16          6           0        3.323172   -1.352103   -0.258731
     17          6           0        2.879517   -2.638925    0.009584
     18          6           0        1.514756   -2.882381    0.152058
     19          1           0        1.945895    4.481678    0.430522
     20          1           0        1.273657    4.034500   -1.144050
     21          1           0        2.833872    3.340679   -0.622307
     22          1           0       -2.108402    2.263398   -0.398226
     23          1           0       -4.487528    1.660171   -0.220962
     24          1           0       -5.157639   -0.703107    0.119336
     25          1           0       -3.442877   -2.455043    0.305452
     26          1           0       -1.119088   -3.138101    0.340472
     27          1           0        2.789778    0.677930   -0.592503
     28          1           0        4.385552   -1.152762   -0.374680
     29          1           0        3.592053   -3.453020    0.103689
     30          1           0        1.186989   -3.899891    0.349743
 ---------------------------------------------------------------------
 Rotational constants (GHZ):      0.5622854      0.4118407      0.2507609
 Leave Link  202 at Wed Sep 29 16:20:25 2021, MaxMem= 1342177280 cpu:       0.1
 (Enter /sw/target/amd/app/gaussian/Gaussian09RevA.02_gcc-4.9.2/g09/l301.exe)
 Standard basis: 6-31G(d) (6D, 7F)
 Ernie: Thresh=  0.10000D-02 Tol=  0.10000D-05 Strict=F.
 There are   294 symmetry adapted basis functions of A   symmetry.
 Integral buffers will be    131072 words long.
 Raffenetti 2 integral format.
 Two-electron integral symmetry is turned on.
   294 basis functions,   552 primitive gaussians,   294 cartesian basis functions
    62 alpha electrons       62 beta electrons
       nuclear repulsion energy      1218.4123939129 Hartrees.
 IExCor=  402 DFT=T Ex+Corr=B3LYP ExCW=0 ScaHFX=  0.200000
 ScaDFX=  0.800000  0.720000  1.000000  0.810000 ScalE2=  1.000000  1.000000
 IRadAn=      0 IRanWt=     -1 IRanGd=            0 ICorTp=0
 NAtoms=   30 NActive=   30 NUniq=   30 SFac= 7.50D-01 NAtFMM=   80 NAOKFM=F Big=F
 Leave Link  301 at Wed Sep 29 16:20:25 2021, MaxMem= 1342177280 cpu:       0.1
 (Enter /sw/target/amd/app/gaussian/Gaussian09RevA.02_gcc-4.9.2/g09/l302.exe)
 NPDir=0 NMtPBC=     1 NCelOv=     1 NCel=       1 NClECP=     1 NCelD=      1
         NCelK=      1 NCelE2=     1 NClLst=     1 CellRange=     0.0.
 One-electron integrals computed using PRISM.
 NBasis=   294 RedAO= T  NBF=   294
 NBsUse=   294 1.00D-06 NBFU=   294
 Precomputing XC quadrature grid using
 IXCGrd= 2 IRadAn=           0 IRanWt=          -1 IRanGd=           0 AccXCQ= 1.00D-10.
 NRdTot=    1897 NPtTot=      241530 NUsed=      255212 NTot=      255244
 NSgBfM=   293   293   293   293   293 NAtAll=    30    30.
 Leave Link  302 at Wed Sep 29 16:20:30 2021, MaxMem= 1342177280 cpu:       2.7
 (Enter /sw/target/amd/app/gaussian/Gaussian09RevA.02_gcc-4.9.2/g09/l303.exe)
 DipDrv:  MaxL=1.
 Leave Link  303 at Wed Sep 29 16:20:30 2021, MaxMem= 1342177280 cpu:       0.2
 (Enter /sw/target/amd/app/gaussian/Gaussian09RevA.02_gcc-4.9.2/g09/l401.exe)
 Harris functional with IExCor=  402 diagonalized for initial guess.
 ExpMin= 1.61D-01 ExpMax= 5.48D+03 ExpMxC= 8.25D+02 IAcc=1 IRadAn=         1 AccDes= 0.00D+00
 HarFok:  IExCor=  402 AccDes= 0.00D+00 IRadAn=         1 IDoV= 1
 ScaDFX=  1.000000  1.000000  1.000000  1.000000
 FoFCou: FMM=F IPFlag=           0 FMFlag=      100000 FMFlg1=           0
         NFxFlg=           0 DoJE=T BraDBF=F KetDBF=T FulRan=T
         Omega=  0.000000  0.000000  1.000000  0.000000  0.000000 ICntrl=     500 IOpCl=  0
         NMat0=    1 NMatS0=    1 NMatT0=    0 NMatD0=    1 NMtDS0=    0 NMtDT0=    0
         I1Cent=           4 NGrid=           0.
 Petite list used in FoFCou.
 Harris En= -767.492788904891    
 Initial guess orbital symmetries:
       Occupied  (A) (A) (A) (A) (A) (A) (A) (A) (A) (A) (A) (A)
                 (A) (A) (A) (A) (A) (A) (A) (A) (A) (A) (A) (A)
                 (A) (A) (A) (A) (A) (A) (A) (A) (A) (A) (A) (A)
                 (A) (A) (A) (A) (A) (A) (A) (A) (A) (A) (A) (A)
                 (A) (A) (A) (A) (A) (A) (A) (A) (A) (A) (A) (A)
                 (A) (A)
       Virtual   (A) (A) (A) (A) (A) (A) (A) (A) (A) (A) (A) (A)
                 (A) (A) (A) (A) (A) (A) (A) (A) (A) (A) (A) (A)
                 (A) (A) (A) (A) (A) (A) (A) (A) (A) (A) (A) (A)
                 (A) (A) (A) (A) (A) (A) (A) (A) (A) (A) (A) (A)
                 (A) (A) (A) (A) (A) (A) (A) (A) (A) (A) (A) (A)
                 (A) (A) (A) (A) (A) (A) (A) (A) (A) (A) (A) (A)
                 (A) (A) (A) (A) (A) (A) (A) (A) (A) (A) (A) (A)
                 (A) (A) (A) (A) (A) (A) (A) (A) (A) (A) (A) (A)
                 (A) (A) (A) (A) (A) (A) (A) (A) (A) (A) (A) (A)
                 (A) (A) (A) (A) (A) (A) (A) (A) (A) (A) (A) (A)
                 (A) (A) (A) (A) (A) (A) (A) (A) (A) (A) (A) (A)
                 (A) (A) (A) (A) (A) (A) (A) (A) (A) (A) (A) (A)
                 (A) (A) (A) (A) (A) (A) (A) (A) (A) (A) (A) (A)
                 (A) (A) (A) (A) (A) (A) (A) (A) (A) (A) (A) (A)
                 (A) (A) (A) (A) (A) (A) (A) (A) (A) (A) (A) (A)
                 (A) (A) (A) (A) (A) (A) (A) (A) (A) (A) (A) (A)
                 (A) (A) (A) (A) (A) (A) (A) (A) (A) (A) (A) (A)
                 (A) (A) (A) (A) (A) (A) (A) (A) (A) (A) (A) (A)
                 (A) (A) (A) (A) (A) (A) (A) (A) (A) (A) (A) (A)
                 (A) (A) (A) (A)
 The electronic state of the initial guess is 1-A.
 Leave Link  401 at Wed Sep 29 16:20:46 2021, MaxMem= 1342177280 cpu:      12.5
 (Enter /sw/target/amd/app/gaussian/Gaussian09RevA.02_gcc-4.9.2/g09/l502.exe)
 Closed shell SCF:
 Requested convergence on RMS density matrix=1.00D-08 within  64 cycles.
 Requested convergence on MAX density matrix=1.00D-06.
 Requested convergence on             energy=1.00D-06.
 No special actions if energy rises.
 Using DIIS extrapolation, IDIIS=  1040.
 Integral symmetry usage will be decided dynamically.
       254929 words used for storage of precomputed grid.
 Keep R1 ints in memory in canonical form, NReq=953643102.
 IEnd=      523753 IEndB=      523753 NGot=  1342177280 MDV=   401461159
 LenX=   401461159 LenY=   401374282
 Symmetry not used in FoFDir.
 MinBra= 0 MaxBra= 2 Meth= 1.
 IRaf=       0 NMat=   1 IRICut=       1 DoRegI=T DoRafI=F ISym2E= 0 JSym2E=0.
 Integral accuracy reduced to 1.0D-05 until final iterations.

 Cycle   1  Pass 0  IDiag  1:
 E= -766.938122080129    
 DIIS: error= 3.59D-02 at cycle   1 NSaved=   1.
 NSaved= 1 IEnMin= 1 EnMin= -766.938122080129     IErMin= 1 ErrMin= 3.59D-02
 ErrMax= 3.59D-02 EMaxC= 1.00D-01 BMatC= 4.46D-01 BMatP= 4.46D-01
 IDIUse=3 WtCom= 6.41D-01 WtEn= 3.59D-01
 Coeff-Com:  0.100D+01
 Coeff-En:   0.100D+01
 Coeff:      0.100D+01
 Gap=     0.114 Goal=   None    Shift=    0.000
 GapD=    0.114 DampG=1.000 DampE=0.500 DampFc=0.5000 IDamp=-1.
 Damping current iteration by 5.00D-01
 RMSDP=6.09D-03 MaxDP=2.17D-01              OVMax= 3.51D-01

 Cycle   2  Pass 0  IDiag  1:
 E= -767.060116118660     Delta-E=       -0.121994038531 Rises=F Damp=T
 DIIS: error= 1.50D-02 at cycle   2 NSaved=   2.
 NSaved= 2 IEnMin= 2 EnMin= -767.060116118660     IErMin= 2 ErrMin= 1.50D-02
 ErrMax= 1.50D-02 EMaxC= 1.00D-01 BMatC= 8.76D-02 BMatP= 4.46D-01
 IDIUse=3 WtCom= 8.50D-01 WtEn= 1.50D-01
 Coeff-Com:  0.225D+00 0.775D+00
 Coeff-En:   0.339D+00 0.661D+00
 Coeff:      0.242D+00 0.758D+00
 Gap=     0.112 Goal=   None    Shift=    0.000
 RMSDP=2.64D-03 MaxDP=1.15D-01 DE=-1.22D-01 OVMax= 4.26D-01

 Cycle   3  Pass 0  IDiag  1:
 E= -767.280073590747     Delta-E=       -0.219957472087 Rises=F Damp=F
 DIIS: error= 1.82D-02 at cycle   3 NSaved=   3.
 NSaved= 3 IEnMin= 3 EnMin= -767.280073590747     IErMin= 2 ErrMin= 1.50D-02
 ErrMax= 1.82D-02 EMaxC= 1.00D-01 BMatC= 1.17D-01 BMatP= 8.76D-02
 IDIUse=2 WtCom= 0.00D+00 WtEn= 1.00D+00
 Coeff-En:   0.000D+00 0.355D-01 0.964D+00
 Coeff:      0.000D+00 0.355D-01 0.964D+00
 Gap=     0.111 Goal=   None    Shift=    0.000
 RMSDP=3.97D-03 MaxDP=1.73D-01 DE=-2.20D-01 OVMax= 3.91D-01

 Cycle   4  Pass 0  IDiag  1:
 E= -766.742172076556     Delta-E=        0.537901514190 Rises=F Damp=F
 DIIS: error= 4.40D-02 at cycle   4 NSaved=   4.
 NSaved= 4 IEnMin= 3 EnMin= -767.280073590747     IErMin= 2 ErrMin= 1.50D-02
 ErrMax= 4.40D-02 EMaxC= 1.00D-01 BMatC= 7.22D-01 BMatP= 8.76D-02
 IDIUse=2 WtCom= 0.00D+00 WtEn= 1.00D+00
 Coeff-En:   0.000D+00 0.000D+00 0.792D+00 0.208D+00
 Coeff:      0.000D+00 0.000D+00 0.792D+00 0.208D+00
 Gap=     0.117 Goal=   None    Shift=    0.000
 RMSDP=2.12D-03 MaxDP=9.76D-02 DE= 5.38D-01 OVMax= 2.33D-01

 Cycle   5  Pass 0  IDiag  1:
 E= -767.344019682693     Delta-E=       -0.601847606137 Rises=F Damp=F
 DIIS: error= 1.09D-02 at cycle   5 NSaved=   5.
 NSaved= 5 IEnMin= 5 EnMin= -767.344019682693     IErMin= 5 ErrMin= 1.09D-02
 ErrMax= 1.09D-02 EMaxC= 1.00D-01 BMatC= 5.14D-02 BMatP= 8.76D-02
 IDIUse=3 WtCom= 8.91D-01 WtEn= 1.09D-01
 Coeff-Com: -0.679D-02 0.661D-01 0.315D+00-0.863D-01 0.712D+00
 Coeff-En:   0.000D+00 0.000D+00 0.348D+00 0.000D+00 0.652D+00
 Coeff:     -0.605D-02 0.589D-01 0.318D+00-0.769D-01 0.706D+00
 Gap=     0.114 Goal=   None    Shift=    0.000
 RMSDP=8.41D-04 MaxDP=3.96D-02 DE=-6.02D-01 OVMax= 1.01D-01

 Cycle   6  Pass 0  IDiag  1:
 E= -767.391158791117     Delta-E=       -0.047139108424 Rises=F Damp=F
 DIIS: error= 1.19D-03 at cycle   6 NSaved=   6.
 NSaved= 6 IEnMin= 6 EnMin= -767.391158791117     IErMin= 6 ErrMin= 1.19D-03
 ErrMax= 1.19D-03 EMaxC= 1.00D-01 BMatC= 7.27D-04 BMatP= 5.14D-02
 IDIUse=3 WtCom= 9.88D-01 WtEn= 1.19D-02
 Coeff-Com: -0.858D-02 0.326D-01 0.165D+00-0.664D-01 0.456D+00 0.422D+00
 Coeff-En:   0.000D+00 0.000D+00 0.000D+00 0.000D+00 0.000D+00 0.100D+01
 Coeff:     -0.847D-02 0.322D-01 0.163D+00-0.657D-01 0.451D+00 0.428D+00
 Gap=     0.116 Goal=   None    Shift=    0.000
 RMSDP=1.15D-04 MaxDP=6.60D-03 DE=-4.71D-02 OVMax= 1.47D-02

 Cycle   7  Pass 0  IDiag  1:
 E= -767.391786736616     Delta-E=       -0.000627945499 Rises=F Damp=F
 DIIS: error= 3.94D-04 at cycle   7 NSaved=   7.
 NSaved= 7 IEnMin= 7 EnMin= -767.391786736616     IErMin= 7 ErrMin= 3.94D-04
 ErrMax= 3.94D-04 EMaxC= 1.00D-01 BMatC= 6.05D-05 BMatP= 7.27D-04
 IDIUse=3 WtCom= 9.96D-01 WtEn= 3.94D-03
 Coeff-Com: -0.252D-02 0.789D-02 0.543D-01-0.243D-01 0.153D+00 0.233D+00
 Coeff-Com:  0.579D+00
 Coeff-En:   0.000D+00 0.000D+00 0.000D+00 0.000D+00 0.000D+00 0.659D-01
 Coeff-En:   0.934D+00
 Coeff:     -0.251D-02 0.786D-02 0.541D-01-0.242D-01 0.152D+00 0.232D+00
 Coeff:      0.581D+00
 Gap=     0.116 Goal=   None    Shift=    0.000
 RMSDP=3.97D-05 MaxDP=1.78D-03 DE=-6.28D-04 OVMax= 6.44D-03

 Cycle   8  Pass 0  IDiag  1:
 E= -767.391843062817     Delta-E=       -0.000056326201 Rises=F Damp=F
 DIIS: error= 1.63D-04 at cycle   8 NSaved=   8.
 NSaved= 8 IEnMin= 8 EnMin= -767.391843062817     IErMin= 8 ErrMin= 1.63D-04
 ErrMax= 1.63D-04 EMaxC= 1.00D-01 BMatC= 1.40D-05 BMatP= 6.05D-05
 IDIUse=3 WtCom= 9.98D-01 WtEn= 1.63D-03
 Coeff-Com:  0.441D-04-0.122D-02 0.116D-01-0.478D-02 0.274D-01 0.958D-01
 Coeff-Com:  0.414D+00 0.457D+00
 Coeff-En:   0.000D+00 0.000D+00 0.000D+00 0.000D+00 0.000D+00 0.000D+00
 Coeff-En:   0.130D+00 0.870D+00
 Coeff:      0.441D-04-0.122D-02 0.116D-01-0.477D-02 0.274D-01 0.957D-01
 Coeff:      0.414D+00 0.457D+00
 Gap=     0.116 Goal=   None    Shift=    0.000
 RMSDP=1.60D-05 MaxDP=5.61D-04 DE=-5.63D-05 OVMax= 2.08D-03

 Cycle   9  Pass 0  IDiag  1:
 E= -767.391856211779     Delta-E=       -0.000013148962 Rises=F Damp=F
 DIIS: error= 3.55D-05 at cycle   9 NSaved=   9.
 NSaved= 9 IEnMin= 9 EnMin= -767.391856211779     IErMin= 9 ErrMin= 3.55D-05
 ErrMax= 3.55D-05 EMaxC= 1.00D-01 BMatC= 5.84D-07 BMatP= 1.40D-05
 IDIUse=1 WtCom= 1.00D+00 WtEn= 0.00D+00
 Coeff-Com:  0.275D-03-0.121D-02 0.234D-02-0.912D-03 0.321D-02 0.374D-01
 Coeff-Com:  0.187D+00 0.254D+00 0.518D+00
 Coeff:      0.275D-03-0.121D-02 0.234D-02-0.912D-03 0.321D-02 0.374D-01
 Coeff:      0.187D+00 0.254D+00 0.518D+00
 Gap=     0.116 Goal=   None    Shift=    0.000
 RMSDP=3.34D-06 MaxDP=1.46D-04 DE=-1.31D-05 OVMax= 4.35D-04

 Initial convergence to 1.0D-05 achieved.  Increase integral accuracy.
 Cycle  10  Pass 1  IDiag  1:
 E= -767.391886938229     Delta-E=       -0.000030726449 Rises=F Damp=F
 DIIS: error= 1.89D-05 at cycle   1 NSaved=   1.
 NSaved= 1 IEnMin= 1 EnMin= -767.391886938229     IErMin= 1 ErrMin= 1.89D-05
 ErrMax= 1.89D-05 EMaxC= 1.00D-01 BMatC= 1.41D-07 BMatP= 1.41D-07
 IDIUse=1 WtCom= 1.00D+00 WtEn= 0.00D+00
 Coeff-Com:  0.100D+01
 Coeff:      0.100D+01
 Gap=     0.116 Goal=   None    Shift=    0.000
 RMSDP=3.34D-06 MaxDP=1.46D-04 DE=-3.07D-05 OVMax= 2.48D-04

 Cycle  11  Pass 1  IDiag  1:
 E= -767.391886836153     Delta-E=        0.000000102076 Rises=F Damp=F
 DIIS: error= 3.90D-05 at cycle   2 NSaved=   2.
 NSaved= 2 IEnMin= 1 EnMin= -767.391886938229     IErMin= 1 ErrMin= 1.89D-05
 ErrMax= 3.90D-05 EMaxC= 1.00D-01 BMatC= 2.55D-07 BMatP= 1.41D-07
 IDIUse=1 WtCom= 1.00D+00 WtEn= 0.00D+00
 Coeff-Com:  0.589D+00 0.411D+00
 Coeff:      0.589D+00 0.411D+00
 Gap=     0.116 Goal=   None    Shift=    0.000
 RMSDP=2.47D-06 MaxDP=7.45D-05 DE= 1.02D-07 OVMax= 2.02D-04

 Cycle  12  Pass 1  IDiag  1:
 E= -767.391887094383     Delta-E=       -0.000000258230 Rises=F Damp=F
 DIIS: error= 1.24D-05 at cycle   3 NSaved=   3.
 NSaved= 3 IEnMin= 3 EnMin= -767.391887094383     IErMin= 3 ErrMin= 1.24D-05
 ErrMax= 1.24D-05 EMaxC= 1.00D-01 BMatC= 2.25D-08 BMatP= 1.41D-07
 IDIUse=1 WtCom= 1.00D+00 WtEn= 0.00D+00
 Coeff-Com:  0.321D-01 0.225D+00 0.743D+00
 Coeff:      0.321D-01 0.225D+00 0.743D+00
 Gap=     0.116 Goal=   None    Shift=    0.000
 RMSDP=7.64D-07 MaxDP=2.58D-05 DE=-2.58D-07 OVMax= 6.24D-05

 Cycle  13  Pass 1  IDiag  1:
 E= -767.391887114493     Delta-E=       -0.000000020110 Rises=F Damp=F
 DIIS: error= 2.74D-06 at cycle   4 NSaved=   4.
 NSaved= 4 IEnMin= 4 EnMin= -767.391887114493     IErMin= 4 ErrMin= 2.74D-06
 ErrMax= 2.74D-06 EMaxC= 1.00D-01 BMatC= 5.31D-09 BMatP= 2.25D-08
 IDIUse=1 WtCom= 1.00D+00 WtEn= 0.00D+00
 Coeff-Com: -0.159D-01 0.121D+00 0.485D+00 0.410D+00
 Coeff:     -0.159D-01 0.121D+00 0.485D+00 0.410D+00
 Gap=     0.116 Goal=   None    Shift=    0.000
 RMSDP=2.77D-07 MaxDP=1.76D-05 DE=-2.01D-08 OVMax= 3.14D-05

 Cycle  14  Pass 1  IDiag  1:
 E= -767.391887119212     Delta-E=       -0.000000004718 Rises=F Damp=F
 DIIS: error= 7.82D-07 at cycle   5 NSaved=   5.
 NSaved= 5 IEnMin= 5 EnMin= -767.391887119212     IErMin= 5 ErrMin= 7.82D-07
 ErrMax= 7.82D-07 EMaxC= 1.00D-01 BMatC= 2.95D-10 BMatP= 5.31D-09
 IDIUse=1 WtCom= 1.00D+00 WtEn= 0.00D+00
 Coeff-Com: -0.121D-01 0.685D-01 0.284D+00 0.269D+00 0.390D+00
 Coeff:     -0.121D-01 0.685D-01 0.284D+00 0.269D+00 0.390D+00
 Gap=     0.116 Goal=   None    Shift=    0.000
 RMSDP=8.05D-08 MaxDP=3.57D-06 DE=-4.72D-09 OVMax= 1.15D-05

 Cycle  15  Pass 1  IDiag  1:
 E= -767.391887119462     Delta-E=       -0.000000000250 Rises=F Damp=F
 DIIS: error= 2.41D-07 at cycle   6 NSaved=   6.
 NSaved= 6 IEnMin= 6 EnMin= -767.391887119462     IErMin= 6 ErrMin= 2.41D-07
 ErrMax= 2.41D-07 EMaxC= 1.00D-01 BMatC= 2.41D-11 BMatP= 2.95D-10
 IDIUse=1 WtCom= 1.00D+00 WtEn= 0.00D+00
 Coeff-Com: -0.432D-02 0.199D-01 0.861D-01 0.903D-01 0.242D+00 0.566D+00
 Coeff:     -0.432D-02 0.199D-01 0.861D-01 0.903D-01 0.242D+00 0.566D+00
 Gap=     0.116 Goal=   None    Shift=    0.000
 RMSDP=2.35D-08 MaxDP=1.30D-06 DE=-2.50D-10 OVMax= 3.59D-06

 Cycle  16  Pass 1  IDiag  1:
 E= -767.391887119495     Delta-E=       -0.000000000034 Rises=F Damp=F
 DIIS: error= 6.23D-08 at cycle   7 NSaved=   7.
 NSaved= 7 IEnMin= 7 EnMin= -767.391887119495     IErMin= 7 ErrMin= 6.23D-08
 ErrMax= 6.23D-08 EMaxC= 1.00D-01 BMatC= 1.90D-12 BMatP= 2.41D-11
 IDIUse=1 WtCom= 1.00D+00 WtEn= 0.00D+00
 Coeff-Com: -0.113D-02 0.380D-02 0.179D-01 0.219D-01 0.866D-01 0.298D+00
 Coeff-Com:  0.573D+00
 Coeff:     -0.113D-02 0.380D-02 0.179D-01 0.219D-01 0.866D-01 0.298D+00
 Coeff:      0.573D+00
 Gap=     0.116 Goal=   None    Shift=    0.000
 RMSDP=6.92D-09 MaxDP=2.85D-07 DE=-3.37D-11 OVMax= 9.35D-07

 SCF Done:  E(RB3LYP) =  -767.391887119     A.U. after   16 cycles
             Convg  =    0.6921D-08             -V/T =  2.0095
 KE= 7.602035803451D+02 PE=-4.219816147221D+03 EE= 1.473808285843D+03
 Leave Link  502 at Wed Sep 29 16:36:06 2021, MaxMem= 1342177280 cpu:     435.8
 (Enter /sw/target/amd/app/gaussian/Gaussian09RevA.02_gcc-4.9.2/g09/l508.exe)
 QCSCF skips out because SCF is already converged.
 Leave Link  508 at Wed Sep 29 16:36:08 2021, MaxMem= 1342177280 cpu:       0.0
 (Enter /sw/target/amd/app/gaussian/Gaussian09RevA.02_gcc-4.9.2/g09/l601.exe)
 Copying SCF densities to generalized density rwf, IOpCl= 0 IROHF=0.

 **********************************************************************

            Population analysis using the SCF density.

 **********************************************************************

 Orbital symmetries:
       Occupied  (A) (A) (A) (A) (A) (A) (A) (A) (A) (A) (A) (A)
                 (A) (A) (A) (A) (A) (A) (A) (A) (A) (A) (A) (A)
                 (A) (A) (A) (A) (A) (A) (A) (A) (A) (A) (A) (A)
                 (A) (A) (A) (A) (A) (A) (A) (A) (A) (A) (A) (A)
                 (A) (A) (A) (A) (A) (A) (A) (A) (A) (A) (A) (A)
                 (A) (A)
       Virtual   (A) (A) (A) (A) (A) (A) (A) (A) (A) (A) (A) (A)
                 (A) (A) (A) (A) (A) (A) (A) (A) (A) (A) (A) (A)
                 (A) (A) (A) (A) (A) (A) (A) (A) (A) (A) (A) (A)
                 (A) (A) (A) (A) (A) (A) (A) (A) (A) (A) (A) (A)
                 (A) (A) (A) (A) (A) (A) (A) (A) (A) (A) (A) (A)
                 (A) (A) (A) (A) (A) (A) (A) (A) (A) (A) (A) (A)
                 (A) (A) (A) (A) (A) (A) (A) (A) (A) (A) (A) (A)
                 (A) (A) (A) (A) (A) (A) (A) (A) (A) (A) (A) (A)
                 (A) (A) (A) (A) (A) (A) (A) (A) (A) (A) (A) (A)
                 (A) (A) (A) (A) (A) (A) (A) (A) (A) (A) (A) (A)
                 (A) (A) (A) (A) (A) (A) (A) (A) (A) (A) (A) (A)
                 (A) (A) (A) (A) (A) (A) (A) (A) (A) (A) (A) (A)
                 (A) (A) (A) (A) (A) (A) (A) (A) (A) (A) (A) (A)
                 (A) (A) (A) (A) (A) (A) (A) (A) (A) (A) (A) (A)
                 (A) (A) (A) (A) (A) (A) (A) (A) (A) (A) (A) (A)
                 (A) (A) (A) (A) (A) (A) (A) (A) (A) (A) (A) (A)
                 (A) (A) (A) (A) (A) (A) (A) (A) (A) (A) (A) (A)
                 (A) (A) (A) (A) (A) (A) (A) (A) (A) (A) (A) (A)
                 (A) (A) (A) (A) (A) (A) (A) (A) (A) (A) (A) (A)
                 (A) (A) (A) (A)
 The electronic state is 1-A.
 Alpha  occ. eigenvalues --  -19.20514 -19.14329 -10.32586 -10.25552 -10.20456
 Alpha  occ. eigenvalues --  -10.20404 -10.19978 -10.19933 -10.19918 -10.19577
 Alpha  occ. eigenvalues --  -10.19436 -10.19427 -10.19374 -10.19358 -10.19344
 Alpha  occ. eigenvalues --  -10.19306 -10.19229 -10.19227  -1.09876  -1.01948
 Alpha  occ. eigenvalues --   -0.88704  -0.85664  -0.80555  -0.78769  -0.75377
 Alpha  occ. eigenvalues --   -0.75159  -0.74982  -0.69769  -0.65765  -0.62780
 Alpha  occ. eigenvalues --   -0.61863  -0.59819  -0.56681  -0.53759  -0.53321
 Alpha  occ. eigenvalues --   -0.49901  -0.48639  -0.47568  -0.47082  -0.46753
 Alpha  occ. eigenvalues --   -0.46513  -0.45149  -0.43264  -0.42628  -0.41519
 Alpha  occ. eigenvalues --   -0.41235  -0.40443  -0.39884  -0.38778  -0.38078
 Alpha  occ. eigenvalues --   -0.37674  -0.36585  -0.35434  -0.34128  -0.33821
 Alpha  occ. eigenvalues --   -0.31634  -0.30437  -0.28839  -0.27593  -0.25404
 Alpha  occ. eigenvalues --   -0.24952  -0.18819
 Alpha virt. eigenvalues --   -0.07251  -0.01030  -0.00286   0.00236   0.04259
 Alpha virt. eigenvalues --    0.06332   0.08048   0.09860   0.10437   0.12370
 Alpha virt. eigenvalues --    0.13440   0.14080   0.15576   0.15699   0.16344
 Alpha virt. eigenvalues --    0.16649   0.17518   0.18886   0.19845   0.21191
 Alpha virt. eigenvalues --    0.22065   0.23015   0.24875   0.25238   0.26253
 Alpha virt. eigenvalues --    0.28276   0.29947   0.31052   0.32019   0.33295
 Alpha virt. eigenvalues --    0.34325   0.35752   0.36426   0.38834   0.46527
 Alpha virt. eigenvalues --    0.46887   0.48718   0.50061   0.50485   0.51004
 Alpha virt. eigenvalues --    0.52204   0.53137   0.53736   0.54648   0.55342
 Alpha virt. eigenvalues --    0.55486   0.56043   0.56517   0.56766   0.57759
 Alpha virt. eigenvalues --    0.58430   0.58999   0.59604   0.59879   0.60696
 Alpha virt. eigenvalues --    0.61217   0.61621   0.61844   0.61906   0.62431
 Alpha virt. eigenvalues --    0.63227   0.64042   0.64825   0.65633   0.66291
 Alpha virt. eigenvalues --    0.67004   0.70205   0.71439   0.73375   0.74289
 Alpha virt. eigenvalues --    0.78216   0.80559   0.81763   0.82093   0.82619
 Alpha virt. eigenvalues --    0.83101   0.83515   0.83657   0.84378   0.85651
 Alpha virt. eigenvalues --    0.86649   0.88004   0.88639   0.90080   0.90989
 Alpha virt. eigenvalues --    0.91560   0.92226   0.92945   0.94405   0.94781
 Alpha virt. eigenvalues --    0.96610   0.96994   0.98985   0.99760   1.02679
 Alpha virt. eigenvalues --    1.03207   1.04573   1.06919   1.08059   1.09306
 Alpha virt. eigenvalues --    1.10532   1.12029   1.13100   1.14425   1.14910
 Alpha virt. eigenvalues --    1.18688   1.20798   1.22122   1.22854   1.24678
 Alpha virt. eigenvalues --    1.25615   1.26086   1.31000   1.33082   1.35588
 Alpha virt. eigenvalues --    1.35914   1.37437   1.40142   1.43039   1.43605
 Alpha virt. eigenvalues --    1.45056   1.46154   1.47550   1.47997   1.48094
 Alpha virt. eigenvalues --    1.49068   1.50011   1.50301   1.50676   1.52143
 Alpha virt. eigenvalues --    1.53869   1.56641   1.58024   1.67024   1.68735
 Alpha virt. eigenvalues --    1.73222   1.74369   1.75867   1.77717   1.79512
 Alpha virt. eigenvalues --    1.80882   1.81528   1.82249   1.83201   1.84895
 Alpha virt. eigenvalues --    1.86981   1.87303   1.91091   1.91356   1.91723
 Alpha virt. eigenvalues --    1.92574   1.93020   1.93819   1.95076   1.97602
 Alpha virt. eigenvalues --    1.99332   2.01053   2.02476   2.02953   2.03880
 Alpha virt. eigenvalues --    2.05651   2.07970   2.09679   2.12378   2.12639
 Alpha virt. eigenvalues --    2.15884   2.18731   2.18897   2.20116   2.20848
 Alpha virt. eigenvalues --    2.23492   2.24212   2.27035   2.27843   2.29691
 Alpha virt. eigenvalues --    2.30210   2.31648   2.33717   2.35858   2.36335
 Alpha virt. eigenvalues --    2.39207   2.39960   2.40919   2.44070   2.45504
 Alpha virt. eigenvalues --    2.47751   2.57307   2.59023   2.61975   2.64108
 Alpha virt. eigenvalues --    2.65983   2.66425   2.67483   2.68041   2.68655
 Alpha virt. eigenvalues --    2.72847   2.73526   2.73963   2.74264   2.81060
 Alpha virt. eigenvalues --    2.82882   2.83645   2.85711   2.89051   2.93816
 Alpha virt. eigenvalues --    2.94922   2.96347   3.04745   3.07675   3.14729
 Alpha virt. eigenvalues --    3.18994   3.31171   3.46855   3.52115   4.04064
 Alpha virt. eigenvalues --    4.08473   4.08987   4.09778   4.10761   4.12374
 Alpha virt. eigenvalues --    4.13070   4.14318   4.16930   4.24664   4.33484
 Alpha virt. eigenvalues --    4.35248   4.40329   4.43085   4.45198   4.56435
 Alpha virt. eigenvalues --    4.66329   4.90445
          Condensed to atoms (all electrons):
              1          2          3          4          5          6
     1  C    5.268536   0.358745  -0.076735  -0.096148   0.002627  -0.000291
     2  C    0.358745   4.365541   0.554248   0.209297  -0.004615  -0.006289
     3  O   -0.076735   0.554248   8.012316  -0.065817   0.010177  -0.001169
     4  O   -0.096148   0.209297  -0.065817   8.407948   0.191188  -0.068487
     5  C    0.002627  -0.004615   0.010177   0.191188   5.288428   0.298853
     6  C   -0.000291  -0.006289  -0.001169  -0.068487   0.298853   4.923198
     7  C   -0.000114   0.000396   0.000074  -0.003807  -0.109647   0.420063
     8  C   -0.000000   0.000029  -0.000001   0.000471   0.007663   0.000004
     9  C   -0.000000  -0.000001  -0.000000  -0.000003  -0.000955  -0.038880
    10  C   -0.000000  -0.000001   0.000000  -0.000059   0.016296  -0.027116
    11  C    0.000007   0.000099  -0.000059   0.003952   0.041076   0.420855
    12  C   -0.000000  -0.000030   0.000010  -0.000007  -0.130267  -0.012421
    13  C    0.000018   0.000119  -0.000265   0.004015   0.038146  -0.058887
    14  C    0.000729  -0.007072   0.001714  -0.070570   0.297419   0.007363
    15  C   -0.002144   0.002829   0.000048  -0.001834  -0.102450   0.014429
    16  C   -0.000017  -0.000105  -0.000114   0.000602   0.006984  -0.000297
    17  C    0.000000  -0.000001   0.000001  -0.000006  -0.000880   0.000030
    18  C   -0.000000  -0.000007   0.000001  -0.000061   0.015933   0.000157
    19  H    0.359298  -0.022735   0.001895   0.003211  -0.000044   0.000011
    20  H    0.346739  -0.021889   0.002893   0.005610   0.000180   0.000030
    21  H    0.366333  -0.022681  -0.001028  -0.000042  -0.000306  -0.000015
    22  H    0.000051   0.000652  -0.000076   0.008254  -0.011200  -0.037522
    23  H   -0.000000  -0.000000  -0.000000  -0.000002  -0.000156   0.002527
    24  H    0.000000  -0.000000   0.000000   0.000000   0.000016   0.001114
    25  H    0.000000   0.000000   0.000000   0.000000  -0.000163   0.004399
    26  H    0.000000   0.000000   0.000000   0.000002   0.000672   0.004167
    27  H    0.001132   0.002199  -0.001766   0.004407  -0.011846   0.000047
    28  H   -0.000001  -0.000001  -0.000001   0.000000  -0.000144   0.000002
    29  H    0.000000  -0.000000   0.000000   0.000000   0.000016  -0.000001
    30  H    0.000000   0.000000   0.000000   0.000000  -0.000163   0.000008
              7          8          9         10         11         12
     1  C   -0.000114  -0.000000  -0.000000  -0.000000   0.000007  -0.000000
     2  C    0.000396   0.000029  -0.000001  -0.000001   0.000099  -0.000030
     3  O    0.000074  -0.000001  -0.000000   0.000000  -0.000059   0.000010
     4  O   -0.003807   0.000471  -0.000003  -0.000059   0.003952  -0.000007
     5  C   -0.109647   0.007663  -0.000955   0.016296   0.041076  -0.130267
     6  C    0.420063   0.000004  -0.038880  -0.027116   0.420855  -0.012421
     7  C    5.175040   0.510815  -0.017945  -0.074956  -0.051880   0.018751
     8  C    0.510815   4.899206   0.490134  -0.021981  -0.035267  -0.000701
     9  C   -0.017945   0.490134   4.906006   0.519715  -0.002763   0.007850
    10  C   -0.074956  -0.021981   0.519715   5.109803   0.436885  -0.086667
    11  C   -0.051880  -0.035267  -0.002763   0.436885   4.764463   0.372997
    12  C    0.018751  -0.000701   0.007850  -0.086667   0.372997   5.481427
    13  C   -0.001831   0.000096  -0.000343   0.008139   0.038131   0.371450
    14  C    0.013825  -0.000355   0.000039  -0.000055  -0.056613  -0.014758
    15  C   -0.000051  -0.000001   0.000000  -0.000005  -0.001903   0.018772
    16  C   -0.000001   0.000000  -0.000000   0.000000   0.000084  -0.000602
    17  C    0.000000  -0.000000  -0.000000   0.000002  -0.000335   0.007755
    18  C   -0.000001   0.000000   0.000003  -0.000356   0.007816  -0.085801
    19  H    0.000000  -0.000000   0.000000   0.000000  -0.000000  -0.000000
    20  H   -0.000002   0.000000   0.000000  -0.000000  -0.000000   0.000000
    21  H    0.000002   0.000000  -0.000000  -0.000000  -0.000000  -0.000000
    22  H    0.355654  -0.044763   0.004732   0.000548   0.004904  -0.000195
    23  H   -0.035908   0.360082  -0.042720   0.004407   0.000964   0.000009
    24  H    0.004113  -0.041779   0.356435  -0.034983   0.002531  -0.000213
    25  H    0.000520   0.004732  -0.045341   0.357053  -0.041933  -0.008671
    26  H   -0.000211   0.000018   0.000203  -0.007461  -0.041428   0.350914
    27  H    0.000001  -0.000000  -0.000000   0.000000   0.000008  -0.000187
    28  H   -0.000000  -0.000000   0.000000   0.000000  -0.000001   0.000009
    29  H   -0.000000   0.000000  -0.000000  -0.000000   0.000004  -0.000210
    30  H   -0.000000   0.000000   0.000000  -0.000001   0.000343  -0.008720
             13         14         15         16         17         18
     1  C    0.000018   0.000729  -0.002144  -0.000017   0.000000  -0.000000
     2  C    0.000119  -0.007072   0.002829  -0.000105  -0.000001  -0.000007
     3  O   -0.000265   0.001714   0.000048  -0.000114   0.000001   0.000001
     4  O    0.004015  -0.070570  -0.001834   0.000602  -0.000006  -0.000061
     5  C    0.038146   0.297419  -0.102450   0.006984  -0.000880   0.015933
     6  C   -0.058887   0.007363   0.014429  -0.000297   0.000030   0.000157
     7  C   -0.001831   0.013825  -0.000051  -0.000001   0.000000  -0.000001
     8  C    0.000096  -0.000355  -0.000001   0.000000  -0.000000   0.000000
     9  C   -0.000343   0.000039   0.000000  -0.000000  -0.000000   0.000003
    10  C    0.008139  -0.000055  -0.000005   0.000000   0.000002  -0.000356
    11  C    0.038131  -0.056613  -0.001903   0.000084  -0.000335   0.007816
    12  C    0.371450  -0.014758   0.018772  -0.000602   0.007755  -0.085801
    13  C    4.764095   0.429478  -0.050819  -0.034725  -0.002370   0.434697
    14  C    0.429478   4.891199   0.414138  -0.002674  -0.039072  -0.026705
    15  C   -0.050819   0.414138   5.169177   0.522319  -0.019695  -0.074332
    16  C   -0.034725  -0.002674   0.522319   4.883516   0.493863  -0.023070
    17  C   -0.002370  -0.039072  -0.019695   0.493863   4.903407   0.520898
    18  C    0.434697  -0.026705  -0.074332  -0.023070   0.520898   5.109430
    19  H   -0.000000  -0.000025   0.000041   0.000001  -0.000000   0.000000
    20  H   -0.000001  -0.000054   0.000071   0.000000  -0.000000   0.000000
    21  H    0.000001   0.000183  -0.000368  -0.000009   0.000000  -0.000000
    22  H    0.000007   0.000193  -0.000001  -0.000000   0.000000   0.000000
    23  H   -0.000001   0.000002  -0.000000  -0.000000   0.000000   0.000000
    24  H    0.000004  -0.000001  -0.000000   0.000000  -0.000000  -0.000000
    25  H    0.000326   0.000014  -0.000000  -0.000000   0.000000  -0.000003
    26  H   -0.041724   0.004191  -0.000204   0.000016   0.000193  -0.007519
    27  H    0.004842  -0.038646   0.349182  -0.043002   0.004944   0.000636
    28  H    0.000955   0.002590  -0.036051   0.359752  -0.042222   0.004372
    29  H    0.002468   0.001166   0.004372  -0.041869   0.356191  -0.035136
    30  H   -0.041814   0.004435   0.000531   0.004796  -0.045648   0.357019
             19         20         21         22         23         24
     1  C    0.359298   0.346739   0.366333   0.000051  -0.000000   0.000000
     2  C   -0.022735  -0.021889  -0.022681   0.000652  -0.000000  -0.000000
     3  O    0.001895   0.002893  -0.001028  -0.000076  -0.000000   0.000000
     4  O    0.003211   0.005610  -0.000042   0.008254  -0.000002   0.000000
     5  C   -0.000044   0.000180  -0.000306  -0.011200  -0.000156   0.000016
     6  C    0.000011   0.000030  -0.000015  -0.037522   0.002527   0.001114
     7  C    0.000000  -0.000002   0.000002   0.355654  -0.035908   0.004113
     8  C   -0.000000   0.000000   0.000000  -0.044763   0.360082  -0.041779
     9  C    0.000000   0.000000  -0.000000   0.004732  -0.042720   0.356435
    10  C    0.000000  -0.000000  -0.000000   0.000548   0.004407  -0.034983
    11  C   -0.000000  -0.000000  -0.000000   0.004904   0.000964   0.002531
    12  C   -0.000000   0.000000  -0.000000  -0.000195   0.000009  -0.000213
    13  C   -0.000000  -0.000001   0.000001   0.000007  -0.000001   0.000004
    14  C   -0.000025  -0.000054   0.000183   0.000193   0.000002  -0.000001
    15  C    0.000041   0.000071  -0.000368  -0.000001  -0.000000  -0.000000
    16  C    0.000001   0.000000  -0.000009  -0.000000  -0.000000   0.000000
    17  C   -0.000000  -0.000000   0.000000   0.000000   0.000000  -0.000000
    18  C    0.000000   0.000000  -0.000000   0.000000   0.000000  -0.000000
    19  H    0.520751  -0.026652  -0.020730  -0.000010  -0.000000   0.000000
    20  H   -0.026652   0.536969  -0.022447   0.000107  -0.000000  -0.000000
    21  H   -0.020730  -0.022447   0.507980   0.000000   0.000000  -0.000000
    22  H   -0.000010   0.000107   0.000000   0.587275  -0.005210  -0.000192
    23  H   -0.000000  -0.000000   0.000000  -0.005210   0.587398  -0.005057
    24  H    0.000000  -0.000000  -0.000000  -0.000192  -0.005057   0.591132
    25  H   -0.000000  -0.000000   0.000000   0.000018  -0.000202  -0.005254
    26  H   -0.000000   0.000000   0.000000   0.000002   0.000000  -0.000015
    27  H   -0.000002  -0.000067   0.002410   0.000000   0.000000  -0.000000
    28  H    0.000000  -0.000000  -0.000003  -0.000000  -0.000000   0.000000
    29  H   -0.000000  -0.000000  -0.000000  -0.000000   0.000000  -0.000000
    30  H    0.000000  -0.000000  -0.000000  -0.000000  -0.000000  -0.000000
             25         26         27         28         29         30
     1  C    0.000000   0.000000   0.001132  -0.000001   0.000000   0.000000
     2  C    0.000000   0.000000   0.002199  -0.000001  -0.000000   0.000000
     3  O    0.000000   0.000000  -0.001766  -0.000001   0.000000   0.000000
     4  O    0.000000   0.000002   0.004407   0.000000   0.000000   0.000000
     5  C   -0.000163   0.000672  -0.011846  -0.000144   0.000016  -0.000163
     6  C    0.004399   0.004167   0.000047   0.000002  -0.000001   0.000008
     7  C    0.000520  -0.000211   0.000001  -0.000000  -0.000000  -0.000000
     8  C    0.004732   0.000018  -0.000000  -0.000000   0.000000   0.000000
     9  C   -0.045341   0.000203  -0.000000   0.000000  -0.000000   0.000000
    10  C    0.357053  -0.007461   0.000000   0.000000  -0.000000  -0.000001
    11  C   -0.041933  -0.041428   0.000008  -0.000001   0.000004   0.000343
    12  C   -0.008671   0.350914  -0.000187   0.000009  -0.000210  -0.008720
    13  C    0.000326  -0.041724   0.004842   0.000955   0.002468  -0.041814
    14  C    0.000014   0.004191  -0.038646   0.002590   0.001166   0.004435
    15  C   -0.000000  -0.000204   0.349182  -0.036051   0.004372   0.000531
    16  C   -0.000000   0.000016  -0.043002   0.359752  -0.041869   0.004796
    17  C    0.000000   0.000193   0.004944  -0.042222   0.356191  -0.045648
    18  C   -0.000003  -0.007519   0.000636   0.004372  -0.035136   0.357019
    19  H   -0.000000  -0.000000  -0.000002   0.000000  -0.000000   0.000000
    20  H   -0.000000   0.000000  -0.000067  -0.000000  -0.000000  -0.000000
    21  H    0.000000   0.000000   0.002410  -0.000003  -0.000000  -0.000000
    22  H    0.000018   0.000002   0.000000  -0.000000  -0.000000  -0.000000
    23  H   -0.000202   0.000000   0.000000  -0.000000   0.000000  -0.000000
    24  H   -0.005254  -0.000015  -0.000000   0.000000  -0.000000  -0.000000
    25  H    0.594727   0.006583   0.000000  -0.000000  -0.000000   0.000001
    26  H    0.006583   0.594661   0.000003   0.000000  -0.000015   0.006549
    27  H    0.000000   0.000003   0.603712  -0.005561  -0.000215   0.000019
    28  H   -0.000000   0.000000  -0.005561   0.587690  -0.005044  -0.000202
    29  H   -0.000000  -0.000015  -0.000215  -0.005044   0.591229  -0.005305
    30  H    0.000001   0.006549   0.000019  -0.000202  -0.005305   0.595105
 Mulliken atomic charges:
              1
     1  C   -0.528764
     2  C    0.591268
     3  O   -0.436348
     4  O   -0.532116
     5  C    0.157160
     6  C    0.154116
     7  C   -0.202901
     8  C   -0.128401
     9  C   -0.136166
    10  C   -0.199209
    11  C    0.137064
    12  C   -0.280494
    13  C    0.135792
    14  C    0.187922
    15  C   -0.206051
    16  C   -0.125448
    17  C   -0.137056
    18  C   -0.197970
    19  H    0.184989
    20  H    0.178512
    21  H    0.190720
    22  H    0.136772
    23  H    0.133865
    24  H    0.132149
    25  H    0.133193
    26  H    0.130403
    27  H    0.127749
    28  H    0.133859
    29  H    0.132347
    30  H    0.133046
 Sum of Mulliken atomic charges =  -0.00000
 Mulliken charges with hydrogens summed into heavy atoms:
              1
     1  C    0.025457
     2  C    0.591268
     3  O   -0.436348
     4  O   -0.532116
     5  C    0.157160
     6  C    0.154116
     7  C   -0.066129
     8  C    0.005463
     9  C   -0.004017
    10  C   -0.066017
    11  C    0.137064
    12  C   -0.150092
    13  C    0.135792
    14  C    0.187922
    15  C   -0.078301
    16  C    0.008411
    17  C   -0.004709
    18  C   -0.064924
 Sum of Mulliken charges with hydrogens summed into heavy atoms =  -0.00000
 Electronic spatial extent (au):  <R**2>=           4304.6601
 Charge=             -0.0000 electrons
 Dipole moment (field-independent basis, Debye):
    X=             -0.0175    Y=             -0.2209    Z=             -1.6174  Tot=              1.6325
 Quadrupole moment (field-independent basis, Debye-Ang):
   XX=            -87.3926   YY=            -87.2313   ZZ=           -111.5545
   XY=              0.8731   XZ=             -3.7690   YZ=             -5.7276
 Traceless Quadrupole moment (field-independent basis, Debye-Ang):
   XX=              8.0002   YY=              8.1615   ZZ=            -16.1617
   XY=              0.8731   XZ=             -3.7690   YZ=             -5.7276
 Octapole moment (field-independent basis, Debye-Ang**2):
  XXX=              2.2660  YYY=             26.8630  ZZZ=             -2.3007  XYY=             11.8673
  XXY=              4.4317  XXZ=             -4.9926  XZZ=              0.1034  YZZ=              2.9372
  YYZ=             -2.2815  XYZ=             -5.3292
 Hexadecapole moment (field-independent basis, Debye-Ang**3):
 XXXX=          -2903.8351 YYYY=          -2096.0562 ZZZZ=           -242.2309 XXXY=             -8.9010
 XXXZ=            -20.5277 YYYX=             41.2989 YYYZ=            -29.9048 ZZZX=             -1.0112
 ZZZY=             -6.8698 XXYY=           -837.7500 XXZZ=           -636.5423 YYZZ=           -464.1361
 XXYZ=            -21.3363 YYXZ=             -8.2620 ZZXY=              3.1686
 N-N= 1.218412393913D+03 E-N=-4.219816147143D+03  KE= 7.602035803451D+02
 No NMR shielding tensors so no spin-rotation constants.
 Leave Link  601 at Wed Sep 29 16:36:12 2021, MaxMem= 1342177280 cpu:       1.7
 (Enter /sw/target/amd/app/gaussian/Gaussian09RevA.02_gcc-4.9.2/g09/l701.exe)
 Compute integral first derivatives.
 ... and contract with generalized density number  0.
 Leave Link  701 at Wed Sep 29 16:36:15 2021, MaxMem= 1342177280 cpu:       1.7
 (Enter /sw/target/amd/app/gaussian/Gaussian09RevA.02_gcc-4.9.2/g09/l702.exe)
 L702 exits ... SP integral derivatives will be done elsewhere.
 Leave Link  702 at Wed Sep 29 16:36:16 2021, MaxMem= 1342177280 cpu:       0.0
 (Enter /sw/target/amd/app/gaussian/Gaussian09RevA.02_gcc-4.9.2/g09/l703.exe)
 Compute integral first derivatives, UseDBF=F ICtDFT=           0.
 Integral derivatives from FoFDir, PRISM(SPDF).
 Calling FoFJK, ICntrl=      2127 FMM=F ISym2X=0 I1Cent= 0 IOpClX= 0 NMat=1 NMatS=1 NMatT=0.
 FoFCou: FMM=F IPFlag=           0 FMFlag=      100000 FMFlg1=         800
         NFxFlg=           0 DoJE=F BraDBF=F KetDBF=F FulRan=T
         Omega=  0.000000  0.000000  1.000000  0.000000  0.000000 ICntrl=    2127 IOpCl=  0
         NMat0=    1 NMatS0=    1 NMatT0=    0 NMatD0=    1 NMtDS0=    0 NMtDT0=    0
         I1Cent=           0 NGrid=           0.
 Symmetry not used in FoFCou.
 Leave Link  703 at Wed Sep 29 16:38:59 2021, MaxMem= 1342177280 cpu:     160.1
 (Enter /sw/target/amd/app/gaussian/Gaussian09RevA.02_gcc-4.9.2/g09/l716.exe)
 Dipole        =-6.87286588D-03-8.69157741D-02-6.36324355D-01
 ***** Axes restored to original set *****
 -------------------------------------------------------------------
 Center     Atomic                   Forces (Hartrees/Bohr)
 Number     Number              X              Y              Z
 -------------------------------------------------------------------
      1        6          -0.006246180    0.009319084   -0.008470536
      2        6           0.000002887   -0.022022897   -0.005418702
      3        8           0.002261935    0.030962171    0.015440219
      4        8           0.010606463   -0.018497642   -0.011707011
      5        6          -0.000746665    0.004083070    0.003953283
      6        6          -0.022389616   -0.007673228    0.012167944
      7        6          -0.004827565    0.018875918   -0.018171112
      8        6          -0.029380168   -0.010746085    0.015637264
      9        6           0.029854203   -0.014120367    0.007684065
     10        6           0.001806401    0.025959380   -0.024273106
     11        6           0.023031124   -0.016638358    0.010876585
     12        6           0.001374654   -0.000664082    0.000991152
     13        6           0.022631386    0.011591315   -0.016853845
     14        6          -0.023449434    0.012275997   -0.006294892
     15        6          -0.005835237   -0.016149872    0.015491441
     16        6          -0.028426168    0.015646601   -0.008339326
     17        6           0.030568905    0.006816648   -0.014278385
     18        6           0.001665214   -0.025921386    0.024852265
     19        1           0.000911163   -0.003815685    0.001822068
     20        1           0.000546923   -0.000452730    0.003805919
     21        1          -0.000798882   -0.000148290    0.000752168
     22        1           0.001263204   -0.001726293    0.002285006
     23        1          -0.001929301   -0.000235664    0.000537330
     24        1           0.000040645   -0.000612529    0.000441650
     25        1          -0.001363196   -0.002578777    0.002134447
     26        1          -0.002059558    0.000142508   -0.000033904
     27        1           0.000790401    0.002377156   -0.002037734
     28        1          -0.000879340    0.001456264   -0.000396115
     29        1           0.001173742    0.000073791   -0.000215491
     30        1          -0.000197940    0.002423983   -0.002382646
 -------------------------------------------------------------------
 Cartesian Forces:  Max     0.030962171 RMS     0.012659310
 Leave Link  716 at Wed Sep 29 16:38:59 2021, MaxMem= 1342177280 cpu:       0.1
 (Enter /sw/target/amd/app/gaussian/Gaussian09RevA.02_gcc-4.9.2/g09/l103.exe)

 GradGradGradGradGradGradGradGradGradGradGradGradGradGradGradGradGradGrad
 Berny optimization.
 Internal  Forces:  Max     0.032777042 RMS     0.006986984
 Search for a local minimum.
 Step number   1 out of a maximum of  168
 All quantities printed in internal units (Hartrees-Bohrs-Radians)
 RMS Force = .69870D-02 SwitMx=.10000D-02 MixMth= 1
 Mixed Optimization -- RFO/linear search
 Second derivative matrix not updated -- first step.
     Eigenvalues ---    0.00709   0.01032   0.01476   0.01801   0.01816
     Eigenvalues ---    0.01843   0.01891   0.01913   0.01932   0.01963
     Eigenvalues ---    0.01981   0.02014   0.02020   0.02023   0.02046
     Eigenvalues ---    0.02063   0.02078   0.02102   0.02109   0.02164
     Eigenvalues ---    0.02174   0.02195   0.02200   0.02203   0.02223
     Eigenvalues ---    0.07386   0.07479   0.15998   0.15999   0.15999
     Eigenvalues ---    0.16000   0.16000   0.16000   0.16000   0.16000
     Eigenvalues ---    0.16000   0.16000   0.16000   0.16000   0.21998
     Eigenvalues ---    0.22000   0.22514   0.22598   0.23566   0.24464
     Eigenvalues ---    0.24540   0.24844   0.24924   0.24967   0.24997
     Eigenvalues ---    0.25000   0.25000   0.31929   0.34384   0.34434
     Eigenvalues ---    0.34502   0.34789   0.34982   0.35103   0.35138
     Eigenvalues ---    0.35147   0.35147   0.35283   0.35297   0.35322
     Eigenvalues ---    0.37365   0.39627   0.40583   0.40839   0.41051
     Eigenvalues ---    0.42260   0.43016   0.43698   0.43964   0.44122
     Eigenvalues ---    0.44858   0.45496   0.45733   0.45743   0.46046
     Eigenvalues ---    0.46923   0.47211   0.47241   0.942101000.00000
     Eigenvalues --- 1000.000001000.000001000.000001000.000001000.00000
     Eigenvalues --- 1000.000001000.000001000.000001000.000001000.00000
     Eigenvalues --- 1000.000001000.000001000.000001000.000001000.00000
     Eigenvalues --- 1000.000001000.000001000.000001000.000001000.00000
     Eigenvalues --- 1000.000001000.000001000.000001000.000001000.00000
     Eigenvalues --- 1000.000001000.000001000.000001000.000001000.00000
     Eigenvalues --- 1000.000001000.000001000.000001000.000001000.00000
     Eigenvalues --- 1000.000001000.000001000.000001000.000001000.00000
     Eigenvalues --- 1000.000001000.000001000.000001000.000001000.00000
     Eigenvalues --- 1000.000001000.000001000.000001000.000001000.00000
     Eigenvalues --- 1000.000001000.000001000.000001000.000001000.00000
     Eigenvalues --- 1000.000001000.000001000.000001000.000001000.00000
     Eigenvalues --- 1000.000001000.000001000.000001000.000001000.00000
     Eigenvalues --- 1000.000001000.000001000.000001000.000001000.00000
     Eigenvalues --- 1000.000001000.000001000.00000
 RFO step:  Lambda=-1.98979606D-02 EMin= 7.08913670D-03
 Linear search not attempted -- first point.
 Maximum step size (   0.300) exceeded in Quadratic search.
    -- Step size scaled by   0.865
 Iteration  1 RMS(Cart)=  0.10370619 RMS(Int)=  0.00344375
 Iteration  2 RMS(Cart)=  0.00657171 RMS(Int)=  0.00047260
 Iteration  3 RMS(Cart)=  0.00002107 RMS(Int)=  0.00047244
 Iteration  4 RMS(Cart)=  0.00000002 RMS(Int)=  0.00047244
 Variable       Old X    -DE/DX   Delta X   Delta X   Delta X     New X
                                 (Linear)    (Quad)   (Total)
    R1        2.84274   0.00470   0.00000   0.01198   0.01198   2.85472
    R2        2.06492  -0.00037   0.00000  -0.00087  -0.00087   2.06405
[...]
    15    C    1  dz2    Ryd( 3d)     0.00030

    16    C    2  S      Cor( 1S)     1.99945
    17    C    2  S      Val( 2S)     0.79208
    18    C    2  S      Ryd( 3S)     0.00396
    19    C    2  S      Ryd( 4S)     0.00041
    20    C    2  px     Val( 2p)     0.76723
    21    C    2  px     Ryd( 3p)     0.00232
    22    C    2  py     Val( 2p)     0.86534
    23    C    2  py     Ryd( 3p)     0.00482
    24    C    2  pz     Val( 2p)     0.71007
    25    C    2  pz     Ryd( 3p)     0.02283
    26    C    2  dxy    Ryd( 3d)     0.00098
    27    C    2  dxz    Ryd( 3d)     0.00241
    28    C    2  dyz    Ryd( 3d)     0.00380
    29    C    2  dx2y2  Ryd( 3d)     0.00073
    30    C    2  dz2    Ryd( 3d)     0.00182

    31    O    3  S      Cor( 1S)     1.99977
    32    O    3  S      Val( 2S)     1.69737
    33    O    3  S      Ryd( 3S)     0.00056
    34    O    3  S      Ryd( 4S)     0.00010
    35    O    3  px     Val( 2p)     1.41341
    36    O    3  px     Ryd( 3p)     0.00052
    37    O    3  py     Val( 2p)     1.81857
    38    O    3  py     Ryd( 3p)     0.00156
    39    O    3  pz     Val( 2p)     1.61058
    40    O    3  pz     Ryd( 3p)     0.00050
    41    O    3  dxy    Ryd( 3d)     0.00039
    42    O    3  dxz    Ryd( 3d)     0.00483
    43    O    3  dyz    Ryd( 3d)     0.00509
    44    O    3  dx2y2  Ryd( 3d)     0.00031
    45    O    3  dz2    Ryd( 3d)     0.00639

    46    O    4  S      Cor( 1S)     1.99971
    47    O    4  S      Val( 2S)     1.60598
    48    O    4  S      Ryd( 3S)     0.00139
    49    O    4  S      Ryd( 4S)     0.00013
    50    O    4  px     Val( 2p)     1.81630
    51    O    4  px     Ryd( 3p)     0.00202
    52    O    4  py     Val( 2p)     1.42366
    53    O    4  py     Ryd( 3p)     0.00106
    54    O    4  pz     Val( 2p)     1.69809
    55    O    4  pz     Ryd( 3p)     0.00122
    56    O    4  dxy    Ryd( 3d)     0.00020
    57    O    4  dxz    Ryd( 3d)     0.00163
    58    O    4  dyz    Ryd( 3d)     0.00149
    59    O    4  dx2y2  Ryd( 3d)     0.00063
    60    O    4  dz2    Ryd( 3d)     0.00147

    61    C    5  S      Cor( 1S)     1.99860
    62    C    5  S      Val( 2S)     0.81585
    63    C    5  S      Ryd( 3S)     0.00142
    64    C    5  S      Ryd( 4S)     0.00016
    65    C    5  px     Val( 2p)     1.06547
    66    C    5  px     Ryd( 3p)     0.00339
    67    C    5  py     Val( 2p)     0.74493
    68    C    5  py     Ryd( 3p)     0.00755
    69    C    5  pz     Val( 2p)     0.99794
    70    C    5  pz     Ryd( 3p)     0.00574
    71    C    5  dxy    Ryd( 3d)     0.00145
    72    C    5  dxz    Ryd( 3d)     0.00078
    73    C    5  dyz    Ryd( 3d)     0.00118
    74    C    5  dx2y2  Ryd( 3d)     0.00162
    75    C    5  dz2    Ryd( 3d)     0.00052

    76    C    6  S      Cor( 1S)     1.99894
    77    C    6  S      Val( 2S)     0.87085
    78    C    6  S      Ryd( 3S)     0.00066
    79    C    6  S      Ryd( 4S)     0.00007
    80    C    6  px     Val( 2p)     1.10064
    81    C    6  px     Ryd( 3p)     0.00456
    82    C    6  py     Val( 2p)     1.08145
    83    C    6  py     Ryd( 3p)     0.00540
    84    C    6  pz     Val( 2p)     1.01282
    85    C    6  pz     Ryd( 3p)     0.00093
    86    C    6  dxy    Ryd( 3d)     0.00068
    87    C    6  dxz    Ryd( 3d)     0.00098
    88    C    6  dyz    Ryd( 3d)     0.00047
    89    C    6  dx2y2  Ryd( 3d)     0.00068
    90    C    6  dz2    Ryd( 3d)     0.00037

    91    C    7  S      Cor( 1S)     1.99906
    92    C    7  S      Val( 2S)     0.94853
    93    C    7  S      Ryd( 3S)     0.00071
    94    C    7  S      Ryd( 4S)     0.00005
    95    C    7  px     Val( 2p)     1.04924
    96    C    7  px     Ryd( 3p)     0.00429
    97    C    7  py     Val( 2p)     1.18822
    98    C    7  py     Ryd( 3p)     0.00461
    99    C    7  pz     Val( 2p)     1.01114
   100    C    7  pz     Ryd( 3p)     0.00262
   101    C    7  dxy    Ryd( 3d)     0.00063
   102    C    7  dxz    Ryd( 3d)     0.00061
   103    C    7  dyz    Ryd( 3d)     0.00037
   104    C    7  dx2y2  Ryd( 3d)     0.00082
   105    C    7  dz2    Ryd( 3d)     0.00039

   106    C    8  S      Cor( 1S)     1.99910
   107    C    8  S      Val( 2S)     0.96307
   108    C    8  S      Ryd( 3S)     0.00063
   109    C    8  S      Ryd( 4S)     0.00003
   110    C    8  px     Val( 2p)     1.16687
   111    C    8  px     Ryd( 3p)     0.00502
   112    C    8  py     Val( 2p)     1.08338
   113    C    8  py     Ryd( 3p)     0.00457
   114    C    8  pz     Val( 2p)     0.99989
   115    C    8  pz     Ryd( 3p)     0.00168
   116    C    8  dxy    Ryd( 3d)     0.00082
   117    C    8  dxz    Ryd( 3d)     0.00050
   118    C    8  dyz    Ryd( 3d)     0.00051
   119    C    8  dx2y2  Ryd( 3d)     0.00067
   120    C    8  dz2    Ryd( 3d)     0.00045

   121    C    9  S      Cor( 1S)     1.99910
   122    C    9  S      Val( 2S)     0.96364
   123    C    9  S      Ryd( 3S)     0.00060
   124    C    9  S      Ryd( 4S)     0.00003
   125    C    9  px     Val( 2p)     1.16728
   126    C    9  px     Ryd( 3p)     0.00499
   127    C    9  py     Val( 2p)     1.08535
   128    C    9  py     Ryd( 3p)     0.00459
   129    C    9  pz     Val( 2p)     0.99763
   130    C    9  pz     Ryd( 3p)     0.00156
   131    C    9  dxy    Ryd( 3d)     0.00083
   132    C    9  dxz    Ryd( 3d)     0.00050
   133    C    9  dyz    Ryd( 3d)     0.00051
   134    C    9  dx2y2  Ryd( 3d)     0.00066
   135    C    9  dz2    Ryd( 3d)     0.00045

   136    C   10  S      Cor( 1S)     1.99906
   137    C   10  S      Val( 2S)     0.95068
   138    C   10  S      Ryd( 3S)     0.00069
   139    C   10  S      Ryd( 4S)     0.00004
   140    C   10  px     Val( 2p)     1.05133
   141    C   10  px     Ryd( 3p)     0.00410
   142    C   10  py     Val( 2p)     1.18452
   143    C   10  py     Ryd( 3p)     0.00463
   144    C   10  pz     Val( 2p)     1.01017
   145    C   10  pz     Ryd( 3p)     0.00227
   146    C   10  dxy    Ryd( 3d)     0.00063
   147    C   10  dxz    Ryd( 3d)     0.00061
   148    C   10  dyz    Ryd( 3d)     0.00035
   149    C   10  dx2y2  Ryd( 3d)     0.00084
   150    C   10  dz2    Ryd( 3d)     0.00040

   151    C   11  S      Cor( 1S)     1.99903
   152    C   11  S      Val( 2S)     0.86836
   153    C   11  S      Ryd( 3S)     0.00053
   154    C   11  S      Ryd( 4S)     0.00007
   155    C   11  px     Val( 2p)     1.09868
   156    C   11  px     Ryd( 3p)     0.00499
   157    C   11  py     Val( 2p)     1.06884
   158    C   11  py     Ryd( 3p)     0.00541
   159    C   11  pz     Val( 2p)     1.00096
   160    C   11  pz     Ryd( 3p)     0.00075
   161    C   11  dxy    Ryd( 3d)     0.00068
   162    C   11  dxz    Ryd( 3d)     0.00096
   163    C   11  dyz    Ryd( 3d)     0.00048
   164    C   11  dx2y2  Ryd( 3d)     0.00073
   165    C   11  dz2    Ryd( 3d)     0.00036

   166    C   12  S      Cor( 1S)     1.99901
   167    C   12  S      Val( 2S)     0.93644
   168    C   12  S      Ryd( 3S)     0.00059
   169    C   12  S      Ryd( 4S)     0.00005
   170    C   12  px     Val( 2p)     1.04461
   171    C   12  px     Ryd( 3p)     0.00323
   172    C   12  py     Val( 2p)     1.18401
   173    C   12  py     Ryd( 3p)     0.00449
   174    C   12  pz     Val( 2p)     0.99369
   175    C   12  pz     Ryd( 3p)     0.00239
   176    C   12  dxy    Ryd( 3d)     0.00065
   177    C   12  dxz    Ryd( 3d)     0.00062
   178    C   12  dyz    Ryd( 3d)     0.00036
   179    C   12  dx2y2  Ryd( 3d)     0.00084
   180    C   12  dz2    Ryd( 3d)     0.00040

   181    C   13  S      Cor( 1S)     1.99903
   182    C   13  S      Val( 2S)     0.86836
   183    C   13  S      Ryd( 3S)     0.00053
   184    C   13  S      Ryd( 4S)     0.00007
   185    C   13  px     Val( 2p)     1.09868
   186    C   13  px     Ryd( 3p)     0.00499
   187    C   13  py     Val( 2p)     1.06884
   188    C   13  py     Ryd( 3p)     0.00541
   189    C   13  pz     Val( 2p)     1.00096
   190    C   13  pz     Ryd( 3p)     0.00075
   191    C   13  dxy    Ryd( 3d)     0.00068
   192    C   13  dxz    Ryd( 3d)     0.00096
   193    C   13  dyz    Ryd( 3d)     0.00048
   194    C   13  dx2y2  Ryd( 3d)     0.00073
   195    C   13  dz2    Ryd( 3d)     0.00036

   196    C   14  S      Cor( 1S)     1.99894
   197    C   14  S      Val( 2S)     0.87084
   198    C   14  S      Ryd( 3S)     0.00066
   199    C   14  S      Ryd( 4S)     0.00007
   200    C   14  px     Val( 2p)     1.10064
   201    C   14  px     Ryd( 3p)     0.00456
   202    C   14  py     Val( 2p)     1.08145
   203    C   14  py     Ryd( 3p)     0.00540
   204    C   14  pz     Val( 2p)     1.01282
   205    C   14  pz     Ryd( 3p)     0.00093
   206    C   14  dxy    Ryd( 3d)     0.00068
   207    C   14  dxz    Ryd( 3d)     0.00098
   208    C   14  dyz    Ryd( 3d)     0.00047
   209    C   14  dx2y2  Ryd( 3d)     0.00068
   210    C   14  dz2    Ryd( 3d)     0.00037

   211    C   15  S      Cor( 1S)     1.99906
   212    C   15  S      Val( 2S)     0.94853
   213    C   15  S      Ryd( 3S)     0.00071
   214    C   15  S      Ryd( 4S)     0.00005
   215    C   15  px     Val( 2p)     1.04924
   216    C   15  px     Ryd( 3p)     0.00429
   217    C   15  py     Val( 2p)     1.18823
   218    C   15  py     Ryd( 3p)     0.00461
   219    C   15  pz     Val( 2p)     1.01114
   220    C   15  pz     Ryd( 3p)     0.00262
   221    C   15  dxy    Ryd( 3d)     0.00063
   222    C   15  dxz    Ryd( 3d)     0.00061
   223    C   15  dyz    Ryd( 3d)     0.00037
   224    C   15  dx2y2  Ryd( 3d)     0.00082
   225    C   15  dz2    Ryd( 3d)     0.00039

   226    C   16  S      Cor( 1S)     1.99910
   227    C   16  S      Val( 2S)     0.96307
   228    C   16  S      Ryd( 3S)     0.00063
   229    C   16  S      Ryd( 4S)     0.00003
   230    C   16  px     Val( 2p)     1.16688
   231    C   16  px     Ryd( 3p)     0.00502
   232    C   16  py     Val( 2p)     1.08338
   233    C   16  py     Ryd( 3p)     0.00457
   234    C   16  pz     Val( 2p)     0.99989
   235    C   16  pz     Ryd( 3p)     0.00168
   236    C   16  dxy    Ryd( 3d)     0.00082
   237    C   16  dxz    Ryd( 3d)     0.00050
   238    C   16  dyz    Ryd( 3d)     0.00051
   239    C   16  dx2y2  Ryd( 3d)     0.00067
   240    C   16  dz2    Ryd( 3d)     0.00045

   241    C   17  S      Cor( 1S)     1.99910
   242    C   17  S      Val( 2S)     0.96364
   243    C   17  S      Ryd( 3S)     0.00060
   244    C   17  S      Ryd( 4S)     0.00003
   245    C   17  px     Val( 2p)     1.16727
   246    C   17  px     Ryd( 3p)     0.00499
   247    C   17  py     Val( 2p)     1.08536
   248    C   17  py     Ryd( 3p)     0.00459
   249    C   17  pz     Val( 2p)     0.99763
   250    C   17  pz     Ryd( 3p)     0.00156
   251    C   17  dxy    Ryd( 3d)     0.00083
   252    C   17  dxz    Ryd( 3d)     0.00050
   253    C   17  dyz    Ryd( 3d)     0.00051
   254    C   17  dx2y2  Ryd( 3d)     0.00066
   255    C   17  dz2    Ryd( 3d)     0.00045

   256    C   18  S      Cor( 1S)     1.99906
   257    C   18  S      Val( 2S)     0.95068
   258    C   18  S      Ryd( 3S)     0.00069
   259    C   18  S      Ryd( 4S)     0.00004
   260    C   18  px     Val( 2p)     1.05133
   261    C   18  px     Ryd( 3p)     0.00410
   262    C   18  py     Val( 2p)     1.18451
   263    C   18  py     Ryd( 3p)     0.00463
   264    C   18  pz     Val( 2p)     1.01017
   265    C   18  pz     Ryd( 3p)     0.00227
   266    C   18  dxy    Ryd( 3d)     0.00063
   267    C   18  dxz    Ryd( 3d)     0.00061
   268    C   18  dyz    Ryd( 3d)     0.00035
   269    C   18  dx2y2  Ryd( 3d)     0.00084
   270    C   18  dz2    Ryd( 3d)     0.00040

   271    H   19  S      Val( 1S)     0.73932
   272    H   19  S      Ryd( 2S)     0.00091

   273    H   20  S      Val( 1S)     0.74019
   274    H   20  S      Ryd( 2S)     0.00087

   275    H   21  S      Val( 1S)     0.74019
   276    H   21  S      Ryd( 2S)     0.00087

   277    H   22  S      Val( 1S)     0.76162
   278    H   22  S      Ryd( 2S)     0.00127

   279    H   23  S      Val( 1S)     0.76224
   280    H   23  S      Ryd( 2S)     0.00080

   281    H   24  S      Val( 1S)     0.76187
   282    H   24  S      Ryd( 2S)     0.00081

   283    H   25  S      Val( 1S)     0.76526
   284    H   25  S      Ryd( 2S)     0.00110

   285    H   26  S      Val( 1S)     0.76517
   286    H   26  S      Ryd( 2S)     0.00132

   287    H   27  S      Val( 1S)     0.76163
   288    H   27  S      Ryd( 2S)     0.00127

   289    H   28  S      Val( 1S)     0.76225
   290    H   28  S      Ryd( 2S)     0.00080

   291    H   29  S      Val( 1S)     0.76187
   292    H   29  S      Ryd( 2S)     0.00081

   293    H   30  S      Val( 1S)     0.76526
   294    H   30  S      Ryd( 2S)     0.00110

 WARNING:  1 low occupancy (<1.9990e) core orbital  found on  C    5
           1 low occupancy (<1.9990e) core orbital  found on  C    6
           1 low occupancy (<1.9990e) core orbital  found on  C   14


 Summary of Natural Population Analysis:                  
                                                          
                                       Natural Population 
                Natural  -----------------------------------------------
    Atom  No    Charge         Core      Valence    Rydberg      Total
 -----------------------------------------------------------------------
      C    1   -0.77628      1.99932     4.77020    0.00676     6.77628
      C    2    0.82174      1.99945     3.13472    0.04410     5.17826
      O    3   -0.55997      1.99977     6.53993    0.02026     8.55997
      O    4   -0.55499      1.99971     6.54404    0.01124     8.55499
      C    5    0.35336      1.99860     3.62419    0.02384     5.64664
      C    6   -0.07948      1.99894     4.06576    0.01479     6.07948
      C    7   -0.21130      1.99906     4.19714    0.01510     6.21130
      C    8   -0.22720      1.99910     4.21322    0.01488     6.22720
      C    9   -0.22773      1.99910     4.21390    0.01474     6.22773
      C   10   -0.21032      1.99906     4.19669    0.01458     6.21032
      C   11   -0.05081      1.99903     4.03684    0.01495     6.05081
      C   12   -0.17137      1.99901     4.15875    0.01362     6.17137
      C   13   -0.05081      1.99903     4.03683    0.01495     6.05081
      C   14   -0.07948      1.99894     4.06576    0.01479     6.07948
      C   15   -0.21130      1.99906     4.19714    0.01510     6.21130
      C   16   -0.22720      1.99910     4.21322    0.01488     6.22720
      C   17   -0.22773      1.99910     4.21390    0.01474     6.22773
      C   18   -0.21032      1.99906     4.19669    0.01458     6.21032
      H   19    0.25977      0.00000     0.73932    0.00091     0.74023
      H   20    0.25894      0.00000     0.74019    0.00087     0.74106
      H   21    0.25895      0.00000     0.74019    0.00087     0.74105
      H   22    0.23710      0.00000     0.76162    0.00127     0.76290
      H   23    0.23695      0.00000     0.76224    0.00080     0.76305
      H   24    0.23732      0.00000     0.76187    0.00081     0.76268
      H   25    0.23365      0.00000     0.76526    0.00110     0.76635
      H   26    0.23350      0.00000     0.76517    0.00132     0.76650
      H   27    0.23710      0.00000     0.76163    0.00127     0.76290
      H   28    0.23695      0.00000     0.76225    0.00080     0.76305
      H   29    0.23732      0.00000     0.76187    0.00081     0.76268
      H   30    0.23365      0.00000     0.76526    0.00110     0.76635
 =======================================================================
   * Total *   -0.00000     35.98444    87.70577    0.30978   124.00000

                                 Natural Population      
 --------------------------------------------------------
   Core                      35.98444 ( 99.9568% of  36)
   Valence                   87.70577 ( 99.6657% of  88)
   Natural Minimal Basis    123.69022 ( 99.7502% of 124)
   Natural Rydberg Basis      0.30978 (  0.2498% of 124)
 --------------------------------------------------------

    Atom  No          Natural Electron Configuration
 ----------------------------------------------------------------------------
      C    1      [core]2S( 1.14)2p( 3.63)
      C    2      [core]2S( 0.79)2p( 2.34)3p( 0.03)3d( 0.01)
      O    3      [core]2S( 1.70)2p( 4.84)3d( 0.02)
      O    4      [core]2S( 1.61)2p( 4.94)3d( 0.01)
      C    5      [core]2S( 0.82)2p( 2.81)3p( 0.02)3d( 0.01)
      C    6      [core]2S( 0.87)2p( 3.19)3p( 0.01)
      C    7      [core]2S( 0.95)2p( 3.25)3p( 0.01)
      C    8      [core]2S( 0.96)2p( 3.25)3p( 0.01)
      C    9      [core]2S( 0.96)2p( 3.25)3p( 0.01)
      C   10      [core]2S( 0.95)2p( 3.25)3p( 0.01)
      C   11      [core]2S( 0.87)2p( 3.17)3p( 0.01)
      C   12      [core]2S( 0.94)2p( 3.22)3p( 0.01)
      C   13      [core]2S( 0.87)2p( 3.17)3p( 0.01)
      C   14      [core]2S( 0.87)2p( 3.19)3p( 0.01)
      C   15      [core]2S( 0.95)2p( 3.25)3p( 0.01)
      C   16      [core]2S( 0.96)2p( 3.25)3p( 0.01)
      C   17      [core]2S( 0.96)2p( 3.25)3p( 0.01)
      C   18      [core]2S( 0.95)2p( 3.25)3p( 0.01)
      H   19            1S( 0.74)
      H   20            1S( 0.74)
      H   21            1S( 0.74)
      H   22            1S( 0.76)
      H   23            1S( 0.76)
      H   24            1S( 0.76)
      H   25            1S( 0.77)
      H   26            1S( 0.77)
      H   27            1S( 0.76)
      H   28            1S( 0.76)
      H   29            1S( 0.76)
      H   30            1S( 0.77)


 NBO analysis skipped by request.
 Leave Link  607 at Thu Sep 30 03:33:19 2021, MaxMem= 1342177280 cpu:      21.1
 (Enter /sw/target/amd/app/gaussian/Gaussian09RevA.02_gcc-4.9.2/g09/l9999.exe)
 1\1\GINC-HERMITE\SP\RTD-B3LYP-FC\6-31G(d)\C16H12O2\JSCHLEINITZ\30-Sep-
 2021\0\\#p TD(NStates=10, Root=1) b3lyp/6-31G* volume pop=NPA density=
 current Geom=AllCheck Guess=Read\\CC(=O)Oc1c2ccccc2cc2c1cccc2_conf_0\\
 0,1\C,0,1.1044237561,-0.1288025079,1.4224282581\C,0,2.5127680315,-0.46
 86592314,0.9990987525\O,0,2.8349553488,-1.2692935999,0.1607622518\O,0,
 3.4090339608,0.2856014696,1.7252427106\C,0,4.7754686244,0.1106769759,1
 .4733440212\C,0,5.391077799,0.9342387116,0.5203146099\C,0,4.6784149208
 ,1.9126339966,-0.2389678049\C,0,5.3268015253,2.6897778817,-1.162216904
 2\C,0,6.726533004,2.5394238425,-1.3844005448\C,0,7.4438895955,1.617462
 0989,-0.6700538906\C,0,6.8119954609,0.7860205693,0.3065517447\C,0,7.52
 680235,-0.1587001479,1.051134819\C,0,6.9023709136,-0.9626209645,2.0111
 744708\C,0,5.4821598096,-0.8279985278,2.2381916104\C,0,4.8624096781,-1
 .6472742909,3.2313289963\C,0,5.5977958263,-2.5533639688,3.9489468048\C
 ,0,6.9971919362,-2.6974628138,3.720667044\C,0,7.6269313106,-1.92414687
 4,2.7824045291\H,0,0.398772309,-0.7272658636,0.8456962627\H,0,0.908790
 5845,0.9365818491,1.2622997634\H,0,0.9739148681,-0.3250383688,2.491736
 9065\H,0,3.6154617915,2.0383047955,-0.0644227366\H,0,4.7725363705,3.43
 06133722,-1.7319231306\H,0,7.221016155,3.1639514666,-2.1232906374\H,0,
 8.5126223728,1.5002961691,-0.8322854919\H,0,8.5957116747,-0.2683602632
 ,0.8819787957\H,0,3.8000093138,-1.5323228973,3.4163181146\H,0,5.113641
 4023,-3.1692766778,4.701846929\H,0,7.5615128896,-3.4239703196,4.298798
 4172\H,0,8.6949092127,-2.0267239108,2.6059470372\\Version=AM64L-G09Rev
 A.02\State=1-A\HF=-767.4042158\RMSD=5.942e-09\Dipole=-0.1201574,0.4156
 875,0.4328143\Quadrupole=7.9896072,-3.9692062,-4.020401,-3.2852191,-3.
 5785778,-8.0618454\PG=C01 [X(C16H12O2)]\\@


  THE LARGE PRINT GIVETH,
  AND THE SMALL PRINT TAKETH AWAY.

                     -- TOM WAITES
 Job cpu time:  0 days  4 hours 43 minutes 38.6 seconds.
 File lengths (MBytes):  RWF=    276 Int=      0 D2E=      0 Chk=     39 Scr=      1
 Normal termination of Gaussian 09 at Thu Sep 30 03:33:23 2021.
