 Entering Gaussian System, Link 0=g09
 Input=C16H18O3_ed73_conf_0.com
 Output=C16H18O3_ed73_conf_0.log
 Initial command:
 /sw/target/amd/app/gaussian/Gaussian09RevA.02_gcc-4.9.2/g09/l1.exe /home/jschleinitz/gaussian/Gau-843576.inp -scrdir=/home/jschleinitz/gaussian/
 Entering Link 1 = /sw/target/amd/app/gaussian/Gaussian09RevA.02_gcc-4.9.2/g09/l1.exe PID=    843582.
  
 Copyright (c) 1988,1990,1992,1993,1995,1998,2003,2009, Gaussian, Inc.
                  All Rights Reserved.
  
 This is part of the Gaussian(R) 09 program.  It is based on
 the Gaussian(R) 03 system (copyright 2003, Gaussian, Inc.),
 the Gaussian(R) 98 system (copyright 1998, Gaussian, Inc.),
 the Gaussian(R) 94 system (copyright 1995, Gaussian, Inc.),
 the Gaussian 92(TM) system (copyright 1992, Gaussian, Inc.),
 the Gaussian 90(TM) system (copyright 1990, Gaussian, Inc.),
 the Gaussian 88(TM) system (copyright 1988, Gaussian, Inc.),
 the Gaussian 86(TM) system (copyright 1986, Carnegie Mellon
 University), and the Gaussian 82(TM) system (copyright 1983,
 Carnegie Mellon University). Gaussian is a federally registered
 trademark of Gaussian, Inc.
  
 This software contains proprietary and confidential information,
 including trade secrets, belonging to Gaussian, Inc.
  
 This software is provided under written license and may be
 used, copied, transmitted, or stored only in accord with that
 written license.
  
 The following legend is applicable only to US Government
 contracts under FAR:
  
                    RESTRICTED RIGHTS LEGEND
  
 Use, reproduction and disclosure by the US Government is
 subject to restrictions as set forth in subparagraphs (a)
 and (c) of the Commercial Computer Software - Restricted
 Rights clause in FAR 52.227-19.
  
 Gaussian, Inc.
 340 Quinnipiac St., Bldg. 40, Wallingford CT 06492
  
  
 ---------------------------------------------------------------
 Warning -- This program may not be used in any manner that
 competes with the business of Gaussian, Inc. or will provide
 assistance to any competitor of Gaussian, Inc.  The licensee
 of this program is prohibited from giving any competitor of
 Gaussian, Inc. access to this program.  By using this program,
 the user acknowledges that Gaussian, Inc. is engaged in the
 business of creating and licensing software in the field of
 computational chemistry and represents and warrants to the
 licensee that it is not a competitor of Gaussian, Inc. and that
 it will not use this program in any manner prohibited above.
 ---------------------------------------------------------------
  

 Cite this work as:
 Gaussian 09, Revision A.02,
 M. J. Frisch, G. W. Trucks, H. B. Schlegel, G. E. Scuseria, 
 M. A. Robb, J. R. Cheeseman, G. Scalmani, V. Barone, B. Mennucci, 
 G. A. Petersson, H. Nakatsuji, M. Caricato, X. Li, H. P. Hratchian, 
 A. F. Izmaylov, J. Bloino, G. Zheng, J. L. Sonnenberg, M. Hada, 
 M. Ehara, K. Toyota, R. Fukuda, J. Hasegawa, M. Ishida, T. Nakajima, 
 Y. Honda, O. Kitao, H. Nakai, T. Vreven, J. A. Montgomery, Jr., 
 J. E. Peralta, F. Ogliaro, M. Bearpark, J. J. Heyd, E. Brothers, 
 K. N. Kudin, V. N. Staroverov, R. Kobayashi, J. Normand, 
 K. Raghavachari, A. Rendell, J. C. Burant, S. S. Iyengar, J. Tomasi, 
 M. Cossi, N. Rega, J. M. Millam, M. Klene, J. E. Knox, J. B. Cross, 
 V. Bakken, C. Adamo, J. Jaramillo, R. Gomperts, R. E. Stratmann, 
 O. Yazyev, A. J. Austin, R. Cammi, C. Pomelli, J. W. Ochterski, 
 R. L. Martin, K. Morokuma, V. G. Zakrzewski, G. A. Voth, 
 P. Salvador, J. J. Dannenberg, S. Dapprich, A. D. Daniels, 
 O. Farkas, J. B. Foresman, J. V. Ortiz, J. Cioslowski, 
 and D. J. Fox, Gaussian, Inc., Wallingford CT, 2009.
 
 ******************************************
 Gaussian 09:  AM64L-G09RevA.02 11-Jun-2009
                29-Sep-2021 
 ******************************************
 %nproc=6
 Will use up to    6 processors via shared memory.
 %mem=12gb
 %chk=C16H18O3_ed73_conf_0.chk
 -----------------------------------
 #p opt b3lyp/6-31G* scf=(xqc,tight)
 -----------------------------------
 1/14=-1,18=20,19=15,26=3,38=1/1,3;
 2/9=110,12=2,17=6,18=5,40=1/2;
 3/5=1,6=6,7=1,11=2,16=1,25=1,30=1,71=1,74=-5/1,2,3;
 4//1;
 5/5=2,8=3,13=1,32=2,38=5/2,8;
 6/7=2,8=2,9=2,10=2,28=1/1;
 7//1,2,3,16;
 1/14=-1,18=20,19=15/3(2);
 2/9=110/2;
 99//99;
 2/9=110/2;
 3/5=1,6=6,7=1,11=2,16=1,25=1,30=1,71=1,74=-5/1,2,3;
 4/5=5,16=3/1;
 5/5=2,8=3,13=1,32=2,38=5/2,8;
 7//1,2,3,16;
 1/14=-1,18=20,19=15/3(-5);
 2/9=110/2;
 6/7=2,8=2,9=2,10=2,19=2,28=1/1;
 99/9=1/99;
 Leave Link    1 at Wed Sep 29 03:19:14 2021, MaxMem= 1610612736 cpu:       0.1
 (Enter /sw/target/amd/app/gaussian/Gaussian09RevA.02_gcc-4.9.2/g09/l101.exe)
 ---------------------------------------
 COc1ccc(c2c1cccc2)OC(=O)C(C)(C)C_conf_0
 ---------------------------------------
 Symbolic Z-matrix:
 Charge =  0 Multiplicity = 1
 C                     2.34574   0.78375   0.20206 
 O                     3.57443   0.55111   0.88535 
 C                     4.26601  -0.58271   0.52404 
 C                     3.81805  -1.45735  -0.46754 
 C                     4.5452   -2.59205  -0.79314 
 C                     5.74285  -2.86069  -0.13828 
 C                     6.22398  -2.01637   0.88804 
 C                     5.47686  -0.85203   1.22043 
 C                     5.96739  -0.00706   2.24026 
 C                     7.1472   -0.29479   2.93042 
 C                     7.86654  -1.43784   2.61303 
 C                     7.41399  -2.28651   1.60334 
 O                     6.47643  -4.04266  -0.42381 
 C                     6.4457   -4.65852  -1.68175 
 O                     5.87288  -4.223    -2.67896 
 C                     7.22167  -5.97233  -1.64962 
 C                     6.59859  -6.91463  -0.61285 
 C                     7.12977  -6.62381  -3.0402 
 C                     8.69456  -5.70965  -1.3156 
 H                     1.93989   1.74054   0.54228 
 H                     1.61448   0.00377   0.44184 
 H                     2.50084   0.86086  -0.87989 
 H                     2.89638  -1.29466  -1.01422 
 H                     4.14276  -3.24653  -1.55865 
 H                     5.41707   0.89384   2.51042 
 H                     7.49434   0.37375   3.71338 
 H                     8.78205  -1.67169   3.15142 
 H                     7.99922  -3.17546   1.37713 
 H                     5.53349  -7.07497  -0.815 
 H                     6.67873  -6.50764   0.40139 
 H                     7.09578  -7.89119  -0.61753 
 H                     6.08641  -6.81501  -3.3191 
 H                     7.66632  -7.57799  -3.07319 
 H                     7.55632  -5.97082  -3.81093 
 H                     8.81505  -5.31195  -0.30155 
 H                     9.13454  -4.98117  -2.00621 
 H                     9.2825   -6.63268  -1.3794 
 
 NAtoms=     37 NQM=     37 NQMF=      0 NMic=      0 NMicF=      0 NTot=     37.
                    Isotopes and Nuclear Properties:
 (Nuclear quadrupole moments (NQMom) in fm**2, nuclear magnetic moments (NMagM)
  in nuclear magnetons)

  Atom         1           2           3           4           5           6           7           8           9          10
 IAtWgt=          12          16          12          12          12          12          12          12          12          12
 AtmWgt=  12.0000000  15.9949146  12.0000000  12.0000000  12.0000000  12.0000000  12.0000000  12.0000000  12.0000000  12.0000000
 NucSpn=           0           0           0           0           0           0           0           0           0           0
 AtZEff=   0.0000000   0.0000000   0.0000000   0.0000000   0.0000000   0.0000000   0.0000000   0.0000000   0.0000000   0.0000000
 NQMom=    0.0000000   0.0000000   0.0000000   0.0000000   0.0000000   0.0000000   0.0000000   0.0000000   0.0000000   0.0000000
 NMagM=    0.0000000   0.0000000   0.0000000   0.0000000   0.0000000   0.0000000   0.0000000   0.0000000   0.0000000   0.0000000

  Atom        11          12          13          14          15          16          17          18          19          20
 IAtWgt=          12          12          16          12          16          12          12          12          12           1
 AtmWgt=  12.0000000  12.0000000  15.9949146  12.0000000  15.9949146  12.0000000  12.0000000  12.0000000  12.0000000   1.0078250
 NucSpn=           0           0           0           0           0           0           0           0           0           1
 AtZEff=   0.0000000   0.0000000   0.0000000   0.0000000   0.0000000   0.0000000   0.0000000   0.0000000   0.0000000   0.0000000
 NQMom=    0.0000000   0.0000000   0.0000000   0.0000000   0.0000000   0.0000000   0.0000000   0.0000000   0.0000000   0.0000000
 NMagM=    0.0000000   0.0000000   0.0000000   0.0000000   0.0000000   0.0000000   0.0000000   0.0000000   0.0000000   2.7928460

  Atom        21          22          23          24          25          26          27          28          29          30
 IAtWgt=           1           1           1           1           1           1           1           1           1           1
 AtmWgt=   1.0078250   1.0078250   1.0078250   1.0078250   1.0078250   1.0078250   1.0078250   1.0078250   1.0078250   1.0078250
 NucSpn=           1           1           1           1           1           1           1           1           1           1
 AtZEff=   0.0000000   0.0000000   0.0000000   0.0000000   0.0000000   0.0000000   0.0000000   0.0000000   0.0000000   0.0000000
 NQMom=    0.0000000   0.0000000   0.0000000   0.0000000   0.0000000   0.0000000   0.0000000   0.0000000   0.0000000   0.0000000
 NMagM=    2.7928460   2.7928460   2.7928460   2.7928460   2.7928460   2.7928460   2.7928460   2.7928460   2.7928460   2.7928460

  Atom        31          32          33          34          35          36          37
 IAtWgt=           1           1           1           1           1           1           1
 AtmWgt=   1.0078250   1.0078250   1.0078250   1.0078250   1.0078250   1.0078250   1.0078250
 NucSpn=           1           1           1           1           1           1           1
 AtZEff=   0.0000000   0.0000000   0.0000000   0.0000000   0.0000000   0.0000000   0.0000000
 NQMom=    0.0000000   0.0000000   0.0000000   0.0000000   0.0000000   0.0000000   0.0000000
 NMagM=    2.7928460   2.7928460   2.7928460   2.7928460   2.7928460   2.7928460   2.7928460
 Leave Link  101 at Wed Sep 29 03:19:15 2021, MaxMem= 1610612736 cpu:       0.2
 (Enter /sw/target/amd/app/gaussian/Gaussian09RevA.02_gcc-4.9.2/g09/l103.exe)

 GradGradGradGradGradGradGradGradGradGradGradGradGradGradGradGradGradGrad
 Berny optimization.
 Initialization pass.
                           ----------------------------
                           !    Initial Parameters    !
                           ! (Angstroms and Degrees)  !
 --------------------------                            --------------------------
 ! Name  Definition              Value          Derivative Info.                !
 --------------------------------------------------------------------------------
 ! R1    R(1,2)                  1.425          estimate D2E/DX2                !
 ! R2    R(1,20)                 1.0936         estimate D2E/DX2                !
 ! R3    R(1,21)                 1.0957         estimate D2E/DX2                !
 ! R4    R(1,22)                 1.0957         estimate D2E/DX2                !
 ! R5    R(2,3)                  1.3764         estimate D2E/DX2                !
 ! R6    R(3,4)                  1.396          estimate D2E/DX2                !
 ! R7    R(3,8)                  1.4225         estimate D2E/DX2                !
 ! R8    R(4,5)                  1.3865         estimate D2E/DX2                !
 ! R9    R(4,23)                 1.0839         estimate D2E/DX2                !
 ! R10   R(5,6)                  1.3912         estimate D2E/DX2                !
 ! R11   R(5,24)                 1.0846         estimate D2E/DX2                !
 ! R12   R(6,7)                  1.4134         estimate D2E/DX2                !
 ! R13   R(6,13)                 1.4201         estimate D2E/DX2                !
 ! R14   R(7,8)                  1.4228         estimate D2E/DX2                !
 ! R15   R(7,12)                 1.4145         estimate D2E/DX2                !
 ! R16   R(8,9)                  1.4123         estimate D2E/DX2                !
 ! R17   R(9,10)                 1.3968         estimate D2E/DX2                !
 ! R18   R(9,25)                 1.0897         estimate D2E/DX2                !
 ! R19   R(10,11)                1.3874         estimate D2E/DX2                !
 ! R20   R(10,26)                1.0865         estimate D2E/DX2                !
 ! R21   R(11,12)                1.3945         estimate D2E/DX2                !
 ! R22   R(11,27)                1.0875         estimate D2E/DX2                !
 ! R23   R(12,28)                1.0881         estimate D2E/DX2                !
 ! R24   R(13,14)                1.4009         estimate D2E/DX2                !
 ! R25   R(14,15)                1.2297         estimate D2E/DX2                !
 ! R26   R(14,16)                1.5262         estimate D2E/DX2                !
 ! R27   R(16,17)                1.5333         estimate D2E/DX2                !
 ! R28   R(16,18)                1.5384         estimate D2E/DX2                !
 ! R29   R(16,19)                1.533          estimate D2E/DX2                !
 ! R30   R(17,29)                1.0959         estimate D2E/DX2                !
 ! R31   R(17,30)                1.0958         estimate D2E/DX2                !
 ! R32   R(17,31)                1.0959         estimate D2E/DX2                !
 ! R33   R(18,32)                1.0968         estimate D2E/DX2                !
 ! R34   R(18,33)                1.0952         estimate D2E/DX2                !
 ! R35   R(18,34)                1.0965         estimate D2E/DX2                !
 ! R36   R(19,35)                1.0959         estimate D2E/DX2                !
 ! R37   R(19,36)                1.096          estimate D2E/DX2                !
 ! R38   R(19,37)                1.0962         estimate D2E/DX2                !
 ! A1    A(2,1,20)             108.2791         estimate D2E/DX2                !
 ! A2    A(2,1,21)             110.7501         estimate D2E/DX2                !
 ! A3    A(2,1,22)             111.2788         estimate D2E/DX2                !
 ! A4    A(20,1,21)            107.881          estimate D2E/DX2                !
 ! A5    A(20,1,22)            107.3471         estimate D2E/DX2                !
 ! A6    A(21,1,22)            111.1399         estimate D2E/DX2                !
 ! A7    A(1,2,3)              116.222          estimate D2E/DX2                !
 ! A8    A(2,3,4)              122.7749         estimate D2E/DX2                !
 ! A9    A(2,3,8)              117.0739         estimate D2E/DX2                !
 ! A10   A(4,3,8)              120.1476         estimate D2E/DX2                !
 ! A11   A(3,4,5)              120.748          estimate D2E/DX2                !
 ! A12   A(3,4,23)             122.4842         estimate D2E/DX2                !
 ! A13   A(5,4,23)             116.7671         estimate D2E/DX2                !
 ! A14   A(4,5,6)              119.9332         estimate D2E/DX2                !
 ! A15   A(4,5,24)             117.711          estimate D2E/DX2                !
 ! A16   A(6,5,24)             122.3548         estimate D2E/DX2                !
 ! A17   A(5,6,7)              121.2992         estimate D2E/DX2                !
 ! A18   A(5,6,13)             120.7156         estimate D2E/DX2                !
 ! A19   A(7,6,13)             117.8628         estimate D2E/DX2                !
 ! A20   A(6,7,8)              118.6687         estimate D2E/DX2                !
 ! A21   A(6,7,12)             122.6496         estimate D2E/DX2                !
 ! A22   A(8,7,12)             118.6806         estimate D2E/DX2                !
 ! A23   A(3,8,7)              119.1782         estimate D2E/DX2                !
 ! A24   A(3,8,9)              122.4026         estimate D2E/DX2                !
 ! A25   A(7,8,9)              118.4186         estimate D2E/DX2                !
 ! A26   A(8,9,10)             121.7973         estimate D2E/DX2                !
 ! A27   A(8,9,25)             119.8836         estimate D2E/DX2                !
 ! A28   A(10,9,25)            118.318          estimate D2E/DX2                !
 ! A29   A(9,10,11)            119.6455         estimate D2E/DX2                !
 ! A30   A(9,10,26)            119.9457         estimate D2E/DX2                !
 ! A31   A(11,10,26)           120.4084         estimate D2E/DX2                !
 ! A32   A(10,11,12)           119.9208         estimate D2E/DX2                !
 ! A33   A(10,11,27)           120.0264         estimate D2E/DX2                !
 ! A34   A(12,11,27)           120.0528         estimate D2E/DX2                !
 ! A35   A(7,12,11)            121.5314         estimate D2E/DX2                !
 ! A36   A(7,12,28)            120.2256         estimate D2E/DX2                !
 ! A37   A(11,12,28)           118.2422         estimate D2E/DX2                !
 ! A38   A(6,13,14)            122.3504         estimate D2E/DX2                !
 ! A39   A(13,14,15)           125.6386         estimate D2E/DX2                !
 ! A40   A(13,14,16)           110.3878         estimate D2E/DX2                !
 ! A41   A(15,14,16)           123.9718         estimate D2E/DX2                !
 ! A42   A(14,16,17)           109.6739         estimate D2E/DX2                !
 ! A43   A(14,16,18)           108.3703         estimate D2E/DX2                !
 ! A44   A(14,16,19)           110.2177         estimate D2E/DX2                !
 ! A45   A(17,16,18)           109.067          estimate D2E/DX2                !
 ! A46   A(17,16,19)           110.3898         estimate D2E/DX2                !
 ! A47   A(18,16,19)           109.0819         estimate D2E/DX2                !
 ! A48   A(16,17,29)           111.1079         estimate D2E/DX2                !
 ! A49   A(16,17,30)           111.5848         estimate D2E/DX2                !
 ! A50   A(16,17,31)           111.1248         estimate D2E/DX2                !
 ! A51   A(29,17,30)           107.2261         estimate D2E/DX2                !
 ! A52   A(29,17,31)           108.0457         estimate D2E/DX2                !
 ! A53   A(30,17,31)           107.5634         estimate D2E/DX2                !
 ! A54   A(16,18,32)           111.1316         estimate D2E/DX2                !
 ! A55   A(16,18,33)           111.5261         estimate D2E/DX2                !
 ! A56   A(16,18,34)           111.0954         estimate D2E/DX2                !
 ! A57   A(32,18,33)           107.8495         estimate D2E/DX2                !
 ! A58   A(32,18,34)           107.165          estimate D2E/DX2                !
 ! A59   A(33,18,34)           107.8841         estimate D2E/DX2                !
 ! A60   A(16,19,35)           111.6809         estimate D2E/DX2                !
 ! A61   A(16,19,36)           111.2417         estimate D2E/DX2                !
 ! A62   A(16,19,37)           110.9987         estimate D2E/DX2                !
 ! A63   A(35,19,36)           107.3204         estimate D2E/DX2                !
 ! A64   A(35,19,37)           107.4846         estimate D2E/DX2                !
 ! A65   A(36,19,37)           107.92           estimate D2E/DX2                !
 ! D1    D(20,1,2,3)          -176.576          estimate D2E/DX2                !
 ! D2    D(21,1,2,3)            65.3292         estimate D2E/DX2                !
 ! D3    D(22,1,2,3)           -58.8257         estimate D2E/DX2                !
 ! D4    D(1,2,3,4)              0.9864         estimate D2E/DX2                !
 ! D5    D(1,2,3,8)           -178.3265         estimate D2E/DX2                !
 ! D6    D(2,3,4,5)           -179.6505         estimate D2E/DX2                !
 ! D7    D(2,3,4,23)             0.0497         estimate D2E/DX2                !
 ! D8    D(8,3,4,5)             -0.358          estimate D2E/DX2                !
 ! D9    D(8,3,4,23)           179.3423         estimate D2E/DX2                !
 ! D10   D(2,3,8,7)            179.653          estimate D2E/DX2                !
 ! D11   D(2,3,8,9)             -0.0413         estimate D2E/DX2                !
 ! D12   D(4,3,8,7)              0.321          estimate D2E/DX2                !
 ! D13   D(4,3,8,9)           -179.3733         estimate D2E/DX2                !
 ! D14   D(3,4,5,6)             -0.6922         estimate D2E/DX2                !
 ! D15   D(3,4,5,24)           178.9383         estimate D2E/DX2                !
 ! D16   D(23,4,5,6)           179.591          estimate D2E/DX2                !
 ! D17   D(23,4,5,24)           -0.7785         estimate D2E/DX2                !
 ! D18   D(4,5,6,7)              1.7984         estimate D2E/DX2                !
 ! D19   D(4,5,6,13)           177.6911         estimate D2E/DX2                !
 ! D20   D(24,5,6,7)          -177.8143         estimate D2E/DX2                !
 ! D21   D(24,5,6,13)           -1.9216         estimate D2E/DX2                !
 ! D22   D(5,6,7,8)             -1.8075         estimate D2E/DX2                !
 ! D23   D(5,6,7,12)           177.8055         estimate D2E/DX2                !
 ! D24   D(13,6,7,8)          -177.8135         estimate D2E/DX2                !
 ! D25   D(13,6,7,12)            1.7994         estimate D2E/DX2                !
 ! D26   D(5,6,13,14)           29.8404         estimate D2E/DX2                !
 ! D27   D(7,6,13,14)         -154.1292         estimate D2E/DX2                !
 ! D28   D(6,7,8,3)              0.7357         estimate D2E/DX2                !
 ! D29   D(6,7,8,9)           -179.5578         estimate D2E/DX2                !
 ! D30   D(12,7,8,3)          -178.8928         estimate D2E/DX2                !
 ! D31   D(12,7,8,9)             0.8137         estimate D2E/DX2                !
 ! D32   D(6,7,12,11)         -179.928          estimate D2E/DX2                !
 ! D33   D(6,7,12,28)           -0.2673         estimate D2E/DX2                !
 ! D34   D(8,7,12,11)           -0.3152         estimate D2E/DX2                !
 ! D35   D(8,7,12,28)          179.3455         estimate D2E/DX2                !
 ! D36   D(3,8,9,10)           178.9745         estimate D2E/DX2                !
 ! D37   D(3,8,9,25)            -0.6312         estimate D2E/DX2                !
 ! D38   D(7,8,9,10)            -0.722          estimate D2E/DX2                !
 ! D39   D(7,8,9,25)           179.6723         estimate D2E/DX2                !
 ! D40   D(8,9,10,11)            0.0971         estimate D2E/DX2                !
 ! D41   D(8,9,10,26)         -179.685          estimate D2E/DX2                !
 ! D42   D(25,9,10,11)         179.7087         estimate D2E/DX2                !
 ! D43   D(25,9,10,26)          -0.0734         estimate D2E/DX2                !
 ! D44   D(9,10,11,12)           0.4281         estimate D2E/DX2                !
 ! D45   D(9,10,11,27)        -179.5504         estimate D2E/DX2                !
 ! D46   D(26,10,11,12)       -179.7908         estimate D2E/DX2                !
 ! D47   D(26,10,11,27)          0.2306         estimate D2E/DX2                !
 ! D48   D(10,11,12,7)          -0.3172         estimate D2E/DX2                !
 ! D49   D(10,11,12,28)       -179.9844         estimate D2E/DX2                !
 ! D50   D(27,11,12,7)         179.6614         estimate D2E/DX2                !
 ! D51   D(27,11,12,28)         -0.0058         estimate D2E/DX2                !
 ! D52   D(6,13,14,15)           4.8315         estimate D2E/DX2                !
 ! D53   D(6,13,14,16)        -174.6948         estimate D2E/DX2                !
 ! D54   D(13,14,16,17)         59.6964         estimate D2E/DX2                !
 ! D55   D(13,14,16,18)        178.6621         estimate D2E/DX2                !
 ! D56   D(13,14,16,19)        -62.0373         estimate D2E/DX2                !
 ! D57   D(15,14,16,17)       -119.8394         estimate D2E/DX2                !
 ! D58   D(15,14,16,18)         -0.8738         estimate D2E/DX2                !
 ! D59   D(15,14,16,19)        118.4268         estimate D2E/DX2                !
 ! D60   D(14,16,17,29)         55.835          estimate D2E/DX2                !
 ! D61   D(14,16,17,30)        -63.7755         estimate D2E/DX2                !
 ! D62   D(14,16,17,31)        176.1747         estimate D2E/DX2                !
 ! D63   D(18,16,17,29)        -62.7004         estimate D2E/DX2                !
 ! D64   D(18,16,17,30)        177.6891         estimate D2E/DX2                !
 ! D65   D(18,16,17,31)         57.6393         estimate D2E/DX2                !
 ! D66   D(19,16,17,29)        177.4656         estimate D2E/DX2                !
 ! D67   D(19,16,17,30)         57.855          estimate D2E/DX2                !
 ! D68   D(19,16,17,31)        -62.1947         estimate D2E/DX2                !
 ! D69   D(14,16,18,32)        -59.2525         estimate D2E/DX2                !
 ! D70   D(14,16,18,33)       -179.6308         estimate D2E/DX2                !
 ! D71   D(14,16,18,34)         59.9719         estimate D2E/DX2                !
 ! D72   D(17,16,18,32)         60.0956         estimate D2E/DX2                !
 ! D73   D(17,16,18,33)        -60.2826         estimate D2E/DX2                !
 ! D74   D(17,16,18,34)        179.32           estimate D2E/DX2                !
 ! D75   D(19,16,18,32)       -179.2654         estimate D2E/DX2                !
 ! D76   D(19,16,18,33)         60.3564         estimate D2E/DX2                !
 ! D77   D(19,16,18,34)        -60.041          estimate D2E/DX2                !
 ! D78   D(14,16,19,35)         65.2773         estimate D2E/DX2                !
 ! D79   D(14,16,19,36)        -54.6084         estimate D2E/DX2                !
 ! D80   D(14,16,19,37)       -174.7939         estimate D2E/DX2                !
 ! D81   D(17,16,19,35)        -56.0308         estimate D2E/DX2                !
 ! D82   D(17,16,19,36)       -175.9165         estimate D2E/DX2                !
 ! D83   D(17,16,19,37)         63.898          estimate D2E/DX2                !
 ! D84   D(18,16,19,35)       -175.8558         estimate D2E/DX2                !
 ! D85   D(18,16,19,36)         64.2585         estimate D2E/DX2                !
 ! D86   D(18,16,19,37)        -55.9271         estimate D2E/DX2                !
 --------------------------------------------------------------------------------
 Trust Radius=3.00D-01 FncErr=1.00D-07 GrdErr=1.00D-06
 Number of steps in this run= 199 maximum allowed number of steps= 222.
 GradGradGradGradGradGradGradGradGradGradGradGradGradGradGradGradGradGrad

 Leave Link  103 at Wed Sep 29 03:19:15 2021, MaxMem= 1610612736 cpu:       0.0
 (Enter /sw/target/amd/app/gaussian/Gaussian09RevA.02_gcc-4.9.2/g09/l202.exe)
                          Input orientation:                          
 ---------------------------------------------------------------------
 Center     Atomic      Atomic             Coordinates (Angstroms)
 Number     Number       Type             X           Y           Z
 ---------------------------------------------------------------------
      1          6           0        2.345738    0.783750    0.202058
      2          8           0        3.574433    0.551113    0.885350
      3          6           0        4.266014   -0.582710    0.524036
      4          6           0        3.818053   -1.457346   -0.467542
      5          6           0        4.545202   -2.592053   -0.793143
      6          6           0        5.742849   -2.860693   -0.138278
      7          6           0        6.223977   -2.016366    0.888039
      8          6           0        5.476858   -0.852027    1.220425
      9          6           0        5.967395   -0.007062    2.240259
     10          6           0        7.147199   -0.294793    2.930419
     11          6           0        7.866542   -1.437843    2.613033
     12          6           0        7.413989   -2.286508    1.603339
     13          8           0        6.476428   -4.042660   -0.423813
     14          6           0        6.445705   -4.658516   -1.681754
     15          8           0        5.872882   -4.222998   -2.678960
     16          6           0        7.221666   -5.972327   -1.649622
     17          6           0        6.598595   -6.914626   -0.612849
     18          6           0        7.129769   -6.623815   -3.040202
     19          6           0        8.694562   -5.709652   -1.315599
     20          1           0        1.939888    1.740544    0.542283
     21          1           0        1.614478    0.003773    0.441841
     22          1           0        2.500838    0.860860   -0.879887
     23          1           0        2.896381   -1.294657   -1.014216
     24          1           0        4.142759   -3.246533   -1.558647
     25          1           0        5.417072    0.893839    2.510424
     26          1           0        7.494338    0.373746    3.713377
     27          1           0        8.782052   -1.671693    3.151418
     28          1           0        7.999218   -3.175459    1.377135
     29          1           0        5.533490   -7.074968   -0.814997
     30          1           0        6.678727   -6.507636    0.401390
     31          1           0        7.095784   -7.891192   -0.617531
     32          1           0        6.086414   -6.815005   -3.319105
     33          1           0        7.666316   -7.577986   -3.073186
     34          1           0        7.556320   -5.970819   -3.810929
     35          1           0        8.815046   -5.311954   -0.301555
     36          1           0        9.134540   -4.981166   -2.006210
     37          1           0        9.282497   -6.632684   -1.379397
 ---------------------------------------------------------------------
                    Distance matrix (angstroms):
                    1          2          3          4          5
     1  C    0.000000
     2  O    1.425026   0.000000
     3  C    2.378727   1.376367   0.000000
     4  C    2.763799   2.433840   1.396024   0.000000
     5  C    4.150195   3.693133   2.418753   1.386478   0.000000
     6  C    4.993812   4.170163   2.794442   2.404711   1.391177
     7  C    4.832386   3.689449   2.453872   2.817548   2.444602
     8  C    3.676513   2.387529   1.422545   2.442801   2.819598
     9  C    4.230371   2.805994   2.484248   3.749024   4.231589
    10  C    5.626831   4.202680   3.764944   4.897028   5.090453
    11  C    6.420868   5.036172   4.249584   5.087296   4.895461
    12  C    6.089108   4.828021   3.738658   4.231644   3.750523
    13  O    6.383459   5.589117   4.213739   3.708466   2.443419
    14  C    7.069423   6.478770   5.121402   4.315826   2.944793
    15  O    6.768200   6.385868   5.108121   4.094083   2.824715
    16  C    8.535102   7.891999   6.519864   5.776413   4.395823
    17  C    8.832659   8.193132   6.842996   6.126535   4.788900
    18  C    9.395277   8.917957   7.576268   6.654205   5.290025
    19  C    9.207340   8.381949   7.020101   6.525461   5.216279
    20  H    1.093582   2.050409   3.287659   3.843663   5.228998
    21  H    1.095720   2.082716   2.716866   2.795995   4.105197
    22  H    1.095723   2.089166   2.677824   2.697993   4.013672
    23  H    2.470286   2.734040   2.179216   1.083881   2.109673
    24  H    4.751057   4.551728   3.383594   2.120644   1.084573
    25  H    3.843665   2.480654   2.729629   4.117428   4.881103
    26  H    6.245441   4.836822   4.637756   5.860721   6.148340
    27  H    7.493601   6.098789   5.337005   6.146878   5.861529
    28  H    7.001284   5.805851   4.624601   4.882303   4.120764
    29  H    8.541406   8.055197   6.748993   5.883972   4.590611
    30  H    8.484034   7.726370   6.398513   5.868895   4.616344
    31  H    9.924176   9.269901   7.919891   7.222215   5.883636
    32  H    9.172368   8.845744   7.544872   6.479305   5.156466
    33  H   10.438123   9.924503   8.569477   7.685099   6.308682
    34  H    9.427536   8.969172   7.658312   6.747170   5.439661
    35  H    8.902987   7.952882   6.613701   6.313121   5.086363
    36  H    9.175976   8.359546   7.032148   6.561237   5.314265
    37  H   10.277311   9.450821   8.086430   7.581276   6.253987
                    6          7          8          9         10
     6  C    0.000000
     7  C    1.413400   0.000000
     8  C    2.439583   1.422797   0.000000
     9  C    3.721703   2.435494   1.412322   0.000000
    10  C    4.239451   2.826211   2.454512   1.396799   0.000000
    11  C    3.755567   2.451185   2.827212   2.406835   1.387355
    12  C    2.481054   1.414482   2.440662   2.773837   2.408162
    13  O    1.420111   2.427047   3.725963   4.862350   5.074181
    14  C    2.471536   3.692419   4.883715   6.103031   6.387982
    15  O    2.885801   4.209035   5.169670   6.479333   6.965617
    16  C    3.762090   4.804658   6.123642   7.231096   7.294978
    17  C    4.170359   5.136727   6.432286   7.500205   7.528473
    18  C    4.950333   6.122101   7.361969   8.544928   8.700870
    19  C    4.267934   4.959856   6.354648   7.252661   7.052921
    20  H    6.008082   5.708532   4.437506   4.707235   6.079628
    21  H    5.058177   5.052478   4.031943   4.709810   6.073974
    22  H    4.991050   5.026505   4.025169   4.744008   6.119039
    23  H    3.364835   3.900299   3.442151   4.656247   5.884669
    24  H    2.174076   3.439630   3.903424   5.315557   6.155578
    25  H    4.606329   3.428195   2.171571   1.089710   2.140696
    26  H    5.325838   3.912669   3.433300   2.155608   1.086495
    27  H    4.633851   3.432992   3.914702   3.394629   2.148823
    28  H    2.736194   2.175820   3.432957   3.861609   3.381843
    29  H    4.273393   5.382059   6.547606   7.712208   7.912204
    30  H    3.803591   4.540389   5.839625   6.793004   6.724201
    31  H    5.231255   6.127020   7.453110   8.461662   8.384263
    32  H    5.086480   6.383254   7.519043   8.790266   9.093678
    33  H    5.879308   6.978773   8.274500   9.404144   9.452918
    34  H    5.142949   6.284357   7.472664   8.643376   8.822155
    35  H    3.933667   4.357715   5.775022   6.535428   6.196715
    36  H    4.414651   5.063408   6.390587   7.266706   7.090975
    37  H    5.319530   5.983829   7.393102   8.245646   7.956311
                   11         12         13         14         15
    11  C    0.000000
    12  C    1.394459   0.000000
    13  O    4.235554   2.841204   0.000000
    14  C    5.553081   4.166034   1.400942   0.000000
    15  O    6.303726   4.946018   2.341469   1.229724   0.000000
    16  C    6.256806   4.919757   2.404496   1.526187   2.436988
    17  C    6.481447   5.195752   2.880772   2.501193   3.469919
    18  C    7.706893   6.360463   3.732922   2.485100   2.733896
    19  C    5.862432   4.677391   2.914492   2.509246   3.468540
    20  H    7.036716   6.878136   7.413432   8.136135   7.836368
    21  H    6.773524   6.342617   6.384476   7.041829   6.763061
    22  H    6.802596   6.341245   6.329126   6.831433   6.360264
    23  H    6.154668   5.314522   4.551574   4.935468   4.495120
    24  H    5.877144   4.649812   2.714347   2.704147   2.280770
    25  H    3.383367   3.863299   5.839607   7.032858   7.302020
    26  H    2.152010   3.396419   6.136540   7.451894   8.038727
    27  H    1.087522   2.155491   4.870284   6.143223   6.997552
    28  H    2.136435   1.088070   2.512835   3.737602   4.697931
    29  H    6.997977   5.684538   3.199538   2.724453   3.423927
    30  H    5.657302   4.450081   2.607296   2.795181   3.918867
    31  H    7.257845   6.037052   3.902861   3.464876   4.381852
    32  H    8.202011   6.819106   4.027496   2.731383   2.678411
    33  H    8.371053   7.066350   4.575318   3.456773   3.824626
    34  H    7.868379   6.550474   4.044319   2.736602   2.677722
    35  H    4.939961   3.839910   2.663680   2.818814   3.936269
    36  H    5.958218   4.821859   3.232698   2.727491   3.415527
    37  H    6.703044   5.592611   3.936418   3.469315   4.372748
                   16         17         18         19         20
    16  C    0.000000
    17  C    1.533311   0.000000
    18  C    1.538374   2.501751   0.000000
    19  C    1.532968   2.517717   2.501704   0.000000
    20  H    9.601562   9.896961  10.475283  10.226571   0.000000
    21  H    8.457455   8.591743   9.298816   9.266035   1.769845
    22  H    8.340932   8.793242   9.061696   9.040116   1.763824
    23  H    6.402532   6.741775   7.101134   7.293964   3.542600
    24  H    4.113137   4.514485   4.745869   5.181210   5.842728
    25  H    8.228412   8.492524   9.500416   8.305810   4.084275
    26  H    8.313166   8.522849   9.731885   7.983662   6.540328
    27  H    6.631760   6.813629   8.098747   6.022209   8.078747
    28  H    4.193842   4.461295   5.670975   3.762506   7.847263
    29  H    2.182282   1.095911   2.775461   3.479521   9.616102
    30  H    2.188147   1.095784   3.472966   2.765578   9.513617
    31  H    2.182453   1.095855   2.734361   2.793297  10.986299
    32  H    2.187711   2.756098   1.096782   3.469622  10.261648
    33  H    2.191436   2.762849   1.095177   2.763525  11.519487
    34  H    2.187063   3.469254   1.096526   2.755081  10.486175
    35  H    2.189118   2.752838   3.472942   1.095886   9.885221
    36  H    2.183722   3.480049   2.790437   1.096000  10.170507
    37  H    2.180852   2.805426   2.718931   1.096233  11.301226
                   21         22         23         24         25
    21  H    0.000000
    22  H    1.807540   0.000000
    23  H    2.334374   2.195622   0.000000
    24  H    4.578061   4.475187   2.379008   0.000000
    25  H    4.419386   4.472105   4.854533   5.943390   0.000000
    26  H    6.738885   6.802234   6.802566   7.220369   2.456140
    27  H    7.843667   7.881554   7.220512   6.796166   4.279710
    28  H    7.193552   7.184581   5.940953   4.847282   4.950859
    29  H    8.188215   8.495796   6.356573   4.140539   8.635616
    30  H    8.249043   8.566865   6.594333   4.572491   7.798822
    31  H    9.669408   9.888416   7.829854   5.583808   9.475175
    32  H    8.979904   8.816182   6.779606   4.428432   9.688019
    33  H   10.318102  10.134439   8.153027   5.785393  10.392671
    34  H    9.438606   8.990036   7.169596   4.913950   9.573892
    35  H    8.980968   8.849143   7.188683   5.260848   7.613496
    36  H    9.348471   8.910885   7.313619   5.303503   8.290672
    37  H   10.303300  10.118973   8.331288   6.157521   9.312399
                   26         27         28         29         30
    26  H    0.000000
    27  H    2.481497   0.000000
    28  H    4.278993   2.454021   0.000000
    29  H    8.935011   7.448555   5.107977   0.000000
    30  H    7.680358   5.947518   3.714725   1.764378   0.000000
    31  H    9.339422   7.465296   5.199329   1.773690   1.768153
    32  H   10.154614   8.694124   6.241777   2.577569   3.779867
    33  H   10.455479   8.653026   6.268845   3.146648   3.767448
    34  H    9.842383   8.274006   5.909839   3.779761   4.336124
    35  H    7.084570   5.017530   2.836933   3.760379   2.547086
    36  H    8.004937   6.138240   3.999570   4.332500   3.762668
    37  H    8.844429   6.737222   4.604094   3.816964   3.156970
                   31         32         33         34         35
    31  H    0.000000
    32  H    3.078231   0.000000
    33  H    2.540442   1.771639   0.000000
    34  H    3.754692   1.764982   1.771821   0.000000
    35  H    3.115793   4.337073   3.759843   3.786053   0.000000
    36  H    3.814866   3.791797   3.168216   2.593685   1.765601
    37  H    2.635525   3.743080   2.524788   3.054521   1.767649
                   36         37
    36  H    0.000000
    37  H    1.772653   0.000000
 Stoichiometry    C16H18O3
 Framework group  C1[X(C16H18O3)]
 Deg. of freedom   105
 Full point group                 C1      NOp   1
 Largest Abelian subgroup         C1      NOp   1
 Largest concise Abelian subgroup C1      NOp   1
                         Standard orientation:                         
 ---------------------------------------------------------------------
 Center     Atomic      Atomic             Coordinates (Angstroms)
 Number     Number       Type             X           Y           Z
 ---------------------------------------------------------------------
      1          6           0       -4.391145   -2.560772    0.078335
      2          8           0       -4.043763   -1.181253   -0.005030
      3          6           0       -2.699050   -0.889652    0.028197
      4          6           0       -1.714062   -1.874961    0.116788
      5          6           0       -0.370901   -1.533178    0.154553
      6          6           0        0.007229   -0.195960    0.089445
      7          6           0       -0.955315    0.836859    0.022408
      8          6           0       -2.333177    0.484296   -0.016924
      9          6           0       -3.290110    1.520190   -0.093450
     10          6           0       -2.917501    2.866187   -0.115885
     11          6           0       -1.573703    3.207181   -0.064084
     12          6           0       -0.604282    2.206922    0.000887
     13          8           0        1.375014    0.176099    0.175761
     14          6           0        2.408334   -0.657691   -0.271101
     15          8           0        2.261985   -1.733320   -0.848876
     16          6           0        3.766454   -0.050499    0.069598
     17          6           0        3.885580    0.128726    1.587732
     18          6           0        4.863471   -1.016481   -0.410014
     19          6           0        3.938284    1.296221   -0.642308
     20          1           0       -5.476712   -2.647737   -0.021176
     21          1           0       -4.108461   -2.974070    1.052952
     22          1           0       -3.941103   -3.134293   -0.739677
     23          1           0       -1.950373   -2.931713    0.164042
     24          1           0        0.351846   -2.337166    0.241377
     25          1           0       -4.351705    1.277026   -0.130260
     26          1           0       -3.679280    3.638992   -0.170073
     27          1           0       -1.276975    4.253394   -0.073796
     28          1           0        0.441365    2.505134    0.040728
     29          1           0        3.720039   -0.819690    2.111299
     30          1           0        3.146841    0.842866    1.968536
     31          1           0        4.878456    0.500647    1.864810
     32          1           0        4.763913   -1.997587    0.070037
     33          1           0        5.863925   -0.632317   -0.184357
     34          1           0        4.801162   -1.178176   -1.492762
     35          1           0        3.221911    2.041153   -0.277820
     36          1           0        3.784169    1.196690   -1.722844
     37          1           0        4.944457    1.700318   -0.480914
 ---------------------------------------------------------------------
 Rotational constants (GHZ):      0.6711753      0.2185692      0.1728127
 Leave Link  202 at Wed Sep 29 03:19:15 2021, MaxMem= 1610612736 cpu:       0.1
 (Enter /sw/target/amd/app/gaussian/Gaussian09RevA.02_gcc-4.9.2/g09/l301.exe)
 Standard basis: 6-31G(d) (6D, 7F)
 Ernie: Thresh=  0.10000D-02 Tol=  0.10000D-05 Strict=F.
 There are   321 symmetry adapted basis functions of A   symmetry.
 Integral buffers will be    131072 words long.
 Raffenetti 2 integral format.
 Two-electron integral symmetry is turned on.
   321 basis functions,   604 primitive gaussians,   321 cartesian basis functions
    69 alpha electrons       69 beta electrons
       nuclear repulsion energy      1403.2670008086 Hartrees.
 IExCor=  402 DFT=T Ex+Corr=B3LYP ExCW=0 ScaHFX=  0.200000
 ScaDFX=  0.800000  0.720000  1.000000  0.810000 ScalE2=  1.000000  1.000000
 IRadAn=      0 IRanWt=     -1 IRanGd=            0 ICorTp=0
 NAtoms=   37 NActive=   37 NUniq=   37 SFac= 7.50D-01 NAtFMM=   80 NAOKFM=F Big=F
 Leave Link  301 at Wed Sep 29 03:19:15 2021, MaxMem= 1610612736 cpu:       0.1
 (Enter /sw/target/amd/app/gaussian/Gaussian09RevA.02_gcc-4.9.2/g09/l302.exe)
 NPDir=0 NMtPBC=     1 NCelOv=     1 NCel=       1 NClECP=     1 NCelD=      1
         NCelK=      1 NCelE2=     1 NClLst=     1 CellRange=     0.0.
 One-electron integrals computed using PRISM.
 NBasis=   321 RedAO= T  NBF=   321
 NBsUse=   321 1.00D-06 NBFU=   321
 Precomputing XC quadrature grid using
 IXCGrd= 2 IRadAn=           0 IRanWt=          -1 IRanGd=           0 AccXCQ= 1.00D-10.
 NRdTot=    2353 NPtTot=      300044 NUsed=      317009 NTot=      317041
 NSgBfM=   317   318   318   318   318 NAtAll=    37    37.
 Leave Link  302 at Wed Sep 29 03:19:20 2021, MaxMem= 1610612736 cpu:       3.9
 (Enter /sw/target/amd/app/gaussian/Gaussian09RevA.02_gcc-4.9.2/g09/l303.exe)
 DipDrv:  MaxL=1.
 Leave Link  303 at Wed Sep 29 03:19:21 2021, MaxMem= 1610612736 cpu:       0.3
 (Enter /sw/target/amd/app/gaussian/Gaussian09RevA.02_gcc-4.9.2/g09/l401.exe)
 Harris functional with IExCor=  402 diagonalized for initial guess.
 ExpMin= 1.61D-01 ExpMax= 5.48D+03 ExpMxC= 8.25D+02 IAcc=1 IRadAn=         1 AccDes= 0.00D+00
 HarFok:  IExCor=  402 AccDes= 0.00D+00 IRadAn=         1 IDoV= 1
 ScaDFX=  1.000000  1.000000  1.000000  1.000000
 FoFCou: FMM=F IPFlag=           0 FMFlag=      100000 FMFlg1=           0
         NFxFlg=           0 DoJE=T BraDBF=F KetDBF=T FulRan=T
         Omega=  0.000000  0.000000  1.000000  0.000000  0.000000 ICntrl=     500 IOpCl=  0
         NMat0=    1 NMatS0=    1 NMatT0=    0 NMatD0=    1 NMtDS0=    0 NMtDT0=    0
         I1Cent=           4 NGrid=           0.
 Petite list used in FoFCou.
 Harris En= -846.340864759326    
 Initial guess orbital symmetries:
       Occupied  (A) (A) (A) (A) (A) (A) (A) (A) (A) (A) (A) (A)
                 (A) (A) (A) (A) (A) (A) (A) (A) (A) (A) (A) (A)
                 (A) (A) (A) (A) (A) (A) (A) (A) (A) (A) (A) (A)
                 (A) (A) (A) (A) (A) (A) (A) (A) (A) (A) (A) (A)
                 (A) (A) (A) (A) (A) (A) (A) (A) (A) (A) (A) (A)
                 (A) (A) (A) (A) (A) (A) (A) (A) (A)
       Virtual   (A) (A) (A) (A) (A) (A) (A) (A) (A) (A) (A) (A)
                 (A) (A) (A) (A) (A) (A) (A) (A) (A) (A) (A) (A)
                 (A) (A) (A) (A) (A) (A) (A) (A) (A) (A) (A) (A)
                 (A) (A) (A) (A) (A) (A) (A) (A) (A) (A) (A) (A)
                 (A) (A) (A) (A) (A) (A) (A) (A) (A) (A) (A) (A)
                 (A) (A) (A) (A) (A) (A) (A) (A) (A) (A) (A) (A)
                 (A) (A) (A) (A) (A) (A) (A) (A) (A) (A) (A) (A)
                 (A) (A) (A) (A) (A) (A) (A) (A) (A) (A) (A) (A)
                 (A) (A) (A) (A) (A) (A) (A) (A) (A) (A) (A) (A)
                 (A) (A) (A) (A) (A) (A) (A) (A) (A) (A) (A) (A)
                 (A) (A) (A) (A) (A) (A) (A) (A) (A) (A) (A) (A)
                 (A) (A) (A) (A) (A) (A) (A) (A) (A) (A) (A) (A)
                 (A) (A) (A) (A) (A) (A) (A) (A) (A) (A) (A) (A)
                 (A) (A) (A) (A) (A) (A) (A) (A) (A) (A) (A) (A)
                 (A) (A) (A) (A) (A) (A) (A) (A) (A) (A) (A) (A)
                 (A) (A) (A) (A) (A) (A) (A) (A) (A) (A) (A) (A)
                 (A) (A) (A) (A) (A) (A) (A) (A) (A) (A) (A) (A)
                 (A) (A) (A) (A) (A) (A) (A) (A) (A) (A) (A) (A)
                 (A) (A) (A) (A) (A) (A) (A) (A) (A) (A) (A) (A)
                 (A) (A) (A) (A) (A) (A) (A) (A) (A) (A) (A) (A)
                 (A) (A) (A) (A) (A) (A) (A) (A) (A) (A) (A) (A)
 The electronic state of the initial guess is 1-A.
 Leave Link  401 at Wed Sep 29 03:19:33 2021, MaxMem= 1610612736 cpu:      15.8
 (Enter /sw/target/amd/app/gaussian/Gaussian09RevA.02_gcc-4.9.2/g09/l502.exe)
 Closed shell SCF:
 Requested convergence on RMS density matrix=1.00D-08 within  64 cycles.
 Requested convergence on MAX density matrix=1.00D-06.
 Requested convergence on             energy=1.00D-06.
 No special actions if energy rises.
 Using DIIS extrapolation, IDIIS=  1040.
 Integral symmetry usage will be decided dynamically.
       316663 words used for storage of precomputed grid.
 Keep R1 ints in memory in canonical form, NReq=1352817381.
 IEnd=      635683 IEndB=      635683 NGot=  1610612736 MDV=   274595891
 LenX=   274595891 LenY=   274492409
 Symmetry not used in FoFDir.
 MinBra= 0 MaxBra= 2 Meth= 1.
 IRaf=       0 NMat=   1 IRICut=       1 DoRegI=T DoRafI=F ISym2E= 0 JSym2E=0.
 Integral accuracy reduced to 1.0D-05 until final iterations.

 Cycle   1  Pass 0  IDiag  1:
 E= -845.708933680536    
 DIIS: error= 5.11D-02 at cycle   1 NSaved=   1.
 NSaved= 1 IEnMin= 1 EnMin= -845.708933680536     IErMin= 1 ErrMin= 5.11D-02
 ErrMax= 5.11D-02 EMaxC= 1.00D-01 BMatC= 5.14D-01 BMatP= 5.14D-01
 IDIUse=3 WtCom= 4.89D-01 WtEn= 5.11D-01
 Coeff-Com:  0.100D+01
 Coeff-En:   0.100D+01
 Coeff:      0.100D+01
 Gap=     0.187 Goal=   None    Shift=    0.000
 GapD=    0.187 DampG=1.000 DampE=0.500 DampFc=0.5000 IDamp=-1.
 Damping current iteration by 5.00D-01
 RMSDP=5.03D-03 MaxDP=2.01D-01              OVMax= 2.01D-01

 Cycle   2  Pass 0  IDiag  1:
 E= -845.894640743957     Delta-E=       -0.185707063421 Rises=F Damp=T
 DIIS: error= 1.40D-02 at cycle   2 NSaved=   2.
 NSaved= 2 IEnMin= 2 EnMin= -845.894640743957     IErMin= 2 ErrMin= 1.40D-02
 ErrMax= 1.40D-02 EMaxC= 1.00D-01 BMatC= 6.42D-02 BMatP= 5.14D-01
 IDIUse=3 WtCom= 8.60D-01 WtEn= 1.40D-01
 Coeff-Com:  0.167D+00 0.833D+00
 Coeff-En:   0.246D+00 0.754D+00
 Coeff:      0.178D+00 0.822D+00
 Gap=     0.148 Goal=   None    Shift=    0.000
 RMSDP=1.70D-03 MaxDP=7.75D-02 DE=-1.86D-01 OVMax= 1.48D-01

 Cycle   3  Pass 0  IDiag  1:
 E= -846.146498537831     Delta-E=       -0.251857793874 Rises=F Damp=F
 DIIS: error= 2.06D-02 at cycle   3 NSaved=   3.
 NSaved= 3 IEnMin= 3 EnMin= -846.146498537831     IErMin= 2 ErrMin= 1.40D-02
 ErrMax= 2.06D-02 EMaxC= 1.00D-01 BMatC= 9.19D-02 BMatP= 6.42D-02
 IDIUse=2 WtCom= 0.00D+00 WtEn= 1.00D+00
 Coeff-En:   0.000D+00 0.000D+00 0.100D+01
 Coeff:      0.000D+00 0.000D+00 0.100D+01
 Gap=     0.163 Goal=   None    Shift=    0.000
 RMSDP=2.90D-03 MaxDP=1.82D-01 DE=-2.52D-01 OVMax= 3.45D-01

 Cycle   4  Pass 0  IDiag  1:
 E= -845.705436888058     Delta-E=        0.441061649773 Rises=F Damp=F
 DIIS: error= 5.63D-02 at cycle   4 NSaved=   4.
 NSaved= 4 IEnMin= 3 EnMin= -846.146498537831     IErMin= 2 ErrMin= 1.40D-02
 ErrMax= 5.63D-02 EMaxC= 1.00D-01 BMatC= 6.45D-01 BMatP= 6.42D-02
 IDIUse=2 WtCom= 0.00D+00 WtEn= 1.00D+00
 Coeff-En:   0.000D+00 0.000D+00 0.813D+00 0.187D+00
 Coeff:      0.000D+00 0.000D+00 0.813D+00 0.187D+00
 Gap=     0.197 Goal=   None    Shift=    0.000
 RMSDP=1.54D-03 MaxDP=9.11D-02 DE= 4.41D-01 OVMax= 1.36D-01

 Cycle   5  Pass 0  IDiag  1:
 E= -846.182219943604     Delta-E=       -0.476783055546 Rises=F Damp=F
 DIIS: error= 1.53D-02 at cycle   5 NSaved=   5.
 NSaved= 5 IEnMin= 5 EnMin= -846.182219943604     IErMin= 2 ErrMin= 1.40D-02
 ErrMax= 1.53D-02 EMaxC= 1.00D-01 BMatC= 5.17D-02 BMatP= 6.42D-02
 IDIUse=3 WtCom= 8.47D-01 WtEn= 1.53D-01
 Coeff-Com: -0.166D-02 0.445D-01 0.339D+00-0.837D-01 0.701D+00
 Coeff-En:   0.000D+00 0.000D+00 0.388D+00 0.000D+00 0.612D+00
 Coeff:     -0.141D-02 0.377D-01 0.347D+00-0.709D-01 0.688D+00
 Gap=     0.154 Goal=   None    Shift=    0.000
 RMSDP=6.36D-04 MaxDP=3.68D-02 DE=-4.77D-01 OVMax= 4.47D-02

 Cycle   6  Pass 0  IDiag  1:
 E= -846.223783590301     Delta-E=       -0.041563646697 Rises=F Damp=F
 DIIS: error= 7.52D-04 at cycle   6 NSaved=   6.
 NSaved= 6 IEnMin= 6 EnMin= -846.223783590301     IErMin= 6 ErrMin= 7.52D-04
 ErrMax= 7.52D-04 EMaxC= 1.00D-01 BMatC= 4.10D-04 BMatP= 5.17D-02
 IDIUse=3 WtCom= 9.92D-01 WtEn= 7.52D-03
 Coeff-Com: -0.360D-02 0.183D-01 0.172D+00-0.610D-01 0.430D+00 0.444D+00
 Coeff-En:   0.000D+00 0.000D+00 0.000D+00 0.000D+00 0.000D+00 0.100D+01
 Coeff:     -0.358D-02 0.182D-01 0.171D+00-0.606D-01 0.427D+00 0.448D+00
 Gap=     0.155 Goal=   None    Shift=    0.000
 RMSDP=7.09D-05 MaxDP=3.88D-03 DE=-4.16D-02 OVMax= 5.28D-03

 Cycle   7  Pass 0  IDiag  1:
 E= -846.224121424400     Delta-E=       -0.000337834099 Rises=F Damp=F
 DIIS: error= 2.03D-04 at cycle   7 NSaved=   7.
 NSaved= 7 IEnMin= 7 EnMin= -846.224121424400     IErMin= 7 ErrMin= 2.03D-04
 ErrMax= 2.03D-04 EMaxC= 1.00D-01 BMatC= 3.00D-05 BMatP= 4.10D-04
 IDIUse=3 WtCom= 9.98D-01 WtEn= 2.03D-03
 Coeff-Com: -0.517D-03 0.201D-02 0.385D-01-0.160D-01 0.959D-01 0.196D+00
 Coeff-Com:  0.685D+00
 Coeff-En:   0.000D+00 0.000D+00 0.000D+00 0.000D+00 0.000D+00 0.983D-02
 Coeff-En:   0.990D+00
 Coeff:     -0.516D-03 0.201D-02 0.384D-01-0.160D-01 0.957D-01 0.195D+00
 Coeff:      0.685D+00
 Gap=     0.155 Goal=   None    Shift=    0.000
 RMSDP=1.91D-05 MaxDP=6.94D-04 DE=-3.38D-04 OVMax= 1.78D-03

 Cycle   8  Pass 0  IDiag  1:
 E= -846.224145782740     Delta-E=       -0.000024358340 Rises=F Damp=F
 DIIS: error= 7.08D-05 at cycle   8 NSaved=   8.
 NSaved= 8 IEnMin= 8 EnMin= -846.224145782740     IErMin= 8 ErrMin= 7.08D-05
 ErrMax= 7.08D-05 EMaxC= 1.00D-01 BMatC= 3.28D-06 BMatP= 3.00D-05
 IDIUse=1 WtCom= 1.00D+00 WtEn= 0.00D+00
 Coeff-Com:  0.199D-03-0.928D-03 0.998D-02-0.377D-02 0.200D-01 0.823D-01
 Coeff-Com:  0.410D+00 0.482D+00
 Coeff:      0.199D-03-0.928D-03 0.998D-02-0.377D-02 0.200D-01 0.823D-01
 Coeff:      0.410D+00 0.482D+00
 Gap=     0.155 Goal=   None    Shift=    0.000
 RMSDP=7.38D-06 MaxDP=3.31D-04 DE=-2.44D-05 OVMax= 9.38D-04

 Initial convergence to 1.0D-05 achieved.  Increase integral accuracy.
 Cycle   9  Pass 1  IDiag  1:
 E= -846.224055303490     Delta-E=        0.000090479250 Rises=F Damp=F
 DIIS: error= 3.50D-05 at cycle   1 NSaved=   1.
 NSaved= 1 IEnMin= 1 EnMin= -846.224055303490     IErMin= 1 ErrMin= 3.50D-05
 ErrMax= 3.50D-05 EMaxC= 1.00D-01 BMatC= 3.94D-07 BMatP= 3.94D-07
 IDIUse=1 WtCom= 1.00D+00 WtEn= 0.00D+00
 Coeff-Com:  0.100D+01
 Coeff:      0.100D+01
 Gap=     0.155 Goal=   None    Shift=    0.000
 RMSDP=7.38D-06 MaxDP=3.31D-04 DE= 9.05D-05 OVMax= 8.12D-04

 Cycle  10  Pass 1  IDiag  1:
 E= -846.224054496494     Delta-E=        0.000000806996 Rises=F Damp=F
 DIIS: error= 7.89D-05 at cycle   2 NSaved=   2.
 NSaved= 2 IEnMin= 1 EnMin= -846.224055303490     IErMin= 1 ErrMin= 3.50D-05
 ErrMax= 7.89D-05 EMaxC= 1.00D-01 BMatC= 1.14D-06 BMatP= 3.94D-07
 IDIUse=1 WtCom= 1.00D+00 WtEn= 0.00D+00
 Coeff-Com:  0.647D+00 0.353D+00
 Coeff:      0.647D+00 0.353D+00
 Gap=     0.155 Goal=   None    Shift=    0.000
 RMSDP=4.46D-06 MaxDP=2.33D-04 DE= 8.07D-07 OVMax= 6.69D-04

 Cycle  11  Pass 1  IDiag  1:
 E= -846.224055734410     Delta-E=       -0.000001237916 Rises=F Damp=F
 DIIS: error= 1.38D-05 at cycle   3 NSaved=   3.
 NSaved= 3 IEnMin= 3 EnMin= -846.224055734410     IErMin= 3 ErrMin= 1.38D-05
 ErrMax= 1.38D-05 EMaxC= 1.00D-01 BMatC= 4.51D-08 BMatP= 3.94D-07
 IDIUse=1 WtCom= 1.00D+00 WtEn= 0.00D+00
 Coeff-Com:  0.109D+00 0.171D+00 0.720D+00
 Coeff:      0.109D+00 0.171D+00 0.720D+00
 Gap=     0.155 Goal=   None    Shift=    0.000
 RMSDP=1.05D-06 MaxDP=4.68D-05 DE=-1.24D-06 OVMax= 1.15D-04

 Cycle  12  Pass 1  IDiag  1:
 E= -846.224055762989     Delta-E=       -0.000000028579 Rises=F Damp=F
 DIIS: error= 6.60D-06 at cycle   4 NSaved=   4.
 NSaved= 4 IEnMin= 4 EnMin= -846.224055762989     IErMin= 4 ErrMin= 6.60D-06
 ErrMax= 6.60D-06 EMaxC= 1.00D-01 BMatC= 2.24D-08 BMatP= 4.51D-08
 IDIUse=1 WtCom= 1.00D+00 WtEn= 0.00D+00
 Coeff-Com: -0.220D-02 0.782D-01 0.505D+00 0.419D+00
 Coeff:     -0.220D-02 0.782D-01 0.505D+00 0.419D+00
 Gap=     0.155 Goal=   None    Shift=    0.000
 RMSDP=4.47D-07 MaxDP=2.56D-05 DE=-2.86D-08 OVMax= 2.95D-05

 Cycle  13  Pass 1  IDiag  1:
 E= -846.224055780501     Delta-E=       -0.000000017512 Rises=F Damp=F
 DIIS: error= 1.58D-06 at cycle   5 NSaved=   5.
 NSaved= 5 IEnMin= 5 EnMin= -846.224055780501     IErMin= 5 ErrMin= 1.58D-06
 ErrMax= 1.58D-06 EMaxC= 1.00D-01 BMatC= 8.83D-10 BMatP= 2.24D-08
 IDIUse=1 WtCom= 1.00D+00 WtEn= 0.00D+00
 Coeff-Com: -0.914D-02 0.322D-01 0.237D+00 0.239D+00 0.501D+00
 Coeff:     -0.914D-02 0.322D-01 0.237D+00 0.239D+00 0.501D+00
 Gap=     0.155 Goal=   None    Shift=    0.000
 RMSDP=1.00D-07 MaxDP=6.28D-06 DE=-1.75D-08 OVMax= 6.68D-06

 Cycle  14  Pass 1  IDiag  1:
 E= -846.224055781136     Delta-E=       -0.000000000634 Rises=F Damp=F
 DIIS: error= 5.01D-07 at cycle   6 NSaved=   6.
 NSaved= 6 IEnMin= 6 EnMin= -846.224055781136     IErMin= 6 ErrMin= 5.01D-07
 ErrMax= 5.01D-07 EMaxC= 1.00D-01 BMatC= 9.26D-11 BMatP= 8.83D-10
 IDIUse=1 WtCom= 1.00D+00 WtEn= 0.00D+00
 Coeff-Com: -0.545D-02 0.133D-01 0.102D+00 0.111D+00 0.309D+00 0.470D+00
 Coeff:     -0.545D-02 0.133D-01 0.102D+00 0.111D+00 0.309D+00 0.470D+00
 Gap=     0.155 Goal=   None    Shift=    0.000
 RMSDP=3.17D-08 MaxDP=1.72D-06 DE=-6.34D-10 OVMax= 3.47D-06

 Cycle  15  Pass 1  IDiag  1:
 E= -846.224055781258     Delta-E=       -0.000000000123 Rises=F Damp=F
 DIIS: error= 1.00D-07 at cycle   7 NSaved=   7.
 NSaved= 7 IEnMin= 7 EnMin= -846.224055781258     IErMin= 7 ErrMin= 1.00D-07
 ErrMax= 1.00D-07 EMaxC= 1.00D-01 BMatC= 5.49D-12 BMatP= 9.26D-11
 IDIUse=1 WtCom= 1.00D+00 WtEn= 0.00D+00
 Coeff-Com: -0.206D-02 0.423D-02 0.329D-01 0.375D-01 0.118D+00 0.251D+00
 Coeff-Com:  0.558D+00
 Coeff:     -0.206D-02 0.423D-02 0.329D-01 0.375D-01 0.118D+00 0.251D+00
 Coeff:      0.558D+00
 Gap=     0.155 Goal=   None    Shift=    0.000
 RMSDP=1.02D-08 MaxDP=3.87D-07 DE=-1.23D-10 OVMax= 8.18D-07

 Cycle  16  Pass 1  IDiag  1:
 E= -846.224055781229     Delta-E=        0.000000000029 Rises=F Damp=F
 DIIS: error= 3.77D-08 at cycle   8 NSaved=   8.
 NSaved= 8 IEnMin= 7 EnMin= -846.224055781258     IErMin= 8 ErrMin= 3.77D-08
 ErrMax= 3.77D-08 EMaxC= 1.00D-01 BMatC= 7.59D-13 BMatP= 5.49D-12
 IDIUse=1 WtCom= 1.00D+00 WtEn= 0.00D+00
 Coeff-Com: -0.380D-03 0.578D-03 0.433D-02 0.579D-02 0.227D-01 0.718D-01
 Coeff-Com:  0.306D+00 0.589D+00
 Coeff:     -0.380D-03 0.578D-03 0.433D-02 0.579D-02 0.227D-01 0.718D-01
 Coeff:      0.306D+00 0.589D+00
 Gap=     0.155 Goal=   None    Shift=    0.000
 RMSDP=3.89D-09 MaxDP=1.37D-07 DE= 2.91D-11 OVMax= 4.26D-07

 SCF Done:  E(RB3LYP) =  -846.224055781     A.U. after   16 cycles
             Convg  =    0.3887D-08             -V/T =  2.0096
 KE= 8.381403842731D+02 PE=-4.774423430261D+03 EE= 1.686791989398D+03
 Leave Link  502 at Wed Sep 29 03:32:25 2021, MaxMem= 1610612736 cpu:     528.5
 (Enter /sw/target/amd/app/gaussian/Gaussian09RevA.02_gcc-4.9.2/g09/l508.exe)
 QCSCF skips out because SCF is already converged.
 Leave Link  508 at Wed Sep 29 03:32:28 2021, MaxMem= 1610612736 cpu:       0.0
 (Enter /sw/target/amd/app/gaussian/Gaussian09RevA.02_gcc-4.9.2/g09/l601.exe)
 Copying SCF densities to generalized density rwf, IOpCl= 0 IROHF=0.

 **********************************************************************

            Population analysis using the SCF density.

 **********************************************************************

 Orbital symmetries:
       Occupied  (A) (A) (A) (A) (A) (A) (A) (A) (A) (A) (A) (A)
                 (A) (A) (A) (A) (A) (A) (A) (A) (A) (A) (A) (A)
                 (A) (A) (A) (A) (A) (A) (A) (A) (A) (A) (A) (A)
                 (A) (A) (A) (A) (A) (A) (A) (A) (A) (A) (A) (A)
                 (A) (A) (A) (A) (A) (A) (A) (A) (A) (A) (A) (A)
                 (A) (A) (A) (A) (A) (A) (A) (A) (A)
       Virtual   (A) (A) (A) (A) (A) (A) (A) (A) (A) (A) (A) (A)
                 (A) (A) (A) (A) (A) (A) (A) (A) (A) (A) (A) (A)
                 (A) (A) (A) (A) (A) (A) (A) (A) (A) (A) (A) (A)
                 (A) (A) (A) (A) (A) (A) (A) (A) (A) (A) (A) (A)
                 (A) (A) (A) (A) (A) (A) (A) (A) (A) (A) (A) (A)
                 (A) (A) (A) (A) (A) (A) (A) (A) (A) (A) (A) (A)
                 (A) (A) (A) (A) (A) (A) (A) (A) (A) (A) (A) (A)
                 (A) (A) (A) (A) (A) (A) (A) (A) (A) (A) (A) (A)
                 (A) (A) (A) (A) (A) (A) (A) (A) (A) (A) (A) (A)
                 (A) (A) (A) (A) (A) (A) (A) (A) (A) (A) (A) (A)
                 (A) (A) (A) (A) (A) (A) (A) (A) (A) (A) (A) (A)
                 (A) (A) (A) (A) (A) (A) (A) (A) (A) (A) (A) (A)
                 (A) (A) (A) (A) (A) (A) (A) (A) (A) (A) (A) (A)
                 (A) (A) (A) (A) (A) (A) (A) (A) (A) (A) (A) (A)
                 (A) (A) (A) (A) (A) (A) (A) (A) (A) (A) (A) (A)
                 (A) (A) (A) (A) (A) (A) (A) (A) (A) (A) (A) (A)
                 (A) (A) (A) (A) (A) (A) (A) (A) (A) (A) (A) (A)
                 (A) (A) (A) (A) (A) (A) (A) (A) (A) (A) (A) (A)
                 (A) (A) (A) (A) (A) (A) (A) (A) (A) (A) (A) (A)
                 (A) (A) (A) (A) (A) (A) (A) (A) (A) (A) (A) (A)
                 (A) (A) (A) (A) (A) (A) (A) (A) (A) (A) (A) (A)
 The electronic state is 1-A.
 Alpha  occ. eigenvalues --  -19.20072 -19.18206 -19.14353 -10.32130 -10.25001
 Alpha  occ. eigenvalues --  -10.24616 -10.24266 -10.21350 -10.20145 -10.19849
 Alpha  occ. eigenvalues --  -10.18922 -10.18893 -10.18848 -10.18792 -10.18693
 Alpha  occ. eigenvalues --  -10.18657 -10.18213 -10.18131 -10.17334  -1.08904
 Alpha  occ. eigenvalues --   -1.06284  -1.01536  -0.87263  -0.82804  -0.81743
 Alpha  occ. eigenvalues --   -0.77208  -0.74989  -0.72071  -0.70327  -0.69306
 Alpha  occ. eigenvalues --   -0.68453  -0.64928  -0.62433  -0.61692  -0.58191
 Alpha  occ. eigenvalues --   -0.54670  -0.52908  -0.51604  -0.50260  -0.48504
 Alpha  occ. eigenvalues --   -0.47488  -0.47181  -0.46667  -0.45600  -0.43696
 Alpha  occ. eigenvalues --   -0.43250  -0.43127  -0.42528  -0.41870  -0.41372
 Alpha  occ. eigenvalues --   -0.40539  -0.39775  -0.39085  -0.38379  -0.37845
 Alpha  occ. eigenvalues --   -0.36542  -0.35765  -0.35584  -0.34683  -0.34063
 Alpha  occ. eigenvalues --   -0.33571  -0.33312  -0.33128  -0.32444  -0.29778
 Alpha  occ. eigenvalues --   -0.26954  -0.25688  -0.24711  -0.19260
 Alpha virt. eigenvalues --   -0.03782  -0.00524  -0.00168   0.05020   0.07620
 Alpha virt. eigenvalues --    0.09347   0.10241   0.10540   0.11226   0.11929
 Alpha virt. eigenvalues --    0.12840   0.13103   0.14934   0.15212   0.15582
 Alpha virt. eigenvalues --    0.15683   0.16244   0.16704   0.17444   0.19008
 Alpha virt. eigenvalues --    0.19305   0.19418   0.20247   0.20993   0.21316
 Alpha virt. eigenvalues --    0.21816   0.22811   0.23555   0.24848   0.25324
 Alpha virt. eigenvalues --    0.25969   0.28182   0.28674   0.31303   0.31423
 Alpha virt. eigenvalues --    0.33539   0.34613   0.36142   0.38241   0.39943
 Alpha virt. eigenvalues --    0.45594   0.48417   0.49897   0.50137   0.50463
 Alpha virt. eigenvalues --    0.50738   0.51005   0.52163   0.52728   0.53800
 Alpha virt. eigenvalues --    0.54071   0.54267   0.55471   0.56034   0.57047
 Alpha virt. eigenvalues --    0.58421   0.59004   0.59946   0.60644   0.60772
 Alpha virt. eigenvalues --    0.61120   0.61447   0.61958   0.62169   0.62600
 Alpha virt. eigenvalues --    0.65230   0.65674   0.66151   0.67831   0.68370
 Alpha virt. eigenvalues --    0.68536   0.70074   0.70663   0.71956   0.73292
 Alpha virt. eigenvalues --    0.73555   0.75784   0.77465   0.80826   0.81753
 Alpha virt. eigenvalues --    0.82811   0.83338   0.83782   0.83983   0.84851
 Alpha virt. eigenvalues --    0.85819   0.86588   0.86865   0.87549   0.88416
 Alpha virt. eigenvalues --    0.88898   0.89385   0.89790   0.90019   0.90682
 Alpha virt. eigenvalues --    0.92026   0.92870   0.93040   0.93666   0.95165
 Alpha virt. eigenvalues --    0.96114   0.97086   0.97401   0.98877   0.99915
 Alpha virt. eigenvalues --    1.00137   1.02573   1.03467   1.04302   1.05875
 Alpha virt. eigenvalues --    1.06228   1.07785   1.09887   1.11152   1.13201
 Alpha virt. eigenvalues --    1.15601   1.16031   1.19578   1.20806   1.21871
 Alpha virt. eigenvalues --    1.22985   1.25330   1.27027   1.28088   1.30549
 Alpha virt. eigenvalues --    1.32438   1.33996   1.35538   1.36447   1.37870
 Alpha virt. eigenvalues --    1.40066   1.43255   1.44243   1.44940   1.46796
 Alpha virt. eigenvalues --    1.48037   1.48318   1.48582   1.49942   1.50454
 Alpha virt. eigenvalues --    1.50949   1.51685   1.53756   1.56359   1.61758
 Alpha virt. eigenvalues --    1.65189   1.67643   1.69243   1.70166   1.72468
 Alpha virt. eigenvalues --    1.74612   1.76562   1.77500   1.79528   1.80576
 Alpha virt. eigenvalues --    1.81513   1.83836   1.85017   1.85725   1.86698
 Alpha virt. eigenvalues --    1.87056   1.88158   1.88689   1.89242   1.91959
 Alpha virt. eigenvalues --    1.93348   1.93738   1.96644   1.98045   1.99264
 Alpha virt. eigenvalues --    1.99693   2.02146   2.03788   2.04126   2.05146
 Alpha virt. eigenvalues --    2.06598   2.07699   2.08545   2.09129   2.09370
 Alpha virt. eigenvalues --    2.12100   2.14307   2.14357   2.14747   2.21037
 Alpha virt. eigenvalues --    2.21368   2.21997   2.22524   2.24586   2.25478
 Alpha virt. eigenvalues --    2.26292   2.26992   2.27022   2.27838   2.29019
 Alpha virt. eigenvalues --    2.29497   2.31208   2.32947   2.35593   2.38120
 Alpha virt. eigenvalues --    2.39011   2.42368   2.44006   2.46336   2.52110
 Alpha virt. eigenvalues --    2.52441   2.53774   2.57091   2.58395   2.61021
 Alpha virt. eigenvalues --    2.63504   2.64216   2.67447   2.68204   2.70609
 Alpha virt. eigenvalues --    2.70714   2.71993   2.74470   2.76017   2.77219
 Alpha virt. eigenvalues --    2.80909   2.82604   2.83898   2.89182   2.92637
 Alpha virt. eigenvalues --    2.95487   2.99902   3.03687   3.09951   3.14450
 Alpha virt. eigenvalues --    3.25677   3.41287   3.50691   4.05220   4.07365
 Alpha virt. eigenvalues --    4.09201   4.11492   4.13244   4.13943   4.15829
 Alpha virt. eigenvalues --    4.23478   4.29466   4.30332   4.32662   4.34293
 Alpha virt. eigenvalues --    4.34485   4.41356   4.53395   4.54616   4.61763
 Alpha virt. eigenvalues --    4.73460   4.90901
          Condensed to atoms (all electrons):
              1          2          3          4          5          6
     1  C    4.898618   0.252201  -0.048715  -0.008587   0.000674  -0.000057
     2  O    0.252201   8.198456   0.297024  -0.076719   0.004186   0.000053
     3  C   -0.048715   0.297024   4.824998   0.387901   0.025165  -0.080965
     4  C   -0.008587  -0.076719   0.387901   5.225685   0.401162   0.018124
     5  C    0.000674   0.004186   0.025165   0.401162   5.103010   0.439308
     6  C   -0.000057   0.000053  -0.080965   0.018124   0.439308   4.866341
     7  C    0.000052   0.003113   0.004591  -0.063838  -0.018352   0.391449
     8  C    0.004612  -0.064399   0.398415  -0.017638  -0.058180   0.008711
     9  C   -0.000520   0.000445  -0.099642   0.017120  -0.002497   0.016731
    10  C   -0.000001   0.000485   0.007559  -0.000337   0.000072  -0.000608
    11  C   -0.000000   0.000004  -0.000674   0.000078  -0.000352   0.007395
    12  C    0.000005  -0.000065   0.016555  -0.002266   0.015597  -0.106464
    13  O   -0.000000   0.000000   0.000036   0.004046  -0.061771   0.220079
    14  C    0.000000   0.000000  -0.000019   0.000498  -0.004569  -0.010369
    15  O    0.000000   0.000000   0.000009   0.000266  -0.002916  -0.004294
    16  C   -0.000000   0.000000   0.000000   0.000004   0.000296   0.003519
    17  C   -0.000000  -0.000000   0.000000  -0.000001  -0.000083   0.000089
    18  C    0.000000  -0.000000   0.000000  -0.000000  -0.000000  -0.000043
    19  C    0.000000  -0.000000   0.000000   0.000000   0.000006  -0.000183
    20  H    0.382530  -0.030533   0.003132   0.000115  -0.000005  -0.000000
    21  H    0.365643  -0.036424  -0.004818   0.006105  -0.000087   0.000003
    22  H    0.362886  -0.034484  -0.006865   0.006894  -0.000135   0.000004
    23  H    0.006741  -0.007950  -0.041443   0.355627  -0.034103   0.003288
    24  H   -0.000010  -0.000045   0.003352  -0.036282   0.349611  -0.027321
    25  H   -0.000379   0.009572  -0.010396   0.000491  -0.000014  -0.000156
    26  H    0.000000  -0.000004  -0.000179   0.000002  -0.000001   0.000014
    27  H   -0.000000   0.000000   0.000015  -0.000001   0.000003  -0.000179
    28  H   -0.000000   0.000000  -0.000166  -0.000003   0.000384  -0.010585
    29  H    0.000000  -0.000000   0.000000   0.000000   0.000006  -0.000008
    30  H    0.000000  -0.000000   0.000000  -0.000001   0.000021   0.000145
    31  H    0.000000  -0.000000  -0.000000   0.000000   0.000000  -0.000005
    32  H   -0.000000  -0.000000  -0.000000   0.000000  -0.000003  -0.000003
    33  H   -0.000000  -0.000000  -0.000000   0.000000   0.000000   0.000001
    34  H   -0.000000  -0.000000  -0.000000  -0.000000   0.000001  -0.000005
    35  H   -0.000000   0.000000   0.000000  -0.000000   0.000006   0.000053
    36  H   -0.000000  -0.000000  -0.000000  -0.000000  -0.000002  -0.000005
    37  H   -0.000000   0.000000   0.000000  -0.000000   0.000000   0.000006
              7          8          9         10         11         12
     1  C    0.000052   0.004612  -0.000520  -0.000001  -0.000000   0.000005
     2  O    0.003113  -0.064399   0.000445   0.000485   0.000004  -0.000065
     3  C    0.004591   0.398415  -0.099642   0.007559  -0.000674   0.016555
     4  C   -0.063838  -0.017638   0.017120  -0.000337   0.000078  -0.002266
     5  C   -0.018352  -0.058180  -0.002497   0.000072  -0.000352   0.015597
     6  C    0.391449   0.008711   0.016731  -0.000608   0.007395  -0.106464
     7  C    4.859088   0.490932  -0.052401  -0.038102  -0.002341   0.421784
     8  C    0.490932   4.862306   0.419513  -0.006201  -0.037169  -0.051634
     9  C   -0.052401   0.419513   5.159180   0.500558  -0.018038  -0.076601
    10  C   -0.038102  -0.006201   0.500558   4.906773   0.503325  -0.020053
    11  C   -0.002341  -0.037169  -0.018038   0.503325   4.898913   0.501756
    12  C    0.421784  -0.051634  -0.076601  -0.020053   0.501756   5.174642
    13  O   -0.059915   0.002860  -0.000051  -0.000002   0.000500  -0.000311
    14  C    0.001013   0.000037   0.000002  -0.000000   0.000006  -0.000099
    15  O   -0.000109  -0.000017  -0.000000  -0.000000   0.000000   0.000038
    16  C   -0.000308   0.000002  -0.000000  -0.000000  -0.000000  -0.000032
    17  C    0.000000  -0.000000   0.000000   0.000000  -0.000000  -0.000006
    18  C    0.000002  -0.000000   0.000000   0.000000   0.000000  -0.000000
    19  C    0.000030  -0.000000  -0.000000   0.000000   0.000000  -0.000204
    20  H    0.000007   0.000142  -0.000067  -0.000001   0.000000  -0.000000
    21  H   -0.000031  -0.000304   0.000067   0.000000   0.000000  -0.000000
    22  H   -0.000038  -0.000394   0.000073   0.000001   0.000000  -0.000000
    23  H    0.001134   0.001840  -0.000138   0.000002  -0.000000   0.000015
    24  H    0.003447   0.000754   0.000009  -0.000000   0.000002  -0.000128
    25  H    0.004214  -0.039055   0.361354  -0.046597   0.004773   0.000570
    26  H    0.001020   0.002624  -0.036535   0.358947  -0.042566   0.004292
    27  H    0.002488   0.001066   0.004223  -0.042154   0.358097  -0.036633
    28  H   -0.038245   0.004067   0.000630   0.004595  -0.045948   0.358895
    29  H    0.000002  -0.000000  -0.000000   0.000000  -0.000000  -0.000000
    30  H   -0.000057  -0.000001  -0.000000   0.000000   0.000001   0.000042
    31  H   -0.000000   0.000000   0.000000  -0.000000   0.000000   0.000000
    32  H    0.000000   0.000000   0.000000   0.000000  -0.000000   0.000000
    33  H   -0.000000   0.000000  -0.000000  -0.000000  -0.000000  -0.000000
    34  H   -0.000000   0.000000   0.000000  -0.000000  -0.000000  -0.000000
    35  H   -0.000066  -0.000000  -0.000000   0.000000   0.000005  -0.000250
    36  H   -0.000005  -0.000000   0.000000   0.000000   0.000000   0.000009
    37  H   -0.000001   0.000000   0.000000  -0.000000   0.000000   0.000003
             13         14         15         16         17         18
     1  C   -0.000000   0.000000   0.000000  -0.000000  -0.000000   0.000000
     2  O    0.000000   0.000000   0.000000   0.000000  -0.000000  -0.000000
     3  C    0.000036  -0.000019   0.000009   0.000000   0.000000   0.000000
     4  C    0.004046   0.000498   0.000266   0.000004  -0.000001  -0.000000
     5  C   -0.061771  -0.004569  -0.002916   0.000296  -0.000083  -0.000000
     6  C    0.220079  -0.010369  -0.004294   0.003519   0.000089  -0.000043
     7  C   -0.059915   0.001013  -0.000109  -0.000308   0.000000   0.000002
     8  C    0.002860   0.000037  -0.000017   0.000002  -0.000000  -0.000000
     9  C   -0.000051   0.000002  -0.000000  -0.000000   0.000000   0.000000
    10  C   -0.000002  -0.000000  -0.000000  -0.000000   0.000000   0.000000
    11  C    0.000500   0.000006   0.000000  -0.000000  -0.000000   0.000000
    12  C   -0.000311  -0.000099   0.000038  -0.000032  -0.000006  -0.000000
    13  O    8.369114   0.222269  -0.064022  -0.094947   0.001351   0.003354
    14  C    0.222269   4.404366   0.528713   0.354311  -0.044024  -0.048044
    15  O   -0.064022   0.528713   8.064222  -0.075970   0.000021   0.001536
    16  C   -0.094947   0.354311  -0.075970   4.981968   0.363129   0.371245
    17  C    0.001351  -0.044024   0.000021   0.363129   5.148234  -0.060451
    18  C    0.003354  -0.048044   0.001536   0.371245  -0.060451   5.132570
    19  C    0.002383  -0.040107   0.000145   0.361878  -0.054893  -0.059974
    20  H   -0.000000  -0.000000   0.000000   0.000000  -0.000000   0.000000
    21  H    0.000000   0.000000  -0.000000   0.000000   0.000000   0.000000
    22  H    0.000000   0.000000   0.000000  -0.000000  -0.000000  -0.000000
    23  H   -0.000054  -0.000015  -0.000010  -0.000000  -0.000000   0.000000
    24  H   -0.007276   0.001485   0.013419   0.000008  -0.000050   0.000011
    25  H    0.000000  -0.000000   0.000000   0.000000  -0.000000  -0.000000
    26  H    0.000000   0.000000   0.000000   0.000000   0.000000   0.000000
    27  H   -0.000002  -0.000000  -0.000000  -0.000000  -0.000000  -0.000000
    28  H    0.007064  -0.000176   0.000007  -0.000023  -0.000029   0.000001
    29  H   -0.000132  -0.001968   0.000623  -0.032897   0.369203  -0.004105
    30  H    0.006140  -0.006702   0.000020  -0.027469   0.367089   0.005572
    31  H    0.000142   0.004199  -0.000064  -0.029045   0.368726  -0.004903
    32  H    0.000028  -0.005176   0.003635  -0.026903  -0.004143   0.368987
    33  H   -0.000031   0.005300   0.000634  -0.027989  -0.004817   0.360594
    34  H    0.000036  -0.005311   0.003726  -0.026703   0.005590   0.369207
    35  H    0.003868  -0.005875   0.000001  -0.027631  -0.004905   0.005534
    36  H   -0.000060  -0.002844   0.000619  -0.031435   0.005589  -0.003807
    37  H    0.000075   0.004014  -0.000069  -0.029464  -0.005089  -0.005402
             19         20         21         22         23         24
     1  C    0.000000   0.382530   0.365643   0.362886   0.006741  -0.000010
     2  O   -0.000000  -0.030533  -0.036424  -0.034484  -0.007950  -0.000045
     3  C    0.000000   0.003132  -0.004818  -0.006865  -0.041443   0.003352
     4  C    0.000000   0.000115   0.006105   0.006894   0.355627  -0.036282
     5  C    0.000006  -0.000005  -0.000087  -0.000135  -0.034103   0.349611
     6  C   -0.000183  -0.000000   0.000003   0.000004   0.003288  -0.027321
     7  C    0.000030   0.000007  -0.000031  -0.000038   0.001134   0.003447
     8  C   -0.000000   0.000142  -0.000304  -0.000394   0.001840   0.000754
     9  C   -0.000000  -0.000067   0.000067   0.000073  -0.000138   0.000009
    10  C    0.000000  -0.000001   0.000000   0.000001   0.000002  -0.000000
    11  C    0.000000   0.000000   0.000000   0.000000  -0.000000   0.000002
    12  C   -0.000204  -0.000000  -0.000000  -0.000000   0.000015  -0.000128
    13  O    0.002383  -0.000000   0.000000   0.000000  -0.000054  -0.007276
    14  C   -0.040107  -0.000000   0.000000   0.000000  -0.000015   0.001485
    15  O    0.000145   0.000000  -0.000000   0.000000  -0.000010   0.013419
    16  C    0.361878   0.000000   0.000000  -0.000000  -0.000000   0.000008
    17  C   -0.054893  -0.000000   0.000000  -0.000000  -0.000000  -0.000050
    18  C   -0.059974   0.000000   0.000000  -0.000000   0.000000   0.000011
    19  C    5.145764   0.000000  -0.000000   0.000000   0.000000   0.000006
    20  H    0.000000   0.543458  -0.034228  -0.033476  -0.000038  -0.000000
    21  H   -0.000000  -0.034228   0.593311  -0.046638   0.001549  -0.000005
    22  H    0.000000  -0.033476  -0.046638   0.593015   0.001705   0.000009
    23  H    0.000000  -0.000038   0.001549   0.001705   0.580025  -0.005982
    24  H    0.000006  -0.000000  -0.000005   0.000009  -0.005982   0.537214
    25  H   -0.000000  -0.000000   0.000020   0.000021  -0.000003   0.000000
    26  H    0.000000   0.000000  -0.000000  -0.000000  -0.000000  -0.000000
    27  H   -0.000000  -0.000000   0.000000   0.000000  -0.000000  -0.000000
    28  H    0.000326   0.000000   0.000000   0.000000   0.000000  -0.000001
    29  H    0.005624   0.000000  -0.000000   0.000000  -0.000000   0.000033
    30  H   -0.004575   0.000000   0.000000  -0.000000   0.000000   0.000003
    31  H   -0.005209   0.000000   0.000000  -0.000000  -0.000000   0.000000
    32  H    0.005568   0.000000  -0.000000   0.000000  -0.000000   0.000008
    33  H   -0.004897  -0.000000   0.000000  -0.000000  -0.000000  -0.000000
    34  H   -0.003984  -0.000000   0.000000   0.000000   0.000000  -0.000002
    35  H    0.366977   0.000000   0.000000  -0.000000   0.000000  -0.000000
    36  H    0.369537  -0.000000   0.000000  -0.000000   0.000000  -0.000001
    37  H    0.369434   0.000000  -0.000000   0.000000   0.000000   0.000000
             25         26         27         28         29         30
     1  C   -0.000379   0.000000  -0.000000  -0.000000   0.000000   0.000000
     2  O    0.009572  -0.000004   0.000000   0.000000  -0.000000  -0.000000
     3  C   -0.010396  -0.000179   0.000015  -0.000166   0.000000   0.000000
     4  C    0.000491   0.000002  -0.000001  -0.000003   0.000000  -0.000001
     5  C   -0.000014  -0.000001   0.000003   0.000384   0.000006   0.000021
     6  C   -0.000156   0.000014  -0.000179  -0.010585  -0.000008   0.000145
     7  C    0.004214   0.001020   0.002488  -0.038245   0.000002  -0.000057
     8  C   -0.039055   0.002624   0.001066   0.004067  -0.000000  -0.000001
     9  C    0.361354  -0.036535   0.004223   0.000630  -0.000000  -0.000000
    10  C   -0.046597   0.358947  -0.042154   0.004595   0.000000   0.000000
    11  C    0.004773  -0.042566   0.358097  -0.045948  -0.000000   0.000001
    12  C    0.000570   0.004292  -0.036633   0.358895  -0.000000   0.000042
    13  O    0.000000   0.000000  -0.000002   0.007064  -0.000132   0.006140
    14  C   -0.000000   0.000000  -0.000000  -0.000176  -0.001968  -0.006702
    15  O    0.000000   0.000000  -0.000000   0.000007   0.000623   0.000020
    16  C    0.000000   0.000000  -0.000000  -0.000023  -0.032897  -0.027469
    17  C   -0.000000   0.000000  -0.000000  -0.000029   0.369203   0.367089
    18  C   -0.000000   0.000000  -0.000000   0.000001  -0.004105   0.005572
    19  C   -0.000000   0.000000  -0.000000   0.000326   0.005624  -0.004575
    20  H   -0.000000   0.000000  -0.000000   0.000000   0.000000   0.000000
    21  H    0.000020  -0.000000   0.000000   0.000000  -0.000000   0.000000
    22  H    0.000021  -0.000000   0.000000   0.000000   0.000000  -0.000000
    23  H   -0.000003  -0.000000  -0.000000   0.000000  -0.000000   0.000000
    24  H    0.000000  -0.000000  -0.000000  -0.000001   0.000033   0.000003
    25  H    0.572644  -0.005222  -0.000193   0.000016  -0.000000   0.000000
    26  H   -0.005222   0.592593  -0.005073  -0.000196   0.000000  -0.000000
    27  H   -0.000193  -0.005073   0.593527  -0.005098  -0.000000  -0.000000
    28  H    0.000016  -0.000196  -0.005098   0.577360  -0.000000   0.000143
    29  H   -0.000000   0.000000  -0.000000  -0.000000   0.568307  -0.029100
[...]
    69    C    5  pz     Val( 2p)     1.02058
    70    C    5  pz     Ryd( 3p)     0.00240
    71    C    5  dxy    Ryd( 3d)     0.00076
    72    C    5  dxz    Ryd( 3d)     0.00053
    73    C    5  dyz    Ryd( 3d)     0.00068
    74    C    5  dx2y2  Ryd( 3d)     0.00062
    75    C    5  dz2    Ryd( 3d)     0.00045

    76    C    6  S      Cor( 1S)     1.99862
    77    C    6  S      Val( 2S)     0.83207
    78    C    6  S      Ryd( 3S)     0.00129
    79    C    6  S      Ryd( 4S)     0.00014
    80    C    6  px     Val( 2p)     0.74996
    81    C    6  px     Ryd( 3p)     0.00650
    82    C    6  py     Val( 2p)     1.06484
    83    C    6  py     Ryd( 3p)     0.00512
    84    C    6  pz     Val( 2p)     0.96071
    85    C    6  pz     Ryd( 3p)     0.00416
    86    C    6  dxy    Ryd( 3d)     0.00146
    87    C    6  dxz    Ryd( 3d)     0.00127
    88    C    6  dyz    Ryd( 3d)     0.00093
    89    C    6  dx2y2  Ryd( 3d)     0.00166
    90    C    6  dz2    Ryd( 3d)     0.00050

    91    C    7  S      Cor( 1S)     1.99896
    92    C    7  S      Val( 2S)     0.87113
    93    C    7  S      Ryd( 3S)     0.00057
    94    C    7  S      Ryd( 4S)     0.00006
    95    C    7  px     Val( 2p)     1.07342
    96    C    7  px     Ryd( 3p)     0.00551
    97    C    7  py     Val( 2p)     1.10643
    98    C    7  py     Ryd( 3p)     0.00477
    99    C    7  pz     Val( 2p)     1.01448
   100    C    7  pz     Ryd( 3p)     0.00093
   101    C    7  dxy    Ryd( 3d)     0.00077
   102    C    7  dxz    Ryd( 3d)     0.00046
   103    C    7  dyz    Ryd( 3d)     0.00114
   104    C    7  dx2y2  Ryd( 3d)     0.00057
   105    C    7  dz2    Ryd( 3d)     0.00036

   106    C    8  S      Cor( 1S)     1.99899
   107    C    8  S      Val( 2S)     0.87047
   108    C    8  S      Ryd( 3S)     0.00064
   109    C    8  S      Ryd( 4S)     0.00006
   110    C    8  px     Val( 2p)     1.08593
   111    C    8  px     Ryd( 3p)     0.00583
   112    C    8  py     Val( 2p)     1.08123
   113    C    8  py     Ryd( 3p)     0.00467
   114    C    8  pz     Val( 2p)     1.01906
   115    C    8  pz     Ryd( 3p)     0.00085
   116    C    8  dxy    Ryd( 3d)     0.00057
   117    C    8  dxz    Ryd( 3d)     0.00063
   118    C    8  dyz    Ryd( 3d)     0.00090
   119    C    8  dx2y2  Ryd( 3d)     0.00079
   120    C    8  dz2    Ryd( 3d)     0.00038

   121    C    9  S      Cor( 1S)     1.99907
   122    C    9  S      Val( 2S)     0.93892
   123    C    9  S      Ryd( 3S)     0.00074
   124    C    9  S      Ryd( 4S)     0.00004
   125    C    9  px     Val( 2p)     1.18335
   126    C    9  px     Ryd( 3p)     0.00446
   127    C    9  py     Val( 2p)     1.05750
   128    C    9  py     Ryd( 3p)     0.00490
   129    C    9  pz     Val( 2p)     1.10059
   130    C    9  pz     Ryd( 3p)     0.00497
   131    C    9  dxy    Ryd( 3d)     0.00069
   132    C    9  dxz    Ryd( 3d)     0.00030
   133    C    9  dyz    Ryd( 3d)     0.00050
   134    C    9  dx2y2  Ryd( 3d)     0.00072
   135    C    9  dz2    Ryd( 3d)     0.00042

   136    C   10  S      Cor( 1S)     1.99910
   137    C   10  S      Val( 2S)     0.95946
   138    C   10  S      Ryd( 3S)     0.00060
   139    C   10  S      Ryd( 4S)     0.00003
   140    C   10  px     Val( 2p)     1.11325
   141    C   10  px     Ryd( 3p)     0.00476
   142    C   10  py     Val( 2p)     1.13698
   143    C   10  py     Ryd( 3p)     0.00485
   144    C   10  pz     Val( 2p)     0.99840
   145    C   10  pz     Ryd( 3p)     0.00208
   146    C   10  dxy    Ryd( 3d)     0.00087
   147    C   10  dxz    Ryd( 3d)     0.00056
   148    C   10  dyz    Ryd( 3d)     0.00064
   149    C   10  dx2y2  Ryd( 3d)     0.00061
   150    C   10  dz2    Ryd( 3d)     0.00043

   151    C   11  S      Cor( 1S)     1.99911
   152    C   11  S      Val( 2S)     0.95778
   153    C   11  S      Ryd( 3S)     0.00060
   154    C   11  S      Ryd( 4S)     0.00003
   155    C   11  px     Val( 2p)     1.07288
   156    C   11  px     Ryd( 3p)     0.00472
   157    C   11  py     Val( 2p)     1.17862
   158    C   11  py     Ryd( 3p)     0.00498
   159    C   11  pz     Val( 2p)     1.01467
   160    C   11  pz     Ryd( 3p)     0.00221
   161    C   11  dxy    Ryd( 3d)     0.00075
   162    C   11  dxz    Ryd( 3d)     0.00071
   163    C   11  dyz    Ryd( 3d)     0.00042
   164    C   11  dx2y2  Ryd( 3d)     0.00072
   165    C   11  dz2    Ryd( 3d)     0.00045

   166    C   12  S      Cor( 1S)     1.99907
   167    C   12  S      Val( 2S)     0.93709
   168    C   12  S      Ryd( 3S)     0.00073
   169    C   12  S      Ryd( 4S)     0.00005
   170    C   12  px     Val( 2p)     1.19371
   171    C   12  px     Ryd( 3p)     0.00448
   172    C   12  py     Val( 2p)     1.04168
   173    C   12  py     Ryd( 3p)     0.00465
   174    C   12  pz     Val( 2p)     1.10579
   175    C   12  pz     Ryd( 3p)     0.00493
   176    C   12  dxy    Ryd( 3d)     0.00060
   177    C   12  dxz    Ryd( 3d)     0.00034
   178    C   12  dyz    Ryd( 3d)     0.00045
   179    C   12  dx2y2  Ryd( 3d)     0.00081
   180    C   12  dz2    Ryd( 3d)     0.00043

   181    O   13  S      Cor( 1S)     1.99969
   182    O   13  S      Val( 2S)     1.59936
   183    O   13  S      Ryd( 3S)     0.00131
   184    O   13  S      Ryd( 4S)     0.00011
   185    O   13  px     Val( 2p)     1.42260
   186    O   13  px     Ryd( 3p)     0.00090
   187    O   13  py     Val( 2p)     1.79334
   188    O   13  py     Ryd( 3p)     0.00214
   189    O   13  pz     Val( 2p)     1.70570
   190    O   13  pz     Ryd( 3p)     0.00141
   191    O   13  dxy    Ryd( 3d)     0.00070
   192    O   13  dxz    Ryd( 3d)     0.00100
   193    O   13  dyz    Ryd( 3d)     0.00113
   194    O   13  dx2y2  Ryd( 3d)     0.00098
   195    O   13  dz2    Ryd( 3d)     0.00138

   196    C   14  S      Cor( 1S)     1.99927
   197    C   14  S      Val( 2S)     0.77977
   198    C   14  S      Ryd( 3S)     0.00666
   199    C   14  S      Ryd( 4S)     0.00050
   200    C   14  px     Val( 2p)     0.85550
   201    C   14  px     Ryd( 3p)     0.00573
   202    C   14  py     Val( 2p)     0.76223
   203    C   14  py     Ryd( 3p)     0.01173
   204    C   14  pz     Val( 2p)     0.72574
   205    C   14  pz     Ryd( 3p)     0.01500
   206    C   14  dxy    Ryd( 3d)     0.00208
   207    C   14  dxz    Ryd( 3d)     0.00280
   208    C   14  dyz    Ryd( 3d)     0.00098
   209    C   14  dx2y2  Ryd( 3d)     0.00155
   210    C   14  dz2    Ryd( 3d)     0.00222

   211    O   15  S      Cor( 1S)     1.99977
   212    O   15  S      Val( 2S)     1.69545
   213    O   15  S      Ryd( 3S)     0.00057
   214    O   15  S      Ryd( 4S)     0.00013
   215    O   15  px     Val( 2p)     1.82240
   216    O   15  px     Ryd( 3p)     0.00173
   217    O   15  py     Val( 2p)     1.49826
   218    O   15  py     Ryd( 3p)     0.00071
   219    O   15  pz     Val( 2p)     1.54145
   220    O   15  pz     Ryd( 3p)     0.00060
   221    O   15  dxy    Ryd( 3d)     0.00211
   222    O   15  dxz    Ryd( 3d)     0.00306
   223    O   15  dyz    Ryd( 3d)     0.00449
   224    O   15  dx2y2  Ryd( 3d)     0.00219
   225    O   15  dz2    Ryd( 3d)     0.00452

   226    C   16  S      Cor( 1S)     1.99905
   227    C   16  S      Val( 2S)     0.94076
   228    C   16  S      Ryd( 3S)     0.00046
   229    C   16  S      Ryd( 4S)     0.00003
   230    C   16  px     Val( 2p)     1.06153
   231    C   16  px     Ryd( 3p)     0.00214
   232    C   16  py     Val( 2p)     1.06821
   233    C   16  py     Ryd( 3p)     0.00255
   234    C   16  pz     Val( 2p)     1.06874
   235    C   16  pz     Ryd( 3p)     0.00333
   236    C   16  dxy    Ryd( 3d)     0.00065
   237    C   16  dxz    Ryd( 3d)     0.00069
   238    C   16  dyz    Ryd( 3d)     0.00070
   239    C   16  dx2y2  Ryd( 3d)     0.00101
   240    C   16  dz2    Ryd( 3d)     0.00089

   241    C   17  S      Cor( 1S)     1.99938
   242    C   17  S      Val( 2S)     1.09639
   243    C   17  S      Ryd( 3S)     0.00059
   244    C   17  S      Ryd( 4S)     0.00002
   245    C   17  px     Val( 2p)     1.24521
   246    C   17  px     Ryd( 3p)     0.00184
   247    C   17  py     Val( 2p)     1.22849
   248    C   17  py     Ryd( 3p)     0.00222
   249    C   17  pz     Val( 2p)     1.09065
   250    C   17  pz     Ryd( 3p)     0.00162
   251    C   17  dxy    Ryd( 3d)     0.00031
   252    C   17  dxz    Ryd( 3d)     0.00084
   253    C   17  dyz    Ryd( 3d)     0.00042
   254    C   17  dx2y2  Ryd( 3d)     0.00108
   255    C   17  dz2    Ryd( 3d)     0.00071

   256    C   18  S      Cor( 1S)     1.99940
   257    C   18  S      Val( 2S)     1.09079
   258    C   18  S      Ryd( 3S)     0.00059
   259    C   18  S      Ryd( 4S)     0.00002
   260    C   18  px     Val( 2p)     1.16031
   261    C   18  px     Ryd( 3p)     0.00243
   262    C   18  py     Val( 2p)     1.22909
   263    C   18  py     Ryd( 3p)     0.00250
   264    C   18  pz     Val( 2p)     1.17896
   265    C   18  pz     Ryd( 3p)     0.00222
   266    C   18  dxy    Ryd( 3d)     0.00033
   267    C   18  dxz    Ryd( 3d)     0.00049
   268    C   18  dyz    Ryd( 3d)     0.00038
   269    C   18  dx2y2  Ryd( 3d)     0.00112
   270    C   18  dz2    Ryd( 3d)     0.00100

   271    C   19  S      Cor( 1S)     1.99938
   272    C   19  S      Val( 2S)     1.09473
   273    C   19  S      Ryd( 3S)     0.00058
   274    C   19  S      Ryd( 4S)     0.00002
   275    C   19  px     Val( 2p)     1.25064
   276    C   19  px     Ryd( 3p)     0.00210
   277    C   19  py     Val( 2p)     1.06205
   278    C   19  py     Ryd( 3p)     0.00154
   279    C   19  pz     Val( 2p)     1.25447
   280    C   19  pz     Ryd( 3p)     0.00242
   281    C   19  dxy    Ryd( 3d)     0.00053
   282    C   19  dxz    Ryd( 3d)     0.00063
   283    C   19  dyz    Ryd( 3d)     0.00069
   284    C   19  dx2y2  Ryd( 3d)     0.00076
   285    C   19  dz2    Ryd( 3d)     0.00074

   286    H   20  S      Val( 1S)     0.76323
   287    H   20  S      Ryd( 2S)     0.00051

   288    H   21  S      Val( 1S)     0.78596
   289    H   21  S      Ryd( 2S)     0.00178

   290    H   22  S      Val( 1S)     0.78455
   291    H   22  S      Ryd( 2S)     0.00177

   292    H   23  S      Val( 1S)     0.75660
   293    H   23  S      Ryd( 2S)     0.00086

   294    H   24  S      Val( 1S)     0.74269
   295    H   24  S      Ryd( 2S)     0.00095

   296    H   25  S      Val( 1S)     0.76114
   297    H   25  S      Ryd( 2S)     0.00109

   298    H   26  S      Val( 1S)     0.76952
   299    H   26  S      Ryd( 2S)     0.00084

   300    H   27  S      Val( 1S)     0.76989
   301    H   27  S      Ryd( 2S)     0.00082

   302    H   28  S      Val( 1S)     0.76648
   303    H   28  S      Ryd( 2S)     0.00112

   304    H   29  S      Val( 1S)     0.76450
   305    H   29  S      Ryd( 2S)     0.00096

   306    H   30  S      Val( 1S)     0.75546
   307    H   30  S      Ryd( 2S)     0.00107

   308    H   31  S      Val( 1S)     0.76308
   309    H   31  S      Ryd( 2S)     0.00114

   310    H   32  S      Val( 1S)     0.75616
   311    H   32  S      Ryd( 2S)     0.00107

   312    H   33  S      Val( 1S)     0.76896
   313    H   33  S      Ryd( 2S)     0.00092

   314    H   34  S      Val( 1S)     0.75594
   315    H   34  S      Ryd( 2S)     0.00101

   316    H   35  S      Val( 1S)     0.75568
   317    H   35  S      Ryd( 2S)     0.00109

   318    H   36  S      Val( 1S)     0.76078
   319    H   36  S      Ryd( 2S)     0.00096

   320    H   37  S      Val( 1S)     0.76421
   321    H   37  S      Ryd( 2S)     0.00108

 WARNING:  1 low occupancy (<1.9990e) core orbital  found on  C    3
           1 low occupancy (<1.9990e) core orbital  found on  C    6
           1 low occupancy (<1.9990e) core orbital  found on  C    7
           1 low occupancy (<1.9990e) core orbital  found on  C    8


 Summary of Natural Population Analysis:                  
                                                          
                                       Natural Population 
                Natural  -----------------------------------------------
    Atom  No    Charge         Core      Valence    Rydberg      Total
 -----------------------------------------------------------------------
      C    1   -0.32373      1.99943     4.31002    0.01428     6.32373
      O    2   -0.46133      1.99974     6.44958    0.01201     8.46133
      C    3    0.36542      1.99873     3.61357    0.02227     5.63458
      C    4   -0.28246      1.99904     4.27020    0.01322     6.28246
      C    5   -0.25860      1.99901     4.24381    0.01577     6.25860
      C    6    0.37078      1.99862     3.60758    0.02302     5.62922
      C    7   -0.07958      1.99896     4.06547    0.01515     6.07958
      C    8   -0.07100      1.99899     4.05669    0.01532     6.07100
      C    9   -0.29720      1.99907     4.28037    0.01776     6.29720
      C   10   -0.22262      1.99910     4.20809    0.01542     6.22262
      C   11   -0.23867      1.99911     4.22396    0.01560     6.23867
      C   12   -0.29481      1.99907     4.27827    0.01747     6.29481
      O   13   -0.53176      1.99969     6.52101    0.01106     8.53176
      C   14    0.82825      1.99927     3.12323    0.04924     5.17175
      O   15   -0.57746      1.99977     6.55757    0.02012     8.57746
      C   16   -0.15072      1.99905     4.13924    0.01243     6.15072
      C   17   -0.66978      1.99938     4.66074    0.00965     6.66978
      C   18   -0.66964      1.99940     4.65916    0.01109     6.66964
      C   19   -0.67127      1.99938     4.66189    0.01000     6.67127
      H   20    0.23627      0.00000     0.76323    0.00051     0.76373
      H   21    0.21227      0.00000     0.78596    0.00178     0.78773
      H   22    0.21367      0.00000     0.78455    0.00177     0.78633
      H   23    0.24254      0.00000     0.75660    0.00086     0.75746
      H   24    0.25635      0.00000     0.74269    0.00095     0.74365
      H   25    0.23778      0.00000     0.76114    0.00109     0.76222
      H   26    0.22964      0.00000     0.76952    0.00084     0.77036
      H   27    0.22930      0.00000     0.76989    0.00082     0.77070
      H   28    0.23240      0.00000     0.76648    0.00112     0.76760
      H   29    0.23455      0.00000     0.76450    0.00096     0.76545
      H   30    0.24347      0.00000     0.75546    0.00107     0.75653
      H   31    0.23578      0.00000     0.76308    0.00114     0.76422
      H   32    0.24277      0.00000     0.75616    0.00107     0.75723
      H   33    0.23012      0.00000     0.76896    0.00092     0.76988
      H   34    0.24305      0.00000     0.75594    0.00101     0.75695
      H   35    0.24323      0.00000     0.75568    0.00109     0.75677
      H   36    0.23826      0.00000     0.76078    0.00096     0.76174
      H   37    0.23471      0.00000     0.76421    0.00108     0.76529
 =======================================================================
   * Total *    0.00000     37.98482    99.67526    0.33993   138.00000

                                 Natural Population      
 --------------------------------------------------------
   Core                      37.98482 ( 99.9600% of  38)
   Valence                   99.67526 ( 99.6753% of 100)
   Natural Minimal Basis    137.66007 ( 99.7537% of 138)
   Natural Rydberg Basis      0.33993 (  0.2463% of 138)
 --------------------------------------------------------

    Atom  No          Natural Electron Configuration
 ----------------------------------------------------------------------------
      C    1      [core]2S( 1.10)2p( 3.21)3p( 0.01)3d( 0.01)
      O    2      [core]2S( 1.59)2p( 4.85)3p( 0.01)3d( 0.01)
      C    3      [core]2S( 0.83)2p( 2.79)3p( 0.01)3d( 0.01)
      C    4      [core]2S( 0.96)2p( 3.31)3p( 0.01)
      C    5      [core]2S( 0.96)2p( 3.28)3p( 0.01)
      C    6      [core]2S( 0.83)2p( 2.78)3p( 0.02)3d( 0.01)
      C    7      [core]2S( 0.87)2p( 3.19)3p( 0.01)
      C    8      [core]2S( 0.87)2p( 3.19)3p( 0.01)
      C    9      [core]2S( 0.94)2p( 3.34)3p( 0.01)
      C   10      [core]2S( 0.96)2p( 3.25)3p( 0.01)
      C   11      [core]2S( 0.96)2p( 3.27)3p( 0.01)
      C   12      [core]2S( 0.94)2p( 3.34)3p( 0.01)
      O   13      [core]2S( 1.60)2p( 4.92)3d( 0.01)
      C   14      [core]2S( 0.78)2p( 2.34)3S( 0.01)3p( 0.03)3d( 0.01)
      O   15      [core]2S( 1.70)2p( 4.86)3d( 0.02)
      C   16      [core]2S( 0.94)2p( 3.20)3p( 0.01)
      C   17      [core]2S( 1.10)2p( 3.56)3p( 0.01)
      C   18      [core]2S( 1.09)2p( 3.57)3p( 0.01)
      C   19      [core]2S( 1.09)2p( 3.57)3p( 0.01)
      H   20            1S( 0.76)
      H   21            1S( 0.79)
      H   22            1S( 0.78)
      H   23            1S( 0.76)
      H   24            1S( 0.74)
      H   25            1S( 0.76)
      H   26            1S( 0.77)
      H   27            1S( 0.77)
      H   28            1S( 0.77)
      H   29            1S( 0.76)
      H   30            1S( 0.76)
      H   31            1S( 0.76)
      H   32            1S( 0.76)
      H   33            1S( 0.77)
      H   34            1S( 0.76)
      H   35            1S( 0.76)
      H   36            1S( 0.76)
      H   37            1S( 0.76)


 NBO analysis skipped by request.
 Leave Link  607 at Wed Sep 29 16:45:23 2021, MaxMem= 1610612736 cpu:      27.2
 (Enter /sw/target/amd/app/gaussian/Gaussian09RevA.02_gcc-4.9.2/g09/l9999.exe)
 1\1\GINC-HERMITE\SP\RTD-B3LYP-FC\6-31G(d)\C16H18O3\JSCHLEINITZ\29-Sep-
 2021\0\\#p TD(NStates=10, Root=1) b3lyp/6-31G* volume pop=NPA density=
 current Geom=AllCheck Guess=Read\\COc1ccc(c2c1cccc2)OC(=O)C(C)(C)C_con
 f_0\\0,1\C,0,2.3026553856,0.8088247944,0.3951165849\O,0,3.5870641862,0
 .5200349628,0.9226160246\C,0,4.1854505933,-0.6518448023,0.5605684228\C
 ,0,3.6228002151,-1.5935001399,-0.2771034116\C,0,4.325292444,-2.7809614
 661,-0.5910154898\C,0,5.5742505889,-3.0071359697,-0.073423731\C,0,6.19
 71804954,-2.0650371227,0.7941578248\C,0,5.4868308223,-0.8658902668,1.1
 20768021\C,0,6.0919921121,0.0799069814,1.9870858734\C,0,7.3468988923,-
 0.1464404768,2.5089181757\C,0,8.0498726255,-1.329518111,2.185543822\C,
 0,7.4880370275,-2.2682051766,1.3485810244\O,0,6.2644927731,-4.20182805
 64,-0.3060996532\C,0,6.516895723,-4.6170482072,-1.5919542932\O,0,6.188
 411624,-3.9939532706,-2.5715231812\C,0,7.2384625105,-5.9697369174,-1.5
 905466454\C,0,6.2989861045,-7.0257038022,-0.963939646\C,0,7.5668414931
 ,-6.3483529424,-3.0434500253\C,0,8.5373193742,-5.8706632439,-0.7611287
 938\H,0,2.0235780894,1.7824107865,0.8020306683\H,0,1.5629283202,0.0590
 455869,0.7054176749\H,0,2.3225360281,0.8638712595,-0.7011545189\H,0,2.
 6403244344,-1.4438828805,-0.7081773673\H,0,3.8719492479,-3.5099581025,
 -1.2521825415\H,0,5.546124978,0.9847396512,2.2287283369\H,0,7.79947662
 58,0.5863843201,3.1713997011\H,0,9.0399288796,-1.4988515255,2.60061382
 4\H,0,8.0243282057,-3.1770654511,1.1000133254\H,0,5.3671778292,-7.1154
 197524,-1.534437481\H,0,6.0466654954,-6.771622718,0.0695196834\H,0,6.7
 903858128,-8.0056397862,-0.9685731714\H,0,6.6595457516,-6.414788816,-3
 .6508296935\H,0,8.0740780837,-7.3194309813,-3.0677280112\H,0,8.2212299
 435,-5.6045905458,-3.5085186637\H,0,8.3268969917,-5.6376767538,0.28637
 46984\H,0,9.206153336,-5.0991736022,-1.1601295923\H,0,9.0709688866,-6.
 8274186951,-0.7981327747\\Version=AM64L-G09RevA.02\State=1-A\HF=-846.2
 322483\RMSD=8.729e-09\Dipole=-1.3519171,-0.1739185,-0.1268051\Quadrupo
 le=8.1543937,4.4231768,-12.5775704,-10.9506244,0.6265326,0.594526\PG=C
 01 [X(C16H18O3)]\\@


 IN THE UNIVERSE THE DIFFICULT THINGS ARE DONE AS IF THEY WERE EASY.

                                                          -- LAO-TSU
 Job cpu time:  0 days  6 hours 32 minutes 17.4 seconds.
 File lengths (MBytes):  RWF=    340 Int=      0 D2E=      0 Chk=     47 Scr=      1
 Normal termination of Gaussian 09 at Wed Sep 29 16:45:31 2021.
